Membrane in water
40155
    1TCq1    O1    1   2.961   2.119  11.183  0.3595  0.1247 -0.9507
    1TCq1    C1    2   2.854   2.042  11.194  0.4431  0.1238  0.1484
    1TCq1    O2    3   2.851   1.935  11.255 -0.3802 -0.1270 -0.6619
    1TCq1    C2    4   2.749   2.135  11.196 -0.3802 -0.6379 -0.0520
    1TCq1    C3    5   2.759   2.233  11.106  0.1978  0.4804  0.2138
    1TCq1    C4    6   2.696   2.349  11.134 -0.5946  0.0520  0.3455
    1TCq1    C5    7   2.618   2.361  11.249  0.5431  0.9831 -0.1745
    1TCq1    C6    8   2.612   2.254  11.338 -0.1327  0.1193  0.1817
    1TCq1    C7    9   2.679   2.138  11.309  0.0743  0.9820 -0.0888
    1TCq1    C8   10   2.564   2.280  11.478 -0.3328  0.2358  0.1859
    1TCq1    O4   11   2.554   2.395  11.512 -0.2932  0.1159  0.2646
    1TCq1    C9   12   2.714   2.470  11.054 -0.2273  1.2768  0.0697
    1TCq1    O5   13   2.656   2.577  11.093 -0.1492 -0.5937 -0.4343
    1TCq1    O6   14   2.808   2.456  10.968  0.1301  0.4467  0.3061
    1TCq1    H1   15   2.941   2.214  11.166  1.1154  0.7102  1.3721
    1TCq1    H2   16   2.807   2.221  11.010  0.0360  0.0617  0.1859
    1TCq1    H3   17   2.570   2.453  11.279 -0.0819 -0.0271  1.9630
    1TCq1    H4   18   2.703   2.066  11.387 -0.9638  1.9817  1.1523
    2MPD2     C   19   2.459   2.101  11.961  0.8884 -0.6908 -0.7215
    2MPD2    C1   20   2.500   2.221  11.917  0.7000 -0.5509 -0.6970
    2MPD2    C2   21   2.525   2.248  11.782  0.1157 -0.8101 -0.3571
    2MPD2    C3   22   2.519   2.147  11.684  0.1441  0.2568 -0.4939
    2MPD2    C4   23   2.478   2.027  11.731 -0.0519  0.4597  0.6289
    2MPD2    C5   24   2.447   2.002  11.862 -0.5409  0.5733 -0.4984
    2MPD2     H   25   2.558   2.349  11.759 -1.6606  0.1820  1.4374
    2MPD2    H1   26   2.448   1.958  11.653 -0.2389  0.7778  0.4187
    2MPD2    H2   27   2.446   2.082  12.067 -2.8083  0.2509 -1.0053
    2MPD2    H3   28   2.404   1.907  11.890 -0.0286  0.8195  1.1609
    2MPD2     N   29   2.544   2.164  11.545 -0.2804 -0.4174  0.0577
    2MPD2    H5   30   2.555   2.074  11.500  0.4844  0.4309 -1.4775
    2MPD2    N1   31   2.524   2.328  12.002 -0.2834  0.2321  0.0951
    2MPD2    H7   32   2.539   2.422  11.965 -0.9681  0.4453  0.3588
    3TCq1    O1   33   2.256   4.285  10.310 -0.5365  0.0116  0.2918
    3TCq1    C1   34   2.161   4.285  10.408 -0.0680  0.1934  0.2109
    3TCq1    O2   35   2.126   4.386  10.459 -0.0698  0.0686 -0.0464
    3TCq1    C2   36   2.148   4.157  10.471 -0.2532  0.2949  0.4903
    3TCq1    C3   37   2.214   4.048  10.420  0.0552  0.1817  0.2726
    3TCq1    C4   38   2.204   3.931  10.490 -0.3543  0.2438  0.1256
    3TCq1    C5   39   2.122   3.916  10.595 -0.2283  0.2810 -0.5657
    3TCq1    C6   40   2.070   4.028  10.648  0.5012 -0.5279 -0.2913
    3TCq1    C7   41   2.070   4.152  10.587 -0.5159 -0.5410  0.3048
    3TCq1    C8   42   2.003   4.010  10.780 -0.0828  0.2880 -0.0666
    3TCq1    O4   43   1.975   3.900  10.811  0.0290 -0.4811 -0.4762
    3TCq1    C9   44   2.293   3.823  10.462 -0.2277  0.3532 -0.1613
    3TCq1    O5   45   2.268   3.715  10.515  0.1170  0.2388 -0.4046
    3TCq1    O6   46   2.384   3.845  10.381  0.0301 -0.3544  0.0283
    3TCq1    H1   47   2.233   4.219  10.241  0.1625 -1.1902  1.2190
    3TCq1    H2   48   2.286   4.052  10.338 -1.9796 -0.5215 -1.5664
    3TCq1    H3   49   2.109   3.820  10.643  2.5170 -1.1680 -2.7433
    3TCq1    H4   50   2.013   4.233  10.631  0.2323 -0.0648  0.3881
    4MPD2     C   51   1.821   4.168  11.243  0.4924  0.1020  0.0449
    4MPD2    C1   52   1.873   4.276  11.167  0.1711 -0.1581  0.2467
    4MPD2    C2   53   1.935   4.255  11.050  0.3616 -0.1473 -0.6094
    4MPD2    C3   54   1.936   4.132  10.987 -0.6919 -0.9281  0.8353
    4MPD2    C4   55   1.890   4.030  11.058 -0.2895  0.1447 -0.2940
    4MPD2    C5   56   1.834   4.047  11.182 -0.4777  0.4418 -0.2144
    4MPD2     H   57   1.966   4.341  10.992 -0.3206 -0.2310 -1.1020
    4MPD2    H1   58   1.898   3.928  11.023  1.0862  0.3184 -0.4899
    4MPD2    H2   59   1.767   4.175  11.337  1.3239  0.1595  0.5130
    4MPD2    H3   60   1.797   3.954  11.224  0.2918 -0.9076 -2.4992
    4MPD2     N   61   1.986   4.126  10.855  0.8483  0.1372  0.2343
    4MPD2    H5   62   2.027   4.207  10.810 -1.1249  0.8491 -0.3144
    4MPD2    N1   63   1.851   4.413  11.195 -0.8445 -0.0680  0.0409
    4MPD2    H7   64   1.879   4.484  11.128 -0.4882 -1.9522 -1.7708
    5TCq1    O1   65   2.024   1.439   9.963  0.1354  0.0490  0.1103
    5TCq1    C1   66   2.060   1.335   9.891 -0.2084 -0.5419 -0.3506
    5TCq1    O2   67   2.001   1.315   9.786 -0.0413  0.3400 -0.0397
    5TCq1    C2   68   2.208   1.351   9.900  0.0230 -0.0012 -0.2024
    5TCq1    C3   69   2.257   1.423   9.793  0.6020 -0.1455 -0.3029
    5TCq1    C4   70   2.391   1.447   9.801 -0.3097  0.0652 -0.0864
    5TCq1    C5   71   2.469   1.390   9.902 -0.4995 -0.3917 -0.4169
    5TCq1    C6   72   2.418   1.311   9.998  0.0930  0.3566  0.1121
    5TCq1    C7   73   2.277   1.296  10.004  0.3936  1.3338  0.4349
    5TCq1    C8   74   2.490   1.214  10.069 -0.3553 -0.2439  0.1763
    5TCq1    O4   75   2.430   1.147  10.153  0.5186  0.1403  0.2087
    5TCq1    C9   76   2.449   1.542   9.709  0.7471  0.2253 -0.4022
    5TCq1    O5   77   2.371   1.611   9.636  0.4760 -0.0698 -0.0983
    5TCq1    O6   78   2.574   1.567   9.732  0.8262 -0.0324  0.4648
    5TCq1    H1   79   2.083   1.477  10.032  0.5615  0.2688 -0.3832
    5TCq1    H2   80   2.186   1.457   9.718 -1.6282  1.6041  2.6212
    5TCq1    H3   81   2.574   1.416   9.909  0.0382 -2.7934  0.4850
    5TCq1    H4   82   2.224   1.229  10.071  0.8668 -0.4812 -0.9835
    6MPD2     C   83   2.829   1.103  10.002  0.4222 -0.7556  0.2987
    6MPD2    C1   84   2.707   1.098  10.060  0.2046 -0.0495 -0.4010
    6MPD2    C2   85   2.677   0.999  10.159 -0.0280 -0.1908 -0.6786
    6MPD2    C3   86   2.774   0.903  10.183 -0.3406 -0.4880  0.4028
    6MPD2    C4   87   2.895   0.904  10.108 -0.3370 -0.8848 -0.1596
    6MPD2    C5   88   2.918   1.000  10.013  0.2764  0.8851  0.3474
    6MPD2     H   89   2.578   0.989  10.201  0.0316  0.5565 -0.3640
    6MPD2    H1   90   2.982   0.842  10.127  1.8838  2.0027 -0.8205
    6MPD2    H2   91   2.855   1.192   9.945 -1.4599  0.9307  2.0306
    6MPD2    H3   92   3.011   0.999   9.957 -0.3548  0.3743 -0.6799
    6MPD2     N   93   2.748   0.807  10.279  0.2463 -0.5849  0.3780
    6MPD2    H5   94   2.652   0.811  10.314  0.5444  1.3254  0.9626
    6MPD2    N1   95   2.616   1.197  10.015 -0.2823 -0.3226 -0.2049
    6MPD2    H7   96   2.637   1.256   9.935 -2.8255 -1.0418 -1.4173
    7TCq1    O1   97   0.701   0.286  13.139  0.0201 -0.2865  0.7250
    7TCq1    C1   98   0.627   0.204  13.222  0.2424 -0.3332 -0.2790
    7TCq1    O2   99   0.656   0.090  13.239 -0.3580  0.4523  0.3876
    7TCq1    C2  100   0.494   0.241  13.176 -0.4392  0.0602 -0.6374
    7TCq1    C3  101   0.441   0.364  13.179  0.4889 -0.2121  0.4230
    7TCq1    C4  102   0.309   0.386  13.151  0.6849 -0.1567 -0.1301
    7TCq1    C5  103   0.232   0.277  13.112  0.3020  0.2810  0.3428
    7TCq1    C6  104   0.283   0.156  13.109 -0.2159  0.7342  0.3849
    7TCq1    C7  105   0.415   0.135  13.139 -0.1362  0.4728  0.7671
    7TCq1    C8  106   0.197   0.043  13.127  0.0481  0.4075  0.4372
    7TCq1    O4  107   0.243   4.675  13.195 -0.7466  0.1939 -0.4133
    7TCq1    C9  108   0.247   0.503  13.191 -0.0538  0.6220  0.1543
    7TCq1    O5  109   0.120   0.516  13.179  0.0527  0.2221  0.0845
    7TCq1    O6  110   0.321   0.585  13.256  0.8240  0.1773  0.1032
    7TCq1    H1  111   0.646   0.364  13.117 -0.0989 -0.3943  0.6336
    7TCq1    H2  112   0.504   0.446  13.212  2.9567 -2.2060  0.6567
    7TCq1    H3  113   0.126   0.301  13.104  1.0341  2.2425 -3.4840
    7TCq1    H4  114   0.457   0.035  13.126  0.9957  0.6922  2.8516
    8MPD2     C  115   4.486   4.486  13.072  0.3588  0.5380  0.5315
    8MPD2    C1  116   4.601   4.468  13.149 -0.1096  0.9201 -0.3960
    8MPD2    C2  117   4.702   4.556  13.138  0.2925 -0.3710 -0.4493
    8MPD2    C3  118   4.690   4.675  13.076 -0.5340  0.3035 -0.3921
    8MPD2    C4  119   4.573   4.700  13.011  0.0773  0.2431  0.5649
    8MPD2    C5  120   4.479   4.604  13.001  0.2797  0.3471  0.0199
    8MPD2     H  121   0.076   4.542  13.188 -0.4388  1.0832  1.3445
    8MPD2    H1  122   4.553   0.074  12.965 -1.3333  0.1301  0.9370
    8MPD2    H2  123   4.407   4.413  13.069  0.7753  0.0901  0.4250
    8MPD2    H3  124   4.384   4.621  12.953 -0.2139 -2.1834  0.1095
    8MPD2     N  125   0.068   0.058  13.083  0.0720 -0.0434  0.8844
    8MPD2    H5  126   0.041   0.149  13.048 -0.1991 -0.2944  0.4500
    8MPD2    N1  127   4.618   4.351  13.228 -0.5773  0.4626  0.0622
    8MPD2    H7  128   4.537   4.290  13.222  0.2449 -0.6475  0.2038
    9TCq1    O1  129   2.764   4.275  10.813  0.0847  0.1060  0.1365
    9TCq1    C1  130   2.844   4.175  10.862  0.1963 -0.4555 -0.2675
    9TCq1    O2  131   2.888   4.084  10.789  0.9012  0.1178  0.0400
    9TCq1    C2  132   2.780   4.129  10.982 -0.8020 -0.0641 -0.1238
    9TCq1    C3  133   2.757   4.220  11.081 -0.2111  0.1915 -0.0472
    9TCq1    C4  134   2.680   4.190  11.190 -0.4178 -0.0899  0.1024
    9TCq1    C5  135   2.624   4.067  11.204 -0.6514  0.3824  0.2975
    9TCq1    C6  136   2.645   3.975  11.096  0.1213 -0.0521 -0.0396
    9TCq1    C7  137   2.729   4.006  10.993 -0.6350 -0.4467 -0.3843
    9TCq1    C8  138   2.609   3.836  11.117  0.2368 -0.0719  0.5950
    9TCq1    O4  139   2.637   3.759  11.029  0.4401 -0.2272 -0.1024
    9TCq1    C9  140   2.676   4.284  11.298 -0.4433 -0.4762  0.3666
    9TCq1    O5  141   2.708   4.402  11.277  0.3705 -0.0420 -0.2180
    9TCq1    O6  142   2.655   4.237  11.411  0.0441  0.6058  0.1110
    9TCq1    H1  143   2.700   4.309  10.880  0.3159  3.0556 -1.1175
    9TCq1    H2  144   2.807   4.316  11.087 -0.4254  0.1242  3.1097
    9TCq1    H3  145   2.554   4.056  11.286 -1.3171  0.1188 -0.3040
    9TCq1    H4  146   2.746   3.930  10.917  2.4056  1.8864 -2.0664
   10MPD2     C  147   2.549   3.559  11.237  0.1210 -0.1459  0.3105
   10MPD2    C1  148   2.544   3.679  11.308 -0.4423  0.3351 -0.6027
   10MPD2    C2  149   2.519   3.670  11.444 -0.3464  0.1235 -0.0075
   10MPD2    C3  150   2.504   3.550  11.508  0.2571  0.8590 -0.0536
   10MPD2    C4  151   2.479   3.438  11.433  0.5277  0.0649  0.4277
   10MPD2    C5  152   2.502   3.447  11.302  0.1190  0.5765 -0.0949
   10MPD2     H  153   2.509   3.765  11.494 -0.4193 -1.6210  3.2688
   10MPD2    H1  154   2.438   3.346  11.473 -0.4836 -0.8335 -2.7156
   10MPD2    H2  155   2.574   3.551  11.132 -2.7049  0.5143 -0.4055
   10MPD2    H3  156   2.492   3.352  11.250 -1.6909  0.3067  0.7390
   10MPD2     N  157   2.484   3.535  11.647 -0.5985  0.0288  0.1023
   10MPD2    H5  158   2.491   3.443  11.688  2.0168  0.9168  1.6433
   10MPD2    N1  159   2.568   3.809  11.246  0.2910  0.0152  0.2026
   10MPD2    H7  160   2.570   3.892  11.306  3.1218 -0.3874  0.6422
   11TCq1    O1  161   4.007   3.298  14.224 -0.1147 -0.2908  0.2240
   11TCq1    C1  162   3.887   3.309  14.163  0.0016 -0.4932 -0.3853
   11TCq1    O2  163   3.832   3.217  14.104 -0.4523 -0.3991 -0.1386
   11TCq1    C2  164   3.802   3.388  14.252 -0.0593 -0.4463  0.3150
   11TCq1    C3  165   3.852   3.413  14.382 -0.4123 -0.3860  0.1767
   11TCq1    C4  166   3.761   3.416  14.482  0.3742  0.2608  0.3652
   11TCq1    C5  167   3.636   3.370  14.464  0.4367  0.0186 -0.2305
   11TCq1    C6  168   3.590   3.343  14.334  0.1269 -0.3619 -0.9414
   11TCq1    C7  169   3.669   3.355  14.227  0.0030 -0.0749  0.0525
   11TCq1    C8  170   3.452   3.305  14.318 -0.1479  0.2072 -0.0673
   11TCq1    O4  171   3.411   3.251  14.421 -0.3094  0.0053 -0.2275
   11TCq1    C9  172   3.799   3.448  14.620 -0.2375  0.4994 -0.5505
   11TCq1    O5  173   3.923   3.452  14.646 -0.2158  0.1094 -0.5876
   11TCq1    O6  174   3.706   3.507  14.687 -0.9175  0.1575  0.3887
   11TCq1    H1  175   4.047   3.386  14.244  1.1149 -0.5544 -1.0747
   11TCq1    H2  176   3.952   3.447  14.405  1.5724 -5.5351 -0.8103
   11TCq1    H3  177   3.570   3.373  14.549  0.5058  2.2777 -0.2498
   11TCq1    H4  178   3.648   3.343  14.121  0.4033  0.6591 -0.1146
   12MPD2     C  179   3.177   3.254  14.248 -0.3061 -0.2539  0.0675
   12MPD2    C1  180   3.281   3.257  14.152  0.2945  0.4657  0.1589
   12MPD2    C2  181   3.257   3.227  14.021 -0.5896  0.4469 -0.2754
   12MPD2    C3  182   3.122   3.197  13.986 -0.1002  0.2021  0.4451
   12MPD2    C4  183   3.027   3.204  14.076 -0.1023 -0.1265 -0.2225
   12MPD2    C5  184   3.052   3.238  14.200  0.1000 -0.2051  0.1602
   12MPD2     H  185   3.335   3.226  13.946  0.9876  1.9553  1.3505
   12MPD2    H1  186   2.924   3.180  14.056  0.0678 -1.7554  0.9227
   12MPD2    H2  187   3.188   3.273  14.354  0.8275  1.4532 -0.3538
   12MPD2    H3  188   2.966   3.242  14.266  0.9554  1.0123  1.1895
   12MPD2     N  189   3.085   3.156  13.856  0.7535 -0.0646  0.6075
   12MPD2    H5  190   2.988   3.129  13.849  1.2802 -1.7313 -0.1033
   12MPD2    N1  191   3.407   3.304  14.185 -0.0764  0.2298  0.1932
   12MPD2    H7  192   3.470   3.342  14.115 -1.5446  1.4411 -0.4735
   13TCq1    O1  193   1.785   4.001  10.056  0.2974 -0.5674 -0.1987
   13TCq1    C1  194   1.795   4.007  10.191 -0.3789  0.0879  0.7115
   13TCq1    O2  195   1.743   4.085  10.270  1.0040 -0.4165  0.1975
   13TCq1    C2  196   1.869   3.896  10.239  0.4695  0.9960 -0.2363
   13TCq1    C3  197   1.989   3.854  10.180 -0.1735  0.2851 -0.2492
   13TCq1    C4  198   2.050   3.741  10.234 -0.2896 -0.7316  0.5391
   13TCq1    C5  199   2.011   3.684  10.356  0.2534 -0.4212 -0.6697
   13TCq1    C6  200   1.899   3.740  10.413  0.1930 -0.6707  0.1737
   13TCq1    C7  201   1.827   3.841  10.357  0.1706 -0.5319 -0.1611
   13TCq1    C8  202   1.859   3.683  10.534 -0.4383 -0.0554  0.6009
   13TCq1    O4  203   1.928   3.595  10.586 -0.1660 -0.2702  0.4630
   13TCq1    C9  204   2.166   3.679  10.177 -0.0353  0.0309 -0.5515
   13TCq1    O5  205   2.201   3.565  10.219 -0.5885 -0.0490  0.2917
   13TCq1    O6  206   2.230   3.749  10.096  0.2567  0.2669 -0.4285
   13TCq1    H1  207   1.806   3.913  10.020  0.9376 -0.7779  0.6884
   13TCq1    H2  208   2.017   3.895  10.084 -1.1404 -0.2418 -0.7630
   13TCq1    H3  209   2.069   3.610  10.409  0.1550 -1.3426 -1.8540
   13TCq1    H4  210   1.754   3.903  10.408  1.4094  0.0095  0.9378
   14MPD2     C  211   1.527   3.702  10.701 -0.9963 -0.2545  0.5575
   14MPD2    C1  212   1.667   3.698  10.689 -0.2184 -0.3172  0.4417
   14MPD2    C2  213   1.743   3.667  10.805  0.3217 -0.5705  0.1345
   14MPD2    C3  214   1.679   3.656  10.927 -0.0651 -0.4010 -0.3724
   14MPD2    C4  215   1.543   3.658  10.933  0.0693 -0.2966  0.0623
   14MPD2    C5  216   1.472   3.677  10.819 -0.5789  0.6397  0.2119
   14MPD2     H  217   1.850   3.655  10.805  0.2764 -0.9346 -1.1152
   14MPD2    H1  218   1.482   3.634  11.019  1.0123  0.1851  0.8668
   14MPD2    H2  219   1.460   3.716  10.617  0.9116  0.0718 -0.9163
   14MPD2    H3  220   1.369   3.645  10.808 -0.0499 -1.1925  0.7035
   14MPD2     N  221   1.757   3.639  11.038 -0.3892 -0.0796  0.1050
   14MPD2    H5  222   1.857   3.643  11.022 -0.6664 -0.5684 -1.6859
   14MPD2    N1  223   1.729   3.714  10.563  0.0639 -0.5117  0.2431
   14MPD2    H7  224   1.673   3.746  10.484  2.1446  1.3607 -0.4883
   15TCq1    O1  225   3.713   1.985   1.222 -0.0478 -0.1767 -0.1605
   15TCq1    C1  226   3.691   1.936   1.343  0.2556  0.4247 -0.0280
   15TCq1    O2  227   3.589   1.948   1.410 -0.3288  0.0255  0.5438
   15TCq1    C2  228   3.819   1.911   1.405 -0.6155  0.2852  0.3582
   15TCq1    C3  229   3.835   1.980   1.519 -0.4904  0.2915  0.4501
   15TCq1    C4  230   3.964   2.005   1.556 -0.4020 -0.0407  0.0146
   15TCq1    C5  231   4.074   1.963   1.482  0.2400  0.3331 -0.3137
   15TCq1    C6  232   4.053   1.897   1.364  0.1070 -0.2478  0.3853
   15TCq1    C7  233   3.922   1.877   1.321 -0.2116 -0.3495 -0.2617
   15TCq1    C8  234   4.157   1.824   1.299  0.1425  0.3698 -0.2609
   15TCq1    O4  235   4.266   1.830   1.358  0.2082  0.7703 -0.6705
   15TCq1    C9  236   3.990   2.072   1.681 -0.0594  0.3941  0.0825
   15TCq1    O5  237   3.888   2.110   1.745  0.3938  0.5276  0.1304
   15TCq1    O6  238   4.111   2.096   1.710 -0.1978 -0.0143  0.1104
   15TCq1    H1  239   3.808   1.983   1.197  0.3049 -1.3103  1.3213
   15TCq1    H2  240   3.745   2.005   1.575 -0.8701 -0.7388  0.2908
   15TCq1    H3  241   4.176   1.976   1.515  0.6650 -2.9654 -0.3026
   15TCq1    H4  242   3.904   1.807   1.240  1.0088  1.0485 -1.7471
   16MPD2     C  243   4.157   1.643   0.970  0.3881 -0.0337  0.1261
   16MPD2    C1  244   4.209   1.695   1.088 -0.2951 -0.0905 -0.3047
   16MPD2    C2  245   4.338   1.660   1.121  0.8562 -0.1133  0.2641
   16MPD2    C3  246   4.425   1.579   1.045 -0.3491  0.6711  0.3516
   16MPD2    C4  247   4.371   1.532   0.924 -0.6388 -0.6347 -0.0990
   16MPD2    C5  248   4.239   1.562   0.894  0.2249  0.1875 -0.4223
   16MPD2     H  249   4.383   1.711   1.205  0.2895 -0.5257  0.8184
   16MPD2    H1  250   4.424   1.473   0.850  0.7675 -1.7638  1.7825
   16MPD2    H2  251   4.061   1.655   0.920 -0.8030 -1.1655  2.1536
   16MPD2    H3  252   4.201   1.523   0.800 -1.7506  1.0876 -0.0007
   16MPD2     N  253   4.560   1.554   1.085  0.5320 -0.3990  0.4563
   16MPD2    H5  254   4.587   1.605   1.168 -0.2277 -0.4766  0.7438
   16MPD2    N1  255   4.125   1.772   1.173 -0.1676  0.6806  0.2285
   16MPD2    H7  256   4.030   1.786   1.140  0.3281  1.8764 -0.6686
   17TCq1    O1  257   2.332   3.202  10.214 -0.1982 -0.0739 -0.8615
   17TCq1    C1  258   2.406   3.167  10.110  0.1095 -0.5919  0.0721
   17TCq1    O2  259   2.399   3.062  10.055  0.2588 -0.0321 -0.1575
   17TCq1    C2  260   2.525   3.253  10.133 -0.4271  0.1038  0.4411
   17TCq1    C3  261   2.527   3.388  10.143  0.3047  0.5097 -0.1627
   17TCq1    C4  262   2.638   3.459  10.192 -0.3520 -0.0042  0.3670
   17TCq1    C5  263   2.751   3.394  10.213 -0.3837  0.3368 -0.3054
   17TCq1    C6  264   2.748   3.257  10.203  0.3169  0.1437 -0.3736
   17TCq1    C7  265   2.640   3.188  10.164  0.4832  0.0705 -0.2503
   17TCq1    C8  266   2.867   3.192  10.269  0.9883 -0.7373  0.0803
   17TCq1    O4  267   2.934   3.262  10.346 -0.1574  0.2053 -0.3642
   17TCq1    C9  268   2.626   3.589  10.244  0.3740  0.0255 -0.1836
   17TCq1    O5  269   2.729   3.635  10.299 -0.3491  0.3606  0.2797
   17TCq1    O6  270   2.509   3.641  10.246  0.1103  0.3050  0.0034
   17TCq1    H1  271   2.373   3.260  10.280 -1.9351 -1.3502  1.3561
   17TCq1    H2  272   2.427   3.430  10.146  0.8772  1.9322 -0.7003
   17TCq1    H3  273   2.836   3.447  10.255  0.5691 -0.3857 -1.3644
   17TCq1    H4  274   2.644   3.080  10.171 -0.5590 -0.1327 -3.1091
   18MPD2     C  275   3.030   2.990  10.399 -0.2488 -0.5709  0.0829
   18MPD2    C1  276   2.985   2.978  10.265 -0.0113 -0.5218 -0.7137
   18MPD2    C2  277   3.033   2.882  10.184  0.7567 -0.0909 -0.2225
   18MPD2    C3  278   3.130   2.794  10.231  0.0024  0.1569  0.0367
   18MPD2    C4  279   3.168   2.802  10.366 -0.3037 -0.0787  0.3932
   18MPD2    C5  280   3.120   2.899  10.448 -0.3786  0.0503 -0.0065
   18MPD2     H  281   3.001   2.874  10.081  1.0324  0.6286 -0.3684
   18MPD2    H1  282   3.229   2.718  10.397 -1.9009 -1.1481  0.6970
   18MPD2    H2  283   2.998   3.071  10.462  0.8770 -1.2977  1.5961
   18MPD2    H3  284   3.153   2.889  10.551 -0.6419 -0.1747  0.0579
   18MPD2     N  285   3.201   2.700  10.152 -0.1964 -0.1348 -0.1753
   18MPD2    H5  286   3.274   2.646  10.197  0.9522  0.9529 -0.7388
   18MPD2    N1  287   2.895   3.068  10.215  0.1004  0.1995  0.1315
   18MPD2    H7  288   2.849   3.040  10.129 -0.6666  0.0176  0.5989
   19TMC2    C1  289   4.274   2.948  14.309  0.4225 -0.2902 -0.3434
   19TMC2    C2  290   4.296   3.053  14.225  0.2512 -0.4805  0.6822
   19TMC2    C3  291   4.197   3.074  14.135 -0.0846  0.6490  0.6286
   19TMC2    C4  292   4.159   2.871  14.304  0.1082 -0.1669 -0.7570
   19TMC2    C5  293   4.060   2.915  14.219  0.2261  0.1874  0.4007
   19TMC2    C6  294   4.073   3.019  14.132  0.1799 -0.2199  0.0532
   19TMC2     C  295   4.379   2.929  14.408  0.8501 -0.3307  0.3096
   19TMC2     O  296   4.470   3.010  14.403  0.0862 -0.3265  0.3733
   19TMC2     H  297   4.390   3.107  14.221  0.7654 -1.4009  0.4132
   19TMC2    H1  298   4.126   2.801  14.379  0.3282  0.2483 -0.2759
   19TMC2    H2  299   4.012   3.041  14.046 -2.8395  0.5741  2.4028
   19TMC2    C7  300   3.935   2.847  14.217 -0.1762  0.5051  0.3212
   19TMC2    C8  301   4.239   3.160  14.026 -0.8148  0.3879 -0.1900
   19TMC2    O1  302   3.927   2.727  14.254  0.3598 -0.1850  0.2301
   19TMC2    O2  303   4.192   3.153  13.913  0.7555 -0.7231 -0.3705
   19TMC2    O5  304   4.270   3.278  14.081 -0.3326 -0.3165  0.3320
   19TMC2    H5  305   4.278   3.275  14.179 -0.7552  0.5958  0.3959
   20MPD2     C  306   4.586   2.834  14.593 -0.0895  0.0223  0.5852
   20MPD2    C1  307   4.459   2.788  14.600 -0.1089  0.8668  0.0733
   20MPD2    C2  308   4.422   2.689  14.691  0.4725  0.3083  0.0517
   20MPD2    C3  309   4.512   2.658  14.789  0.7621  0.8063 -0.0853
   20MPD2    C4  310   4.648   2.702  14.778  0.1087 -0.2938  0.0381
   20MPD2    C5  311   4.681   2.794  14.686  0.3271  0.4009 -0.3275
   20MPD2     H  312   4.319   2.657  14.695  0.6063  0.1202  2.0157
   20MPD2    H1  313   4.719   2.670  14.854 -1.9140  0.2364  2.1551
   20MPD2    H2  314   4.622   2.904  14.519 -3.0473 -1.1542 -1.9778
   20MPD2    H3  315   0.061   2.829  14.675  0.3686  0.3450 -0.1101
   20MPD2     N  316   4.489   2.566  14.900  0.1002 -0.6908  0.2761
   20MPD2    H5  317   4.569   2.555  14.961  1.2090 -0.8434 -1.1801
   20MPD2    N1  318   4.359   2.830  14.504  0.4077  0.4035 -0.1418
   20MPD2    H7  319   4.275   2.773  14.512 -1.5233  2.9004 -2.4264
   21MPD2     C  320   1.784   3.241  13.938 -0.0171  0.6949 -0.2474
   21MPD2    C1  321   1.825   3.191  14.062 -1.0937  0.0466 -0.1950
   21MPD2    C2  322   1.751   3.211  14.180  0.3776  0.0953  0.0338
   21MPD2    C3  323   1.631   3.283  14.170 -0.1823 -0.3137 -0.0110
   21MPD2    C4  324   1.587   3.315  14.042 -0.5925  0.2122 -0.0629
   21MPD2    C5  325   1.666   3.302  13.930  0.4675  0.4855 -0.3653
   21MPD2     H  326   1.788   3.194  14.280 -1.2968 -1.0026  0.4619
   21MPD2    H1  327   1.498   3.375  14.029 -0.0873  0.5348 -2.0282
   21MPD2    H2  328   1.840   3.233  13.846  0.4945 -0.5835  0.1742
   21MPD2    H3  329   1.629   3.339  13.835 -0.4026  0.6143  0.0208
   21MPD2     N  330   1.560   3.327  14.285  0.9578  0.9943  0.6045
   21MPD2    H5  331   1.482   3.388  14.261  0.6639  1.1148  1.8944
   21MPD2    N1  332   1.951   3.140  14.082  0.7012 -0.4109  0.4765
   21MPD2    H7  333   1.975   3.119  14.178 -0.1740  1.2491  1.0701
   22TCq2    C1  334   1.569   3.278  14.416 -0.0357  0.0670 -0.4798
   22TCq2    O2  335   1.659   3.205  14.455  0.1608 -0.6558  0.1736
   22TCq2    C2  336   1.454   3.319  14.502 -0.1334  0.1315  0.1031
   22TCq2    C3  337   1.472   3.294  14.642  0.0925  0.3455 -0.0808
   22TCq2    C4  338   1.384   3.355  14.738 -0.2172 -0.2088 -0.0591
   22TCq2    C5  339   1.278   3.427  14.696  0.2228 -0.1582 -0.0628
   22TCq2    C6  340   1.277   3.459  14.564  0.8276 -0.0571  0.6531
   22TCq2    C7  341   1.354   3.406  14.463  0.3893 -0.4073 -0.1499
   22TCq2    C8  342   1.218   3.594  14.530 -0.0261  0.3630  0.0781
   22TCq2    O4  343   1.162   3.619  14.425  0.2105  0.0476  0.3152
   22TCq2    C9  344   1.421   3.348  14.878  0.3857  0.3147 -0.3944
   22TCq2    O5  345   1.336   3.395  14.954 -0.2386 -0.2209  0.1637
   22TCq2    O6  346   1.533   3.295  14.903  0.3814  0.3683 -0.1983
   22TCq2    H2  347   1.556   3.233  14.673 -0.4926  0.1225  1.0675
   22TCq2    H3  348   1.218   3.464  14.778  1.8019  0.8658  0.6493
   22TCq2    H4  349   1.340   3.449  14.364  0.6085  1.7537  0.7515
   23MPD2     C  350   3.332   3.960  14.450  0.2232  0.0636  0.5512
   23MPD2    C1  351   3.273   4.025  14.555 -0.2583 -0.4908  0.0112
   23MPD2    C2  352   3.175   4.116  14.525  0.4606  0.3180  0.6886
   23MPD2    C3  353   3.125   4.127  14.404 -0.5187  0.2580  1.2362
   23MPD2    C4  354   3.176   4.059  14.291  0.5336  0.4644 -0.4656
   23MPD2    C5  355   3.277   3.974  14.320 -0.7723  0.1209  0.2438
   23MPD2     H  356   3.132   4.174  14.606 -2.4341 -1.5436  0.4935
   23MPD2    H1  357   3.139   4.072  14.190 -0.3759 -1.9618 -0.4356
   23MPD2    H2  358   3.418   3.897  14.468  0.1309 -1.1831 -3.2814
   23MPD2    H3  359   3.322   3.912  14.243 -0.6504  1.3611 -0.6725
   23MPD2     N  360   3.019   4.221  14.375  0.0132  0.2848 -0.0046
   23MPD2    H5  361   2.984   4.215  14.279  0.3316  2.0652 -0.2315
   23MPD2    N1  362   3.316   4.004  14.690 -0.0482 -0.8050  0.0214
   23MPD2    H7  363   3.272   4.058  14.764 -0.5638 -0.3324 -0.6338
   24TCq2    C1  364   2.985   4.325  14.455 -0.0851 -0.4162 -0.1164
   24TCq2    O2  365   3.039   4.374  14.553 -0.3157  0.8131 -0.0450
   24TCq2    C2  366   2.879   4.404  14.393  0.2768 -0.0557 -0.0928
   24TCq2    C3  367   2.845   4.520  14.455 -0.8073  0.3014 -0.5663
   24TCq2    C4  368   2.736   4.584  14.417  0.3966  0.1535 -0.4174
   24TCq2    C5  369   2.655   4.535  14.321 -0.3374 -0.7773 -0.0310
   24TCq2    C6  370   2.687   4.416  14.261 -0.8529 -0.7779 -0.2780
   24TCq2    C7  371   2.807   4.352  14.286 -0.0433 -0.2997  0.0940
   24TCq2    C8  372   2.596   4.346  14.175  0.4345  0.9024  0.3015
   24TCq2    O4  373   2.626   4.230  14.148  0.4004 -0.4367 -0.8165
   24TCq2    C9  374   2.707   0.004  14.464 -0.4202 -0.5088  0.5870
   24TCq2    O5  375   2.808   0.066  14.498 -0.7849  0.1800  0.1361
   24TCq2    O6  376   2.589   0.041  14.450 -0.0920 -0.6721  0.3095
   24TCq2    H2  377   2.906   4.565  14.532  0.5747 -1.9548 -0.3459
   24TCq2    H3  378   2.562   4.589  14.301  0.0560 -0.3744 -0.8050
   24TCq2    H4  379   2.838   4.263  14.233 -0.3145  0.3708 -1.1980
   25TMC2    C1  380   2.203   2.609  11.498  0.2542 -0.1213 -0.6246
   25TMC2    C2  381   2.326   2.632  11.555  0.3449 -0.4339 -0.2721
   25TMC2    C3  382   2.325   2.610  11.696  0.7052 -0.6466  0.0874
   25TMC2    C4  383   2.087   2.593  11.573 -0.0746 -0.2644 -0.4251
   25TMC2    C5  384   2.098   2.583  11.709  0.4587  0.4923  0.1805
   25TMC2    C6  385   2.221   2.586  11.776 -0.7562  0.2841 -0.6561
   25TMC2     C  386   2.195   2.608  11.350  0.1109  0.3027  0.1915
   25TMC2     O  387   2.299   2.632  11.290  0.0943  0.3297  0.1308
   25TMC2     H  388   2.420   2.623  11.503  0.5611  1.5194 -0.2308
   25TMC2    H1  389   1.985   2.588  11.538  0.3529  1.3508 -1.9447
   25TMC2    H2  390   2.239   2.573  11.882 -2.5292  2.1949 -0.1277
   25TMC2    C7  391   1.989   2.602  11.795 -0.0772  0.0841 -0.1959
   25TMC2    C8  392   2.453   2.620  11.758 -0.1952 -0.2063 -0.7096
   25TMC2    O1  393   2.002   2.569  11.913  0.6782  0.2740  0.0558
   25TMC2    O2  394   2.505   2.554  11.848  0.3668 -0.6770 -0.3022
   25TMC2    O5  395   2.507   2.739  11.717 -0.2579  0.1105  0.5637
   25TMC2    H5  396   2.449   2.796  11.662  0.1687  2.6430  2.7551
   26MPD2     C  397   1.891   2.584  10.912  0.4666  0.0631  0.9669
   26MPD2    C1  398   1.830   2.517  11.016 -0.0650 -0.2496  0.1974
   26MPD2    C2  399   1.895   2.516  11.139 -0.0350  0.6691  0.0595
   26MPD2    C3  400   2.025   2.574  11.164  0.2989 -0.8485 -0.2576
   26MPD2    C4  401   2.082   2.632  11.055 -0.0620  0.3446 -0.3098
   26MPD2    C5  402   2.019   2.633  10.931  0.4600 -0.5724 -0.2704
   26MPD2     H  403   1.829   2.482  11.218 -0.3352 -1.1413 -0.9668
   26MPD2    H1  404   2.179   2.678  11.070 -0.5641  1.6005 -0.9019
   26MPD2    H2  405   1.843   2.611  10.818 -1.1575  0.4815  1.9048
   26MPD2    H3  406   2.064   2.684  10.847 -2.6329 -0.3662 -1.8257
   26MPD2     N  407   2.076   2.567  11.303 -0.9025 -0.0612  0.3511
   26MPD2    H5  408   2.015   2.520  11.369  1.7873 -1.6920  1.6635
   26MPD2    N1  409   1.704   2.451  10.988  0.3625  0.2888  0.2031
   26MPD2    H7  410   1.671   2.469  10.894  1.8368  2.0612  0.0231
   27TMC2    C1  411   0.986   4.362  11.947 -0.1007  0.2284  0.8684
   27TMC2    C2  412   1.115   4.345  11.902 -0.0120  0.3131  0.3169
   27TMC2    C3  413   1.205   4.290  11.989 -0.8100  0.5502 -0.5805
   27TMC2    C4  414   0.948   4.311  12.070  0.1708  0.1803  0.0273
   27TMC2    C5  415   1.045   4.254  12.146 -0.5586 -0.3763  0.2782
   27TMC2    C6  416   1.185   4.248  12.113 -0.6425 -0.8551 -0.6595
   27TMC2     C  417   0.897   4.433  11.862 -0.7542  0.2411 -0.1807
   27TMC2     O  418   0.935   4.504  11.768 -0.0932 -0.2024  0.4389
   27TMC2     H  419   1.153   4.386  11.809 -2.7855  1.2721 -0.3676
   27TMC2    H1  420   0.847   4.325  12.106 -0.4568  1.9278 -2.4540
   27TMC2    H2  421   1.261   4.211  12.180 -1.8296 -1.0895  0.5682
   27TMC2    C7  422   1.009   4.233  12.283 -0.0065  0.1834 -0.0363
   27TMC2    C8  423   1.342   4.306  11.953 -0.2733  0.6720  0.0734
   27TMC2    O1  424   1.063   4.135  12.335 -0.2209 -0.1558 -0.7993
   27TMC2    O2  425   1.367   4.358  11.847  0.0595  0.0614  0.5310
   27TMC2    O5  426   1.401   4.194  12.004 -0.3996  0.0003 -0.0629
   27TMC2    H5  427   1.360   4.141  12.076  0.7880 -0.3607  0.3516
   28MPD2     C  428   0.493   0.015  11.937 -0.2478 -0.6940 -0.1220
   28MPD2    C1  429   0.465   4.614  11.988  0.0985 -0.4540 -0.1319
   28MPD2    C2  430   0.558   4.512  11.973 -0.0093 -0.0092  0.2709
   28MPD2    C3  431   0.671   4.526  11.901 -0.3827 -0.0771 -0.3243
   28MPD2    C4  432   0.698   4.648  11.851 -0.0580  0.6853  0.8707
   28MPD2    C5  433   0.607   0.025  11.859  0.6393 -0.0724 -0.4508
   28MPD2     H  434   0.543   4.420  12.029 -0.1085  0.6383  1.3018
   28MPD2    H1  435   0.789   4.677  11.800  0.7396 -1.3772  1.1217
   28MPD2    H2  436   0.426   0.099  11.949  0.5072 -0.1076 -0.0150
   28MPD2    H3  437   0.617   0.121  11.811  1.4050 -0.0358 -0.2209
   28MPD2     N  438   0.768   4.423  11.903  0.4824 -0.4539  0.5336
   28MPD2    H5  439   0.751   4.340  11.960  0.0629  0.6245  1.9824
   28MPD2    N1  440   0.346   4.602  12.068 -0.1833  0.7879 -0.2167
   28MPD2    H7  441   0.307   4.692  12.093 -1.2645  0.4159 -0.5886
   29MPD2     C  442   0.034   1.670  14.019 -0.5845  1.0683  0.3813
   29MPD2    C1  443   0.106   1.620  14.128 -0.6680  0.2427  0.6535
   29MPD2    C2  444   0.136   1.707  14.230  0.1031 -0.0240  0.5840
   29MPD2    C3  445   0.103   1.840  14.232  0.3366  0.4588 -0.2678
   29MPD2    C4  446   0.038   1.892  14.122  0.1506 -0.6102 -0.1482
   29MPD2    C5  447   0.012   1.810  14.019  0.2959 -0.1900 -0.3172
   29MPD2     H  448   0.192   1.666  14.314  0.3912 -0.6418  0.0842
   29MPD2    H1  449   0.014   1.997  14.117  0.6104 -0.4424  1.0716
   29MPD2    H2  450   0.006   1.607  13.935 -1.6745 -0.1780  1.6997
   29MPD2    H3  451   4.685   1.852  13.931 -0.4382  0.0719  0.2147
   29MPD2     N  452   0.128   1.927  14.338 -0.5065  0.4079 -0.0971
   29MPD2    H5  453   0.102   2.025  14.327 -0.1035  0.5587  0.3060
   29MPD2    N1  454   0.154   1.483  14.133 -0.1366 -0.6265  0.1785
   29MPD2    H7  455   0.201   1.451  14.217  1.1929  0.2391 -0.2487
   30TCq2    C1  456   0.176   1.892  14.461  0.8154 -0.0830  0.3181
   30TCq2    O2  457   0.192   1.778  14.501  0.1816 -0.2017  0.6053
   30TCq2    C2  458   0.224   1.998  14.541 -0.7004  0.8035  0.9670
   30TCq2    C3  459   0.238   1.995  14.678 -0.4585  0.4117  0.1461
   30TCq2    C4  460   0.286   2.105  14.742 -0.3465 -0.3577 -0.1681
   30TCq2    C5  461   0.323   2.215  14.674  0.7920  0.4000 -0.4801
   30TCq2    C6  462   0.334   2.207  14.536  0.9140  0.0066  0.4523
   30TCq2    C7  463   0.279   2.102  14.470  1.0217  0.4314  0.2922
   30TCq2    C8  464   0.452   2.267  14.463  0.2292 -0.0151 -0.0765
   30TCq2    O4  465   0.466   2.241  14.344  0.1413  1.0879  0.1303
   30TCq2    C9  466   0.290   2.102  14.881  0.2440  0.1393  0.7834
   30TCq2    O5  467   0.255   1.994  14.933  0.2919  0.0680  0.2503
   30TCq2    O6  468   0.328   2.211  14.937 -0.0238  0.3127  0.4253
   30TCq2    H2  469   0.208   1.906  14.732  2.4123 -0.4649  0.2872
   30TCq2    H3  470   0.349   2.310  14.719  0.0203  1.5420 -2.4487
   30TCq2    H4  471   0.301   2.089  14.365 -1.4890  0.6194 -0.2713
   31MPD2     C  472   3.546   0.630  14.327 -0.3315 -0.6314 -0.2010
   31MPD2    C1  473   3.420   0.643  14.368 -0.5608  0.6302 -0.5257
   31MPD2    C2  474   3.388   0.560  14.477 -0.2886 -0.5540 -0.0696
   31MPD2    C3  475   3.472   0.466  14.526  0.7569 -0.8110 -0.0071
   31MPD2    C4  476   3.600   0.456  14.480 -0.0966  0.1253  0.1302
   31MPD2    C5  477   3.636   0.544  14.380 -0.3605 -0.1589  0.1057
   31MPD2     H  478   3.290   0.580  14.519 -0.4909 -0.1507 -0.7277
   31MPD2    H1  479   3.671   0.393  14.532  0.2347  1.2996  1.1029
   31MPD2    H2  480   3.584   0.681  14.239 -0.4349 -2.2654 -1.1852
   31MPD2    H3  481   3.738   0.553  14.344 -0.6672  1.7148 -0.2754
   31MPD2     N  482   3.434   0.377  14.628 -0.1133  0.5006  0.4534
   31MPD2    H5  483   3.505   0.307  14.647  0.4694  0.5887 -1.3864
   31MPD2    N1  484   3.332   0.731  14.306 -0.3628 -0.6583 -0.6140
   31MPD2    H7  485   3.362   0.764  14.215  0.0691  2.2853  0.5820
   32TCq2    C1  486   3.317   0.378  14.701 -0.0210  0.0422 -0.3208
   32TCq2    O2  487   3.215   0.444  14.678 -0.7536  0.3363  0.3176
   32TCq2    C2  488   3.304   0.258  14.783 -0.7144  0.9432  0.8172
   32TCq2    C3  489   3.379   0.151  14.749  0.7555 -0.0178  0.6649
   32TCq2    C4  490   3.359   0.036  14.816 -0.8327 -0.2806  0.0742
   32TCq2    C5  491   3.276   0.034  14.920 -0.4317 -0.2535  0.9664
   32TCq2    C6  492   3.202   0.140  14.949  0.4721  0.2055  0.3098
   32TCq2    C7  493   3.210   0.252  14.879 -0.0145  0.0608  0.5570
   32TCq2    C8  494   3.160   0.146  15.085  0.1679 -1.7545 -0.0104
   32TCq2    O4  495   3.227   0.082  15.174 -0.3041 -0.4180 -0.8170
   32TCq2    C9  496   3.438   4.638  14.780  0.1847  0.0316  0.3467
   32TCq2    O5  497   3.433   4.542  14.855  0.3741  0.1794  0.1894
   32TCq2    O6  498   3.468   4.625  14.659 -0.3026  0.0489 -0.1352
   32TCq2    H2  499   3.448   0.149  14.666 -0.4065 -0.8321 -0.2796
   32TCq2    H3  500   3.275   4.664  14.979 -1.0814 -1.3885 -0.7986
   32TCq2    H4  501   3.149   0.337  14.907  1.8710  1.0276  1.7695
   33MPD2     C  502   3.639   2.323   9.412  0.1646  0.3952  0.2496
   33MPD2    C1  503   3.555   2.424   9.451  0.7214 -0.2640  0.5571
   33MPD2    C2  504   3.552   2.540   9.366 -0.6097 -0.5406  0.4735
   33MPD2    C3  505   3.616   2.543   9.248 -0.0123  0.6053 -0.2821
   33MPD2    C4  506   3.697   2.435   9.209 -0.6163  0.1646  0.1519
   33MPD2    C5  507   3.711   2.331   9.293  0.1680 -0.3922 -0.9452
   33MPD2     H  508   3.499   2.630   9.392 -0.3743  0.7376 -3.4166
   33MPD2    H1  509   3.746   2.432   9.112 -1.2978 -0.8484 -0.1665
   33MPD2    H2  510   3.638   2.232   9.471 -1.5351 -0.1706 -0.6251
   33MPD2    H3  511   3.771   2.246   9.260  1.0401 -0.1918  0.1003
   33MPD2     N  512   3.616   2.649   9.155 -0.3697 -0.4444  1.1492
   33MPD2    H5  513   3.669   2.631   9.071  0.7133 -1.9619  2.1426
   33MPD2    N1  514   3.481   2.421   9.578  0.3928  0.2197  0.3823
   33MPD2    H7  515   3.472   2.333   9.628 -1.0840 -0.6446 -1.4522
   34TCq2    C1  516   3.565   2.773   9.178  0.1620 -0.1951 -0.4308
   34TCq2    O2  517   3.500   2.813   9.276 -0.0399  0.1123  0.0425
   34TCq2    C2  518   3.566   2.883   9.070  0.5417 -0.0964  0.8501
   34TCq2    C3  519   3.584   2.865   8.935 -0.0776  0.1376  0.3536
   34TCq2    C4  520   3.628   2.967   8.854  0.5888  0.0306  0.4651
   34TCq2    C5  521   3.653   3.089   8.910  0.1493  0.2316  0.4968
   34TCq2    C6  522   3.618   3.109   9.045 -0.7062  0.0835  0.1146
   34TCq2    C7  523   3.570   3.006   9.118 -0.2602  0.3646 -0.3453
   34TCq2    C8  524   3.610   3.243   9.110 -0.1764 -0.1100  0.9324
   34TCq2    O4  525   3.593   3.251   9.227 -0.4329 -0.6995  0.8716
   34TCq2    C9  526   3.647   2.939   8.715  0.0883 -0.2894 -0.6048
   34TCq2    O5  527   3.573   2.848   8.666  0.9740  0.3286  0.1656
   34TCq2    O6  528   3.706   3.027   8.650  0.2483 -0.1066  0.2464
   34TCq2    H2  529   3.574   2.763   8.899  0.1012  1.0854 -2.4112
   34TCq2    H3  530   3.694   3.171   8.851 -0.7259 -0.6622 -1.3504
   34TCq2    H4  531   3.545   3.023   9.222  1.7194 -4.2281  0.8654
   35MPD2     C  532   4.006   4.171  11.451 -0.8775 -0.1412 -0.2249
   35MPD2    C1  533   3.915   4.137  11.554 -0.0736 -0.2203  0.2342
   35MPD2    C2  534   3.786   4.172  11.539 -0.2426 -0.1291 -0.1822
   35MPD2    C3  535   3.747   4.253  11.434  0.0829 -0.2592 -0.2295
   35MPD2    C4  536   3.841   4.291  11.339 -0.5124 -0.7150 -0.2568
   35MPD2    C5  537   3.965   4.238  11.338 -0.0905 -0.3451  0.3123
   35MPD2     H  538   3.707   4.159  11.613 -1.4719 -1.3190 -1.7152
   35MPD2    H1  539   3.822   4.356  11.254 -1.8306  1.6642  1.8420
   35MPD2    H2  540   4.108   4.138  11.465 -0.6025 -0.0589 -2.0930
   35MPD2    H3  541   4.030   4.260  11.254 -2.6491  0.5024 -1.4178
   35MPD2     N  542   3.613   4.285  11.426  0.3599  0.0277 -0.0740
   35MPD2    H5  543   3.551   4.230  11.485 -1.1328  2.1282  0.3200
   35MPD2    N1  544   3.958   4.071  11.668 -0.2276 -0.0658  0.3077
   35MPD2    H7  545   4.058   4.053  11.666 -0.7028 -2.6598 -0.4734
   36TCq2    C1  546   3.556   4.381  11.344  0.2438  0.0728 -0.1165
   36TCq2    O2  547   3.597   4.462  11.269 -0.7678 -0.4599  0.4991
   36TCq2    C2  548   3.409   4.390  11.352 -0.0817  0.0405  0.6328
   36TCq2    C3  549   3.350   4.516  11.348  0.7408 -0.1749 -0.5776
   36TCq2    C4  550   3.214   4.525  11.338  0.4379 -0.6289  0.7552
   36TCq2    C5  551   3.134   4.412  11.348 -0.4434 -0.6282  0.1725
   36TCq2    C6  552   3.201   4.296  11.361 -0.0837  0.2883 -0.3612
   36TCq2    C7  553   3.334   4.281  11.356  0.9032 -0.6181 -0.2767
   36TCq2    C8  554   3.119   4.177  11.347 -0.1530 -0.5412  0.0288
   36TCq2    O4  555   3.122   4.090  11.435 -0.5979  0.5083 -0.2162
   36TCq2    C9  556   3.144   4.654  11.350  0.1653  0.5257 -0.3148
   36TCq2    O5  557   3.223   0.031  11.331 -0.5327 -0.4335 -0.1461
   36TCq2    O6  558   3.014   4.658  11.356  0.1741 -0.2647 -0.2074
   36TCq2    H2  559   3.414   4.602  11.362 -0.6703  0.7060  0.4788
   36TCq2    H3  560   3.026   4.409  11.361 -0.7385 -1.4830 -2.4564
   36TCq2    H4  561   3.381   4.184  11.370  2.9519  0.4984  0.7915
   37TMC2    C1  562   1.700   4.664  11.955  0.7826 -0.6309 -0.2111
   37TMC2    C2  563   1.665   0.038  11.862 -0.1953 -0.4393 -0.5696
   37TMC2    C3  564   1.757   0.075  11.766  0.3560  0.4533  0.7562
   37TMC2    C4  565   1.823   4.617  11.967  1.2012  0.0208 -0.3403
   37TMC2    C5  566   1.921   4.667  11.886 -0.5151 -0.5393 -0.2043
   37TMC2    C6  567   1.894   0.040  11.780  0.2314 -0.2692 -0.7294
   37TMC2     C  568   1.597   4.636  12.053 -0.0082 -1.0069  0.9663
   37TMC2     O  569   1.509   4.721  12.061  0.6995  0.4954  0.0164
   37TMC2     H  570   1.561   0.065  11.845 -0.6716 -1.0922  1.3132
   37TMC2    H1  571   1.848   4.563  12.058 -2.1606  1.5735  1.4843
   37TMC2    H2  572   1.974   0.067  11.712  1.2630 -3.1773 -0.6431
   37TMC2    C7  573   2.058   4.651  11.926 -0.5421 -0.0750 -0.4715
   37TMC2    C8  574   1.726   0.123  11.637  0.2542 -0.9097 -0.2407
   37TMC2    O1  575   2.070   4.630  12.044 -0.0087 -0.6027 -0.6281
   37TMC2    O2  576   1.615   0.164  11.603 -0.1421 -0.5521 -0.1088
   37TMC2    O5  577   1.821   0.101  11.542  0.1994 -0.2594 -0.7642
   37TMC2    H5  578   1.887   0.034  11.570  2.0261  1.2951 -1.3819
   38MPD2     C  579   1.342   4.357  12.381 -0.2464  0.6851  0.5427
   38MPD2    C1  580   1.462   4.306  12.378  0.7928  0.6396  0.3507
   38MPD2    C2  581   1.553   4.357  12.288  0.8748 -0.1672 -0.1492
   38MPD2    C3  582   1.516   4.458  12.207 -0.3447 -0.1413  0.4213
   38MPD2    C4  583   1.390   4.513  12.213 -0.4574  0.6266  0.1219
   38MPD2    C5  584   1.301   4.461  12.300 -0.5139 -0.1908 -0.1640
   38MPD2     H  585   1.650   4.313  12.271  1.0476 -0.1493  0.7892
   38MPD2    H1  586   1.349   4.583  12.140  1.1098  1.6742  0.2432
   38MPD2    H2  587   1.267   4.312  12.445  2.3726 -0.2729  2.9589
   38MPD2    H3  588   1.202   4.505  12.299  0.2950  1.6770  2.7897
   38MPD2     N  589   1.616   4.511  12.119 -0.0352 -0.5184 -0.4645
   38MPD2    H5  590   1.692   4.450  12.092  1.2245  0.8900 -0.1224
   38MPD2    N1  591   1.505   4.216  12.471  0.0635 -0.6604  0.1609
   38MPD2    H7  592   1.600   4.184  12.455 -0.5564 -2.1023 -0.6105
   39MPD2     C  593   0.485   1.212   1.518 -0.1064 -0.4097  0.2618
   39MPD2    C1  594   0.399   1.313   1.555 -0.2257  0.8724  0.5761
   39MPD2    C2  595   0.269   1.318   1.514 -0.2774 -0.0649 -0.2204
   39MPD2    C3  596   0.224   1.215   1.430 -0.1828 -0.0396  0.2459
   39MPD2    C4  597   0.312   1.120   1.381 -0.7635  0.3955 -0.1854
   39MPD2    C5  598   0.439   1.119   1.430  0.0590  0.5303 -0.6563
   39MPD2     H  599   0.198   1.392   1.548 -1.5526 -2.0746  1.5069
   39MPD2    H1  600   0.280   1.033   1.325  0.4649  0.7640 -1.4815
   39MPD2    H2  601   0.586   1.207   1.558 -0.3870 -3.3441  0.5919
   39MPD2    H3  602   0.499   1.037   1.393  2.8400  1.4420  1.8208
   39MPD2     N  603   0.096   1.192   1.381  0.5829  0.3006 -0.4542
   39MPD2    H5  604   0.081   1.104   1.333 -0.3339  0.6436 -0.7975
   39MPD2    N1  605   0.453   1.418   1.632 -0.1707  0.4602 -0.0995
   39MPD2    H7  606   0.552   1.402   1.648 -0.2302  0.1250 -0.0467
   40TCq2    C1  607   0.395   1.523   1.689 -0.1245  0.3742  0.3488
   40TCq2    O2  608   0.276   1.549   1.689  0.1773 -0.0981 -0.4391
   40TCq2    C2  609   0.481   1.627   1.749  0.2256  0.3403  0.1418
   40TCq2    C3  610   0.419   1.746   1.778 -0.5353  0.3832  0.2423
   40TCq2    C4  611   0.493   1.843   1.844 -0.4505 -0.6753  0.4442
   40TCq2    C5  612   0.619   1.816   1.898 -0.8326 -0.0225  0.1363
   40TCq2    C6  613   0.671   1.690   1.865  0.4721  0.5904 -0.3594
   40TCq2    C7  614   0.607   1.599   1.787  0.2822  0.1898 -0.4977
   40TCq2    C8  615   0.813   1.687   1.867  0.0729 -0.2536 -0.3184
   40TCq2    O4  616   0.873   1.582   1.855  0.0600  0.0941 -0.7429
   40TCq2    C9  617   0.447   1.979   1.853  0.8776 -0.1690  0.4757
   40TCq2    O5  618   0.331   2.008   1.811 -0.0552  0.0691  0.3566
   40TCq2    O6  619   0.527   2.065   1.899 -0.0708  0.3543 -0.4184
   40TCq2    H2  620   0.318   1.771   1.748 -0.9013 -1.3110  0.0990
   40TCq2    H3  621   0.665   1.885   1.968 -0.3364 -0.9061  0.6916
   40TCq2    H4  622   0.665   1.516   1.747 -2.5380 -3.1043  2.3415
   41TMC2    C1  623   4.140   4.274  13.785  0.1193 -0.1142 -0.0663
   41TMC2    C2  624   4.214   4.384  13.788 -0.4348 -0.5301  0.2924
   41TMC2    C3  625   4.228   4.444  13.670 -0.7275 -0.1445 -0.4019
   41TMC2    C4  626   4.067   4.222  13.684 -0.7163  0.2051 -0.1626
   41TMC2    C5  627   4.077   4.302  13.569 -0.0332 -0.0011  0.7552
   41TMC2    C6  628   4.156   4.407  13.561  0.0192 -0.6521 -0.3455
   41TMC2     C  629   4.097   4.220  13.913  0.5723 -0.1058  0.4407
   41TMC2     O  630   4.044   4.107  13.922  0.0097  0.5285 -0.4045
   41TMC2     H  631   4.268   4.428  13.871  1.2114 -0.9798 -0.5564
   41TMC2    H1  632   4.009   4.131  13.684  0.4604 -0.5415 -0.7320
   41TMC2    H2  633   4.156   4.475  13.476 -0.2861  0.1936  0.3266
   41TMC2    C7  634   3.988   4.280  13.451  0.6203  0.7412 -0.2495
   41TMC2    C8  635   4.282   4.582  13.680 -0.0613 -0.3640  0.1688
   41TMC2    O1  636   3.895   4.202  13.470 -0.2834  0.0798 -0.8444
   41TMC2    O2  637   4.344   4.625  13.777  0.0582  0.0882 -0.2846
   41TMC2    O5  638   4.182   4.653  13.634  0.0400 -0.3029 -0.1041
   41TMC2    H5  639   4.092   4.614  13.631 -0.3264  0.5056  0.3456
   42MPD2     C  640   4.092   4.157  14.193  0.5991  0.1551 -0.5995
   42MPD2    C1  641   4.075   4.283  14.145 -0.1904  0.5449 -0.2135
   42MPD2    C2  642   4.053   4.385  14.237  0.7533 -0.0258 -0.3624
   42MPD2    C3  643   4.038   4.360  14.369  0.0298 -0.5505  0.0241
   42MPD2    C4  644   4.045   4.229  14.415  0.4026 -0.4077  0.7590
   42MPD2    C5  645   4.081   4.129  14.325 -0.2344 -0.3212 -0.6225
   42MPD2     H  646   4.043   4.486  14.198 -1.5431  0.3610  1.2479
   42MPD2    H1  647   4.029   4.201  14.518  0.1230 -0.3218  0.7389
   42MPD2    H2  648   4.119   4.077  14.124 -0.3296  0.4708 -1.3322
   42MPD2    H3  649   4.078   4.027  14.361 -4.5532 -0.4091 -1.2243
   42MPD2     N  650   4.026   4.461  14.469 -1.0096  0.4596  0.0963
   42MPD2    H5  651   4.016   4.441  14.568  0.6859 -2.2475 -0.2774
   42MPD2    N1  652   4.095   4.316  14.010  0.8449 -0.0305 -0.3788
   42MPD2    H7  653   4.120   4.411  13.981  0.6824 -0.5823 -2.3522
   43MPD2     C  654   0.444   2.039   0.991  0.0979  0.2090  0.1321
   43MPD2    C1  655   0.475   2.166   1.038 -0.6768  0.0675  0.0091
   43MPD2    C2  656   0.393   2.220   1.137 -0.1171  0.4018 -0.0682
   43MPD2    C3  657   0.283   2.149   1.187  0.4779 -0.8281 -0.1227
   43MPD2    C4  658   0.254   2.026   1.139  0.3467 -0.5192  0.4294
   43MPD2    C5  659   0.342   1.969   1.050 -0.2975 -0.1275  0.7418
   43MPD2     H  660   0.429   2.312   1.181  0.5704  1.0110 -1.8834
   43MPD2    H1  661   0.166   1.972   1.171 -0.2728  0.2905  0.0876
   43MPD2    H2  662   0.490   1.986   0.908  0.1897 -0.0752  0.3664
   43MPD2    H3  663   0.307   1.872   1.017  1.6462 -0.4079 -0.5113
   43MPD2     N  664   0.193   2.205   1.279 -0.8231 -0.3617 -0.3537
   43MPD2    H5  665   0.114   2.152   1.317 -0.9584  0.5716  0.6547
   43MPD2    N1  666   0.571   2.254   0.990  0.0975 -0.3088 -0.2392
   43MPD2    H7  667   0.584   2.345   1.033 -1.9191 -0.5992  0.9915
   44TCq2    C1  668   4.716   2.654   1.605 -0.4096 -0.2943  0.1212
   44TCq2    O2  669   0.087   2.715   1.558 -0.2667 -0.2592  0.2710
   44TCq2    C2  670   4.710   2.518   1.562  0.1093 -0.0812  0.0323
   44TCq2    C3  671   4.643   2.419   1.629 -0.7139  0.4041  1.3337
   44TCq2    C4  672   4.664   2.291   1.594  0.0383 -0.0118 -0.0352
   44TCq2    C5  673   0.031   2.261   1.491 -0.9762  0.7704 -0.8121
   44TCq2    C6  674   0.094   2.358   1.428  0.2510  0.1878 -0.5109
   44TCq2    C7  675   0.075   2.486   1.461  0.2540  0.3723  0.6884
   44TCq2    C8  676   0.195   2.332   1.321 -0.2587  0.1123  0.0843
   44TCq2    O4  677   0.277   2.417   1.299 -0.1561  0.2644  0.1849
   44TCq2    C9  678   4.608   2.186   1.679 -0.0891 -0.5002 -0.1078
   44TCq2    O5  679   4.659   2.070   1.655  0.6820 -0.4061 -0.2843
   44TCq2    O6  680   4.501   2.220   1.741 -0.4711 -0.6055 -0.2616
   44TCq2    H2  681   4.572   2.436   1.709 -2.1262  1.8175 -0.2069
   44TCq2    H3  682   0.041   2.155   1.469  0.5325  0.7308  0.0844
   44TCq2    H4  683   0.121   2.566   1.404  0.3600  0.8210  1.4008
   45TMC2    C1  684   1.065   0.437   9.467 -0.3037 -0.2865  0.2442
   45TMC2    C2  685   1.143   0.402   9.569  0.4686 -0.1706  0.0828
   45TMC2    C3  686   1.184   0.497   9.655 -0.2056  0.1094  0.0736
   45TMC2    C4  687   1.016   0.568   9.444  0.0293 -0.1140 -0.5037
   45TMC2    C5  688   1.078   0.660   9.523 -1.2075  0.0031  0.0673
   45TMC2    C6  689   1.151   0.626   9.636  0.3831  0.4175 -0.0843
   45TMC2     C  690   1.010   0.344   9.371  0.5856  0.1804  0.3511
   45TMC2     O  691   1.078   0.243   9.350  0.3176 -0.0918  0.3204
   45TMC2     H  692   1.173   0.298   9.578  3.1425  0.4909 -1.3527
   45TMC2    H1  693   0.968   0.592   9.349  2.1945  0.0717 -1.5517
   45TMC2    H2  694   1.186   0.700   9.706 -0.3686 -0.6894  1.4518
   45TMC2    C7  695   1.037   0.797   9.494  0.0207  0.2207  0.3032
   45TMC2    C8  696   1.264   0.472   9.773  0.8916  0.0844  1.2370
   45TMC2    O1  697   0.949   0.813   9.410  0.0931 -0.1272 -0.1518
   45TMC2    O2  698   1.332   0.563   9.823 -0.7058  0.2167 -0.6511
   45TMC2    O5  699   1.303   0.345   9.778 -0.1857 -0.3119 -0.1828
   45TMC2    H5  700   1.245   0.279   9.735 -1.2487 -0.1411  1.0180
   46MPD2     C  701   0.856   0.194   9.182  0.0439  0.5405  0.6488
   46MPD2    C1  702   0.798   0.292   9.258 -0.2190 -0.5023  0.2499
   46MPD2    C2  703   0.661   0.322   9.257  0.5771 -0.0449  0.3886
   46MPD2    C3  704   0.576   0.233   9.189  0.4474  0.5338  0.0775
   46MPD2    C4  705   0.628   0.135   9.106  0.0481 -0.7614  0.0139
   46MPD2    C5  706   0.769   0.126   9.102 -0.1178 -0.1957 -0.1008
   46MPD2     H  707   0.618   0.399   9.320 -0.4330 -0.9208  0.7660
   46MPD2    H1  708   0.563   0.062   9.060 -0.6116 -0.2427  0.1089
   46MPD2    H2  709   0.961   0.170   9.168 -0.7261 -2.1405 -0.6619
   46MPD2    H3  710   0.814   0.044   9.048 -1.5590 -0.5901 -0.7301
   46MPD2     N  711   0.439   0.241   9.214 -0.3191  0.0235 -0.2113
   46MPD2    H5  712   0.412   0.312   9.281  1.9387 -0.8641  1.6380
   46MPD2    N1  713   0.878   0.371   9.340  0.1933 -0.0613 -0.4058
   46MPD2    H7  714   0.826   0.448   9.380 -0.1307  0.5270 -1.9233
   47TMC2    C1  715   3.783   0.935   9.554 -0.2800 -0.0341 -0.4492
   47TMC2    C2  716   3.840   0.872   9.441  0.8564  0.1268  0.4973
   47TMC2    C3  717   3.757   0.860   9.332  0.2093 -0.2120  0.1174
   47TMC2    C4  718   3.650   0.958   9.563 -0.2378 -0.0666 -0.1924
   47TMC2    C5  719   3.574   0.914   9.459 -0.6847  0.4443 -0.6982
   47TMC2    C6  720   3.620   0.871   9.339  0.0629 -0.7693  0.0452
   47TMC2     C  721   3.860   0.943   9.670 -0.4284 -0.6070 -0.5726
   47TMC2     O  722   3.832   1.012   9.765  0.0653  0.0626 -0.0240
   47TMC2     H  723   3.948   0.859   9.436  1.0577  0.9367  2.5944
   47TMC2    H1  724   3.606   0.992   9.656  0.9862 -0.8960  0.6828
   47TMC2    H2  725   3.552   0.863   9.255 -1.5825 -0.3786  1.3471
   47TMC2    C7  726   3.430   0.896   9.474  0.0722  0.3648  0.0833
   47TMC2    C8  727   3.823   0.863   9.206 -0.2818  0.1713 -0.0679
   47TMC2    O1  728   3.385   0.801   9.416  0.6021 -0.1598  0.2252
   47TMC2    O2  729   3.828   0.761   9.140  0.2571  0.0601  0.2883
   47TMC2    O5  730   3.925   0.951   9.218 -0.1561  0.1444  0.4302
   47TMC2    H5  731   3.901   1.026   9.276  1.7577  1.2191 -0.1688
   48MPD2     C  732   4.075   0.865   9.881  0.4979 -0.8137  0.3602
   48MPD2    C1  733   4.033   0.791   9.772 -0.0337 -0.1521 -0.1071
   48MPD2    C2  734   4.085   0.659   9.767  0.4954  0.2306  0.3666
   48MPD2    C3  735   4.163   0.603   9.859  0.3470 -0.5902 -0.3638
   48MPD2    C4  736   4.194   0.680   9.970 -0.5192 -0.0645 -0.4963
   48MPD2    C5  737   4.151   0.811   9.980  0.5763 -0.3131 -0.0670
   48MPD2     H  738   4.056   0.586   9.692 -2.0181 -0.9480  2.4931
   48MPD2    H1  739   4.243   0.634  10.056  0.5652  0.5653 -0.7862
   48MPD2    H2  740   4.028   0.962   9.891  2.8665  0.3545  0.2357
   48MPD2    H3  741   4.171   0.861  10.074 -0.5005 -0.1199  0.0682
   48MPD2     N  742   4.183   0.465   9.849 -0.2727 -0.4736 -0.1551
   48MPD2    H5  743   4.150   0.426   9.761  0.4809  1.3698 -1.2473
   48MPD2    N1  744   3.954   0.840   9.668 -0.2123 -0.2211  0.2760
   48MPD2    H7  745   3.940   0.774   9.592 -0.3939  0.2910 -0.1310
   49MPD2     C  746   1.842   3.492   9.758 -0.2769 -0.4211  0.4825
   49MPD2    C1  747   1.742   3.426   9.837 -0.4181  0.1587  0.3552
   49MPD2    C2  748   1.761   3.405   9.971  0.7426  0.0674 -0.2242
   49MPD2    C3  749   1.888   3.431  10.027 -0.7831  0.2329  0.2351
   49MPD2    C4  750   1.987   3.474   9.947  0.4669 -0.3423 -0.0351
   49MPD2    C5  751   1.970   3.502   9.812 -0.2857  0.9723 -0.3654
   49MPD2     H  752   1.684   3.354  10.028  0.4919  2.1931  1.3112
   49MPD2    H1  753   2.084   3.488   9.992  1.3037 -1.7475 -1.4371
   49MPD2    H2  754   1.824   3.516   9.654 -0.7024 -1.5833  0.2909
   49MPD2    H3  755   2.041   3.551   9.747  0.7546  0.4966  0.4101
   49MPD2     N  756   1.924   3.397  10.159  0.4985 -0.3176 -0.3444
   49MPD2    H5  757   2.017   3.422  10.191  1.2438 -1.4818 -1.6049
   49MPD2    N1  758   1.615   3.390   9.783  0.1201 -0.0935 -0.1042
   49MPD2    H7  759   1.546   3.352   9.847  0.1136 -0.5967 -0.4113
   50TCq2    C1  760   1.583   3.396   9.649  0.2537  0.4353  0.3382
   50TCq2    O2  761   1.653   3.414   9.549 -0.4020  0.3922  0.2628
   50TCq2    C2  762   1.466   3.308   9.620 -0.6517 -0.1328 -0.4019
   50TCq2    C3  763   1.484   3.213   9.524 -0.0703 -0.6213 -0.3357
   50TCq2    C4  764   1.389   3.121   9.502 -0.5645  0.2292  0.0924
   50TCq2    C5  765   1.276   3.137   9.572 -0.0226 -0.8744 -0.3409
   50TCq2    C6  766   1.246   3.246   9.649  0.2999 -0.0745 -0.8451
   50TCq2    C7  767   1.344   3.337   9.672  0.2953  0.4643  0.1172
   50TCq2    C8  768   1.109   3.282   9.688  0.6775 -0.3769 -0.8307
   50TCq2    O4  769   1.013   3.231   9.631 -0.2506 -0.1210  0.0794
   50TCq2    C9  770   1.405   3.012   9.414  0.3499 -0.8369 -0.2597
   50TCq2    O5  771   1.306   2.937   9.390  0.0589  0.6261  0.0818
   50TCq2    O6  772   1.504   3.017   9.343  0.2851 -0.0164  0.0790
   50TCq2    H2  773   1.577   3.199   9.470 -0.6293  0.6709 -1.6178
   50TCq2    H3  774   1.198   3.061   9.569  1.3856 -2.3984  1.7578
   50TCq2    H4  775   1.321   3.423   9.735  2.5133  2.4640 -1.8365
   51MPD2     C  776   1.725   0.931   1.233  0.2327  0.3174  0.7449
   51MPD2    C1  777   1.753   0.794   1.222 -0.2205 -0.0442 -0.6568
   51MPD2    C2  778   1.802   0.728   1.334  0.6204  1.0586 -0.8429
   51MPD2    C3  779   1.840   0.801   1.447  0.4990 -1.0738  0.7723
   51MPD2    C4  780   1.841   0.934   1.439 -0.0977 -0.4410  0.3268
   51MPD2    C5  781   1.783   0.998   1.332  0.0254 -0.1547 -0.4436
   51MPD2     H  782   1.797   0.621   1.352  1.0471  1.4873  1.8803
   51MPD2    H1  783   1.868   1.002   1.519  2.4764 -0.2457 -0.6998
   51MPD2    H2  784   1.690   0.989   1.148 -1.8093  1.0339  2.0880
   51MPD2    H3  785   1.770   1.105   1.319  1.5175  0.0577 -0.1676
   51MPD2     N  786   1.895   0.742   1.561 -0.6249 -0.0274 -0.2556
   51MPD2    H5  787   1.951   0.802   1.621 -2.8785  1.7671  0.0804
   51MPD2    N1  788   1.718   0.718   1.111  0.2644  0.1352 -0.0552
   51MPD2    H7  789   1.732   0.617   1.110 -0.9307  0.0099 -2.9292
   52TCq2    C1  790   1.891   0.608   1.595 -0.5903 -0.6489 -0.1054
   52TCq2    O2  791   1.804   0.529   1.559 -0.2994 -0.4446 -0.8291
   52TCq2    C2  792   1.952   0.573   1.716  0.6745 -0.2404 -0.3243
   52TCq2    C3  793   1.923   0.446   1.762  0.7304  0.3339  0.3316
   52TCq2    C4  794   1.975   0.415   1.881 -0.2499 -0.2622  0.4128
   52TCq2    C5  795   2.065   0.494   1.950 -0.0845 -0.5880 -0.0659
   52TCq2    C6  796   2.103   0.615   1.892 -0.2499  0.3254 -0.7933
   52TCq2    C7  797   2.048   0.656   1.770 -0.6009  0.3459 -0.8956
   52TCq2    C8  798   2.224   0.682   1.930 -0.0848 -0.6828  0.7349
   52TCq2    O4  799   2.243   0.784   1.861 -0.0449 -0.2406  0.1230
   52TCq2    C9  800   1.951   0.277   1.928  0.0399  0.7535  0.4437
   52TCq2    O5  801   1.895   0.193   1.853  0.1632 -0.9602  0.3566
   52TCq2    O6  802   2.002   0.244   2.035  0.4950  0.4716  0.0123
   52TCq2    H2  803   1.864   0.372   1.708  0.0432  0.9342  0.2553
   52TCq2    H3  804   2.109   0.447   2.037 -1.2668 -2.1859 -0.3346
   52TCq2    H4  805   2.085   0.744   1.719  0.0947  0.7566  0.3027
   53TMC2    C1  806   2.706   4.636  12.280 -0.0672 -0.2732  0.0479
   53TMC2    C2  807   2.800   4.549  12.328  0.6588  0.7057 -0.4386
   53TMC2    C3  808   2.809   4.524  12.463 -0.8276 -0.3677  0.0139
   53TMC2    C4  809   2.618   4.692  12.366 -0.2400  0.1016 -0.3429
   53TMC2    C5  810   2.626   4.664  12.497  0.4391  0.1372 -0.0593
   53TMC2    C6  811   2.723   4.583  12.547 -0.4189 -0.4598 -0.3712
   53TMC2     C  812   2.671   4.642  12.139 -0.4422 -0.1808  0.2319
   53TMC2     O  813   2.765   4.614  12.064  0.7571 -0.2744  0.3723
   53TMC2     H  814   2.878   4.510  12.264 -0.1598  0.6786 -1.4198
   53TMC2    H1  815   2.543   0.042  12.334 -0.1151  0.4249  0.0909
   53TMC2    H2  816   2.740   4.570  12.653  1.1193 -0.4461 -0.6121
   53TMC2    C7  817   2.522   4.707  12.585 -0.1415  0.0251 -0.0115
   53TMC2    C8  818   2.939   4.486  12.512  0.1924  0.3999 -0.1463
   53TMC2    O1  819   2.471   0.092  12.548  0.7533 -0.1892  0.4469
   53TMC2    O2  820   2.986   4.533  12.613 -0.2172  0.7960 -0.2000
   53TMC2    O5  821   3.004   4.393  12.441  0.5571 -0.1143  0.2886
   53TMC2    H5  822   2.947   4.354  12.371  0.3954  3.5508 -1.6014
   54MPD2     C  823   2.576   4.692  11.873  0.3018  0.2481  0.3241
   54MPD2    C1  824   2.487   4.670  11.982 -0.7296 -0.0536 -0.0318
   54MPD2    C2  825   2.351   4.651  11.960 -0.1022 -0.4042  0.2672
   54MPD2    C3  826   2.296   4.655  11.841  0.0758 -0.3211 -0.2272
   54MPD2    C4  827   2.377   4.687  11.734  1.2542 -0.2341 -0.6006
   54MPD2    C5  828   2.512   4.699  11.751 -0.1884 -0.1395  0.4428
   54MPD2     H  829   2.298   4.627  12.051 -0.3556 -0.8171  0.0129
   54MPD2    H1  830   2.327   4.702  11.638 -1.0405 -1.1618  0.4496
   54MPD2    H2  831   2.683   4.710  11.873  0.5552 -1.3247  1.5814
   54MPD2    H3  832   2.569   0.009  11.664  3.2605 -2.8021  1.7529
   54MPD2     N  833   2.153   4.652  11.829 -0.0901 -0.2017  0.5355
   54MPD2    H5  834   2.120   4.652  11.733 -1.4165 -0.3341  1.0039
   54MPD2    N1  835   2.537   4.650  12.112 -0.1774  0.3619 -0.2329
   54MPD2    H7  836   2.478   4.657  12.194  1.8708 -0.1676  1.2814
   55MPD2     C  837   3.383   1.792   0.380  0.2246  0.1348  0.3901
   55MPD2    C1  838   3.275   1.743   0.456 -0.4183  0.0908 -0.5043
   55MPD2    C2  839   3.149   1.796   0.432  0.6586 -0.2059 -0.0147
   55MPD2    C3  840   3.129   1.893   0.337 -0.3142 -0.3275  0.2265
   55MPD2    C4  841   3.232   1.947   0.259 -0.5858 -0.2766 -0.1286
   55MPD2    C5  842   3.358   1.899   0.291 -0.2332  0.6109 -0.0914
   55MPD2     H  843   3.061   1.762   0.485 -0.9102 -0.2947 -2.6432
   55MPD2    H1  844   3.215   2.029   0.191  1.8391 -1.3884 -2.1075
   55MPD2    H2  845   3.484   1.753   0.387 -0.2795 -0.9917  1.4077
   55MPD2    H3  846   3.448   1.934   0.241 -0.1506 -1.3179 -1.3066
   55MPD2     N  847   2.995   1.934   0.328  0.3690  0.2822 -0.1695
   55MPD2    H5  848   2.928   1.910   0.399 -0.8724  0.1102 -1.4084
   55MPD2    N1  849   3.299   1.635   0.542  0.5677 -0.4244  0.2547
   55MPD2    H7  850   3.397   1.610   0.554 -0.2856 -3.1407  1.3707
   56TCq2    C1  851   3.202   1.564   0.606 -0.0153  0.2668 -0.2468
   56TCq2    O2  852   3.078   1.567   0.593  0.0812  0.3371 -1.3211
   56TCq2    C2  853   3.252   1.467   0.702 -0.7011 -0.3538  0.2176
   56TCq2    C3  854   3.384   1.476   0.749  0.3233 -0.0513  0.4306
   56TCq2    C4  855   3.428   1.370   0.824 -0.0254  0.1347  0.0283
   56TCq2    C5  856   3.357   1.254   0.843 -0.1757  0.2883 -0.3681
   56TCq2    C6  857   3.227   1.256   0.805  0.0170 -0.4351  0.0510
   56TCq2    C7  858   3.171   1.365   0.740 -0.9902  0.0253  0.0291
   56TCq2    C8  859   3.136   1.154   0.867  0.0528 -0.3698  0.5417
   56TCq2    O4  860   3.186   1.046   0.907  0.2542 -0.1944 -0.3408
   56TCq2    C9  861   3.562   1.372   0.867 -0.3739 -0.4725  0.6774
   56TCq2    O5  862   3.593   1.292   0.956 -0.2022 -0.4278 -0.4074
   56TCq2    O6  863   3.624   1.481   0.846 -0.1054 -0.0278 -0.3829
   56TCq2    H2  864   3.445   1.565   0.738  0.0543 -0.2104 -2.4070
   56TCq2    H3  865   3.403   1.172   0.898  1.9779  1.3575 -0.5891
   56TCq2    H4  866   3.077   1.359   0.686 -1.0801  1.6733  0.0090
   57TMC2    C1  867   2.347   3.483  13.613 -0.4404  0.2165  0.1489
   57TMC2    C2  868   2.330   3.359  13.666 -0.4732  0.4120 -0.2284
   57TMC2    C3  869   2.448   3.295  13.682 -0.5338 -0.1379  0.4094
   57TMC2    C4  870   2.467   3.530  13.564  0.0009  0.3493  0.1902
   57TMC2    C5  871   2.575   3.453  13.591 -0.1521 -0.0297 -0.2497
   57TMC2    C6  872   2.572   3.330  13.649 -0.3151 -0.1529 -0.8259
   57TMC2     C  873   2.234   3.566  13.570  0.7489  0.4489 -0.0109
   57TMC2     O  874   2.239   3.685  13.542  0.0472 -0.0932 -0.3845
   57TMC2     H  875   2.240   3.322  13.713  0.9051 -0.5709  1.6340
   57TMC2    H1  876   2.474   3.637  13.545 -0.4918  0.4102  0.3350
   57TMC2    H2  877   2.662   3.275  13.676  1.2343  1.5701 -2.4666
   57TMC2    C7  878   2.704   3.503  13.554 -0.1581 -0.3089 -0.5030
   57TMC2    C8  879   2.440   3.160  13.736 -0.1813 -0.5084 -0.1033
   57TMC2    O1  880   2.725   3.621  13.566 -0.4143 -0.7209 -0.1896
   57TMC2    O2  881   2.538   3.100  13.778  0.0688  0.0582 -0.1043
   57TMC2    O5  882   2.329   3.103  13.677  0.1345 -0.3333 -0.2758
   57TMC2    H5  883   2.272   3.156  13.617  1.6178  1.1426 -0.4000
   58MPD2     C  884   1.727   3.572  13.624 -0.0671 -0.2454  0.5347
   58MPD2    C1  885   1.821   3.675  13.636 -1.0214 -0.3092  0.4209
   58MPD2    C2  886   1.952   3.657  13.601  0.1197  0.2549 -0.0947
   58MPD2    C3  887   1.993   3.530  13.571  0.1908  0.1743  0.3599
   58MPD2    C4  888   1.901   3.429  13.553  0.5824 -0.0081 -0.7020
   58MPD2    C5  889   1.767   3.453  13.577 -0.5375 -0.2362  0.4116
   58MPD2     H  890   2.021   3.741  13.600  0.2421  0.1546  0.0288
   58MPD2    H1  891   1.928   3.326  13.533 -0.4351 -0.4913  0.3664
   58MPD2    H2  892   1.621   3.585  13.643  0.0264 -2.0207  2.2954
   58MPD2    H3  893   1.693   3.375  13.564  1.0497 -1.3783 -1.6869
   58MPD2     N  894   2.127   3.486  13.565 -0.0612 -0.1515  0.4818
   58MPD2    H5  895   2.142   3.386  13.564 -0.9133 -0.3239  4.0047
   58MPD2    N1  896   1.785   3.800  13.694 -0.1065  0.6829 -0.2958
   58MPD2    H7  897   1.855   3.861  13.736  0.5768 -0.9338  0.8976
   59MPD2     C  898   4.623   3.386  13.296  0.2798  0.5973 -0.5372
   59MPD2    C1  899   4.639   3.470  13.187 -0.2865 -0.4756 -0.0722
   59MPD2    C2  900   0.002   3.580  13.193 -0.5882  0.1719 -1.1841
   59MPD2    C3  901   0.082   3.602  13.306  0.1290 -0.0849 -1.1260
   59MPD2    C4  902   0.062   3.506  13.410  0.6941 -0.1168  0.1574
   59MPD2    C5  903   4.690   3.409  13.414 -0.3245 -0.6260  0.5889
   59MPD2     H  904   0.010   3.653  13.113 -2.9225 -1.5910 -2.9975
   59MPD2    H1  905   0.106   3.528  13.507  1.8469 -1.5606 -0.0460
   59MPD2    H2  906   4.550   3.306  13.300  1.6429 -0.6157 -0.0720
   59MPD2    H3  907   4.683   3.340  13.498 -0.4444  1.3678  2.2200
   59MPD2     N  908   0.181   3.703  13.320 -0.6294 -0.8366  0.4616
   59MPD2    H5  909   0.225   3.721  13.409  0.2699  0.1667 -0.1821
   59MPD2    N1  910   4.578   3.447  13.061 -0.4837 -0.5500  0.4797
   59MPD2    H7  911   4.618   3.499  12.983  0.6454 -0.0820  1.3654
   60TCq2    C1  912   4.513   3.330  13.029 -0.3623  0.6117  0.1059
   60TCq2    O2  913   4.497   3.223  13.092 -0.2452 -0.2009  0.0217
   60TCq2    C2  914   4.461   3.327  12.890 -0.2609  0.1220  0.2710
   60TCq2    C3  915   4.454   3.208  12.822 -0.2914 -0.7217 -0.7585
   60TCq2    C4  916   4.381   3.204  12.709  0.4170 -0.0992 -0.0642
   60TCq2    C5  917   4.316   3.315  12.660  0.5678  1.1773  0.2168
   60TCq2    C6  918   4.313   3.433  12.732  0.0734  0.0323  0.6203
   60TCq2    C7  919   4.384   3.436  12.850  0.0243 -1.2527  0.3460
   60TCq2    C8  920   4.187   3.510  12.717  0.0144 -0.1903 -1.1108
   60TCq2    O4  921   4.103   3.491  12.802  0.0866 -0.8616 -0.1969
   60TCq2    C9  922   4.342   3.078  12.664  0.4214 -0.5881  0.5827
   60TCq2    O5  923   4.307   3.073  12.546  0.1917  1.0092 -0.0880
   60TCq2    O6  924   4.368   2.979  12.732  0.4639  0.2166 -0.2094
   60TCq2    H2  925   4.513   3.127  12.861  0.1043 -1.2661 -2.4788
   60TCq2    H3  926   4.238   3.315  12.585  0.6843  2.6255  0.1018
   60TCq2    H4  927   4.380   3.527  12.909 -1.6110 -0.0295 -1.6633
   61MPD2     C  928   4.376   4.668  14.657 -0.3494 -0.2055  0.0096
   61MPD2    C1  929   4.401   0.021  14.770 -0.5315  0.1605  0.1692
   61MPD2    C2  930   4.486   0.124  14.755  0.1632  0.8788  0.4009
   61MPD2    C3  931   4.543   0.162  14.635  0.2778 -0.3065 -0.0688
   61MPD2    C4  932   4.512   0.086  14.530  0.3595 -0.5134  0.6684
   61MPD2    C5  933   4.425   4.703  14.534  0.1387 -0.1675 -0.3772
   61MPD2     H  934   4.514   0.176  14.846  0.3697 -0.3991  1.0570
   61MPD2    H1  935   4.557   0.116  14.435 -0.4459  2.5597  1.2494
   61MPD2    H2  936   4.317   4.578  14.666 -0.8279  0.0132 -0.9713
   61MPD2    H3  937   4.413   4.641  14.445 -1.1639 -2.0433  1.1131
   61MPD2     N  938   4.640   0.263  14.631 -0.0560 -0.4658 -0.3523
   61MPD2    H5  939   4.684   0.281  14.541 -0.9760  0.4239 -0.6250
   61MPD2    N1  940   4.335   4.720  14.900  0.6050  0.0909  0.3434
   61MPD2    H7  941   4.359   0.060  14.977  0.8707  0.6616 -0.1978
   62TCq2    C1  942   4.231   4.628  14.918  0.2715  0.0995  0.4430
   62TCq2    O2  943   4.203   4.533  14.844 -0.2028  0.0362  0.0118
   62TCq2    C2  944   4.140   4.657  15.021  0.4060 -0.3420  0.1950
   62TCq2    C3  945   4.062   4.556  15.070  0.5840 -0.3404 -0.5898
   62TCq2    C4  946   3.958   4.590  15.151 -0.0090 -0.4906  0.0907
   62TCq2    C5  947   3.929   0.002  15.182  0.5038  0.1089 -0.1552
   62TCq2    C6  948   4.023   0.095  15.141  0.0598  0.3509 -0.1508
   62TCq2    C7  949   4.130   0.063  15.062 -0.2257 -0.0921 -0.5854
   62TCq2    C8  950   3.987   0.227  15.147  0.3608  0.0135 -0.5194
   62TCq2    O4  951   4.067   0.315  15.176 -0.1808  0.4501 -0.2132
   62TCq2    C9  952   3.853   4.497  15.169 -0.1649  0.0748  0.1100
   62TCq2    O5  953   3.876   4.379  15.127  0.0036 -0.0056 -0.4552
   62TCq2    O6  954   3.740   4.552  15.201  0.1978 -0.5370  0.2975
   62TCq2    H2  955   4.071   4.457  15.029  2.1744 -1.2894  2.0667
   62TCq2    H3  956   3.833   0.019  15.229  2.3183  1.0375  3.2219
   62TCq2    H4  957   4.186   0.150  15.029 -0.1071  0.4575  1.0544
   63TMC2    C1  958   4.100   0.513  10.814  0.0610 -0.3351 -0.3179
   63TMC2    C2  959   4.206   0.559  10.883 -0.0683  0.4401  0.1160
   63TMC2    C3  960   4.288   0.654  10.830 -0.2703 -0.7142  0.1312
   63TMC2    C4  961   4.077   0.555  10.687  0.4774  0.1973  0.3130
   63TMC2    C5  962   4.153   0.660  10.636 -0.7165  0.1064 -0.7074
   63TMC2    C6  963   4.257   0.715  10.709  0.4178  0.4251  0.2463
   63TMC2     C  964   4.026   0.395  10.854 -0.3272  0.2891  0.0920
   63TMC2     O  965   4.049   0.356  10.967 -0.1687 -0.4108  0.2006
   63TMC2     H  966   4.232   0.510  10.976 -1.1647 -0.1529  0.1115
   63TMC2    H1  967   3.980   0.550  10.640  1.3964  2.4133 -1.8394
   63TMC2    H2  968   4.308   0.803  10.673  1.7784 -0.7096 -0.5801
   63TMC2    C7  969   4.110   0.722  10.508 -0.2951 -1.4045 -0.3824
   63TMC2    C8  970   4.339   0.749  10.922  0.0462  0.1496 -0.3234
   63TMC2    O1  971   4.026   0.660  10.442  0.2693 -0.0210  0.0373
   63TMC2    O2  972   4.316   0.870  10.918  0.0933  0.0622  0.3388
   63TMC2    O5  973   4.398   0.691  11.028 -0.0691  0.2069 -0.1290
   63TMC2    H5  974   4.406   0.598  10.996 -3.4869  0.5262 -1.9952
   64MPD2     C  975   3.668   0.032  10.801 -0.5617 -0.0127  1.0998
   64MPD2    C1  976   3.685   0.097  10.685  0.2182 -0.1060 -0.2623
   64MPD2    C2  977   3.776   0.201  10.682  0.0788 -0.1747 -0.3923
   64MPD2    C3  978   3.837   0.253  10.789  0.1780 -0.7155 -0.3817
   64MPD2    C4  979   3.819   0.184  10.905 -0.1797 -0.1445  0.1770
   64MPD2    C5  980   3.732   0.078  10.919  0.2341  0.1935 -0.1033
   64MPD2     H  981   3.790   0.248  10.585  0.3044  2.0693  0.7484
   64MPD2    H1  982   3.878   0.196  10.995  1.7557  0.5182 -1.1732
   64MPD2    H2  983   3.598   4.671  10.813 -1.7359  0.5531 -1.9307
   64MPD2    H3  984   3.718   0.041  11.020  0.3786  2.3324  0.7039
   64MPD2     N  985   3.939   0.348  10.763 -0.4916  0.2966  0.4743
   64MPD2    H5  986   3.929   0.390  10.671 -0.0775 -1.6089 -0.4464
   64MPD2    N1  987   3.660   0.034  10.560  0.4777  0.3339  0.0249
   64MPD2    H7  988   3.693   0.080  10.476  1.9186 -0.9831 -0.1302
   65MPD2     C  989   0.106   4.515  15.982 -0.2895  0.1390  0.1255
   65MPD2    C1  990   0.180   4.459  15.887  0.0173 -0.5711 -0.1324
   65MPD2    C2  991   0.145   4.336  15.839  0.0291  0.2291  0.0291
   65MPD2    C3  992   0.022   4.278  15.881  0.1128  0.9724 -0.7941
   65MPD2    C4  993   4.658   4.343  15.970  0.6724  0.4586 -0.0279
   65MPD2    C5  994   4.699   4.462  16.002 -0.3587  0.0325  0.4640
   65MPD2     H  995   0.206   4.273  15.775  0.3241 -0.5043  1.0416
   65MPD2    H1  996   4.560   4.306  15.997  1.1773 -0.1225  0.9794
   65MPD2    H2  997   0.144   4.607  16.026  0.3245  0.2331 -0.5935
   65MPD2    H3  998   4.633   4.525  16.061  1.1172  2.3589 -0.3739
   65MPD2     N  999   4.697   4.154  15.832  0.0284 -0.0209 -0.1475
   65MPD2    H5 1000   4.611   4.120  15.874 -1.2097  1.4341 -1.4675
   65MPD2    N1 1001   0.304   4.507  15.843  0.0219 -0.1482 -0.2038
   65MPD2    H7 1002   0.344   4.461  15.762  1.7986 -0.4186  0.8330
   66TCq2    C1 1003   0.350   4.635  15.868 -0.0741 -0.4446  0.2479
   66TCq2    O2 1004   0.306   4.720  15.941 -0.1548 -0.0475 -0.7217
   66TCq2    C2 1005   0.447   4.678  15.773 -0.0341  0.2167  0.1439
   66TCq2    C3 1006   0.513   4.585  15.693  0.0207 -0.3233 -0.1268
   66TCq2    C4 1007   0.568   4.641  15.581  0.1609 -0.2978  0.0944
   66TCq2    C5 1008   0.564   0.050  15.543  0.4980 -0.2735  0.1845
   66TCq2    C6 1009   0.487   0.131  15.616 -0.3662 -0.1506  0.4658
   66TCq2    C7 1010   0.432   0.086  15.736 -0.5868  0.2317  0.2893
   66TCq2    C8 1011   0.434   0.254  15.543 -0.0356 -0.0276 -0.7624
   66TCq2    O4 1012   0.517   0.324  15.484 -0.2014 -0.6592 -0.2347
   66TCq2    C9 1013   0.652   4.555  15.494 -0.3174  0.0590  0.6153
   66TCq2    O5 1014   0.735   4.618  15.428  0.5241 -0.0656 -0.1779
   66TCq2    O6 1015   0.648   4.431  15.524 -0.2934 -0.1321  0.5318
   66TCq2    H2 1016   0.541   4.483  15.715 -1.6199 -0.8538 -0.4612
   66TCq2    H3 1017   0.616   0.095  15.459  1.4333 -1.1957  0.2724
   66TCq2    H4 1018   0.384   0.158  15.800 -1.2124  0.8989 -0.9348
   67MPD2     C 1019   0.408   3.848  14.337 -0.2021 -0.0588 -0.0361
   67MPD2    C1 1020   0.315   3.870  14.437 -0.6602 -0.1323 -0.8137
   67MPD2    C2 1021   0.184   3.850  14.407 -0.9706 -0.2576 -0.1770
   67MPD2    C3 1022   0.137   3.797  14.292  0.0276  0.1611 -0.0529
   67MPD2    C4 1023   0.229   3.768  14.194  0.2532 -0.2461  0.7674
   67MPD2    C5 1024   0.361   3.795  14.220  0.1396 -0.3992 -0.1282
   67MPD2     H 1025   0.111   3.891  14.476  0.7192  0.6342  1.0867
   67MPD2    H1 1026   0.201   3.729  14.096 -0.9656 -1.7232  1.6966
   67MPD2    H2 1027   0.513   3.870  14.347  0.2851 -1.1840 -2.7345
   67MPD2    H3 1028   0.428   3.776  14.137 -0.6317  1.9251 -1.2825
   67MPD2     N 1029   0.002   3.768  14.258  0.7767 -0.2780  0.3590
   67MPD2    H5 1030   4.704   3.742  14.162  0.1351  0.0846  0.3882
   67MPD2    N1 1031   0.346   3.945  14.556  0.8800 -0.1951  0.1122
   67MPD2    H7 1032   0.272   3.957  14.624  2.3970  0.3612  1.6656
   68TCq2    C1 1033   0.472   3.968  14.599  0.0413 -0.1956  0.0738
   68TCq2    O2 1034   0.578   3.949  14.539  0.1470 -0.4559  0.2808
   68TCq2    C2 1035   0.476   4.035  14.728  0.1903 -0.5152 -0.4932
   68TCq2    C3 1036   0.376   4.125  14.768  0.3705 -0.0305 -0.5260
   68TCq2    C4 1037   0.400   4.218  14.865 -0.4874 -0.1750 -0.5708
   68TCq2    C5 1038   0.526   4.242  14.918  0.4923  0.2006 -0.3199
   68TCq2    C6 1039   0.629   4.167  14.864 -0.6696 -0.6556  0.4441
   68TCq2    C7 1040   0.604   4.059  14.777  0.1232 -0.2706  0.9191
   68TCq2    C8 1041   0.765   4.204  14.892 -0.2392  0.2489 -0.2738
   68TCq2    O4 1042   0.847   4.150  14.824  0.2736  0.3262  0.2207
   68TCq2    C9 1043   0.293   4.302  14.914 -0.0341 -0.8973  0.4430
   68TCq2    O5 1044   0.183   4.303  14.858  0.7198  0.0085 -0.1497
   68TCq2    O6 1045   0.320   4.370  15.013  0.0755 -0.4334  0.2729
   68TCq2    H2 1046   0.278   4.117  14.721 -1.3866  0.9582  2.9439
   68TCq2    H3 1047   0.544   4.322  14.990  0.7569 -1.5226  1.5435
   68TCq2    H4 1048   0.692   4.005  14.745  0.0403  2.4815 -3.8258
   69TMC2    C1 1049   1.791   0.646  12.244  0.2151  0.2668 -0.5727
   69TMC2    C2 1050   1.661   0.703  12.221 -0.8520  0.0889 -0.0445
   69TMC2    C3 1051   1.631   0.756  12.099  0.4415 -0.2726  0.3421
   69TMC2    C4 1052   1.866   0.618  12.138 -0.4223 -1.1150 -0.6440
   69TMC2    C5 1053   1.840   0.676  12.016  0.0587 -0.5753  0.3388
   69TMC2    C6 1054   1.719   0.747  11.994 -0.4082  0.2560 -0.1863
   69TMC2     C 1055   1.812   0.568  12.366 -0.6198  0.2640 -0.5520
   69TMC2     O 1056   1.714   0.536  12.434 -0.4542 -0.2812 -0.0620
   69TMC2     H 1057   1.587   0.710  12.300 -0.0662 -0.7464  0.7727
   69TMC2    H1 1058   1.956   0.558  12.141  0.2447 -0.2050 -2.3666
   69TMC2    H2 1059   1.700   0.788  11.896 -0.2627  1.1665  0.1686
   69TMC2    C7 1060   1.950   0.676  11.920 -0.3417  0.4097 -0.2767
   69TMC2    C8 1061   1.524   0.858  12.089  0.2411  0.7408 -0.4608
   69TMC2    O1 1062   2.045   0.609  11.944  0.2664 -0.3226 -0.0669
   69TMC2    O2 1063   1.482   0.895  11.978  0.7347 -0.9335 -0.2817
   69TMC2    O5 1064   1.503   0.914  12.213 -0.0713  0.3346  0.1137
   69TMC2    H5 1065   1.573   0.899  12.281 -0.3101  1.4382  0.6089
   70MPD2     C 1066   2.142   0.433  12.477 -0.0031 -0.4985  0.1577
   70MPD2    C1 1067   2.002   0.450  12.477  0.1353 -0.2346  0.0602
   70MPD2    C2 1068   1.925   0.372  12.569  0.1280  1.6383  0.8821
   70MPD2    C3 1069   1.985   0.292  12.661  0.2745 -0.5635  0.1360
   70MPD2    C4 1070   2.126   0.274  12.654  0.5821 -0.1734 -0.3316
   70MPD2    C5 1071   2.199   0.337  12.556 -0.0794  0.0407  0.4782
   70MPD2     H 1072   1.819   0.396  12.571 -0.4867 -1.0374 -0.5964
   70MPD2    H1 1073   2.175   0.199  12.714  0.5419  0.8207  0.9587
   70MPD2    H2 1074   2.196   0.487  12.400 -1.1186 -0.1803 -0.4007
   70MPD2    H3 1075   2.305   0.317  12.548  0.1174  1.7060 -1.1437
   70MPD2     N 1076   1.923   0.212  12.761 -0.0275 -0.0561 -0.3586
   70MPD2    H5 1077   1.989   0.166  12.823 -0.0564  1.5460  0.8598
   70MPD2    N1 1078   1.943   0.545  12.387 -0.2525 -0.0290 -0.5452
   70MPD2    H7 1079   2.009   0.602  12.335  0.1706 -0.5627 -0.5818
   71TMC2    C1 1080   0.023   4.546   1.798 -0.1998 -0.6578 -0.0637
   71TMC2    C2 1081   0.074   4.423   1.837  0.2916 -0.3808 -0.1825
   71TMC2    C3 1082   4.713   4.331   1.898  0.2035 -0.0812  0.5127
   71TMC2    C4 1083   4.603   4.563   1.804 -0.0894 -0.2503  0.4607
   71TMC2    C5 1084   4.525   4.473   1.871 -0.0018  0.2642 -0.6888
   71TMC2    C6 1085   4.586   4.364   1.929  0.4542  0.1407  0.1351
   71TMC2     C 1086   0.103   4.650   1.735 -0.5707 -0.2351  1.0030
   71TMC2     O 1087   0.045   0.019   1.673  0.0948 -0.7528 -0.2727
   71TMC2     H 1088   0.181   4.407   1.829  0.7319  1.9816  0.6960
   71TMC2    H1 1089   4.551   4.644   1.755 -1.1513 -0.7682  0.7144
   71TMC2    H2 1090   4.542   4.288   1.992  3.7519 -2.9383 -1.2520
   71TMC2    C7 1091   4.408   4.520   1.944 -0.0690  1.1731  0.0046
   71TMC2    C8 1092   0.051   4.224   1.980 -0.7360 -0.0841 -0.3147
   71TMC2    O1 1093   4.399   4.486   2.063  0.7324 -0.5281 -0.6806
   71TMC2    O2 1094   0.017   4.202   2.094  0.0536  0.6869 -0.3300
   71TMC2    O5 1095   0.172   4.187   1.936 -0.4359  0.0089 -0.4358
   71TMC2    H5 1096   0.176   4.201   1.839 -0.0486 -0.2255 -0.4549
   72MPD2     C 1097   0.551   0.105   1.544  0.6181 -0.5209  0.2140
   72MPD2    C1 1098   0.419   0.113   1.492  0.0299 -0.0488 -0.6508
   72MPD2    C2 1099   0.317   0.061   1.565  0.1632 -0.5349  0.0733
   72MPD2    C3 1100   0.335   4.700   1.678 -0.5535  0.2358  0.5640
   72MPD2    C4 1101   0.464   4.680   1.714  0.2153 -0.2397 -0.3068
   72MPD2    C5 1102   0.564   0.024   1.653 -0.0366 -0.0728  0.2986
   72MPD2     H 1103   0.222   0.079   1.517 -0.4045  1.7769  2.0375
   72MPD2    H1 1104   0.496   4.620   1.798 -2.4235 -0.9848  0.1577
   72MPD2    H2 1105   0.634   0.145   1.487  0.7418  0.5583  1.1403
   72MPD2    H3 1106   0.660   0.013   1.701  0.5003  1.6354 -0.3960
   72MPD2     N 1107   0.235   4.628   1.738 -0.0113  0.5788  0.6861
   72MPD2    H5 1108   0.270   4.563   1.808 -0.6555 -1.6629 -1.0943
   72MPD2    N1 1109   0.391   0.188   1.374 -0.7025 -0.3123 -0.0552
   72MPD2    H7 1110   0.295   0.208   1.347 -0.6294  0.7532  0.5029
   73TMC2    C1 1111   0.193   2.606  14.382 -0.2989 -0.0613 -0.0804
   73TMC2    C2 1112   0.213   2.646  14.508  0.6611  0.0332 -0.1030
   73TMC2    C3 1113   0.341   2.679  14.548  0.2801  0.5754 -0.2133
   73TMC2    C4 1114   0.294   2.614  14.292 -0.4084  0.3052 -0.0408
   73TMC2    C5 1115   0.414   2.673  14.327  0.3898  0.1167 -0.2269
   73TMC2    C6 1116   0.440   2.706  14.457 -0.0554  0.7302 -0.1211
   73TMC2     C 1117   0.074   2.670  14.330 -0.1855 -0.5652  0.0505
   73TMC2     O 1118   0.106   2.760  14.257  0.4169  0.4153 -0.3577
   73TMC2     H 1119   0.125   2.639  14.571  1.7170 -0.1808  1.3430
   73TMC2    H1 1120   0.271   2.577  14.192  1.6630  0.3736 -0.5329
   73TMC2    H2 1121   0.541   2.736  14.482  0.9077 -2.9873  0.4195
   73TMC2    C7 1122   0.452   2.782  14.244  0.0900  0.5447  0.3135
   73TMC2    C8 1123   0.362   2.676  14.690  0.3830  0.0810  0.4105
   73TMC2    O1 1124   0.546   2.849  14.278 -0.2114  0.4711  0.0499
   73TMC2    O2 1125   0.266   2.636  14.757 -0.0539  0.2731  0.0446
   73TMC2    O5 1126   0.463   2.753  14.731  0.0632  0.2960  0.2161
   73TMC2    H5 1127   0.500   2.810  14.660  0.2317 -1.6477 -1.2373
   74MPD2     C 1128   4.319   2.618  14.140 -0.4123 -0.5573  0.2489
   74MPD2    C1 1129   4.424   2.700  14.102 -0.4462  0.1243 -0.0331
   74MPD2    C2 1130   4.536   2.696  14.175  0.2415  0.3824 -0.1723
   74MPD2    C3 1131   4.549   2.617  14.282 -0.5531  1.1008  0.2062
   74MPD2    C4 1132   4.448   2.536  14.317  0.0066  0.0009  0.3122
   74MPD2    C5 1133   4.335   2.536  14.244  0.0753  0.8308 -0.4396
   74MPD2     H 1134   4.624   2.748  14.141  2.1695 -2.0367  1.0871
   74MPD2    H1 1135   4.451   2.474  14.406 -1.4085  2.5630  2.1276
   74MPD2    H2 1136   4.223   2.624  14.090  0.2526 -2.5425 -1.2216
   74MPD2    H3 1137   4.247   2.479  14.272 -0.7371  2.1460 -0.3464
   74MPD2     N 1138   4.675   2.603  14.348 -0.1360  0.1722  0.0024
   74MPD2    H5 1139   4.673   2.526  14.413 -0.2378  0.1071 -0.0772
   74MPD2    N1 1140   4.411   2.777  13.988  0.1185  0.1903 -0.4146
   74MPD2    H7 1141   4.329   2.766  13.928  0.7834 -1.1520 -1.0694
   75TCq2    C1 1142   4.611   3.778  14.335  0.5844 -0.0415 -0.3873
   75TCq2    O2 1143   4.611   3.772  14.456 -0.2198  0.3701 -0.4409
   75TCq2    C2 1144   4.489   3.767  14.261  0.8371 -0.1222  0.4949
   75TCq2    C3 1145   4.388   3.705  14.327 -0.2316  0.0349  0.0660
   75TCq2    C4 1146   4.274   3.698  14.254 -0.0466 -0.2770 -0.8283
   75TCq2    C5 1147   4.264   3.752  14.128 -0.3271 -0.3338  0.4416
   75TCq2    C6 1148   4.362   3.831  14.074  0.0301 -0.4242  0.5994
   75TCq2    C7 1149   4.477   3.836  14.137  0.1568  0.0685 -0.0618
   75TCq2    C8 1150   4.346   3.876  13.933 -0.2131  0.7630 -0.0558
   75TCq2    O4 1151   4.271   3.813  13.859  0.4398  0.4675 -0.9501
   75TCq2    C9 1152   4.165   3.608  14.293  0.9784 -1.1752  0.2486
   75TCq2    O5 1153   4.087   3.570  14.204  0.0130 -0.5031 -0.1317
   75TCq2    O6 1154   4.163   3.559  14.410  0.0191  0.7266 -0.3099
   75TCq2    H2 1155   4.402   3.684  14.432  2.5005 -0.6843 -0.4434
   75TCq2    H3 1156   4.175   3.740  14.068 -1.0039  0.3601  1.3079
   75TCq2    H4 1157   4.567   3.872  14.088  0.1610 -0.5842 -0.5325
   76MPD2     C 1158   2.931   0.169  11.990  0.1974  0.1471  0.5440
   76MPD2    C1 1159   2.955   0.173  11.855  0.8549  0.8569  0.1998
   76MPD2    C2 1160   3.068   0.108  11.813  0.2043  0.3240  0.8283
   76MPD2    C3 1161   3.154   0.040  11.900  0.3626  0.1113  0.1681
   76MPD2    C4 1162   3.125   0.042  12.035 -0.1433  0.1668  0.4301
   76MPD2    C5 1163   3.016   0.106  12.074 -0.2784 -0.0520 -0.1980
   76MPD2     H 1164   3.081   0.093  11.706  2.0626 -1.7568  1.3459
   76MPD2    H1 1165   3.187   4.715  12.109 -0.0154 -0.5356 -0.1390
   76MPD2    H2 1166   2.849   0.223  12.037 -0.1104 -0.1912  0.3902
   76MPD2    H3 1167   2.992   0.115  12.180 -1.6366  0.2696 -0.5307
   76MPD2     N 1168   3.267   4.688  11.851  0.3778  0.8016  0.0951
   76MPD2    H5 1169   3.313   4.636  11.925  1.3802 -0.7635 -1.6134
   76MPD2    N1 1170   2.878   0.242  11.756  0.1941 -0.0036 -0.5022
   76MPD2    H7 1171   2.904   0.226  11.659 -0.1386 -2.1795 -0.2416
   77TCq2    C1 1172   3.332   4.698  11.728  0.6588 -0.0918  0.3296
   77TCq2    O2 1173   3.313   0.056  11.635  0.7433 -0.7736 -0.0855
   77TCq2    C2 1174   3.447   4.615  11.715 -0.2570 -0.3309 -0.0248
   77TCq2    C3 1175   3.554   4.665  11.640  0.2747 -0.1641 -0.3989
   77TCq2    C4 1176   3.677   4.597  11.641  0.3976 -0.1800 -0.5932
   77TCq2    C5 1177   3.696   4.487  11.716 -0.0334 -0.1710 -0.1373
   77TCq2    C6 1178   3.579   4.441  11.780  0.3786  0.1079  0.1559
   77TCq2    C7 1179   3.461   4.505  11.789 -0.5534 -0.4885 -0.6747
   77TCq2    C8 1180   3.593   4.325  11.874 -0.6932 -0.3274 -0.2674
   77TCq2    O4 1181   3.502   4.241  11.888  0.0496  0.0738  0.2919
   77TCq2    C9 1182   3.783   4.650  11.562  0.7647 -0.1037 -0.2961
   77TCq2    O5 1183   3.753   0.034  11.504 -0.0198  0.0089  0.6789
   77TCq2    O6 1184   3.897   4.608  11.595 -0.3211  0.4463  0.4020
   77TCq2    H2 1185   3.541   0.041  11.594 -0.8863  0.0252  0.3301
   77TCq2    H3 1186   3.793   4.439  11.718 -0.5800 -1.2575  0.0996
   77TCq2    H4 1187   3.395   4.475  11.870 -1.4452 -1.4110 -1.7463
   78MPD1     C 1188   3.782   4.112   0.815 -0.5453 -0.7616  0.0626
   78MPD1    C1 1189   3.896   4.081   0.738  0.1907 -0.1198  0.1292
   78MPD1    C2 1190   4.009   4.015   0.799  0.3442  0.2046  0.3957
   78MPD1    C3 1191   4.016   4.002   0.936 -0.2286  0.5498  0.6777
   78MPD1    C4 1192   3.911   4.041   1.010  0.2273  0.2877 -0.4490
   78MPD1    C5 1193   3.791   4.091   0.948 -0.2963 -0.1375 -0.2733
   78MPD1     H 1194   4.094   3.992   0.735 -0.1747 -1.5600  0.3393
   78MPD1    H1 1195   3.913   4.045   1.119  0.5496 -0.2086 -0.4386
   78MPD1    H2 1196   3.683   4.132   0.776 -0.6977  0.4037  1.0405
   78MPD1    H3 1197   3.705   4.106   1.013  1.9744 -0.6817  2.8857
   78MPD1     N 1198   4.132   3.947   0.999  0.1777 -0.0100 -0.1925
   78MPD1    H5 1199   4.128   3.935   1.099 -1.7046 -2.5341 -0.5693
   78MPD1    N1 1200   3.878   4.086   0.602 -0.1731 -0.2091 -0.7513
   78MPD1    H6 1201   3.819   4.154   0.555 -1.6772 -0.4465  0.7673
   78MPD1    H7 1202   3.966   4.069   0.554 -0.2517 -1.3166 -0.5212
   79TCq2    C1 1203   4.248   3.903   0.942 -0.0947 -0.4067  0.2543
   79TCq2    O2 1204   4.274   3.895   0.823 -0.1892 -0.3340  0.1677
   79TCq2    C2 1205   4.346   3.850   1.040  0.2692 -0.4223 -0.0209
   79TCq2    C3 1206   4.302   3.809   1.165 -0.2339 -0.1134  0.4118
   79TCq2    C4 1207   4.403   3.786   1.264  0.5850 -0.3548  0.0969
   79TCq2    C5 1208   4.537   3.806   1.242  0.6522  0.3569 -0.6282
   79TCq2    C6 1209   4.572   3.850   1.117 -0.0618  0.7599 -0.0594
   79TCq2    C7 1210   4.474   3.885   1.019 -0.1259 -0.1268  0.1610
   79TCq2    C8 1211   4.712   3.890   1.096  0.4193 -0.1814 -0.3434
   79TCq2    O4 1212   0.048   3.935   1.195  0.1510 -0.1949 -0.0329
   79TCq2    C9 1213   4.360   3.749   1.398 -0.1418  0.1562 -0.0348
   79TCq2    O5 1214   4.454   3.714   1.473  0.0158  0.8874  0.0108
   79TCq2    O6 1215   4.238   3.728   1.423  0.0232  0.1761  0.1491
   79TCq2    H2 1216   4.202   3.773   1.187 -0.1494 -0.3254  0.4540
   79TCq2    H3 1217   4.610   3.771   1.314 -2.0592  1.1035  2.5137
   79TCq2    H4 1218   4.507   3.927   0.924 -0.0500  3.0123  1.6056
   80MPD2     C 1219   2.383   4.196  12.871 -0.8455  0.4267  0.5711
   80MPD2    C1 1220   2.311   4.221  12.747  0.5018  0.0268  0.1385
   80MPD2    C2 1221   2.180   4.239  12.756  0.2514 -0.1817  0.0905
   80MPD2    C3 1222   2.103   4.220  12.876 -0.2720 -0.1096  0.2453
   80MPD2    C4 1223   2.168   4.201  12.996 -0.4935  0.1418  0.3446
   80MPD2    C5 1224   2.307   4.199  12.989  0.1743  0.5914  0.4023
   80MPD2     H 1225   2.135   4.262  12.660  3.0022  0.6739 -0.9788
   80MPD2    H1 1226   2.111   4.192  13.087  1.5962  1.7644  1.8342
   80MPD2    H2 1227   2.489   4.178  12.875 -0.6832  1.3727  0.5747
   80MPD2    H3 1228   2.360   4.192  13.083 -1.5583 -0.7541  1.2832
   80MPD2     N 1229   1.961   4.219  12.877 -0.2090 -0.2959 -0.1252
   80MPD2    H5 1230   1.914   4.200  12.964 -0.6229 -1.9142 -0.7073
   80MPD2    N1 1231   2.365   4.219  12.621  0.3659 -0.6041 -0.2696
   80MPD2    H7 1232   2.313   4.243  12.537 -1.0585 -0.2753  0.7132
   81TCq2    C1 1233   2.499   4.201  12.594  0.1776 -0.3455 -0.1006
   81TCq2    O2 1234   2.597   4.212  12.666  0.2285 -0.2291  1.0308
   81TCq2    C2 1235   2.524   4.173  12.451  0.3035 -0.5108 -0.4458
   81TCq2    C3 1236   2.652   4.182  12.404 -0.0661 -0.4858  0.3150
   81TCq2    C4 1237   2.667   4.148  12.271 -0.3484 -0.0196 -0.5487
   81TCq2    C5 1238   2.577   4.087  12.195 -0.1918  0.0905 -0.5199
   81TCq2    C6 1239   2.455   4.073  12.250 -0.3525  0.5509  0.6980
   81TCq2    C7 1240   2.426   4.117  12.376 -0.1289  0.1122  0.2530
   81TCq2    C8 1241   2.363   3.981  12.178  0.9223  0.1793  0.0582
   81TCq2    O4 1242   2.365   3.971  12.056 -0.0862 -0.2765  0.8451
   81TCq2    C9 1243   2.793   4.176  12.214  0.0074  0.4012  0.8564
   81TCq2    O5 1244   2.873   4.251  12.268 -0.1549  0.3444 -0.6007
   81TCq2    O6 1245   2.814   4.131  12.101  0.3939  0.7017  0.2715
   81TCq2    H2 1246   2.734   4.225  12.461  0.3487 -1.1739  0.2385
   81TCq2    H3 1247   2.608   4.048  12.098 -2.7532  0.5772 -1.5242
   81TCq2    H4 1248   2.326   4.102  12.415  0.7649 -0.5152  2.3119
   82MPD2     C 1249   0.765   4.225  11.087  0.1297  0.6028  1.1784
   82MPD2    C1 1250   0.676   4.122  11.080  0.5056  0.3772  0.0545
   82MPD2    C2 1251   0.718   4.000  11.137 -0.4999 -0.0916  0.2768
   82MPD2    C3 1252   0.832   3.993  11.213  0.2847  0.2384  0.3774
   82MPD2    C4 1253   0.912   4.103  11.227  0.1937  0.5805  0.4239
   82MPD2    C5 1254   0.879   4.217  11.166 -0.1045 -0.1068  0.3424
   82MPD2     H 1255   0.664   3.911  11.109 -2.7222  0.7678  1.8350
   82MPD2    H1 1256   0.996   4.100  11.295  0.7272  0.3090 -0.2527
   82MPD2    H2 1257   0.739   4.322  11.045 -1.3301 -0.9424 -1.4580
   82MPD2    H3 1258   0.943   4.303  11.184 -1.2893  0.9034 -0.2873
   82MPD2     N 1259   0.879   3.875  11.277 -0.4995  0.1605  0.4478
   82MPD2    H5 1260   0.971   3.877  11.319 -0.3788 -0.0908  0.1906
   82MPD2    N1 1261   0.556   4.137  11.003  0.8664  0.3788  0.0326
   82MPD2    H7 1262   0.539   4.225  10.956 -0.0914 -0.1165 -0.5494
   83TCq2    C1 1263   0.809   3.759  11.277  0.2082  0.4846  0.5758
   83TCq2    O2 1264   0.695   3.733  11.247  0.1529  0.5218  0.2877
   83TCq2    C2 1265   0.880   3.631  11.309 -0.1542  0.5715 -0.2335
   83TCq2    C3 1266   0.978   3.616  11.214  0.7055 -0.1225 -0.0188
   83TCq2    C4 1267   0.993   3.493  11.151 -0.4335 -0.0932 -0.0792
   83TCq2    C5 1268   0.911   3.390  11.188 -0.4268  0.0914 -0.9916
   83TCq2    C6 1269   0.808   3.411  11.271  0.3312 -0.2439  0.9262
   83TCq2    C7 1270   0.797   3.528  11.342 -0.1521 -0.4740  0.4823
   83TCq2    C8 1271   0.682   3.339  11.267  0.6375 -0.2818 -0.0817
   83TCq2    O4 1272   0.636   3.323  11.383  0.5152  0.4108 -0.5498
   83TCq2    C9 1273   1.102   3.472  11.059  0.5980 -0.3009  0.3581
   83TCq2    O5 1274   1.177   3.571  11.052 -0.4854 -0.3972  0.5250
   83TCq2    O6 1275   1.133   3.353  11.044 -0.0178  0.0237  0.0421
   83TCq2    H2 1276   1.039   3.696  11.174 -0.2260  0.1699 -0.8332
   83TCq2    H3 1277   0.928   3.288  11.155  1.4245 -0.4899  1.7154
   83TCq2    H4 1278   0.702   3.550  11.389 -0.5394 -0.7931 -0.1633
   84TCq2    C1 1279   1.841   3.331  10.249 -0.5454 -0.4985 -0.0045
   84TCq2    O2 1280   1.727   3.293  10.237  0.1191 -0.2464  0.2094
   84TCq2    C2 1281   1.910   3.330  10.376 -0.1997 -0.5052 -0.1178
   84TCq2    C3 1282   2.047   3.322  10.381 -0.4600 -0.2306  0.0331
   84TCq2    C4 1283   2.107   3.295  10.499  0.5013  0.0204  0.2516
   84TCq2    C5 1284   2.030   3.298  10.611  0.0956  0.5332  0.5959
   84TCq2    C6 1285   1.891   3.304  10.598  0.2819 -0.1374  0.4151
   84TCq2    C7 1286   1.833   3.301  10.480  0.2830 -0.0582 -0.6140
   84TCq2    C8 1287   1.804   3.327  10.715 -0.3498 -0.1055  0.1927
   84TCq2    O4 1288   1.680   3.316  10.704  0.2631  0.4247 -0.5058
   84TCq2    C9 1289   2.256   3.296  10.520  0.8015  0.1100 -0.2756
   84TCq2    O5 1290   2.336   3.359  10.445 -0.3929 -0.1073  0.5563
   84TCq2    O6 1291   2.296   3.211  10.609  0.1818 -0.1643  0.1152
   84TCq2    H2 1292   2.113   3.331  10.295 -0.8527 -0.2900 -0.2757
   84TCq2    H3 1293   2.093   3.286  10.698 -0.4429 -1.9520  0.6219
   84TCq2    H4 1294   1.725   3.297  10.468  0.2754  0.1073 -0.5967
   85MPD2     C 1295   1.536   0.678  16.156 -0.2113 -0.4474  0.6556
   85MPD2    C1 1296   1.621   0.609  16.069  0.1732  0.7399  0.7127
   85MPD2    C2 1297   1.705   0.682  15.990 -1.3142  0.8432  0.1190
   85MPD2    C3 1298   1.720   0.819  15.994 -0.1191  0.1677  0.6250
   85MPD2    C4 1299   1.654   0.883  16.091  0.3520  0.3210  0.3073
   85MPD2    C5 1300   1.554   0.819  16.168 -0.1056 -0.3276  0.1087
   85MPD2     H 1301   1.753   0.623  15.912  2.2196  3.2651  0.4482
   85MPD2    H1 1302   1.651   0.990  16.108 -0.5737  1.0036 -3.9856
   85MPD2    H2 1303   1.452   0.633  16.207  0.3623 -2.0655  0.1669
   85MPD2    H3 1304   1.476   0.864  16.227 -1.2389 -0.5201 -1.2383
   85MPD2     N 1305   1.820   0.880  15.917  0.4051  0.1598 -0.9370
   85MPD2    H5 1306   1.863   0.825  15.843 -0.0079  0.3485 -1.3204
   85MPD2    N1 1307   1.628   0.472  16.060  0.4426 -0.1509  0.3915
   85MPD2    H7 1308   1.696   0.439  15.993 -1.1827 -1.3397 -0.6869
   86TCq2    C1 1309   1.845   1.018  15.919  0.1458 -0.3973 -0.3618
   86TCq2    O2 1310   1.792   1.106  15.980  0.0401 -0.5062 -0.3160
   86TCq2    C2 1311   1.941   1.058  15.815 -0.4111 -0.3659 -0.1799
   86TCq2    C3 1312   1.939   1.193  15.782  0.2688 -0.6879  1.1103
   86TCq2    C4 1313   2.041   1.237  15.695 -0.5758 -0.6084 -0.6385
   86TCq2    C5 1314   2.138   1.159  15.635  0.3311  0.8027 -0.3902
   86TCq2    C6 1315   2.131   1.027  15.670  0.3469 -0.2675 -0.7746
   86TCq2    C7 1316   2.039   0.974  15.759 -0.1120  1.2696 -0.3771
   86TCq2    C8 1317   2.205   0.932  15.593 -0.3316 -0.2791  0.1621
   86TCq2    O4 1318   2.226   0.814  15.626  0.5384  0.6321  0.3617
   86TCq2    C9 1319   2.040   1.377  15.653 -0.0564  0.1734 -0.3731
   86TCq2    O5 1320   2.129   1.419  15.571 -0.1330  0.0036  0.4451
   86TCq2    O6 1321   1.949   1.452  15.693  0.3655  0.0400 -0.3040
   86TCq2    H2 1322   1.873   1.257  15.839  1.8466  1.1741  0.8693
   86TCq2    H3 1323   2.205   1.198  15.559  0.2525 -1.6581 -1.7322
   86TCq2    H4 1324   2.050   0.869  15.783  0.2971  1.5330  0.5847
   87MPD2     C 1325   3.489   3.502   1.419 -0.5850 -0.3807 -0.1711
   87MPD2    C1 1326   3.596   3.587   1.455 -0.7127 -0.3036  0.0819
   87MPD2    C2 1327   3.579   3.726   1.463  0.4023  0.7118 -0.4905
   87MPD2    C3 1328   3.460   3.788   1.432 -0.0840  0.2162 -0.8067
   87MPD2    C4 1329   3.357   3.705   1.402 -0.2494  0.4120  1.0669
   87MPD2    C5 1330   3.372   3.570   1.398  0.7973 -0.8510  0.6410
   87MPD2     H 1331   3.666   3.785   1.487  0.1874  1.4718 -1.5953
   87MPD2    H1 1332   3.257   3.742   1.382  0.0054 -0.2341 -1.3679
   87MPD2    H2 1333   3.500   3.396   1.399  2.6950 -0.1752  0.5168
   87MPD2    H3 1334   3.288   3.511   1.362 -0.4009  2.7027 -2.3402
   87MPD2     N 1335   3.440   3.924   1.408 -0.7176  0.6493 -0.0625
   87MPD2    H5 1336   3.350   3.956   1.374  0.5172  0.5184 -3.5290
   87MPD2    N1 1337   3.724   3.529   1.494 -0.7039 -0.1090 -0.7722
   87MPD2    H7 1338   3.802   3.586   1.525 -0.3735 -0.5142 -0.8642
   88TCq2    C1 1339   3.753   3.395   1.459  0.0141  0.4610 -0.0280
   88TCq2    O2 1340   3.698   3.313   1.386  0.4775 -0.8277 -0.4724
   88TCq2    C2 1341   3.869   3.334   1.522  0.2230 -0.8925  0.4972
   88TCq2    C3 1342   3.954   3.410   1.607  0.8643 -0.1048  0.3652
   88TCq2    C4 1343   4.087   3.385   1.609 -0.8597  0.2198  0.0796
   88TCq2    C5 1344   4.136   3.276   1.545  0.2767  0.3329  0.3615
   88TCq2    C6 1345   4.052   3.193   1.473  0.3193  0.1668  0.3981
   88TCq2    C7 1346   3.923   3.226   1.449  0.3048 -1.2648  0.1373
   88TCq2    C8 1347   4.111   3.102   1.374 -0.5877  0.2073 -1.0802
   88TCq2    O4 1348   4.091   3.121   1.255 -0.1470  0.4177 -0.0803
   88TCq2    C9 1349   4.174   3.475   1.677  0.8124  0.5389 -0.7357
   88TCq2    O5 1350   4.134   3.595   1.687 -0.2086  0.1761  0.1940
   88TCq2    O6 1351   4.294   3.446   1.675  0.8426 -0.5288  0.2077
   88TCq2    H2 1352   3.910   3.490   1.665 -0.1356  1.8083 -3.0493
   88TCq2    H3 1353   4.241   3.250   1.543  0.2812  0.4124 -0.5768
   88TCq2    H4 1354   3.863   3.172   1.376 -3.5088  0.4605  1.9635
   89MPD2     C 1355   1.090   1.748   1.909 -0.7006 -0.2422  0.0590
   89MPD2    C1 1356   1.006   1.841   1.854  0.3161 -0.4841  0.2277
   89MPD2    C2 1357   1.046   1.960   1.795  0.0204 -0.3105  0.5677
   89MPD2    C3 1358   1.182   1.979   1.780 -0.1264 -0.5091 -0.2162
   89MPD2    C4 1359   1.275   1.884   1.819 -0.5577 -0.1471  0.3008
   89MPD2    C5 1360   1.226   1.774   1.886 -0.3774  0.6683 -0.3833
   89MPD2     H 1361   0.980   2.039   1.760 -0.5356 -2.1290 -2.5166
   89MPD2    H1 1362   1.382   1.902   1.816 -0.7203  0.8890  0.6974
   89MPD2    H2 1363   1.052   1.657   1.954 -0.2327 -0.7040 -0.4669
   89MPD2    H3 1364   1.298   1.703   1.923  2.0412  3.5729  0.4245
   89MPD2     N 1365   1.227   2.103   1.728 -0.4429 -0.6261 -0.7023
   89MPD2    H5 1366   1.158   2.169   1.694 -2.0677 -0.8956  2.0263
   89MPD2    N1 1367   0.872   1.817   1.861  0.2458 -0.1821 -0.4187
   89MPD2    H7 1368   0.810   1.893   1.833  1.0258  0.4664 -0.3699
   90TCq2    C1 1369   1.352   2.144   1.702 -0.5601 -0.1514 -0.1057
   90TCq2    O2 1370   1.462   2.096   1.727  0.1200  0.0078  0.2786
   90TCq2    C2 1371   1.362   2.267   1.625 -0.0687  0.0340 -0.2910
   90TCq2    C3 1372   1.254   2.342   1.592  0.2217 -0.0206  0.0223
   90TCq2    C4 1373   1.263   2.456   1.522  0.5556 -0.7517  0.4002
   90TCq2    C5 1374   1.384   2.514   1.489 -0.4870  0.2302  0.7053
   90TCq2    C6 1375   1.491   2.447   1.537  0.1368  0.3460  0.3612
   90TCq2    C7 1376   1.480   2.331   1.609 -0.2586 -0.4376 -0.4066
   90TCq2    C8 1377   1.609   2.522   1.566  0.0384  0.3578  0.1357
   90TCq2    O4 1378   1.681   2.467   1.645  1.0401 -0.1533 -0.0129
   90TCq2    C9 1379   1.138   2.523   1.494  0.2542  0.4222  0.2280
   90TCq2    O5 1380   1.032   2.456   1.503  0.3006  0.3971  0.0518
   90TCq2    O6 1381   1.147   2.646   1.465 -0.2674 -0.3390 -0.7978
   90TCq2    H2 1382   1.156   2.297   1.604  0.0893  0.2410 -0.0823
   90TCq2    H3 1383   1.384   2.616   1.452  1.3318  0.0950  0.3266
   90TCq2    H4 1384   1.569   2.277   1.635 -1.1815 -2.4627 -1.4682
   91TMC2    C1 1385   2.025   1.946  16.449 -0.1662  1.0641 -0.8375
   91TMC2    C2 1386   2.054   1.890  16.572  0.3809 -0.1390 -0.3256
   91TMC2    C3 1387   1.957   1.906  16.668  0.0692  0.1125  0.1454
   91TMC2    C4 1388   1.908   2.004  16.416 -0.5415 -0.8350 -0.2363
   91TMC2    C5 1389   1.810   2.003  16.513 -0.2084 -0.1023 -1.1423
   91TMC2    C6 1390   1.839   1.965  16.639  0.2220  0.4469  0.1682
   91TMC2     C 1391   2.114   1.909  16.342  0.1923  0.2104  0.3960
   91TMC2     O 1392   2.069   1.936  16.229  0.4951 -0.2614 -0.3971
   91TMC2     H 1393   2.142   1.838  16.607  0.9032  1.7141  1.1838
   91TMC2    H1 1394   1.894   2.028  16.311 -0.0561 -0.6606 -0.2650
   91TMC2    H2 1395   1.755   1.958  16.707  1.0729 -2.2222  0.9450
   91TMC2    C7 1396   1.673   2.058  16.492 -0.0222 -0.1291 -0.2432
   91TMC2    C8 1397   1.991   1.899  16.809 -0.9298  0.2907 -0.6611
   91TMC2    O1 1398   1.603   2.064  16.590 -0.0413 -0.3248  0.3524
   91TMC2    O2 1399   2.096   1.844  16.841  0.2012  0.4896  0.2285
   91TMC2    O5 1400   1.926   1.995  16.875  0.6007 -0.4103 -0.5775
   91TMC2    H5 1401   1.879   2.060  16.817  0.6534  1.4572  1.4551
   92MPD2     C 1402   2.300   1.754  16.165  0.0783  0.0292  0.0829
   92MPD2    C1 1403   2.319   1.779  16.300 -0.1432  0.4399  0.8040
   92MPD2    C2 1404   2.442   1.751  16.351 -0.2822  0.0535  0.4314
   92MPD2    C3 1405   2.539   1.688  16.276  0.0178  0.5265 -0.0399
   92MPD2    C4 1406   2.518   1.663  16.145  0.0377 -0.3119  0.0220
   92MPD2    C5 1407   2.400   1.696  16.089  0.5451 -0.1228  0.2008
   92MPD2     H 1408   2.470   1.773  16.453 -0.3299  3.7069 -0.3056
   92MPD2    H1 1409   2.588   1.605  16.086  0.3011 -0.5073  0.5243
   92MPD2    H2 1410   2.214   1.791  16.110  1.7447  1.4797 -1.5108
   92MPD2    H3 1411   2.386   1.677  15.983 -1.3362 -0.6796  0.5384
   92MPD2     N 1412   2.661   1.653  16.337 -0.2197  0.2836 -0.2963
   92MPD2    H5 1413   2.677   1.684  16.433 -0.3398  1.2095 -0.5671
   92MPD2    N1 1414   2.232   1.856  16.383 -0.1461  0.1424 -0.8789
   92MPD2    H7 1415   2.265   1.865  16.479  1.0993 -1.6579 -1.1244
   93MPD2     C 1416   3.987   2.494  13.993 -0.6484  0.4629  0.1312
   93MPD2    C1 1417   3.954   2.372  14.043 -0.4139 -0.3107 -0.0715
   93MPD2    C2 1418   3.825   2.327  14.048  0.0668  1.3481 -0.4442
   93MPD2    C3 1419   3.719   2.405  13.988 -0.0286  0.5237 -0.2741
   93MPD2    C4 1420   3.751   2.530  13.937  0.0922  0.3300  0.2290
   93MPD2    C5 1421   3.879   2.576  13.947 -0.5715 -0.0825 -0.2923
   93MPD2     H 1422   3.815   2.230  14.095  1.2046  0.9697 -0.9881
   93MPD2    H1 1423   3.668   2.592  13.904  0.4593  0.0635 -1.2055
   93MPD2    H2 1424   4.085   2.538  13.979  0.7349 -2.8515 -0.7849
   93MPD2    H3 1425   3.888   2.683  13.933  1.0355  0.0702  1.8814
   93MPD2     N 1426   3.591   2.357  13.958  0.2197  0.2857  0.3795
   93MPD2    H5 1427   3.544   2.422  13.896 -1.4495 -1.3670 -0.0678
   93MPD2    N1 1428   4.057   2.276  14.071 -0.1245 -0.0408  0.1963
   93MPD2    H7 1429   4.027   2.204  14.136  2.6723 -2.5120 -1.2835
   94TCq2    C1 1430   4.189   2.288  14.032 -0.2570 -0.3077 -0.1939
   94TCq2    O2 1431   4.246   2.362  13.956 -0.0601 -0.0087  0.2631
   94TCq2    C2 1432   4.278   2.186  14.106 -0.1802  0.6905  0.5408
   94TCq2    C3 1433   4.223   2.145  14.225 -0.4797  0.4970  0.6328
   94TCq2    C4 1434   4.315   2.113  14.319 -0.1309  0.1328  0.2759
   94TCq2    C5 1435   4.447   2.138  14.302 -0.2674  0.4809  0.2927
   94TCq2    C6 1436   4.497   2.188  14.184  0.1792 -0.2361 -0.0640
   94TCq2    C7 1437   4.407   2.211  14.081  0.2685  0.6520 -0.3451
   94TCq2    C8 1438   4.641   2.230  14.182 -0.3770 -0.3800  0.4403
   94TCq2    O4 1439   4.716   2.191  14.273  0.4749 -0.3348 -0.2048
   94TCq2    C9 1440   4.260   2.074  14.446 -0.5480  0.1919 -0.5672
   94TCq2    O5 1441   4.350   2.060  14.534 -0.4915 -0.3612  0.0889
   94TCq2    O6 1442   4.135   2.076  14.463 -0.1020  0.0504 -0.1304
   94TCq2    H2 1443   4.123   2.109  14.245 -1.7292  4.5855  1.8255
   94TCq2    H3 1444   4.508   2.133  14.391  1.0505  1.2534 -0.5784
   94TCq2    H4 1445   4.439   2.244  13.983 -2.7715 -0.2997 -1.6411
   95TMC2    C1 1446   4.034   3.285  16.073  0.5369 -0.4917  0.5090
   95TMC2    C2 1447   4.107   3.177  16.097 -0.1179 -0.5917 -0.8812
   95TMC2    C3 1448   4.048   3.065  16.152  0.1375  0.0986  0.3712
   95TMC2    C4 1449   3.896   3.290  16.095 -0.6141 -0.8954 -0.9880
   95TMC2    C5 1450   3.849   3.181  16.163 -0.4139 -0.5999  0.3040
   95TMC2    C6 1451   3.919   3.063  16.185 -0.3643 -0.5929 -0.2906
   95TMC2     C 1452   4.081   3.397  16.001 -0.6060  0.3216  1.7427
   95TMC2     O 1453   4.165   3.379  15.917  0.1069 -0.1028 -0.7658
   95TMC2     H 1454   4.213   3.174  16.076  0.3626  0.2269  1.3491
   95TMC2    H1 1455   3.837   3.376  16.063 -2.0069 -0.0491  3.8720
   95TMC2    H2 1456   3.875   2.970  16.220 -0.8669 -0.5580 -0.8337
   95TMC2    C7 1457   3.711   3.185  16.192  0.3609  0.2410 -0.2826
   95TMC2    C8 1458   4.129   2.971  16.223  0.3012  0.0067  0.0668
   95TMC2    O1 1459   3.647   3.262  16.120  0.3175 -0.3650  0.2937
   95TMC2    O2 1460   4.115   2.960  16.343 -0.6101 -0.5710  0.1633
   95TMC2    O5 1461   4.203   2.898  16.140 -0.3142  0.2625  0.0677
   95TMC2    H5 1462   4.171   2.918  16.049 -0.1799  2.1478  0.4259
   96MPD2     C 1463   4.157   3.900  15.985 -0.7774  0.7663  0.3187
   96MPD2    C1 1464   4.219   3.795  15.932 -0.1141  0.1674 -0.1032
   96MPD2    C2 1465   4.187   3.665  15.958 -0.0549  1.2295  0.9925
   96MPD2    C3 1466   4.077   3.641  16.035 -0.1922 -0.7849  0.5495
   96MPD2    C4 1467   4.010   3.750  16.089 -1.1707 -0.1800  0.0046
   96MPD2    C5 1468   4.044   3.881  16.054 -0.2010 -0.3643 -0.2970
   96MPD2     H 1469   4.254   3.584  15.932  0.8899  2.4875 -0.5037
   96MPD2    H1 1470   3.922   3.746  16.152 -0.8203 -3.6716  0.2667
   96MPD2    H2 1471   4.183   4.001  15.953  0.8132 -0.3639 -1.9630
   96MPD2    H3 1472   3.979   3.962  16.084  1.3150  1.2606 -1.4065
   96MPD2     N 1473   4.032   3.512  16.059  0.4949 -0.1179  0.4238
   96MPD2    H5 1474   3.954   3.501  16.123 -0.0706 -0.6361 -0.3531
   96MPD2    N1 1475   4.323   3.831  15.847  0.3616  0.7900  0.7071
   96MPD2    H7 1476   4.345   3.929  15.859 -1.6268  1.1713  1.1060
   97MPD2     C 1477   1.139   0.290   1.087  0.2471  0.3602 -0.4506
   97MPD2    C1 1478   1.231   0.378   1.057 -0.0006  0.3484 -0.7341
   97MPD2    C2 1479   1.269   0.397   0.925 -0.9246 -0.0246 -0.0305
   97MPD2    C3 1480   1.219   0.321   0.822 -0.7460  0.2732 -0.9502
   97MPD2    C4 1481   1.137   0.222   0.858 -0.3493 -0.3692  0.1788
   97MPD2    C5 1482   1.097   0.209   0.990  0.1752 -0.3482 -0.1985
   97MPD2     H 1483   1.353   0.462   0.903 -0.8370 -0.2017 -0.2266
   97MPD2    H1 1484   1.095   0.158   0.781  0.6355 -0.0687 -0.5968
   97MPD2    H2 1485   1.099   0.277   1.187  2.1992  2.4640  0.6192
   97MPD2    H3 1486   1.029   0.126   1.007  1.2194 -1.1071  0.2905
   97MPD2     N 1487   1.261   0.335   0.690  0.0951  0.3345  0.0284
   97MPD2    H5 1488   1.210   0.276   0.625 -0.3008  1.0152 -0.2851
   97MPD2    N1 1489   1.267   0.455   1.168  0.3039  0.1017  0.1952
   97MPD2    H7 1490   1.221   0.429   1.254  0.1286  1.5739  0.5476
   98TCq2    C1 1491   1.339   0.434   0.647  0.0027  0.1663  0.8865
   98TCq2    O2 1492   1.409   0.519   0.705 -0.8964 -0.0429  0.1590
   98TCq2    C2 1493   1.350   0.452   0.501 -0.8604 -0.2766 -0.0891
   98TCq2    C3 1494   1.263   0.377   0.420 -1.0943  0.2418  0.0348
   98TCq2    C4 1495   1.270   0.393   0.284 -0.2867  0.4173  0.0883
   98TCq2    C5 1496   1.370   0.470   0.225  1.0089  0.1374 -0.1961
   98TCq2    C6 1497   1.458   0.538   0.315  0.3907 -0.2271 -0.0681
   98TCq2    C7 1498   1.449   0.527   0.457  0.6937  0.2637  0.3660
   98TCq2    C8 1499   1.536   0.646   0.276 -0.3974  0.3133  0.7188
   98TCq2    O4 1500   1.569   0.728   0.359  0.3952 -0.7709 -0.0403
   98TCq2    C9 1501   1.177   0.330   0.198  0.1094 -0.2154  0.0310
   98TCq2    O5 1502   1.096   0.244   0.247 -0.3770  0.5844  0.7211
   98TCq2    O6 1503   1.180   0.359   0.077  0.0723  0.3442 -0.2043
   98TCq2    H2 1504   1.184   0.318   0.466  0.7950 -1.0693  1.5979
   98TCq2    H3 1505   1.370   0.474   0.117  1.8447  2.4312 -0.1097
   98TCq2    H4 1506   1.509   0.582   0.528 -0.2369  1.4584  0.2115
   99MPD2     C 1507   4.637   2.972   2.001  0.7584  0.2028  0.0157
   99MPD2    C1 1508   4.527   2.891   1.986  0.3516 -0.5743  0.2589
   99MPD2    C2 1509   4.526   2.804   1.878  0.1077  0.0807 -0.0561
   99MPD2    C3 1510   4.636   2.788   1.798  0.4744  0.1909  0.4929
   99MPD2    C4 1511   0.020   2.871   1.804 -0.0500  0.3479  0.0621
   99MPD2    C5 1512   0.022   2.963   1.907 -0.2962  0.2260  0.4438
   99MPD2     H 1513   4.440   2.739   1.862  0.5342 -0.5312  0.1454
   99MPD2    H1 1514   0.099   2.879   1.730  1.0690 -0.1530  1.1930
   99MPD2    H2 1515   4.655   3.043   2.081 -3.0739 -0.2446  1.3138
   99MPD2    H3 1516   0.108   3.030   1.909 -2.4320  2.9516  0.4844
   99MPD2     N 1517   4.627   2.677   1.704 -0.3460 -0.0966  0.5577
   99MPD2    H5 1518   4.538   2.629   1.702  0.8488 -2.2430 -0.7393
   99MPD2    N1 1519   4.409   2.904   2.063  0.2904  0.0592  0.2343
   99MPD2    H7 1520   4.329   2.856   2.022  1.3712 -0.2532 -1.4944
  100TCq2    C1 1521   4.397   2.989   2.170  0.2867 -0.1781  0.2970
  100TCq2    O2 1522   4.480   3.065   2.222  0.2513 -1.0202  0.0955
  100TCq2    C2 1523   4.260   3.005   2.233  0.3914  0.2151  0.7309
  100TCq2    C3 1524   4.240   3.120   2.297 -0.2616 -0.1442  0.1764
  100TCq2    C4 1525   4.115   3.166   2.320 -0.0594  0.3196 -0.0459
  100TCq2    C5 1526   4.008   3.084   2.292 -0.2224 -0.2303 -1.4148
  100TCq2    C6 1527   4.035   2.963   2.227  0.2546  0.1996 -0.1892
  100TCq2    C7 1528   4.161   2.929   2.182  0.5300 -0.3589 -0.3619
  100TCq2    C8 1529   3.921   2.887   2.177 -0.6087 -0.2619  0.3176
  100TCq2    O4 1530   3.822   2.883   2.251 -0.0801  0.1893 -0.1204
  100TCq2    C9 1531   4.097   3.287   2.391  0.3687  0.4187 -0.4851
  100TCq2    O5 1532   4.191   3.372   2.393  0.0454  0.0385 -0.5928
  100TCq2    O6 1533   3.984   3.305   2.444  0.0224  0.2681  0.1215
  100TCq2    H2 1534   4.323   3.180   2.331 -1.3312  0.7722  1.1599
  100TCq2    H3 1535   3.907   3.107   2.323  0.1123 -0.5147 -0.1381
  100TCq2    H4 1536   4.173   2.835   2.131  0.1089  0.0839 -1.2726
  101MPD2     C 1537   0.296   4.631  12.835 -0.6257  0.0922  0.3149
  101MPD2    C1 1538   0.419   4.631  12.887 -0.1917 -0.1096 -0.6786
  101MPD2    C2 1539   0.459   4.535  12.979 -0.1144  0.3017  0.1829
  101MPD2    C3 1540   0.369   4.433  13.004  0.0062  0.1025  0.6937
  101MPD2    C4 1541   0.241   4.436  12.963  0.4852 -0.3352  0.4454
  101MPD2    C5 1542   0.198   4.537  12.883  0.0867  0.5525  0.0212
  101MPD2     H 1543   0.562   4.532  13.014  0.4534  2.4928 -1.2747
  101MPD2    H1 1544   0.169   4.361  12.994  0.3828 -0.9001 -1.1896
  101MPD2    H2 1545   0.267   4.708  12.764  0.3095 -0.0808 -0.2569
  101MPD2    H3 1546   0.091   4.544  12.865  0.2483  1.4516 -0.5988
  101MPD2     N 1547   0.414   4.314  13.067  0.0048 -0.4643  0.7124
  101MPD2    H5 1548   0.504   4.314  13.114  0.5663  2.8025 -0.3530
  101MPD2    N1 1549   0.500   0.013  12.841 -0.0160 -0.1719  0.0358
  101MPD2    H7 1550   0.469   0.058  12.756 -1.9423  0.6631  1.1839
  102TCq2    C1 1551   0.970   0.181  12.587 -0.1291 -0.0801  0.3480
  102TCq2    O2 1552   1.061   0.112  12.634  0.0503  0.1453  0.1763
  102TCq2    C2 1553   0.863   0.226  12.679  0.5057  0.2217  0.5828
  102TCq2    C3 1554   0.782   0.328  12.636  0.2017  0.5358 -0.4228
  102TCq2    C4 1555   0.656   0.329  12.682  0.4968  0.0729  0.1103
  102TCq2    C5 1556   0.602   0.240  12.768 -0.0472 -0.2255  0.3481
  102TCq2    C6 1557   0.687   0.144  12.817  1.3445  0.2240 -0.0661
  102TCq2    C7 1558   0.816   0.136  12.770 -0.0427 -0.6948 -0.1552
  102TCq2    C8 1559   0.630   0.032  12.886 -0.0921 -0.5454 -0.3453
  102TCq2    O4 1560   0.695   4.690  12.965  0.0395 -0.2870 -0.1735
  102TCq2    C9 1561   0.571   0.434  12.620  0.1446  0.0146 -0.0859
  102TCq2    O5 1562   0.447   0.422  12.645  0.0562 -0.1981  0.2718
  102TCq2    O6 1563   0.620   0.527  12.552 -0.2999  0.3292  0.0724
  102TCq2    H2 1564   0.808   0.401  12.560 -0.1217 -0.1352 -1.1723
  102TCq2    H3 1565   0.506   0.259  12.814 -0.6353  0.8415 -1.3265
  102TCq2    H4 1566   0.874   0.045  12.784  1.0560 -0.0107 -0.2232
  103TMC2    C1 1567   4.131   4.450  12.458  0.3393  0.2469 -0.0362
  103TMC2    C2 1568   4.240   4.533  12.429 -0.4815 -0.0494 -0.0635
  103TMC2    C3 1569   4.319   4.569  12.536 -0.4427  0.4149 -0.1830
  103TMC2    C4 1570   4.084   4.423  12.583  0.7475 -0.6469 -0.1154
  103TMC2    C5 1571   4.171   4.458  12.689  0.0568 -0.2215 -0.4029
  103TMC2    C6 1572   4.289   4.529  12.660  0.7578 -0.6977  0.1395
  103TMC2     C 1573   4.054   4.421  12.333 -0.3497 -0.1309  0.0694
  103TMC2     O 1574   4.098   4.486  12.241 -0.1334 -0.2430  0.6983
  103TMC2     H 1575   4.276   4.546  12.327 -0.7067  1.0814 -0.0045
  103TMC2    H1 1576   4.005   4.350  12.594  1.4288 -1.5851 -1.3716
  103TMC2    H2 1577   4.356   4.554  12.742  0.0628 -1.9694  1.0990
  103TMC2    C7 1578   4.141   4.426  12.829 -0.0267  0.2812  0.1356
  103TMC2    C8 1579   4.448   4.631  12.529  0.2623 -0.1502  0.5182
  103TMC2    O1 1580   4.212   4.473  12.912 -0.4122 -0.0627  0.1432
  103TMC2    O2 1581   4.532   4.606  12.611  0.3378  0.1302  0.4823
  103TMC2    O5 1582   4.448   0.009  12.433  0.1157  0.2960 -0.3887
  103TMC2    H5 1583   4.383   0.018  12.360 -1.1326 -1.1176  0.5504
  104MPD2     C 1584   3.871   4.117  12.269  0.6861  0.4920 -0.0826
  104MPD2    C1 1585   3.896   4.250  12.249 -0.3068 -0.1726 -0.0766
  104MPD2    C2 1586   3.853   4.316  12.136  0.0035 -0.6408  0.2699
  104MPD2    C3 1587   3.755   4.257  12.057 -0.2458 -0.2502  0.0859
  104MPD2    C4 1588   3.722   4.124  12.086 -0.2401 -0.2744  0.0581
  104MPD2    C5 1589   3.775   4.062  12.195 -0.1798  0.3375 -0.2962
  104MPD2     H 1590   3.875   4.420  12.115 -0.3703 -0.9363 -1.5562
  104MPD2    H1 1591   3.642   4.075  12.032 -1.9911  1.2083  1.2958
  104MPD2    H2 1592   3.914   4.062  12.353  0.1507 -0.0605 -0.1687
  104MPD2    H3 1593   3.737   3.969  12.235 -1.2227  1.1575  0.5886
  104MPD2     N 1594   3.712   4.339  11.947 -0.2518  0.2367  0.1776
  104MPD2    H5 1595   3.759   4.428  11.935 -1.4925  0.9984  0.9491
  104MPD2    N1 1596   3.988   4.308  12.339 -0.4404 -0.0239  0.0811
  104MPD2    H7 1597   3.996   4.252  12.422  0.9918 -0.2151 -0.1747
  105MPD2     C 1598   0.442   2.854   0.315  0.3277  0.3169 -0.8911
  105MPD2    C1 1599   0.335   2.937   0.277  0.2964  0.8188  1.0488
  105MPD2    C2 1600   0.209   2.930   0.341  0.2267  0.4451 -0.3148
  105MPD2    C3 1601   0.204   2.861   0.462  0.3182  0.5391  0.6866
  105MPD2    C4 1602   0.314   2.781   0.496 -0.1045 -0.6939 -0.0276
  105MPD2    C5 1603   0.420   2.769   0.419 -0.3255 -0.1254 -0.6941
  105MPD2     H 1604   0.127   2.992   0.305 -0.4065 -1.3767 -1.9956
  105MPD2    H1 1605   0.319   2.726   0.590 -3.0216 -1.0030 -0.0356
  105MPD2    H2 1606   0.538   2.860   0.265  0.4469  0.7387 -0.6117
  105MPD2    H3 1607   0.503   2.713   0.462 -0.8430 -3.8150 -4.4325
  105MPD2     N 1608   0.080   2.869   0.531 -0.0263  0.6885 -0.1791
  105MPD2    H5 1609   0.003   2.925   0.495 -1.7575 -0.8329  1.1240
  105MPD2    N1 1610   0.337   3.019   0.162  0.2709 -0.5428  0.2533
  105MPD2    H7 1611   0.263   3.084   0.139 -0.6216 -1.1568  1.3594
  106TCq2    C1 1612   0.042   2.788   0.634  0.1223 -0.1176  0.2363
  106TCq2    O2 1613   0.102   2.693   0.682 -0.2538 -0.4489 -0.3448
  106TCq2    C2 1614   4.625   2.808   0.667  0.2676  0.2673  0.8728
  106TCq2    C3 1615   4.574   2.935   0.642  0.2969  0.2038 -0.2919
  106TCq2    C4 1616   4.449   2.966   0.693  0.2080  0.3207  0.1405
  106TCq2    C5 1617   4.375   2.875   0.759  0.3015  0.0539  0.3187
  106TCq2    C6 1618   4.441   2.764   0.799  0.2433  0.1405  0.3019
  106TCq2    C7 1619   4.567   2.730   0.756  0.0375  0.0745  0.0929
  106TCq2    C8 1620   4.411   2.706   0.927  0.1103  0.0795 -0.6067
  106TCq2    O4 1621   4.452   2.594   0.953  0.2014  0.0818 -0.2558
  106TCq2    C9 1622   4.390   3.107   0.666 -0.2839  0.6450 -0.7198
  106TCq2    O5 1623   4.477   3.182   0.617 -0.1293  0.1564  0.6425
  106TCq2    O6 1624   4.273   3.130   0.707 -0.6938  0.3534  0.0433
  106TCq2    H2 1625   4.609   3.009   0.571 -0.6550 -0.4921 -1.4974
  106TCq2    H3 1626   4.275   2.902   0.790  0.2429  1.4701 -1.1138
  106TCq2    H4 1627   4.616   2.639   0.786 -2.2382 -1.4191 -0.7651
  107TMC2    C1 1628   1.206   3.316  11.468 -0.1772  0.1455  0.2882
  107TMC2    C2 1629   1.198   3.453  11.440  0.0738 -0.4539  0.2001
  107TMC2    C3 1630   1.282   3.493  11.342  0.0555 -0.0340  0.7052
  107TMC2    C4 1631   1.291   3.227  11.404  0.4502  0.1708  0.6976
  107TMC2    C5 1632   1.372   3.286  11.310  0.1036  0.2722  0.3694
  107TMC2    C6 1633   1.374   3.417  11.283  0.7718  0.2840  0.8114
  107TMC2     C 1634   1.125   3.273  11.581 -0.0493 -0.5195 -0.2028
  107TMC2     O 1635   1.039   3.352  11.619  0.5267 -0.8285  0.1363
  107TMC2     H 1636   1.145   3.517  11.509 -0.2301  1.8068 -2.1275
  107TMC2    H1 1637   1.295   3.120  11.421  1.1434  0.6504  3.5637
  107TMC2    H2 1638   1.443   3.461  11.212  0.6603 -0.9857 -0.0890
  107TMC2    C7 1639   1.498   3.218  11.287  0.1947 -0.5481 -0.0433
  107TMC2    C8 1640   1.337   3.630  11.353 -0.4395 -0.4665  0.3227
  107TMC2    O1 1641   1.547   3.177  11.393 -0.9075 -0.1495 -0.1622
  107TMC2    O2 1642   1.341   3.693  11.455 -0.2429  0.2657  0.1543
  107TMC2    O5 1643   1.313   3.682  11.233  0.1390  0.3337 -0.1365
  107TMC2    H5 1644   1.265   3.624  11.169 -0.8336  1.2403 -0.2281
  108MPD2     C 1645   1.176   2.966  11.769  0.4629 -0.2379 -0.3272
  108MPD2    C1 1646   1.110   3.082  11.741  0.3462 -0.4011 -0.2944
  108MPD2    C2 1647   1.010   3.137  11.824 -0.1516  0.1442 -0.0346
  108MPD2    C3 1648   0.980   3.064  11.941 -0.1825  0.1572  0.6709
  108MPD2    C4 1649   1.044   2.950  11.965 -0.2640 -0.3278  0.2765
  108MPD2    C5 1650   1.148   2.903  11.887  0.4064  0.1102  0.2302
  108MPD2     H 1651   0.973   3.238  11.805  0.4583  0.3064 -0.3738
  108MPD2    H1 1652   1.004   2.901  12.053 -2.1205 -1.3775 -1.1455
  108MPD2    H2 1653   1.263   2.939  11.709  1.1223  2.3024 -0.5295
  108MPD2    H3 1654   1.196   2.809  11.912  1.1596  0.4423  0.0026
  108MPD2     N 1655   0.896   3.115  12.043  0.2712 -0.0276 -0.0235
  108MPD2    H5 1656   0.893   3.067  12.132  0.8624 -0.7581 -0.4007
  108MPD2    N1 1657   1.168   3.148  11.628 -0.0459 -0.5508 -0.9481
  108MPD2    H7 1658   1.236   3.097  11.571  0.4873 -1.8825  0.8914
  109MPD2     C 1659   0.519   4.325   1.696  0.1414 -0.1400 -0.0042
  109MPD2    C1 1660   0.622   4.382   1.622 -0.0959  0.2021  0.0750
  109MPD2    C2 1661   0.727   4.451   1.690  0.6160 -0.4406 -0.7010
  109MPD2    C3 1662   0.726   4.458   1.832  0.1109  0.3070  0.2167
  109MPD2    C4 1663   0.622   4.396   1.905  0.0660 -0.2670 -0.6858
  109MPD2    C5 1664   0.519   4.340   1.829 -0.4015  0.3895 -1.2944
  109MPD2     H 1665   0.795   4.510   1.630  1.4531 -1.3866 -0.6817
  109MPD2    H1 1666   0.628   4.377   2.011  0.2864 -0.5138 -0.7426
  109MPD2    H2 1667   0.444   4.260   1.654  0.2982 -1.3708  1.6430
  109MPD2    H3 1668   0.436   4.300   1.886 -0.7434  0.5450 -1.6735
  109MPD2     N 1669   0.840   4.512   1.900  0.0949  0.2585 -0.0023
  109MPD2    H5 1670   0.925   4.520   1.845 -0.6399  2.2859 -0.8730
  109MPD2    N1 1671   0.615   4.382   1.485 -0.0160 -0.3224 -0.2624
  109MPD2    H7 1672   0.528   4.342   1.450 -1.2050  4.2338 -2.4520
  110TCq2    C1 1673   0.830   4.550   2.032  0.1572  0.5379 -0.0427
  110TCq2    O2 1674   0.734   4.546   2.107 -0.0522 -0.0531  0.7839
  110TCq2    C2 1675   0.949   4.608   2.091 -0.2904 -0.2912 -0.8207
  110TCq2    C3 1676   0.958   4.607   2.222 -0.0947 -0.6902 -0.8105
  110TCq2    C4 1677   1.056   4.683   2.284  0.1696  0.7274  0.2757
  110TCq2    C5 1678   1.157   0.021   2.207 -0.2996 -0.0626  0.2083
  110TCq2    C6 1679   1.145   0.017   2.073 -0.4330  0.4521  0.5176
  110TCq2    C7 1680   1.046   4.669   2.014 -0.5660  0.1066 -0.5405
  110TCq2    C8 1681   1.245   0.085   1.985  0.0719  0.0340  0.0282
  110TCq2    O4 1682   1.211   0.121   1.868  0.0163 -0.2548 -0.2469
  110TCq2    C9 1683   1.071   4.681   2.425  0.6221 -0.8612 -0.8695
  110TCq2    O5 1684   0.983   4.630   2.496 -0.0529  0.3756 -0.1783
  110TCq2    O6 1685   1.149   0.050   2.478  0.2330 -0.6528 -0.3915
  110TCq2    H2 1686   0.898   4.541   2.283  0.3251 -0.8501 -0.5676
  110TCq2    H3 1687   1.230   0.085   2.255  0.2623 -0.9630  0.5501
  110TCq2    H4 1688   1.032   4.682   1.908  0.8443 -1.1886 -0.8942
  111TMC2    C1 1689   1.775   0.490  11.367  0.2324  0.0768 -0.7329
  111TMC2    C2 1690   1.876   0.495  11.273  0.6106  0.9720  0.2754
  111TMC2    C3 1691   2.001   0.459  11.320 -0.2158 -0.0325  0.7408
  111TMC2    C4 1692   1.800   0.459  11.499 -0.4752 -0.4966  0.0488
  111TMC2    C5 1693   1.922   0.417  11.536 -0.1669  0.4128  0.5969
  111TMC2    C6 1694   2.025   0.420  11.448  0.2783  1.0911 -0.1079
  111TMC2     C 1695   1.643   0.534  11.326  0.3956  0.2489  0.4690
  111TMC2     O 1696   1.639   0.579  11.216 -0.3204  0.8126 -0.5466
  111TMC2     H 1697   1.870   0.543  11.176  1.3236  0.5522  0.0232
  111TMC2    H1 1698   1.720   0.462  11.572  0.2865  0.4996  0.8364
  111TMC2    H2 1699   2.127   0.387  11.468 -0.9202 -1.9209  1.0134
  111TMC2    C7 1700   1.947   0.394  11.678 -0.1261 -0.2515  0.5170
  111TMC2    C8 1701   2.113   0.452  11.222  0.1209 -0.2875 -1.0761
  111TMC2    O1 1702   1.841   0.380  11.740 -0.4504 -0.3395  0.2483
  111TMC2    O2 1703   2.236   0.458  11.243 -0.3926 -0.0776  0.3125
  111TMC2    O5 1704   2.057   0.432  11.098  0.1110 -0.3276  0.2220
  111TMC2    H5 1705   1.972   0.383  11.101 -0.5466  0.7868 -0.3676
  112MPD2     C 1706   1.136   0.592  11.344 -0.3723 -0.4323  0.2405
  112MPD2    C1 1707   1.237   0.665  11.275  0.6871  0.4420  0.0259
  112MPD2    C2 1708   1.368   0.631  11.301 -0.3547 -0.0911 -0.4925
  112MPD2    C3 1709   1.403   0.526  11.380 -0.0091  0.3028 -0.1771
  112MPD2    C4 1710   1.305   0.454  11.449 -0.2536 -0.0417 -0.0391
  112MPD2    C5 1711   1.173   0.486  11.425  0.3649 -0.1444  0.4020
  112MPD2     H 1712   1.450   0.694  11.271  0.7572 -1.2612  0.0846
  112MPD2    H1 1713   1.331   0.369  11.511 -1.2337 -0.6848 -0.5119
  112MPD2    H2 1714   1.031   0.600  11.316  0.0917 -0.5346 -1.5612
  112MPD2    H3 1715   1.104   0.411  11.460  0.7907  0.2621  2.0921
  112MPD2     N 1716   1.534   0.493  11.404 -0.0735 -0.2754  0.1478
  112MPD2    H5 1717   1.558   0.434  11.483 -1.4641 -1.9232 -0.6743
  112MPD2    N1 1718   1.218   0.770  11.183  0.0946 -0.1877 -0.1368
  112MPD2    H7 1719   1.301   0.809  11.140  0.4548 -1.2765 -0.4303
  113MPD2     C 1720   3.992   2.665   1.236  0.3823 -0.6319 -0.0207
  113MPD2    C1 1721   3.869   2.708   1.190 -0.4950 -0.0652  0.2155
  113MPD2    C2 1722   3.834   2.682   1.062  0.1861  0.2559  0.1621
  113MPD2    C3 1723   3.909   2.603   0.981 -0.7287 -0.1036 -0.1306
  113MPD2    C4 1724   4.026   2.548   1.035 -0.0319  0.5218 -0.8869
  113MPD2    C5 1725   4.074   2.589   1.161  0.0452  0.7867  0.5679
  113MPD2     H 1726   3.741   2.729   1.033  0.9533  2.5274  1.3561
  113MPD2    H1 1727   4.081   2.485   0.967  0.4940  0.8485 -0.7653
  113MPD2    H2 1728   4.043   2.696   1.326  0.7249  0.4195 -0.5714
  113MPD2    H3 1729   4.173   2.556   1.191 -0.4977  0.1636  1.6801
  113MPD2     N 1730   3.877   2.556   0.846  0.1195 -0.6002 -0.2691
  113MPD2    H5 1731   3.945   2.492   0.807  1.3019  1.3564 -1.4122
  113MPD2    N1 1732   3.781   2.796   1.261  0.0307 -0.1665 -0.7954
  113MPD2    H7 1733   3.693   2.827   1.220 -0.1659  3.4013  2.3240
  114TCq2    C1 1734   3.772   2.604   0.771  0.8974 -0.2452  0.1160
  114TCq2    O2 1735   3.697   2.696   0.792  0.5156 -0.2587  0.4108
  114TCq2    C2 1736   3.778   2.553   0.630 -0.1365  0.5751  0.4970
  114TCq2    C3 1737   3.767   2.639   0.522  0.1361 -0.0226 -0.3947
  114TCq2    C4 1738   3.766   2.586   0.396 -0.0695 -0.0934 -0.4392
  114TCq2    C5 1739   3.743   2.452   0.377  0.7670 -0.6791  0.2127
  114TCq2    C6 1740   3.748   2.373   0.488 -0.2151  0.5370 -0.3423
  114TCq2    C7 1741   3.764   2.417   0.616 -0.3267 -0.0337 -0.1173
  114TCq2    C8 1742   3.723   2.230   0.473 -0.2453  0.0144  0.6710
  114TCq2    O4 1743   3.716   2.194   0.358 -0.1215  0.2438 -0.8104
  114TCq2    C9 1744   3.750   2.689   0.293 -0.6824  0.2423  0.0528
  114TCq2    O5 1745   3.732   2.804   0.334 -0.3032 -0.6858 -0.6581
  114TCq2    O6 1746   3.751   2.658   0.171  0.3308 -0.6404  0.1440
  114TCq2    H2 1747   3.785   2.745   0.536  0.7864  0.1380 -2.4510
  114TCq2    H3 1748   3.720   2.422   0.276  1.1929 -0.8840  0.1755
  114TCq2    H4 1749   3.775   2.350   0.701 -0.3890  0.5239  0.3293
  115TMC2    C1 1750   0.195   0.717   0.113 -0.5099 -0.5027  0.4092
  115TMC2    C2 1751   0.182   0.670  17.675  0.0884 -0.1526  0.1014
  115TMC2    C3 1752   0.255   0.738  17.580 -0.1259 -0.0710 -0.1658
  115TMC2    C4 1753   0.262   0.835   0.148  0.5503 -1.0722  0.0266
  115TMC2    C5 1754   0.302   0.910   0.042  0.1923  0.5340 -0.2763
  115TMC2    C6 1755   0.295   0.866  17.603  0.6790 -0.3171 -0.1819
  115TMC2     C 1756   0.143   0.641   0.222  0.2175 -0.0075 -0.8925
  115TMC2     O 1757   0.038   0.581   0.202 -0.0384  0.0805  0.4648
  115TMC2     H 1758   0.143   0.572  17.649  0.8444  0.0773 -1.9038
  115TMC2    H1 1759   0.260   0.880   0.247  0.1194 -0.0525 -0.4471
  115TMC2    H2 1760   0.350   0.917  17.525  0.4500 -0.2229 -0.2828
  115TMC2    C7 1761   0.373   1.028   0.070 -0.5753  0.3992  0.1717
  115TMC2    C8 1762   0.228   0.710  17.445  0.0028  0.4215  0.2588
  115TMC2    O1 1763   0.435   1.036   0.177 -0.4018 -0.4939 -0.5401
  115TMC2    O2 1764   0.121   0.666  17.409 -0.1403 -0.5089  0.0203
  115TMC2    O5 1765   0.348   0.688  17.387 -0.2652  0.1727 -0.1987
  115TMC2    H5 1766   0.417   0.739  17.434  2.4087 -1.6904 -2.0744
  116MPD2     C 1767   0.193   0.360   0.653 -0.3752  1.3619  0.8202
  116MPD2    C1 1768   0.128   0.336   0.532 -0.1694  0.0038  0.7162
  116MPD2    C2 1769   0.123   0.438   0.440  0.2696 -0.0782 -0.3508
  116MPD2    C3 1770   0.200   0.556   0.449  0.2272  0.2625  0.4811
  116MPD2    C4 1771   0.279   0.569   0.561 -0.1290 -0.3759  0.3788
  116MPD2    C5 1772   0.265   0.476   0.662 -0.5119  0.4139 -0.1082
  116MPD2     H 1773   0.083   0.403   0.345 -3.5707  1.8528  0.5704
  116MPD2    H1 1774   0.345   0.653   0.577 -1.5796  0.4850  1.7820
  116MPD2    H2 1775   0.174   0.300   0.741 -1.5647  0.0387 -0.3333
  116MPD2    H3 1776   0.315   0.506   0.754  0.1397  1.3940 -0.7859
  116MPD2     N 1777   0.220   0.645   0.337 -0.6515  0.3669 -0.0468
  116MPD2    H5 1778   0.299   0.708   0.332  0.0248 -0.5155 -0.6491
  116MPD2    N1 1779   0.049   0.213   0.530 -0.4785  0.2189  0.1656
  116MPD2    H7 1780   0.052   0.159   0.616  1.7159 -0.3701 -0.2839
  117TMC2    C1 1781   3.246   2.307  14.188 -0.4486  1.2942  0.1587
  117TMC2    C2 1782   3.278   2.208  14.284 -0.1962 -0.0282  0.2265
  117TMC2    C3 1783   3.369   2.247  14.380  0.5386  0.0789 -0.0609
  117TMC2    C4 1784   3.320   2.418  14.187  0.0837 -0.4943 -0.1121
  117TMC2    C5 1785   3.401   2.453  14.289  0.1193  0.3184 -0.1770
  117TMC2    C6 1786   3.415   2.376  14.396 -0.4046 -0.0230  0.6290
  117TMC2     C 1787   3.163   2.271  14.072 -0.1536  0.4545  0.2171
  117TMC2     O 1788   3.132   2.154  14.059  0.4972  0.1360  0.3085
  117TMC2     H 1789   3.239   2.107  14.288 -0.9722  0.2581 -0.1331
  117TMC2    H1 1790   3.325   2.453  14.084 -1.3727  2.6372  0.8713
  117TMC2    H2 1791   3.479   2.406  14.478 -1.4655  1.2468  0.9872
  117TMC2    C7 1792   3.503   2.551  14.263  0.6297  0.2134  0.2300
  117TMC2    C8 1793   3.370   2.165  14.495 -0.0516 -0.6862  0.4643
  117TMC2    O1 1794   3.602   2.547  14.336  0.4672 -0.6357  0.3454
  117TMC2    O2 1795   3.262   2.160  14.557  0.1565  0.2256 -0.7178
  117TMC2    O5 1796   3.493   2.195  14.542  0.1131  0.6694 -0.3016
  117TMC2    H5 1797   3.549   2.192  14.462  0.5410 -0.6404  0.0409
  118MPD2     C 1798   3.471   2.815  14.012  0.4464 -0.3548  0.4431
  118MPD2    C1 1799   3.535   2.742  14.111 -0.0412 -0.2969  0.6616
  118MPD2    C2 1800   3.652   2.781  14.164 -0.7973  0.5660  0.1973
  118MPD2    C3 1801   3.713   2.894  14.108 -0.3344 -0.9773  0.6972
  118MPD2    C4 1802   3.643   2.972  14.016 -0.3449 -0.0879 -0.3771
  118MPD2    C5 1803   3.520   2.934  13.968 -0.7752 -0.5963 -0.0303
  118MPD2     H 1804   3.706   2.731  14.243 -0.0697  0.0547 -0.6309
  118MPD2    H1 1805   3.689   3.061  13.973  4.2842 -2.2070  0.1399
  118MPD2    H2 1806   3.371   2.789  13.978  0.1380  1.9481 -0.4304
  118MPD2    H3 1807   3.462   2.995  13.900  2.0613  1.2226 -0.8102
  118MPD2     N 1808   3.839   2.931  14.152 -0.2914 -0.5492 -0.0988
  118MPD2    H5 1809   3.860   3.025  14.120 -0.8767 -1.0005 -1.7997
  118MPD2    N1 1810   3.460   2.635  14.164  0.3178  0.4829 -0.5784
  118MPD2    H7 1811   3.366   2.629  14.126 -0.3119 -1.0818  1.2536
  119MPD2     C 1812   2.056   4.166  13.538  0.3772 -0.6974 -1.6528
  119MPD2    C1 1813   1.926   4.125  13.515  0.2535  1.0578  0.4274
  119MPD2    C2 1814   1.896   4.021  13.428  0.1604  0.0405 -1.3684
  119MPD2    C3 1815   2.008   3.960  13.368  0.3569  0.0568  0.0294
  119MPD2    C4 1816   2.138   4.000  13.395  0.2939 -0.4002 -0.5782
  119MPD2    C5 1817   2.158   4.095  13.487 -0.0985 -0.3328 -0.3683
  119MPD2     H 1818   1.792   4.003  13.404  0.3397  0.3658 -2.3970
  119MPD2    H1 1819   2.225   3.952  13.352  2.0027 -0.3788  2.8726
  119MPD2    H2 1820   2.087   4.248  13.602  1.1786 -0.9902 -1.6720
  119MPD2    H3 1821   2.259   4.122  13.517  0.6669 -0.4382 -2.8473
  119MPD2     N 1822   1.989   3.845  13.289  0.8809  0.1267 -0.2023
  119MPD2    H5 1823   2.074   3.798  13.260  0.4143  0.9130 -2.7764
  119MPD2    N1 1824   1.809   4.177  13.585 -0.3175  0.2515 -0.2398
  119MPD2    H7 1825   1.715   4.144  13.565 -0.1268 -0.6306  0.2994
  120TCq2    C1 1826   1.870   3.798  13.234  0.4390 -0.2594  0.3393
  120TCq2    O2 1827   1.761   3.851  13.223  0.2265 -1.0034 -0.3776
  120TCq2    C2 1828   1.883   3.666  13.168 -0.1263  0.8903 -0.2021
  120TCq2    C3 1829   2.006   3.601  13.167 -0.7653 -0.9848  0.5350
  120TCq2    C4 1830   2.016   3.460  13.177  0.4052 -0.6509  0.1291
  120TCq2    C5 1831   1.893   3.383  13.191  0.0709  0.0899 -0.1426
  120TCq2    C6 1832   1.772   3.459  13.189 -0.8409  0.2905  0.2762
  120TCq2    C7 1833   1.767   3.591  13.187 -0.0676  0.5088  0.3081
  120TCq2    C8 1834   1.650   3.377  13.217  0.2097  0.5210  0.2382
  120TCq2    O4 1835   1.657   3.259  13.191 -0.3663 -0.1123 -0.1878
  120TCq2    C9 1836   2.148   3.407  13.191 -0.3444  0.6062  0.7981
  120TCq2    O5 1837   2.169   3.292  13.248 -0.1924 -0.2250 -0.5483
  120TCq2    O6 1838   2.240   3.479  13.148 -0.2237 -0.4557 -0.2914
  120TCq2    H2 1839   2.096   3.655  13.139 -0.6146 -1.1869  0.6320
  120TCq2    H3 1840   1.900   3.277  13.211 -1.9655  0.1209  0.7762
  120TCq2    H4 1841   1.674   3.646  13.176 -0.2582  0.1732  0.2400
  121TMC2    C1 1842   3.282   0.068  14.012  0.4272  0.1893 -0.5357
  121TMC2    C2 1843   3.337   4.711  14.108  0.0940 -0.5662 -0.0203
  121TMC2    C3 1844   3.258   4.618  14.166 -0.3304 -0.0746  0.1939
  121TMC2    C4 1845   3.153   0.054  13.972 -0.1604 -0.1314  0.7609
  121TMC2    C5 1846   3.075   4.686  14.041  0.3309  0.0511 -0.0803
  121TMC2    C6 1847   3.128   4.605  14.143  1.3641  0.5503 -0.3884
  121TMC2     C 1848   3.360   0.166  13.942  0.2469  0.7292  0.4757
  121TMC2     O 1849   3.323   0.197  13.830 -0.1946 -0.4790  0.4322
  121TMC2     H 1850   3.433   0.014  14.152 -0.3182 -0.5196  0.8693
  121TMC2    H1 1851   3.103   0.116  13.899  1.7078 -1.3283 -1.5413
  121TMC2    H2 1852   3.061   4.554  14.211  0.4856  1.9067 -0.2427
  121TMC2    C7 1853   2.936   4.666  14.018 -0.1748 -0.8408 -0.2282
  121TMC2    C8 1854   3.315   4.531  14.264  0.4682  0.2555 -0.3143
  121TMC2    O1 1855   2.880   4.573  14.075  0.7120  0.2212  0.1978
  121TMC2    O2 1856   3.400   4.556  14.344 -0.1584  0.1191 -0.7089
  121TMC2    O5 1857   3.314   4.417  14.195 -0.3396 -0.6140 -0.0042
  121TMC2    H5 1858   3.247   4.422  14.123 -1.0537  1.4092  0.8095
  122MPD2     C 1859   3.595   0.406  14.069 -0.1074 -0.4355  0.1642
  122MPD2    C1 1860   3.523   0.343  13.974  0.4527 -0.3035  0.0780
  122MPD2    C2 1861   3.536   0.387  13.842 -0.2450  0.3575 -0.5483
  122MPD2    C3 1862   3.629   0.487  13.804  0.8985 -0.5141 -0.3414
  122MPD2    C4 1863   3.703   0.552  13.904  0.2435 -0.3261 -0.3567
  122MPD2    C5 1864   3.680   0.507  14.032 -0.3827  0.7779 -0.9014
  122MPD2     H 1865   3.483   0.329  13.767  1.6307 -1.6858 -0.2829
  122MPD2    H1 1866   3.782   0.621  13.876  0.7973 -0.5159  0.7492
  122MPD2    H2 1867   3.590   0.372  14.172 -2.1731 -1.0378 -0.1325
  122MPD2    H3 1868   3.732   0.562  14.109 -2.6418  0.4169  0.8539
  122MPD2     N 1869   3.638   0.531  13.669  0.4604  0.0997  0.0061
  122MPD2    H5 1870   3.561   0.519  13.604 -1.5045  0.9198  2.1867
  122MPD2    N1 1871   3.444   0.238  14.018 -0.3846 -0.8709  0.3121
  122MPD2    H7 1872   3.432   0.223  14.118  0.3482  3.1873  0.9879
  123MPD2     C 1873   1.573   4.100  10.775 -0.2447 -0.0474  0.6831
  123MPD2    C1 1874   1.521   4.112  10.645 -0.3362  0.4696 -0.2871
  123MPD2    C2 1875   1.582   4.199  10.560 -0.7224 -0.5093 -0.1069
  123MPD2    C3 1876   1.691   4.284  10.603 -0.0504 -0.0350  0.7893
  123MPD2    C4 1877   1.719   4.278  10.738 -0.4398 -0.0976  0.0858
  123MPD2    C5 1878   1.662   4.188  10.822  0.7052  0.4296 -0.3263
  123MPD2     H 1879   1.561   4.202  10.454  0.7288 -1.9818 -0.4388
  123MPD2    H1 1880   1.784   4.350  10.786 -1.4933  0.3818  0.7836
  123MPD2    H2 1881   1.523   4.035  10.847 -1.9846  0.8274  0.2738
  123MPD2    H3 1882   1.697   4.196  10.924 -1.3189  2.4937  0.2154
  123MPD2     N 1883   1.768   4.356  10.504 -0.5968 -0.6393 -0.0551
  123MPD2    H5 1884   1.736   4.343  10.409  0.2365 -3.3718  0.0396
  123MPD2    N1 1885   1.412   4.033  10.601  0.4033  0.3331  0.2118
  123MPD2    H7 1886   1.385   3.956  10.662 -0.9841  0.5451 -0.1310
  124TCq2    C1 1887   1.848   4.459  10.524  0.1680 -0.1479 -0.2052
  124TCq2    O2 1888   1.869   4.517  10.634 -0.0593  0.0031  0.4926
  124TCq2    C2 1889   1.864   4.537  10.400  0.3962 -0.2509  0.6416
  124TCq2    C3 1890   1.860   4.670  10.404  0.4313  0.7459  0.0054
  124TCq2    C4 1891   1.819   0.018  10.295 -0.3220 -0.3135 -0.5569
  124TCq2    C5 1892   1.808   4.683  10.172 -0.5261  0.5024 -0.0219
  124TCq2    C6 1893   1.826   4.544  10.166  0.0734 -0.0737 -0.7545
  124TCq2    C7 1894   1.842   4.469  10.284  0.0578  0.7425 -0.6287
  124TCq2    C8 1895   1.806   4.468  10.051  0.4637  0.2998 -0.0210
  124TCq2    O4 1896   1.790   4.347  10.066 -0.0469 -0.5323  0.0061
  124TCq2    C9 1897   1.814   0.165  10.296 -0.3242 -0.1681 -0.0681
  124TCq2    O5 1898   1.847   0.226  10.399  0.1379  0.0604 -0.3309
  124TCq2    O6 1899   1.736   0.208  10.205  0.1500  0.3296  0.1535
  124TCq2    H2 1900   1.884   4.719  10.498  0.3358 -0.7327  0.8129
  124TCq2    H3 1901   1.787   0.020  10.083 -1.8521  0.2295  0.1119
  124TCq2    H4 1902   1.867   4.365  10.265 -0.0619  0.4315  0.8615
  125TMC2    C1 1903   2.738   0.417   9.539  0.6124  0.3350  0.6279
  125TMC2    C2 1904   2.600   0.401   9.572  0.1577  0.0866  0.2677
  125TMC2    C3 1905   2.530   0.517   9.599  0.0477  0.4703 -0.8213
  125TMC2    C4 1906   2.793   0.545   9.528  0.1755  0.4046  0.5751
  125TMC2    C5 1907   2.721   0.652   9.581 -0.7525  0.1905  0.4781
  125TMC2    C6 1908   2.593   0.641   9.616  0.2644  0.2617 -0.5266
  125TMC2     C 1909   2.819   0.293   9.551 -0.5865 -0.5621 -1.4333
  125TMC2     O 1910   2.760   0.202   9.607 -0.0879 -0.1590  0.1918
  125TMC2     H 1911   2.555   0.303   9.569  0.5609 -0.0599 -1.0728
  125TMC2    H1 1912   2.901   0.555   9.519  0.1739  0.6449  0.8220
  125TMC2    H2 1913   2.536   0.728   9.649  0.3504  0.2773 -0.4221
  125TMC2    C7 1914   2.798   0.766   9.632 -0.2788  0.0059  0.2230
  125TMC2    C8 1915   2.397   0.496   9.647 -0.7110  0.2760 -0.7452
  125TMC2    O1 1916   2.741   0.822   9.721 -0.6275 -0.0190 -0.0650
  125TMC2    O2 1917   2.365   0.403   9.718  0.6936  0.3017 -0.0043
  125TMC2    O5 1918   2.342   0.620   9.653  0.5401  0.0120  0.0171
  125TMC2    H5 1919   2.377   0.671   9.577  0.8565 -0.7917 -0.3741
  126MPD1     C 1920   3.254   0.033   9.498 -0.2769 -1.1203 -0.7533
  126MPD1    C1 1921   3.270   0.148   9.422 -0.0407 -0.3992  0.1665
  126MPD1    C2 1922   3.158   0.231   9.421 -0.2730 -0.6888  0.5801
  126MPD1    C3 1923   3.045   0.205   9.502  0.7044 -0.7330  0.5663
  126MPD1    C4 1924   3.037   0.098   9.584 -0.0231 -0.3019  0.8670
  126MPD1    C5 1925   3.139   0.006   9.572  0.4655 -0.3833  0.3966
  126MPD1     H 1926   3.160   0.324   9.366  0.1686 -0.1509  1.5151
  126MPD1    H1 1927   2.954   0.084   9.652 -0.4429  0.3309  0.4864
  126MPD1    H2 1928   3.337   4.684   9.501  0.9207  0.2871 -0.8600
  126MPD1    H3 1929   3.146   4.642   9.638  0.1176  0.1188  1.0891
  126MPD1     N 1930   2.943   0.301   9.492  0.4718  0.0326 -0.6402
  126MPD1    H5 1931   2.963   0.385   9.439 -0.4978  1.3229  1.0698
  126MPD1    N1 1932   3.399   0.177   9.364 -0.0743  0.2296 -0.0713
  126MPD1    H6 1933   3.395   0.225   9.274 -0.4304 -1.2453 -0.8334
  126MPD1    H7 1934   3.445   0.094   9.329  0.0996 -0.3646  1.5960
  127MPD2     C 1935   3.788   4.440   9.377 -0.0435 -0.2420 -0.1293
  127MPD2    C1 1936   3.819   4.373   9.496 -0.4544 -0.9107 -0.3057
  127MPD2    C2 1937   3.905   4.436   9.585  0.6798  0.6815  0.0679
  127MPD2    C3 1938   3.958   4.558   9.556 -0.1756 -0.0212 -0.0614
  127MPD2    C4 1939   3.925   4.623   9.435 -0.6032 -0.4090  0.2619
  127MPD2    C5 1940   3.839   4.563   9.342 -0.1274 -0.0177 -0.0195
  127MPD2     H 1941   3.923   4.389   9.682  3.4498  0.8522 -0.3601
  127MPD2    H1 1942   3.969   4.719   9.407  1.5682 -1.6330 -0.4989
  127MPD2    H2 1943   3.733   4.388   9.298  3.4327 -2.8335 -0.8370
  127MPD2    H3 1944   3.805   4.612   9.252 -1.0867 -0.3584  0.1631
  127MPD2     N 1945   4.036   4.620   9.656  0.6030  0.6022 -0.0121
  127MPD2    H5 1946   4.032   4.576   9.747 -1.8706  2.0410  0.5837
  127MPD2    N1 1947   3.761   4.243   9.518  0.1364 -0.0338 -0.0115
  127MPD2    H7 1948   3.707   4.208   9.440 -0.0328 -1.1650  0.6097
  128TCq2    C1 1949   3.770   4.165   9.635  0.0878  1.2234 -0.1300
  128TCq2    O2 1950   3.793   4.193   9.749  0.4642  0.1020  0.4153
  128TCq2    C2 1951   3.705   4.030   9.603 -0.2301 -0.1069  0.3404
  128TCq2    C3 1952   3.647   3.954   9.701  0.2514  0.3007 -0.0818
  128TCq2    C4 1953   3.569   3.851   9.666  0.0260  0.0488  0.4059
  128TCq2    C5 1954   3.543   3.826   9.533  0.2267 -1.1947  0.2018
  128TCq2    C6 1955   3.601   3.904   9.438  1.6957 -0.2247 -0.1658
  128TCq2    C7 1956   3.684   4.004   9.469 -0.1100  0.2312 -0.7468
  128TCq2    C8 1957   3.594   3.872   9.296  0.0105  0.1992 -0.4437
  128TCq2    O4 1958   3.614   3.961   9.218 -0.8551 -0.2045 -0.1096
  128TCq2    C9 1959   3.516   3.757   9.763 -0.1232 -0.9915  0.1128
  128TCq2    O5 1960   3.467   3.654   9.715 -0.1953  0.7709  0.3215
  128TCq2    O6 1961   3.509   3.798   9.884 -0.2051  0.4878 -0.2327
  128TCq2    H2 1962   3.671   3.970   9.805  0.0321  0.9503 -0.1300
  128TCq2    H3 1963   3.481   3.745   9.498  1.1717 -1.7692 -0.1276
  128TCq2    H4 1964   3.740   4.046   9.386  2.7098 -1.8496  0.1135
  129MPD2     C 1965   1.359   0.004   1.111 -0.4571 -0.1787 -0.4689
  129MPD2    C1 1966   1.453   0.058   1.193 -0.0040  0.4222 -0.0956
  129MPD2    C2 1967   1.542   0.145   1.140  0.3063  0.5425 -0.3039
  129MPD2    C3 1968   1.550   0.174   1.001  0.4541  0.2397 -0.1344
  129MPD2    C4 1969   1.455   0.117   0.922  0.1279 -0.3914 -0.1007
  129MPD2    C5 1970   1.362   0.031   0.976  0.5293  0.2811 -0.4412
  129MPD2     H 1971   1.605   0.199   1.209  0.4337 -0.2371  0.1881
  129MPD2    H1 1972   1.453   0.144   0.817  1.0763  1.5159  0.3628
  129MPD2    H2 1973   1.286   4.655   1.150 -1.5520 -0.7117 -3.4070
  129MPD2    H3 1974   1.296   4.697   0.911 -0.6242 -0.5590  1.4313
  129MPD2     N 1975   1.631   0.283   0.966 -0.3360 -0.5780  0.1503
  129MPD2    H5 1976   1.664   0.342   1.042 -0.7391  0.1366 -0.2284
  129MPD2    N1 1977   1.452   0.035   1.330  0.9664  0.2148  0.4152
  129MPD2    H7 1978   1.520   0.091   1.380 -0.2804  1.2807  0.9147
  130TCq2    C1 1979   1.363   4.682   1.399  0.9667  0.1702 -0.1952
  130TCq2    O2 1980   1.250   4.647   1.368  0.2588 -0.5355 -0.3914
  130TCq2    C2 1981   1.391   4.664   1.537 -0.1980 -0.2852  0.0497
  130TCq2    C3 1982   1.520   4.654   1.574 -0.4181  0.8981  0.3358
  130TCq2    C4 1983   1.544   4.586   1.695 -0.5500  0.0071  0.4042
  130TCq2    C5 1984   1.444   4.536   1.774  0.6114 -0.1974  0.0171
  130TCq2    C6 1985   1.318   4.557   1.738 -0.6219  0.1586  0.2165
  130TCq2    C7 1986   1.288   4.620   1.620 -0.3995 -0.3222  0.2816
  130TCq2    C8 1987   1.213   4.478   1.812  0.8008 -0.1315  0.1288
  130TCq2    O4 1988   1.098   4.488   1.764 -0.1650  0.0644  0.9363
  130TCq2    C9 1989   1.679   4.544   1.725 -0.0540  0.1405  0.5853
  130TCq2    O5 1990   1.775   4.603   1.667  0.2169 -0.2819  0.7693
  130TCq2    O6 1991   1.693   4.465   1.820 -0.3450  0.8903  0.3825
  130TCq2    H2 1992   1.606   4.675   1.511  0.3743  1.3029  1.5591
  130TCq2    H3 1993   1.472   4.485   1.866  0.6209 -0.3939 -0.0962
  130TCq2    H4 1994   1.181   4.632   1.603 -0.5374 -0.0227  1.3826
  131MPD2     C 1995   1.141   4.208   9.677 -0.4764  0.9404  0.1179
  131MPD2    C1 1996   1.230   4.273   9.761 -0.9385 -0.3453  0.2980
  131MPD2    C2 1997   1.256   4.206   9.878  0.2816 -0.0364  0.2120
  131MPD2    C3 1998   1.199   4.082   9.913  0.9933 -0.1575  0.1693
  131MPD2    C4 1999   1.127   4.016   9.817 -0.2136  0.3321 -1.5583
  131MPD2    C5 2000   1.089   4.086   9.709 -0.7895  0.1843  0.5934
  131MPD2     H 2001   1.326   4.247   9.949  1.6557  1.7055 -2.1603
  131MPD2    H1 2002   1.080   3.921   9.839 -0.2061  0.6449 -0.1784
  131MPD2    H2 2003   1.097   4.256   9.590 -2.5257  0.1080  0.6854
  131MPD2    H3 2004   1.007   4.061   9.643 -0.7520 -1.0763  1.0135
  131MPD2     N 2005   1.213   4.025  10.040 -0.1262 -1.0749 -0.2200
  131MPD2    H5 2006   1.268   4.086  10.100 -3.9837  1.6643  0.5555
  131MPD2    N1 2007   1.290   4.394   9.713  0.4160  0.4057 -1.1405
  131MPD2    H7 2008   1.266   4.424   9.619  1.4357  1.5544 -1.0392
  132TCq2    C1 2009   1.566   4.706   9.408  0.2927  0.1092 -0.0093
  132TCq2    O2 2010   1.506   4.650   9.320  0.1474  0.6439  0.2277
  132TCq2    C2 2011   1.509   4.708   9.541  0.4635  0.1525 -0.4955
  132TCq2    C3 2012   1.555   0.087   9.615 -0.5299  0.4741  0.1678
  132TCq2    C4 2013   1.538   0.086   9.750  0.2338  0.7252  0.3575
  132TCq2    C5 2014   1.473   4.701   9.810  0.4363  0.2511 -0.0383
  132TCq2    C6 2015   1.431   4.595   9.726 -0.5738  0.5931 -0.8248
  132TCq2    C7 2016   1.447   4.601   9.586 -0.0308  0.2099  0.2028
  132TCq2    C8 2017   1.362   4.482   9.795 -0.2007 -0.1437  0.1298
  132TCq2    O4 2018   1.361   4.490   9.916 -0.3252 -0.0215 -0.0645
  132TCq2    C9 2019   1.604   0.179   9.837  0.2196  0.4088  0.4859
  132TCq2    O5 2020   1.659   0.284   9.783  0.2819 -0.3037 -0.7119
  132TCq2    O6 2021   1.625   0.149   9.957  0.2123  0.1176  0.4368
  132TCq2    H2 2022   1.601   0.172   9.564  1.3626 -0.9533 -0.5007
  132TCq2    H3 2023   1.451   4.703   9.916  1.5439 -2.8004  0.2418
  132TCq2    H4 2024   1.427   4.526   9.511 -0.5463  1.5110 -0.9718
  133MPD2     C 2025   4.578   0.987   9.353  0.3342  0.1883  0.1062
  133MPD2    C1 2026   4.585   0.912   9.242 -0.3313  0.1264 -0.4138
  133MPD2    C2 2027   4.628   0.778   9.257 -1.0248  0.0726  0.6534
  133MPD2    C3 2028   4.665   0.725   9.384 -0.0602  0.3390  0.2708
  133MPD2    C4 2029   4.662   0.807   9.493 -0.6838  0.3026  0.0784
  133MPD2    C5 2030   4.621   0.936   9.471 -0.0842 -0.5592  0.7896
  133MPD2     H 2031   4.611   0.707   9.177 -1.6776  1.8184 -0.7236
  133MPD2    H1 2032   4.701   0.777   9.590  2.6327 -0.3145 -1.4420
  133MPD2    H2 2033   4.536   1.086   9.339 -1.3179 -0.5002  0.2037
  133MPD2    H3 2034   4.618   0.997   9.561  0.1347 -0.2950  0.6181
  133MPD2     N 2035   0.001   0.596   9.389 -0.0243 -0.4974 -0.3102
  133MPD2    H5 2036   0.016   0.561   9.483  1.5623 -1.2147 -0.8402
  133MPD2    N1 2037   4.537   0.972   9.125  0.4188 -0.1035 -0.6400
  133MPD2    H7 2038   4.511   1.070   9.131 -1.7951 -0.7593  0.2445
  134TCq2    C1 2039   4.557   0.929   8.998 -0.0202  0.1730 -1.0384
  134TCq2    O2 2040   4.609   0.821   8.964 -0.1511 -0.1468 -0.4113
  134TCq2    C2 2041   4.490   1.014   8.896 -0.2448 -0.3395  0.4273
  134TCq2    C3 2042   4.508   0.981   8.764  0.4622  0.2782  0.1663
  134TCq2    C4 2043   4.418   1.010   8.670 -0.0817 -0.1777  0.3015
  134TCq2    C5 2044   4.309   1.092   8.691 -0.5297  0.3842 -0.8581
  134TCq2    C6 2045   4.296   1.126   8.826 -0.6789  0.7811  0.0611
  134TCq2    C7 2046   4.383   1.088   8.930 -0.0413  0.3366 -0.4898
  134TCq2    C8 2047   4.170   1.188   8.871 -0.5933  0.0035 -0.2323
  134TCq2    O4 2048   4.151   1.182   8.988 -0.8959  0.1832  0.1967
  134TCq2    C9 2049   4.440   0.966   8.536  0.5850  0.4153  0.3933
  134TCq2    O5 2050   4.360   1.012   8.451 -0.0509 -0.3105  0.5915
  134TCq2    O6 2051   4.539   0.889   8.514 -0.7316 -0.1342 -0.5505
  134TCq2    H2 2052   4.589   0.913   8.742  2.1235  2.5927 -0.8575
  134TCq2    H3 2053   4.253   1.136   8.609  1.5904  3.7756 -0.4947
  134TCq2    H4 2054   4.365   1.122   9.032 -0.7216  1.7351 -1.0678
  135MPD2     C 2055   4.154   1.354   9.931  0.4400 -0.2317 -0.1536
  135MPD2    C1 2056   4.085   1.361   9.811 -0.4214 -0.2954 -0.6992
  135MPD2    C2 2057   4.125   1.275   9.710 -0.2068 -0.5738  0.7568
  135MPD2    C3 2058   4.205   1.165   9.735  1.4631 -0.7921  0.6773
  135MPD2    C4 2059   4.282   1.159   9.854 -0.3629 -0.4248  0.0301
  135MPD2    C5 2060   4.258   1.262   9.950  0.0357  0.0057  0.4055
  135MPD2     H 2061   4.066   1.270   9.619  1.7282  0.5399 -0.5600
  135MPD2    H1 2062   4.347   1.079   9.887 -0.1477 -0.2375  0.0618
  135MPD2    H2 2063   4.137   1.426  10.009  0.5024  0.1123 -0.4566
  135MPD2    H3 2064   4.312   1.267  10.044  0.7017  0.3675  0.0027
  135MPD2     N 2065   4.227   1.059   9.645 -0.0369  1.1830 -0.0090
  135MPD2    H5 2066   4.299   0.995   9.677  1.2576  2.7476  0.1843
  135MPD2    N1 2067   3.980   1.451   9.789  0.1295 -0.6069 -0.3761
  135MPD2    H7 2068   3.943   1.447   9.694 -0.6553 -0.2253 -0.0838
  136TCq2    C1 2069   3.920   1.537   9.880  0.3783  0.5805  0.6793
  136TCq2    O2 2070   3.936   1.538  10.001  1.1412  0.1956  0.0252
  136TCq2    C2 2071   3.799   1.601   9.829 -0.2717  0.3995  0.0421
  136TCq2    C3 2072   3.693   1.617   9.917 -0.4021 -0.2806  0.4097
  136TCq2    C4 2073   3.568   1.634   9.865 -0.0575 -0.6022 -0.4527
  136TCq2    C5 2074   3.549   1.637   9.731  0.4811  0.2042  0.0075
  136TCq2    C6 2075   3.657   1.612   9.648 -0.4684  0.2337 -0.1476
  136TCq2    C7 2076   3.783   1.597   9.695 -0.5995  0.6379 -0.1142
  136TCq2    C8 2077   3.637   1.514   9.540  0.6855 -0.3747 -0.0023
  136TCq2    O4 2078   3.733   1.448   9.512 -0.4160  0.1652  0.5385
  136TCq2    C9 2079   3.472   1.682   9.959 -0.3380 -0.8516 -0.1630
  136TCq2    O5 2080   3.506   1.679  10.081  0.0500 -0.3576 -0.6925
  136TCq2    O6 2081   3.374   1.748   9.914 -0.3184  0.2527  0.3599
  136TCq2    H2 2082   3.719   1.633  10.021  2.6437  3.4033 -0.9448
  136TCq2    H3 2083   3.448   1.641   9.691  1.0650 -0.4889 -1.5442
  136TCq2    H4 2084   3.868   1.599   9.627 -0.9238 -1.2172 -0.5658
  137MPD2     C 2085   2.265   4.617  10.193 -0.0196 -0.1064  0.4096
  137MPD2    C1 2086   2.402   4.636  10.188  0.5262 -0.1349  0.2249
  137MPD2    C2 2087   2.448   0.044  10.172  0.1721 -0.4069  0.0620
  137MPD2    C3 2088   2.370   0.154  10.180 -0.0597 -0.4289  0.0889
  137MPD2    C4 2089   2.231   0.131  10.172 -0.6154  0.1623  0.7404
  137MPD2    C5 2090   2.182   0.003  10.179 -0.0517 -0.7240  0.7633
  137MPD2     H 2091   2.554   0.064  10.184 -0.4011  2.5697  0.1489
  137MPD2    H1 2092   2.159   0.210  10.156 -0.6879 -0.0261  0.1401
  137MPD2    H2 2093   2.225   4.517  10.199  0.9584 -0.5746 -0.8658
  137MPD2    H3 2094   2.075   4.713  10.164  0.2507 -0.4517 -1.6068
  137MPD2     N 2095   2.424   0.279  10.165  0.1636  0.0682  0.0282
  137MPD2    H5 2096   2.521   0.300  10.189  0.0308  1.8426 -0.9572
  137MPD2    N1 2097   2.490   4.524  10.200 -0.0631  0.7155 -0.4579
  137MPD2    H7 2098   2.447   4.433  10.212  2.1753 -0.2266  0.4311
  138TCq2    C1 2099   2.618   4.522  10.158 -0.1895  0.6475  0.0257
  138TCq2    O2 2100   2.684   4.618  10.126  0.7138  0.0779  0.2708
  138TCq2    C2 2101   2.664   4.384  10.145 -0.0434 -0.4532  0.2013
  138TCq2    C3 2102   2.589   4.269  10.170  0.0200  0.3733  0.3372
  138TCq2    C4 2103   2.645   4.146  10.129  0.2629 -0.5865 -0.7185
  138TCq2    C5 2104   2.770   4.141  10.081 -0.5415 -0.3165  0.7648
  138TCq2    C6 2105   2.837   4.259  10.056 -0.6623  1.0947  0.6294
  138TCq2    C7 2106   2.791   4.380  10.096  0.3155  0.5278  0.3464
  138TCq2    C8 2107   2.916   4.263   9.938  0.6654  0.5317  0.2763
  138TCq2    O4 2108   3.007   4.180   9.919  0.0197  0.6041 -0.2910
  138TCq2    C9 2109   2.567   4.030  10.163  0.1193 -0.4934  0.1003
  138TCq2    O5 2110   2.630   3.924  10.184  0.3393  0.2414 -0.7184
  138TCq2    O6 2111   2.442   4.043  10.167  0.0764  0.0684  0.3693
  138TCq2    H2 2112   2.493   4.264  10.219 -1.0436 -1.8240 -1.9163
  138TCq2    H3 2113   2.811   4.048  10.046  0.6539 -0.5238  2.7095
  138TCq2    H4 2114   2.852   4.469  10.101  1.6624 -0.4652  1.5173
  139TMC2    C1 2115   3.800   3.485  13.557  0.5484  0.3177 -1.0520
  139TMC2    C2 2116   3.907   3.577  13.570 -0.9102  0.4032  0.0057
  139TMC2    C3 2117   3.883   3.707  13.614 -0.2250 -0.0936 -0.7237
  139TMC2    C4 2118   3.672   3.517  13.595  0.0376 -0.1555  0.3386
  139TMC2    C5 2119   3.649   3.647  13.635  0.3307 -0.3354  0.4450
  139TMC2    C6 2120   3.754   3.742  13.642  0.1183 -0.1598  0.5795
  139TMC2     C 2121   3.835   3.356  13.500  0.6818 -0.1641  0.3393
  139TMC2     O 2122   3.950   3.339  13.467  0.0287 -0.0851 -0.1300
  139TMC2     H 2123   4.009   3.542  13.566 -0.3001  2.1804 -0.0557
  139TMC2    H1 2124   3.590   3.454  13.563  0.7023 -1.9398  2.1559
  139TMC2    H2 2125   3.736   3.840  13.684  1.5381 -0.5816  2.1719
  139TMC2    C7 2126   3.514   3.696  13.658  0.7509 -0.6336  0.3206
  139TMC2    C8 2127   3.970   3.815  13.567  0.4039 -0.3512  0.2598
  139TMC2    O1 2128   3.503   3.820  13.659 -0.3594 -0.7394 -0.3348
  139TMC2    O2 2129   3.926   3.928  13.548  0.2710 -0.5772 -0.3362
  139TMC2    O5 2130   4.096   3.762  13.550 -0.1089 -1.0052  1.1730
  139TMC2    H5 2131   4.117   3.679  13.597  0.1647 -1.4617  0.2459
  140MPD2     C 2132   3.646   3.050  13.603  0.5538 -0.2023 -0.2424
  140MPD2    C1 2133   3.749   3.126  13.548  1.0819 -0.4354  0.5676
  140MPD2    C2 2134   3.859   3.059  13.505  0.2301  0.3616  0.3594
  140MPD2    C3 2135   3.879   2.925  13.520  0.1672 -0.0644 -0.4548
  140MPD2    C4 2136   3.783   2.851  13.591  0.1957 -0.8638 -0.0485
  140MPD2    C5 2137   3.669   2.915  13.629  0.3088 -0.6152 -0.6947
  140MPD2     H 2138   3.944   3.113  13.465 -0.8594  1.7174 -0.1297
  140MPD2    H1 2139   3.794   2.744  13.582 -2.2580 -1.0535 -0.6252
  140MPD2    H2 2140   3.550   3.088  13.634  0.3664 -0.6954 -0.2199
  140MPD2    H3 2141   3.601   2.853  13.687  2.4376 -0.1036  2.3164
  140MPD2     N 2142   3.999   2.865  13.473  0.6861 -0.2918 -0.0096
  140MPD2    H5 2143   4.045   2.910  13.394  1.2179 -0.5694  0.1420
  140MPD2    N1 2144   3.741   3.265  13.542 -0.1050 -0.2790 -0.0267
  140MPD2    H7 2145   3.655   3.309  13.573  1.6302  2.3830  1.0046
  141TCq2    C1 2146   4.031   4.598  14.449 -0.0740  0.9464 -0.5367
  141TCq2    O2 2147   4.080   4.662  14.355  0.0847  0.6069 -0.4491
  141TCq2    C2 2148   4.008   4.680  14.567 -0.1525 -0.0167  0.6827
  141TCq2    C3 2149   3.916   4.631  14.663  0.4466  0.5784  0.0509
  141TCq2    C4 2150   3.879   4.707  14.766 -0.2319 -0.3293  0.2847
  141TCq2    C5 2151   3.918   0.117  14.773 -0.4316  0.4755 -0.4712
  141TCq2    C6 2152   4.006   0.167  14.680  0.4755  0.1414 -0.5441
  141TCq2    C7 2153   4.052   0.090  14.578  0.3422 -0.3115 -0.4545
  141TCq2    C8 2154   4.036   0.311  14.700 -0.7264 -0.1654 -0.1899
  141TCq2    O4 2155   3.945   0.387  14.739 -0.3586 -0.3410 -0.3741
  141TCq2    C9 2156   3.777   4.670  14.855 -0.7502 -0.8593 -0.0241
  141TCq2    O5 2157   3.731   0.031  14.936  0.6122  0.5639  1.0326
  141TCq2    O6 2158   3.725   4.558  14.838  0.5290 -0.0252 -0.5572
  141TCq2    H2 2159   3.855   4.545  14.639  0.0649  1.6129 -2.7197
  141TCq2    H3 2160   3.887   0.186  14.850 -2.5026 -0.2959 -0.6070
  141TCq2    H4 2161   4.096   0.147  14.497  0.4522  0.4204  0.1255
  142MPD2     C 2162   1.501   3.633  10.258  0.3928  0.7052 -0.2803
  142MPD2    C1 2163   1.466   3.557  10.152 -0.0970 -0.0455  0.1894
  142MPD2    C2 2164   1.453   3.604  10.024  0.2378 -0.4299  0.1560
  142MPD2    C3 2165   1.478   3.738  10.001 -0.5076 -0.1225  0.0126
  142MPD2    C4 2166   1.521   3.815  10.109  0.2759 -0.4276  0.2574
  142MPD2    C5 2167   1.533   3.766  10.236  0.9155  0.5699 -0.3188
  142MPD2     H 2168   1.437   3.543   9.936  0.5365  0.0557 -0.2342
  142MPD2    H1 2169   1.531   3.923  10.104  0.7440 -0.5449 -1.2929
  142MPD2    H2 2170   1.522   3.590  10.355  1.7030  2.8174  0.3924
  142MPD2    H3 2171   1.552   3.836  10.317 -0.2502  0.1189  0.3493
  142MPD2     N 2172   1.461   3.804   9.872 -0.4895 -0.3378  0.5040
  142MPD2    H5 2173   1.495   3.899   9.856 -1.9484 -0.2483 -2.0364
  142MPD2    N1 2174   1.430   3.424  10.185 -0.2642 -0.1288  0.5380
  142MPD2    H7 2175   1.429   3.394  10.282 -1.4953  0.5602  0.7420
  143TCq2    C1 2176   1.378   3.757   9.774 -1.0682  0.3897  0.0236
  143TCq2    O2 2177   1.301   3.664   9.770 -0.4088  0.2925  0.6954
  143TCq2    C2 2178   1.372   3.852   9.656  0.3393 -0.5576 -0.4689
  143TCq2    C3 2179   1.308   3.815   9.536 -0.1987 -0.1989 -0.1521
  143TCq2    C4 2180   1.307   3.898   9.428  0.3203  0.0379 -0.1666
  143TCq2    C5 2181   1.374   4.010   9.427  0.7257  1.0189  0.4882
  143TCq2    C6 2182   1.445   4.047   9.537 -1.0645 -0.5389  0.7589
  143TCq2    C7 2183   1.431   3.975   9.656 -0.6867 -0.0992  0.5073
  143TCq2    C8 2184   1.523   4.172   9.537  0.6061 -0.1815  0.2082
  143TCq2    O4 2185   1.521   4.230   9.430  0.4402 -0.4615  0.1898
  143TCq2    C9 2186   1.239   3.864   9.312 -0.2226 -0.2879  1.1539
  143TCq2    O5 2187   1.242   3.942   9.211  0.2409  0.2208 -0.3609
  143TCq2    O6 2188   1.180   3.755   9.316  0.1858  0.1990 -0.2390
  143TCq2    H2 2189   1.246   3.726   9.537 -2.2538  1.2782  2.0155
  143TCq2    H3 2190   1.373   4.063   9.332  2.3358 -2.4088 -1.4794
  143TCq2    H4 2191   1.474   4.011   9.748 -0.2438 -0.7182  0.5449
  144MPD2     C 2192   4.031   1.896   0.285  0.6562  0.1379  0.0890
  144MPD2    C1 2193   4.086   1.767   0.274  0.3798 -0.1852  0.0155
  144MPD2    C2 2194   4.164   1.735   0.384  0.2205  0.4169  0.3890
  144MPD2    C3 2195   4.199   1.820   0.490 -0.3275 -0.4465  0.3220
  144MPD2    C4 2196   4.142   1.941   0.489 -0.5901 -0.0806 -0.6517
  144MPD2    C5 2197   4.050   1.977   0.391 -0.0133 -0.2893  0.0503
  144MPD2     H 2198   4.197   1.633   0.397 -0.7752  0.3190  2.1938
  144MPD2    H1 2199   4.178   2.021   0.553  1.8278 -0.1921 -1.8666
  144MPD2    H2 2200   3.966   1.930   0.205 -2.0932  0.4102  2.4665
  144MPD2    H3 2201   4.003   2.075   0.397  0.9142  0.0243  2.5603
  144MPD2     N 2202   4.303   1.802   0.581  0.0468 -0.3113  0.2427
  144MPD2    H5 2203   4.321   1.879   0.645  1.9578  0.4377 -1.1716
  144MPD2    N1 2204   4.070   1.677   0.164 -0.5396  0.5349  0.0638
  144MPD2    H7 2205   4.104   1.582   0.176 -2.0344  0.0921  0.7349
  145TCq2    C1 2206   4.386   1.692   0.599  0.0398  0.0284 -0.2694
  145TCq2    O2 2207   4.398   1.594   0.528 -0.5284 -0.3971 -0.0448
  145TCq2    C2 2208   4.497   1.719   0.694 -1.0830  0.1246 -0.2121
  145TCq2    C3 2209   4.614   1.646   0.685  0.0236 -0.5139 -0.5238
  145TCq2    C4 2210   0.000   1.680   0.756  0.3724 -0.2042 -0.7046
  145TCq2    C5 2211   0.001   1.787   0.835 -0.5694  0.0057  0.0259
  145TCq2    C6 2212   4.603   1.858   0.853  0.0068  0.4466 -0.4357
  145TCq2    C7 2213   4.492   1.822   0.783  0.4331 -0.3355  0.3302
  145TCq2    C8 2214   4.583   1.937   0.974  0.5523  0.0898  0.3880
  145TCq2    O4 2215   4.676   1.950   1.051 -0.3943 -0.9782  0.4936
  145TCq2    C9 2216   0.126   1.605   0.722  0.0445 -0.0485  0.6308
  145TCq2    O5 2217   0.229   1.631   0.790 -0.3830 -0.5231 -0.6705
  145TCq2    O6 2218   0.127   1.525   0.618 -0.0419 -0.4722 -0.0171
  145TCq2    H2 2219   4.622   1.562   0.617  1.1345  0.3069 -1.4154
  145TCq2    H3 2220   0.092   1.819   0.885 -0.1931 -1.4555  0.2751
  145TCq2    H4 2221   4.398   1.875   0.797  0.5737  0.1797 -0.6761
  146TMC2    C1 2222   0.957   1.286  12.501  0.2443 -0.1790 -0.0333
  146TMC2    C2 2223   0.917   1.378  12.406 -1.1234 -0.6859 -0.3569
  146TMC2    C3 2224   0.932   1.335  12.272 -0.1339  0.5668 -0.4252
  146TMC2    C4 2225   1.013   1.168  12.478 -0.2449  0.5677 -0.1070
  146TMC2    C5 2226   1.018   1.131  12.340  0.3082  0.1899  0.0027
  146TMC2    C6 2227   0.983   1.215  12.233 -0.8876 -0.1407  0.3365
  146TMC2     C 2228   0.969   1.350  12.632 -0.4021 -0.1268 -0.6564
  146TMC2     O 2229   0.923   1.464  12.652  0.1587  0.2346  0.0054
  146TMC2     H 2230   0.905   1.485  12.421  0.1201 -0.4499 -1.0839
  146TMC2    H1 2231   1.025   1.087  12.549  1.1867 -0.7493 -1.8726
  146TMC2    H2 2232   1.012   1.195  12.131  1.3825 -0.7432  1.1089
  146TMC2    C7 2233   1.081   1.009  12.300  0.0810 -0.5755 -0.1938
  146TMC2    C8 2234   0.940   1.436  12.172  0.1922  0.6478 -0.0112
  146TMC2    O1 2235   1.063   0.969  12.186  0.5653 -0.1521 -0.4232
  146TMC2    O2 2236   0.971   1.551  12.193  0.2714  0.3861 -0.5470
  146TMC2    O5 2237   0.886   1.384  12.059  0.0877  0.1481  0.4809
  146TMC2    H5 2238   0.832   1.303  12.070 -1.9373  1.4773  0.2801
  147MPD2     C 2239   1.292   0.557  12.425  0.5919  0.1334  0.3497
  147MPD2    C1 2240   1.355   0.652  12.498 -0.1872 -0.2456  0.0855
  147MPD2    C2 2241   1.314   0.785  12.485  0.4012 -0.8710 -1.0082
  147MPD2    C3 2242   1.219   0.820  12.389 -0.2079  0.6257  0.0603
  147MPD2    C4 2243   1.175   0.726  12.299 -0.0231  0.5937  0.1306
  147MPD2    C5 2244   1.202   0.597  12.328 -0.0589  0.5033 -0.1834
  147MPD2     H 2245   1.349   0.863  12.552  1.8043 -2.2269 -0.1580
  147MPD2    H1 2246   1.095   0.749  12.229 -0.5433 -0.9789  0.2139
  147MPD2    H2 2247   1.298   0.451  12.451 -1.3874  0.3012  1.4819
  147MPD2    H3 2248   1.156   0.524  12.262 -0.2514 -0.7135  1.2705
  147MPD2     N 2249   1.167   0.951  12.397  0.3432  0.0615 -0.2201
  147MPD2    H5 2250   1.178   1.003  12.484  3.5277 -2.0621  0.6816
  147MPD2    N1 2251   1.444   0.601  12.597 -0.3311 -0.2951  0.4174
  147MPD2    H7 2252   1.446   0.500  12.609 -1.5285 -0.3445  0.2508
  148MPD2     C 2253   0.800   0.440  10.178  0.2734  0.0043 -0.0977
  148MPD2    C1 2254   0.843   0.352  10.281  0.1053 -0.5219  0.2550
  148MPD2    C2 2255   0.800   0.220  10.266  0.1428 -0.2315  0.2303
  148MPD2    C3 2256   0.717   0.176  10.167 -0.5304 -0.3861 -0.0082
  148MPD2    C4 2257   0.669   0.264  10.079 -0.2968  0.5362  0.3616
  148MPD2    C5 2258   0.715   0.396  10.081  0.1033  0.0169  0.2326
  148MPD2     H 2259   0.839   0.149  10.338  0.6231  0.9096  1.0935
  148MPD2    H1 2260   0.592   0.233  10.009  0.3025 -1.6347  0.6755
  148MPD2    H2 2261   0.821   0.547  10.180  0.9592 -0.1075 -1.7129
  148MPD2    H3 2262   0.678   0.469  10.010  1.6549  0.4306 -0.1678
  148MPD2     N 2263   0.657   0.051  10.174 -0.3208 -0.0892 -0.3893
  148MPD2    H5 2264   0.598   0.019  10.097  0.0515  2.7735 -1.9003
  148MPD2    N1 2265   0.935   0.383  10.384 -0.1366 -0.6761  0.7179
  148MPD2    H7 2266   0.957   0.307  10.447 -1.0481 -1.3335  0.2434
  149TCq2    C1 2267   1.011   0.503  10.397 -0.3532 -0.2048 -0.4759
  149TCq2    O2 2268   1.037   0.586  10.310  0.2840  0.2782  0.3322
  149TCq2    C2 2269   1.108   0.486  10.506 -0.1848  0.0014 -0.2168
  149TCq2    C3 2270   1.233   0.521  10.478  1.5797  0.2607  0.3291
  149TCq2    C4 2271   1.340   0.449  10.540  0.0709 -0.7432  0.1650
  149TCq2    C5 2272   1.308   0.342  10.619 -0.5914 -0.1955 -0.0970
  149TCq2    C6 2273   1.179   0.312  10.646 -0.2826 -0.4235 -0.5952
  149TCq2    C7 2274   1.078   0.390  10.598  0.0316 -0.2219  0.1932
  149TCq2    C8 2275   1.155   0.174  10.616 -0.0647  0.4381 -0.9231
  149TCq2    O4 2276   1.056   0.144  10.549 -0.2235  0.6931  0.5903
  149TCq2    C9 2277   1.480   0.457  10.487  1.2193  0.0642  0.1647
  149TCq2    O5 2278   1.511   0.547  10.405  0.3275  0.2268  0.2448
  149TCq2    O6 2279   1.540   0.348  10.493  0.7872  0.0919  0.2409
  149TCq2    H2 2280   1.250   0.596  10.402  1.0599 -1.2928 -1.3179
  149TCq2    H3 2281   1.387   0.279  10.657 -0.7182  0.1810  0.7808
  149TCq2    H4 2282   0.976   0.355  10.610  0.0122 -0.8454 -1.8787
  150MPD2     C 2283   2.535   3.788  12.565 -0.1682 -0.4601 -0.1401
  150MPD2    C1 2284   2.611   3.789  12.447  0.2668 -0.0275  0.5596
  150MPD2    C2 2285   2.728   3.854  12.448 -0.6037 -0.1274 -0.4510
  150MPD2    C3 2286   2.774   3.927  12.561 -0.4023  0.7166  0.2926
  150MPD2    C4 2287   2.695   3.930  12.671 -0.1579  0.4215  0.2509
  150MPD2    C5 2288   2.571   3.871  12.678  0.2068 -0.1793  0.0038
  150MPD2     H 2289   2.793   3.849  12.361  0.7024  0.5796  0.4768
  150MPD2    H1 2290   2.726   3.979  12.762  1.0634  0.7139 -0.3300
  150MPD2    H2 2291   2.448   3.725  12.569 -1.0745  0.9266  2.0046
  150MPD2    H3 2292   2.503   3.862  12.763 -0.3594  0.2457 -0.4025
  150MPD2     N 2293   2.900   3.982  12.550 -0.1181 -0.5234 -0.2385
  150MPD2    H5 2294   2.934   3.980  12.454  1.1661  2.8348  0.1163
  150MPD2    N1 2295   2.558   3.725  12.332 -0.8235  0.0760 -0.1613
  150MPD2    H7 2296   2.467   3.681  12.344 -0.3030 -0.8175  0.4946
  151TCq2    C1 2297   2.974   4.020  12.659  0.6186  0.9406 -0.4777
  151TCq2    O2 2298   2.957   4.009  12.780 -0.0835  0.3484  0.3161
  151TCq2    C2 2299   3.099   4.077  12.616  0.3345 -0.1818 -0.6026
  151TCq2    C3 2300   3.123   4.118  12.486  0.4498  0.0681 -0.0195
  151TCq2    C4 2301   3.251   4.113  12.443 -0.2136 -0.2765 -0.3301
  151TCq2    C5 2302   3.357   4.073  12.522  1.5139 -0.6825 -0.3932
  151TCq2    C6 2303   3.326   4.020  12.647  0.7782  0.3974  0.5119
  151TCq2    C7 2304   3.202   4.041  12.699 -0.4602  0.8292  0.0889
  151TCq2    C8 2305   3.429   3.961  12.723 -0.0757 -0.8425 -0.2949
  151TCq2    O4 2306   3.533   4.016  12.746  0.0599  0.1287  0.3144
  151TCq2    C9 2307   3.279   4.132  12.303  0.2794 -0.1981 -0.3930
  151TCq2    O5 2308   3.396   4.116  12.256  0.2162 -0.8279 -0.8562
  151TCq2    O6 2309   3.179   4.139  12.236  0.1690 -0.0458  0.0060
  151TCq2    H2 2310   3.044   4.145  12.417  0.1856  1.1826  0.7151
  151TCq2    H3 2311   3.455   4.052  12.479  0.9833  1.3119 -2.5020
  151TCq2    H4 2312   3.180   4.004  12.799 -0.0708 -0.5845 -0.3435
  152MPD2     C 2313   2.760   3.028  13.120 -0.3820 -0.5190  0.3952
  152MPD2    C1 2314   2.784   3.145  13.047 -0.4699 -0.1355 -0.2426
  152MPD2    C2 2315   2.688   3.192  12.959 -0.0168  0.4065  1.0077
  152MPD2    C3 2316   2.566   3.128  12.944  0.1870 -0.2664 -0.5665
  152MPD2    C4 2317   2.547   3.010  13.012 -0.8176  0.4087 -0.0963
  152MPD2    C5 2318   2.644   2.959  13.098 -0.1977  0.2029  0.0363
  152MPD2     H 2319   2.700   3.282  12.899  1.2233 -0.3259  0.1771
  152MPD2    H1 2320   2.459   2.951  12.988  0.2571 -1.9815  1.8027
  152MPD2    H2 2321   2.837   2.985  13.184  1.1530  1.1387 -0.3287
  152MPD2    H3 2322   2.629   2.863  13.146 -2.4584  1.0923  1.1152
  152MPD2     N 2323   2.468   3.180  12.864 -0.0741 -0.4546 -0.8281
  152MPD2    H5 2324   2.490   3.275  12.832 -1.4216  0.1184 -0.0347
  152MPD2    N1 2325   2.907   3.212  13.067 -0.0322  0.0924 -0.1148
  152MPD2    H7 2326   2.968   3.173  13.138  2.5137 -1.2215 -3.0728
  153TCq2    C1 2327   2.942   3.326  13.001  0.1793  0.3746 -0.2546
  153TCq2    O2 2328   2.867   3.410  12.953 -0.3631  0.3777  0.0056
  153TCq2    C2 2329   3.085   3.364  13.028 -0.9781 -0.3626 -0.4370
  153TCq2    C3 2330   3.181   3.274  12.994 -0.9004  0.3592 -0.1846
  153TCq2    C4 2331   3.311   3.322  12.984  0.8253  0.5304  0.7757
  153TCq2    C5 2332   3.346   3.448  13.008  0.3695 -0.3957  0.8046
  153TCq2    C6 2333   3.239   3.531  13.035 -0.1368 -0.2836  0.0499
  153TCq2    C7 2334   3.110   3.496  13.033  0.9717  0.3935 -0.2308
  153TCq2    C8 2335   3.270   3.664  13.092 -0.3181 -0.1186 -0.4327
  153TCq2    O4 2336   3.174   3.736  13.126  1.0347 -0.6483  0.3400
  153TCq2    C9 2337   3.412   3.220  12.965  0.1578  0.4576  0.5236
  153TCq2    O5 2338   3.527   3.237  13.020  0.2939 -0.1091  0.5224
  153TCq2    O6 2339   3.371   3.107  12.928  0.8340 -0.6950 -0.0177
  153TCq2    H2 2340   3.161   3.167  12.986 -0.3597  0.1825  0.7450
  153TCq2    H3 2341   3.448   3.479  12.993  0.5076 -1.5197 -0.5584
  153TCq2    H4 2342   3.033   3.567  13.058 -0.3194 -1.1847  0.2166
  154MPD2     C 2343   4.180   3.056   0.254  0.6020  0.0424 -0.0465
  154MPD2    C1 2344   4.113   2.994   0.357  0.9688  0.7959 -0.4480
  154MPD2    C2 2345   4.001   3.056   0.419 -0.5394  0.6016  0.4883
  154MPD2    C3 2346   3.959   3.175   0.366  0.5080 -0.3994  0.5158
  154MPD2    C4 2347   4.024   3.228   0.256  0.3351 -0.1873  0.5008
  154MPD2    C5 2348   4.136   3.178   0.207  0.5601 -0.0304  0.1265
  154MPD2     H 2349   3.941   3.014   0.499 -0.7046  0.1463  0.1267
  154MPD2    H1 2350   3.997   3.319   0.205 -1.6584 -1.1595 -0.1715
  154MPD2    H2 2351   4.267   3.016   0.205 -1.2424 -1.0976 -2.4143
  154MPD2    H3 2352   4.180   3.234   0.124  1.3197  0.8933  1.1494
  154MPD2     N 2353   3.845   3.238   0.422  0.2412  0.2524  0.0617
  154MPD2    H5 2354   3.796   3.188   0.495 -1.5118  1.5422 -0.2229
  154MPD2    N1 2355   4.159   2.868   0.390 -0.1495  0.4521 -0.7024
  154MPD2    H7 2356   4.230   2.827   0.330  0.9858  1.0514  0.2353
  155TCq2    C1 2357   4.122   2.790   0.496  0.5763  1.6399 -0.2653
  155TCq2    O2 2358   4.038   2.810   0.584 -0.7956 -0.2782  0.4083
  155TCq2    C2 2359   4.197   2.667   0.502 -0.1734  0.4591  0.2194
  155TCq2    C3 2360   4.149   2.561   0.573  0.4227 -0.1996  0.5774
  155TCq2    C4 2361   4.226   2.452   0.597  0.1794 -0.5850  0.3497
  155TCq2    C5 2362   4.350   2.445   0.539 -0.3496 -0.1181 -0.2180
  155TCq2    C6 2363   4.394   2.546   0.451  0.9518  0.1945  0.6108
  155TCq2    C7 2364   4.309   2.650   0.427 -0.2086 -0.4356  0.8294
  155TCq2    C8 2365   4.524   2.544   0.392 -0.0597 -0.9057  0.4183
  155TCq2    O4 2366   4.546   2.632   0.308  0.4024 -0.3394 -0.0820
  155TCq2    C9 2367   4.176   2.349   0.687 -0.5568 -0.0162 -0.2217
  155TCq2    O5 2368   4.071   2.377   0.746  0.8194 -0.1399  0.4822
  155TCq2    O6 2369   4.256   2.256   0.706  0.2752 -0.4169  0.0467
  155TCq2    H2 2370   4.051   2.571   0.616  0.9801  0.7692  1.6372
  155TCq2    H3 2371   4.412   2.363   0.574 -0.9213 -0.0413  0.9801
  155TCq2    H4 2372   4.348   2.725   0.359 -0.0681 -1.3307 -0.0752
  156MPD2     C 2373   3.263   0.497  12.708 -0.2273  0.6584 -0.2149
  156MPD2    C1 2374   3.210   0.597  12.640 -0.4628  0.0764  0.1630
  156MPD2    C2 2375   3.120   0.678  12.703  0.5077 -0.0495 -0.4864
  156MPD2    C3 2376   3.096   0.665  12.839  0.0722  1.1185 -0.2098
  156MPD2    C4 2377   3.167   0.577  12.911  0.1599 -0.3812  0.3304
  156MPD2    C5 2378   3.246   0.487  12.845 -0.0414  0.2484  0.5921
  156MPD2     H 2379   3.080   0.766  12.652  0.9438 -0.0985 -0.9065
  156MPD2    H1 2380   3.151   0.572  13.018  0.2552 -0.0693  0.3571
  156MPD2    H2 2381   3.324   0.420  12.660 -0.2255 -0.0296  0.8956
  156MPD2    H3 2382   3.282   0.398  12.896 -0.8687  0.0034  0.7467
  156MPD2     N 2383   3.011   0.764  12.889 -0.0922  0.3596 -0.0452
  156MPD2    H5 2384   2.959   0.818  12.820 -2.4813 -0.8193  0.8297
  156MPD2    N1 2385   3.233   0.605  12.498  0.0042  0.7317  0.2325
  156MPD2    H7 2386   3.312   0.552  12.464  0.5549  1.7882 -0.1287
  157TCq2    C1 2387   3.132   0.656  12.414  0.1629 -0.3596 -0.5858
  157TCq2    O2 2388   3.014   0.683  12.441 -0.8290 -0.1180  0.1319
  157TCq2    C2 2389   3.164   0.682  12.279 -0.1046 -0.1092 -0.3143
  157TCq2    C3 2390   3.278   0.627  12.230 -0.5004 -0.6291  0.1118
  157TCq2    C4 2391   3.310   0.659  12.099 -0.0252  0.4260  0.2804
  157TCq2    C5 2392   3.240   0.750  12.026 -0.7391  0.9333  0.0135
  157TCq2    C6 2393   3.129   0.809  12.081 -0.2584  0.0353 -0.4313
  157TCq2    C7 2394   3.098   0.784  12.212  0.3362  0.2767 -0.3673
  157TCq2    C8 2395   3.016   0.855  11.998 -0.7479 -0.0170  0.6443
  157TCq2    O4 2396   2.972   0.968  12.018  0.0265  0.3631  0.3490
  157TCq2    C9 2397   3.424   0.599  12.033 -0.4131 -0.5733 -0.0426
  157TCq2    O5 2398   3.451   0.639  11.919 -0.2469 -0.1392  0.1446
  157TCq2    O6 2399   3.491   0.506  12.091 -0.2045 -0.5482 -0.5130
  157TCq2    H2 2400   3.333   0.551  12.284 -0.1311 -0.7981 -0.5011
  157TCq2    H3 2401   3.266   0.778  11.925  0.5405 -1.3941 -0.3024
  157TCq2    H4 2402   3.015   0.837  12.259  0.9746  0.5297  0.4726
  158TMC2    C1 2403   3.686   4.443  14.366 -0.3991 -0.1089 -0.6601
  158TMC2    C2 2404   3.688   4.563  14.431 -0.4568  0.1507 -0.0167
  158TMC2    C3 2405   3.709   4.678  14.363 -0.0392  0.3578 -0.2956
  158TMC2    C4 2406   3.716   4.443  14.229  0.1335  0.5414 -0.0107
  158TMC2    C5 2407   3.736   4.560  14.163  0.1882  0.6515 -0.2097
  158TMC2    C6 2408   3.736   4.678  14.231  0.2656  0.1944  1.0028
  158TMC2     C 2409   3.719   4.331  14.452 -0.4522 -0.0799 -0.0266
  158TMC2     O 2410   3.716   4.348  14.572  0.1239 -0.1118 -0.3647
  158TMC2     H 2411   3.666   4.575  14.537  0.3900  0.2325  0.1497
  158TMC2    H1 2412   3.728   4.348  14.178 -0.0135  0.7512 -0.4310
  158TMC2    H2 2413   3.748   0.050  14.178 -2.8501  1.2631  2.2373
  158TMC2    C7 2414   3.738   4.566  14.019 -0.5813 -0.7627  0.7492
  158TMC2    C8 2415   3.720   0.076  14.435 -0.0349 -0.5958 -0.0305
  158TMC2    O1 2416   3.818   4.645  13.967  0.2224 -0.1898 -0.0282
  158TMC2    O2 2417   3.788   0.174  14.407 -0.1076  0.3814  0.0499
  158TMC2    O5 2418   3.596   0.085  14.487  0.0580  0.3547  0.0859
  158TMC2    H5 2419   3.563   0.003  14.530  2.1891 -0.9256 -0.7413
  159MPD2     C 2420   3.744   3.850  14.607  0.4109 -0.5453 -0.0219
  159MPD2    C1 2421   3.690   3.851  14.482  0.0447  0.4158 -0.1588
  159MPD2    C2 2422   3.684   3.971  14.410  0.2853  0.1577 -0.3384
  159MPD2    C3 2423   3.743   4.089  14.461  1.1374 -0.1156 -0.4398
  159MPD2    C4 2424   3.800   4.087  14.585  0.1553  0.2747 -0.3164
  159MPD2    C5 2425   3.799   3.969  14.658 -0.2969 -0.5083  0.3045
  159MPD2     H 2426   3.636   3.976  14.313 -1.8530 -0.2834  0.7006
  159MPD2    H1 2427   3.853   4.168  14.633  0.9059  0.9622 -2.3039
  159MPD2    H2 2428   3.754   3.760  14.667 -1.4914 -3.0127 -3.3332
  159MPD2    H3 2429   3.847   3.962  14.755  0.2156 -0.6856  0.0403
  159MPD2     N 2430   3.704   4.207  14.395  0.2005  0.4304 -0.0755
  159MPD2    H5 2431   3.670   4.198  14.300 -1.0423  4.1500 -0.0075
  159MPD2    N1 2432   3.635   3.728  14.436 -0.2033  0.5186  0.2688
  159MPD2    H7 2433   3.626   3.652  14.503 -2.2924  0.7688  0.2688
  160TMC2    C1 2434   3.101   1.937   1.032  0.1268  0.2910  0.9006
  160TMC2    C2 2435   3.004   1.840   1.019 -0.2691 -0.9004  0.2342
  160TMC2    C3 2436   2.986   1.801   0.887  0.4750 -0.0688 -0.0306
  160TMC2    C4 2437   3.164   1.990   0.924 -0.3508 -0.3379  0.0386
  160TMC2    C5 2438   3.134   1.955   0.799 -0.0587 -0.0201  0.1589
  160TMC2    C6 2439   3.051   1.849   0.779  0.0807 -0.1299  0.5622
  160TMC2     C 2440   3.058   2.039   1.120  0.0029 -0.0748 -0.5116
  160TMC2     O 2441   3.014   2.006   1.229  0.1335  0.5305 -0.1285
  160TMC2     H 2442   2.947   1.806   1.104  0.0588  0.7197  1.1083
  160TMC2    H1 2443   3.242   2.063   0.942 -2.1890  1.5228  0.4860
  160TMC2    H2 2444   3.015   1.815   0.682 -0.2431  1.0894  0.2458
  160TMC2    C7 2445   3.130   2.047   0.688 -0.1973 -0.1335 -0.3849
  160TMC2    C8 2446   2.875   1.725   0.855  0.6995  0.2634 -0.3663
  160TMC2    O1 2447   3.035   2.032   0.611  0.4887 -0.0299 -0.6468
  160TMC2    O2 2448   2.828   1.726   0.742 -0.2129  0.3300  0.5571
  160TMC2    O5 2449   2.890   1.619   0.939  0.1875 -0.0084 -0.7416
  160TMC2    H5 2450   2.974   1.621   0.991  0.4404 -0.0133 -1.1557
  161MPD2     C 2451   2.958   2.283   1.235  0.5003  0.5040 -0.3349
  161MPD2    C1 2452   2.996   2.281   1.105  0.2255 -0.8504 -0.1573
  161MPD2    C2 2453   2.983   2.393   1.034 -0.4506 -0.2175 -0.7100
  161MPD2    C3 2454   2.929   2.510   1.087  0.4561  0.1156 -0.2905
  161MPD2    C4 2455   2.879   2.506   1.211  0.2725  0.7667 -0.3152
  161MPD2    C5 2456   2.902   2.394   1.286  0.4427 -0.4100 -0.6510
  161MPD2     H 2457   3.016   2.395   0.930  1.6002 -3.2310 -0.1208
  161MPD2    H1 2458   2.839   2.594   1.258 -0.5547 -0.0538  0.5066
  161MPD2    H2 2459   2.979   2.209   1.311  0.9823  0.2208 -0.7494
  161MPD2    H3 2460   2.854   2.390   1.384 -0.1086  0.4150 -0.8874
  161MPD2     N 2461   2.901   2.632   1.016  0.1943 -0.2560 -0.1454
  161MPD2    H5 2462   2.844   2.701   1.063 -0.9084  0.1535 -2.0739
  161MPD2    N1 2463   3.041   2.159   1.051 -0.2558 -0.0501  0.3701
  161MPD2    H7 2464   3.062   2.156   0.951 -0.0215 -1.8196  0.4722
  162TMC2    C1 2465   0.512   3.685   0.713  0.3237  0.2575 -0.0241
  162TMC2    C2 2466   0.452   3.579   0.776 -0.0766 -0.6957 -0.4496
  162TMC2    C3 2467   0.470   3.568   0.913 -0.1501  0.0560  0.3282
  162TMC2    C4 2468   0.572   3.785   0.786  0.7196 -0.0245 -0.2239
  162TMC2    C5 2469   0.583   3.772   0.919  0.3692  0.6853  0.1192
  162TMC2    C6 2470   0.547   3.656   0.983 -0.5059 -0.0569  0.0391
  162TMC2     C 2471   0.514   3.696   0.573 -0.6265  0.0543 -0.5949
  162TMC2     O 2472   0.598   3.776   0.531 -0.1455 -0.4750 -0.2059
  162TMC2     H 2473   0.408   3.493   0.727  1.4945 -1.0044 -1.3512
  162TMC2    H1 2474   0.601   3.876   0.737  1.1752  0.8264  1.6253
  162TMC2    H2 2475   0.601   3.633   1.074  2.4025  0.1502 -1.6418
  162TMC2    C7 2476   0.673   3.867   0.993  0.1343  0.0884  0.4326
  162TMC2    C8 2477   0.470   3.424   0.953 -0.3724 -0.1322 -0.7026
  162TMC2    O1 2478   0.763   3.907   0.922  0.6700  0.0442 -0.5299
  162TMC2    O2 2479   0.574   3.377   0.997 -0.3056 -0.0060 -0.0021
  162TMC2    O5 2480   0.357   3.370   0.909  0.1052 -0.1772  0.2123
  162TMC2    H5 2481   0.292   3.442   0.902  0.6430  0.1913 -0.9082
  163MPD2     C 2482   0.416   3.506   0.117  0.0648  0.2285  0.0773
  163MPD2    C1 2483   0.508   3.592   0.158 -0.1041 -0.9273 -0.0556
  163MPD2    C2 2484   0.516   3.623   0.288 -0.0192 -0.9599  0.0401
  163MPD2    C3 2485   0.416   3.586   0.377  0.3782  0.0572  0.2049
  163MPD2    C4 2486   0.318   3.507   0.333 -0.8453 -0.5773  0.2136
  163MPD2    C5 2487   0.317   3.471   0.202  0.6315 -0.2273 -0.1042
  163MPD2     H 2488   0.603   3.673   0.328 -0.0060  1.6691 -3.3013
  163MPD2    H1 2489   0.244   3.463   0.398 -1.3580  0.4178  0.3030
  163MPD2    H2 2490   0.420   3.466   0.017 -1.8743 -1.3896  0.6506
  163MPD2    H3 2491   0.242   3.403   0.162 -0.8183  2.1767 -1.5305
  163MPD2     N 2492   0.420   3.616   0.510 -0.3249  0.1411 -0.6746
  163MPD2    H5 2493   0.359   3.560   0.570  1.9441 -0.6194  0.9432
  163MPD2    N1 2494   0.601   3.638   0.062  0.5222 -0.3026  0.2622
  163MPD2    H7 2495   0.609   3.589  17.661 -4.4669  1.1881 -1.0739
  164TCq2    C1 2496   1.777   4.461  11.298  0.0916  0.0591 -0.7276
  164TCq2    O2 2497   1.719   4.402  11.386  0.1204  0.5643  0.9614
  164TCq2    C2 2498   1.752   4.607  11.292  0.7035 -0.2302 -1.0330
  164TCq2    C3 2499   1.831   4.685  11.219  0.5776 -0.7319 -0.8195
  164TCq2    C4 2500   1.775   0.086  11.168 -0.3325  0.4148  0.5823
  164TCq2    C5 2501   1.658   0.140  11.214  0.3163  0.2245  0.6287
  164TCq2    C6 2502   1.587   0.053  11.294  0.2010 -0.0136 -0.0278
  164TCq2    C7 2503   1.628   4.649  11.331 -0.2032 -0.1059  0.4344
  164TCq2    C8 2504   1.447   0.094  11.316 -0.0437 -0.0205  0.5909
  164TCq2    O4 2505   1.390   0.179  11.250 -0.0883 -0.2687  0.2391
  164TCq2    C9 2506   1.859   0.165  11.072  0.3133 -0.3521  0.7107
  164TCq2    O5 2507   1.839   0.289  11.055  0.7433 -0.0162 -0.1283
  164TCq2    O6 2508   1.968   0.106  11.049  0.1246  0.2364 -0.1433
  164TCq2    H2 2509   1.932   4.657  11.189  0.0560 -0.1974 -3.0909
  164TCq2    H3 2510   1.619   0.232  11.172  0.4581 -0.1426 -0.2961
  164TCq2    H4 2511   1.564   4.590  11.395 -1.4019  0.5621 -0.1582
  165MPD2     C 2512   2.452   0.607   2.198  0.7663 -0.1963 -0.0405
  165MPD2    C1 2513   2.402   0.675   2.095 -1.0649  0.4873 -0.3423
  165MPD2    C2 2514   2.461   0.792   2.059 -0.9392  0.7210  0.1108
  165MPD2    C3 2515   2.567   0.846   2.132 -1.0482 -0.8294  0.1017
  165MPD2    C4 2516   2.617   0.772   2.235 -0.6963 -0.2553  0.5523
  165MPD2    C5 2517   2.566   0.651   2.262 -0.0889  0.7291  0.3969
  165MPD2     H 2518   2.419   0.849   1.976 -2.1609 -0.0090  0.2319
  165MPD2    H1 2519   2.705   0.812   2.284  0.0699 -0.5927 -0.5229
  165MPD2    H2 2520   2.410   0.515   2.236  1.2383 -0.0514  0.8417
  165MPD2    H3 2521   2.610   0.590   2.341  1.4806  1.4878  0.0997
  165MPD2     N 2522   2.633   0.967   2.098  0.6514  0.1618 -0.0666
  165MPD2    H5 2523   2.709   0.992   2.160  0.1336  0.0079  0.6236
  165MPD2    N1 2524   2.286   0.624   2.033 -0.4779 -0.3640  0.1405
  165MPD2    H7 2525   2.256   0.532   2.063  1.6470 -1.3896 -0.8724
  166TCq2    C1 2526   2.610   1.044   1.983 -0.8773  0.0814 -0.5838
  166TCq2    O2 2527   2.550   1.018   1.876  0.1537  0.7732 -0.1002
  166TCq2    C2 2528   2.697   1.159   1.983  0.1683  0.4079 -0.1621
  166TCq2    C3 2529   2.764   1.196   2.101 -0.5218 -0.1184 -0.5812
  166TCq2    C4 2530   2.879   1.271   2.086 -0.0021 -1.0468  0.8583
  166TCq2    C5 2531   2.924   1.304   1.961 -0.0081  0.4170  0.6056
  166TCq2    C6 2532   2.859   1.276   1.848 -0.1587 -0.6203  0.1239
  166TCq2    C7 2533   2.747   1.194   1.860  0.0796  0.1413 -0.2476
  166TCq2    C8 2534   2.924   1.315   1.720  0.2331  0.5601 -0.3108
  166TCq2    O4 2535   3.025   1.385   1.729  0.0781 -0.1645 -0.3053
  166TCq2    C9 2536   2.937   1.341   2.204  0.4313 -0.3863 -0.2600
  166TCq2    O5 2537   3.046   1.401   2.188  0.1711 -0.1974 -0.3964
  166TCq2    O6 2538   2.875   1.332   2.314  0.0167  0.7849 -0.0416
  166TCq2    H2 2539   2.733   1.172   2.202  2.4342  1.6551  0.7666
  166TCq2    H3 2540   3.008   1.373   1.952 -1.5807  2.2095 -0.2249
  166TCq2    H4 2541   2.710   1.149   1.768  3.2485  0.3734 -1.6478
  167TMC2    C1 2542   0.798   4.071  12.973  0.2546  0.5532  0.3643
  167TMC2    C2 2543   0.780   4.076  13.107  0.1012 -0.5528 -0.0356
  167TMC2    C3 2544   0.792   3.967  13.183  0.4428  0.5034 -0.4539
  167TMC2    C4 2545   0.848   3.954  12.919 -0.0701 -0.9510  0.1319
  167TMC2    C5 2546   0.853   3.845  12.991 -0.2490 -0.2894  0.3955
  167TMC2    C6 2547   0.825   3.849  13.127  0.2753  0.4077 -0.4522
  167TMC2     C 2548   0.780   4.191  12.901 -0.2675 -0.2857 -0.1551
  167TMC2     O 2549   0.702   4.276  12.941 -0.2103 -0.4594 -0.3353
  167TMC2     H 2550   0.735   4.164  13.151  0.6537 -0.0372 -0.5180
  167TMC2    H1 2551   0.874   3.949  12.814 -1.4547 -0.1308 -0.2565
  167TMC2    H2 2552   0.838   3.762  13.192  1.6125 -2.7811 -4.9603
  167TMC2    C7 2553   0.931   3.731  12.954 -0.5848 -0.2600  1.0917
  167TMC2    C8 2554   0.713   3.958  13.304  0.1566 -0.4618 -0.0067
  167TMC2    O1 2555   0.978   3.668  13.050 -0.6386 -0.5735 -0.2943
  167TMC2    O2 2556   0.720   4.028  13.404  0.0303  0.5051 -0.1049
  167TMC2    O5 2557   0.634   3.850  13.304  0.6421 -0.0088  0.2644
  167TMC2    H5 2558   0.637   3.807  13.216 -1.6901 -0.3300  0.3588
  168MPD2     C 2559   0.821   4.424  12.712  0.4539 -0.1699  0.0421
  168MPD2    C1 2560   0.862   4.298  12.691 -0.0964 -0.1290  0.2033
  168MPD2    C2 2561   0.924   4.270  12.570  0.1902  0.2404 -0.4155
  168MPD2    C3 2562   0.932   4.372  12.474  0.2670 -0.3077 -0.3935
  168MPD2    C4 2563   0.876   4.491  12.496  0.0671 -0.7179  0.5613
  168MPD2    C5 2564   0.824   4.523  12.618 -0.9335  0.5835 -0.0260
  168MPD2     H 2565   0.963   4.170  12.554 -0.1051  0.3165 -1.6419
  168MPD2    H1 2566   0.865   4.565  12.419  0.5539 -0.6191  0.5835
  168MPD2    H2 2567   0.776   4.444  12.809  1.5095 -2.2753  0.9473
  168MPD2    H3 2568   0.780   4.621  12.633  1.6675  1.8214 -0.4551
  168MPD2     N 2569   0.962   4.352  12.339  0.0098 -0.2603 -0.0155
  168MPD2    H5 2570   0.940   4.424  12.271  1.7139 -2.6346 -3.0669
  168MPD2    N1 2571   0.852   4.192  12.785 -0.3941  0.0698  0.8649
  168MPD2    H7 2572   0.900   4.104  12.768  0.2416 -0.3763  5.0134
  169MPD1     C 2573   3.841   3.734   8.308  0.2113  0.0248 -0.3347
  169MPD1    C1 2574   3.881   3.619   8.365 -0.2639  0.0027 -0.4072
  169MPD1    C2 2575   3.900   3.603   8.505  0.6160  0.0830  0.0479
  169MPD1    C3 2576   3.851   3.707   8.585 -0.7969  0.6102 -0.8371
  169MPD1    C4 2577   3.790   3.817   8.526 -0.3679 -0.1774 -0.2531
  169MPD1    C5 2578   3.788   3.832   8.388  0.8995 -0.2423  0.2200
  169MPD1     H 2579   3.945   3.514   8.547 -1.3026 -0.9155  0.0005
  169MPD1    H1 2580   3.743   3.894   8.585  2.2080  0.9214  0.3763
  169MPD1    H2 2581   3.849   3.753   8.202  0.5128  0.6720 -0.1983
  169MPD1    H3 2582   3.748   3.921   8.340  1.3986  0.1371  0.5117
  169MPD1     N 2583   3.872   3.702   8.730 -0.1418  0.0160  0.3120
  169MPD1    H5 2584   3.902   3.610   8.759  0.2390  0.0755  0.0962
  169MPD1    N1 2585   3.939   3.523   8.286 -0.4017 -0.0654  0.1994
  169MPD1    H6 2586   3.937   3.431   8.328 -0.1302 -0.2116 -0.1115
  169MPD1    H7 2587   3.894   3.520   8.194 -0.8438  2.2342  0.3409
  170MPD1     C 2588   2.290   1.385  13.101  0.3400  0.1941 -0.0801
  170MPD1    C1 2589   2.321   1.414  13.232  0.3137  0.5194 -0.1219
  170MPD1    C2 2590   2.229   1.472  13.316  1.0158  0.0270  0.3616
  170MPD1    C3 2591   2.110   1.521  13.264  0.4059  1.1478 -0.0693
  170MPD1    C4 2592   2.083   1.504  13.132  0.0230  0.1109  0.5455
  170MPD1    C5 2593   2.173   1.439  13.050 -0.2188 -0.7324  0.2160
  170MPD1     H 2594   2.255   1.492  13.419 -1.3281  1.3649  0.6826
  170MPD1    H1 2595   1.989   1.530  13.083  0.3690 -1.6793 -1.0852
  170MPD1    H2 2596   2.353   1.333  13.030  0.4614  0.0554  0.1297
  170MPD1    H3 2597   2.153   1.418  12.946 -0.1501  1.6396 -0.2830
  170MPD1     N 2598   2.026   1.598  13.352  0.6510  0.5084  0.7768
  170MPD1    H5 2599   2.041   1.589  13.452 -0.4781  0.5659  0.9532
  170MPD1    N1 2600   2.440   1.357  13.286 -0.5314  0.2199  0.2727
  170MPD1    H6 2601   2.476   1.416  13.362 -0.0615  0.4821 -0.1490
  170MPD1    H7 2602   2.516   1.356  13.218 -0.5737 -0.7202  0.2463
  171MPD1     C 2603   0.509   3.108  15.543  0.0132 -0.0562  0.0886
  171MPD1    C1 2604   0.637   3.126  15.520 -0.1560 -0.1107  0.4029
  171MPD1    C2 2605   0.726   3.020  15.544  0.0590 -0.6171  0.1234
  171MPD1    C3 2606   0.678   2.898  15.577 -0.6055  0.7914 -0.2118
  171MPD1    C4 2607   0.547   2.876  15.590 -0.8933 -0.6247  0.4463
  171MPD1    C5 2608   0.464   2.978  15.568 -0.4837 -0.3598  0.2727
  171MPD1     H 2609   0.833   3.033  15.528  0.5321 -1.7583  2.2230
  171MPD1    H1 2610   0.512   2.780  15.625  0.1321 -0.9922  0.4588
  171MPD1    H2 2611   0.435   3.187  15.534  0.3140  0.3822  1.5114
  171MPD1    H3 2612   0.356   2.975  15.571 -0.4445  0.1397  2.2926
  171MPD1     N 2613   0.757   2.783  15.605  0.2475  0.4680  0.7305
  171MPD1    H5 2614   0.707   2.704  15.645  0.7518 -0.0238  0.3835
  171MPD1    N1 2615   0.690   3.255  15.511 -0.3079  0.4221 -0.2180
  171MPD1    H6 2616   0.625   3.305  15.450 -1.9308 -0.7306  0.5421
  171MPD1    H7 2617   0.788   3.256  15.484 -0.2096 -1.2244  0.0999
  172MPD1     C 2618   4.521   1.250  17.465  0.0887  0.3500 -0.1545
  172MPD1    C1 2619   4.491   1.373  17.412  0.5788 -0.3918  0.7230
  172MPD1    C2 2620   4.482   1.473  17.505 -0.1718 -0.2211  0.5245
  172MPD1    C3 2621   4.491   1.446  17.644  0.2069 -0.0717 -0.4427
  172MPD1    C4 2622   4.537   1.322   0.001 -0.1217 -0.3859  0.5174
  172MPD1    C5 2623   4.547   1.222  17.597  0.0914  0.2319  0.0588
  172MPD1     H 2624   4.448   1.571  17.474 -2.5180 -1.2287 -0.0312
  172MPD1    H1 2625   4.540   1.304   0.108 -2.0286  1.6563  0.9180
  172MPD1    H2 2626   4.530   1.168  17.394  1.3334  0.4657 -0.1319
  172MPD1    H3 2627   4.558   1.117  17.622  0.4376  0.0849 -0.6968
  172MPD1     N 2628   4.473   1.545   0.054 -0.5515 -0.2403  0.7796
  172MPD1    H5 2629   4.493   1.507   0.146 -0.2021 -0.1991  0.7221
  172MPD1    N1 2630   4.491   1.389  17.270  0.0496 -0.2167  0.6624
  172MPD1    H6 2631   4.436   1.469  17.238  0.3980 -0.5919 -0.8661
  172MPD1    H7 2632   4.452   1.311  17.219  1.0836 -0.1606 -0.2118
  173MPD1     C 2633   1.326   2.388  14.356 -0.4250 -0.1499  0.2849
  173MPD1    C1 2634   1.256   2.282  14.312 -0.2236 -0.2686 -0.3671
  173MPD1    C2 2635   1.144   2.239  14.382 -0.6236  0.4024 -0.4577
  173MPD1    C3 2636   1.105   2.308  14.496 -0.4620 -0.7245 -0.4682
  173MPD1    C4 2637   1.180   2.413  14.541  0.1595  0.8271 -0.9068
  173MPD1    C5 2638   1.286   2.453  14.468 -0.1623  0.4867  0.1802
  173MPD1     H 2639   1.101   2.144  14.351 -0.2492  0.7361 -1.9890
  173MPD1    H1 2640   1.160   2.468  14.632 -2.3178 -0.0440 -0.9268
  173MPD1    H2 2641   1.413   2.420  14.301 -2.6853  0.3470 -2.9913
  173MPD1    H3 2642   1.326   2.547  14.507  1.0492 -0.0621  0.2611
  173MPD1     N 2643   0.993   2.252  14.563 -0.3513 -0.2944 -0.1679
  173MPD1    H5 2644   0.951   2.170  14.521  1.1375 -0.8565 -0.5432
  173MPD1    N1 2645   1.290   2.222  14.188  0.4295 -0.5483 -0.1282
  173MPD1    H6 2646   1.261   2.125  14.177  0.7989 -0.7551  0.6847
  173MPD1    H7 2647   1.391   2.226  14.177  0.5652  0.1412  1.2653
  174MPD1     C 2648   0.493   1.695  14.210  0.0601 -0.1098 -0.1709
  174MPD1    C1 2649   0.551   1.647  14.324 -0.3855 -0.1770  0.0711
  174MPD1    C2 2650   0.571   1.734  14.427 -0.1393 -0.0970 -0.3038
  174MPD1    C3 2651   0.558   1.872  14.413 -0.3141  0.1245 -0.5229
  174MPD1    C4 2652   0.508   1.913  14.291 -0.2680 -0.1601 -0.4893
  174MPD1    C5 2653   0.471   1.826  14.192  0.0864 -0.1248 -0.5601
  174MPD1     H 2654   0.600   1.693  14.523 -1.8159  1.4729  0.8671
  174MPD1    H1 2655   0.488   2.018  14.277  1.2728  0.1956  0.0469
  174MPD1    H2 2656   0.474   1.626  14.128 -2.3059  1.8699 -1.2675
  174MPD1    H3 2657   0.416   1.857  14.103 -2.2379  0.6294  1.1333
  174MPD1     N 2658   0.604   1.968  14.503 -0.5101  0.1319  0.6300
  174MPD1    H5 2659   0.619   2.065  14.474  1.5096 -0.2411  0.4267
  174MPD1    N1 2660   0.557   1.508  14.345 -0.2408  0.0046 -0.0664
  174MPD1    H6 2661   0.624   1.482  14.417  0.7147  1.4745 -0.4219
  174MPD1    H7 2662   0.585   1.463  14.258 -2.1530  0.2246 -0.8026
  175MPD1     C 2663   0.176   2.528  15.861  0.4122 -1.0968 -0.3420
  175MPD1    C1 2664   0.079   2.611  15.800 -0.0506 -0.7153  0.5204
  175MPD1    C2 2665   4.673   2.607  15.857  0.5408 -0.6127  0.1525
  175MPD1    C3 2666   4.630   2.509  15.938  0.0048 -0.0797  0.1896
  175MPD1    C4 2667   4.720   2.414  15.975  0.0701 -0.4053 -0.1588
  175MPD1    C5 2668   0.133   2.436  15.955  0.0074  0.2202 -0.3962
  175MPD1     H 2669   4.599   2.679  15.824 -0.3845 -1.7909 -0.3163
  175MPD1    H1 2670   4.678   2.341  16.043  0.0463  0.6488  0.9654
  175MPD1    H2 2671   0.283   2.538  15.848  0.3920 -0.5837 -0.0957
  175MPD1    H3 2672   0.209   2.369  15.992 -1.3112  0.1793  2.2209
  175MPD1     N 2673   4.500   2.495  15.997  0.0906 -0.4108  0.6836
  175MPD1    H5 2674   4.479   2.430  16.072 -1.4182 -2.6757 -1.7019
  175MPD1    N1 2675   0.128   2.722  15.728 -0.1073 -0.3955 -0.5139
  175MPD1    H6 2676   0.205   2.705  15.664 -0.0136  1.1138 -0.8050
  175MPD1    H7 2677   0.061   2.771  15.669 -0.8579 -2.8753 -1.6783
  176MPD1     C 2678   1.555   4.367  17.542 -0.5242  0.4210  0.9979
  176MPD1    C1 2679   1.423   4.377  17.576 -0.2829  0.8331 -0.1613
  176MPD1    C2 2680   1.342   4.482  17.536  0.8855 -0.5410 -0.6692
  176MPD1    C3 2681   1.397   4.577  17.456  0.3629  0.4818  0.5973
  176MPD1    C4 2682   1.535   4.567  17.416  1.0067  0.2650 -0.6026
  176MPD1    C5 2683   1.612   4.463  17.466 -0.1633 -0.2675 -1.0178
  176MPD1     H 2684   1.245   4.501  17.580  1.6526  0.2948  0.6504
  176MPD1    H1 2685   1.584   4.628  17.341 -1.6653  0.7072 -1.9918
  176MPD1    H2 2686   1.618   4.293  17.591 -0.1071 -0.7943 -1.3769
  176MPD1    H3 2687   1.717   4.460  17.441 -0.2106  1.0914 -1.3889
  176MPD1     N 2688   1.318   4.690  17.418  0.7199  0.0728  0.0149
  176MPD1    H5 2689   1.222   4.688  17.451  1.1699  0.2806  1.3365
  176MPD1    N1 2690   1.381   4.292  17.682  0.5508  0.3028  0.2637
  176MPD1    H6 2691   1.423   4.201   0.006  2.0611  1.1003  0.9712
  176MPD1    H7 2692   1.279   4.281  17.679  0.7266 -1.1399 -0.2236
  177MPD1     C 2693   0.039   4.280   9.925  0.5590  0.7744 -0.1086
  177MPD1    C1 2694   4.633   4.223   9.918  0.1181 -0.4867  0.3758
  177MPD1    C2 2695   4.522   4.312   9.922 -0.1254  0.4691  0.3062
  177MPD1    C3 2696   4.539   4.446   9.946 -0.1710  0.3909 -0.0595
  177MPD1    C4 2697   4.669   4.496   9.953  1.0750 -0.2015  0.2644
  177MPD1    C5 2698   0.052   4.417   9.945 -0.0303 -0.1039 -0.6637
  177MPD1     H 2699   4.428   4.280   9.880  0.6874 -0.8839 -0.5108
  177MPD1    H1 2700   4.681   4.603   9.955 -1.1169  0.0627 -0.6612
  177MPD1    H2 2701   0.129   4.221   9.914  0.2565 -0.3225  3.2162
  177MPD1    H3 2702   0.151   4.461   9.946 -0.9907  2.0246  1.1715
  177MPD1     N 2703   4.418   4.528   9.951 -0.2662  0.6064 -0.0264
  177MPD1    H5 2704   4.329   4.479   9.942 -0.4709  1.0066 -0.1916
  177MPD1    N1 2705   4.615   4.096   9.877  0.4992  0.5785  0.3082
  177MPD1    H6 2706   4.530   4.054   9.913 -0.1924  0.2367 -1.7212
  177MPD1    H7 2707   4.689   4.029   9.897  0.4123 -0.3506 -2.5572
  178MPD1     C 2708   1.718   4.648   0.197  0.1076  0.3264 -0.4986
  178MPD1    C1 2709   1.794   0.031   0.250  0.0348  0.2250 -0.4562
  178MPD1    C2 2710   1.832   0.132   0.169  0.7216 -0.4823  0.1278
  178MPD1    C3 2711   1.811   0.128   0.032  0.3655  0.6409  0.5087
  178MPD1    C4 2712   1.741   0.015  17.670  0.0054  0.3854 -0.1322
  178MPD1    C5 2713   1.690   4.640   0.067 -0.4527  0.3731  0.3625
  178MPD1     H 2714   1.892   0.211   0.213 -0.3493  0.4464 -0.0934
  178MPD1    H1 2715   1.714   0.000  17.566 -0.1314  0.2427 -0.0764
  178MPD1    H2 2716   1.686   4.560   0.251 -1.3031  0.4597 -1.1098
  178MPD1    H3 2717   1.626   4.563   0.025 -2.0356  3.7665 -3.5217
  178MPD1     N 2718   1.853   0.229  17.635 -0.3201 -0.6975  0.8328
  178MPD1    H5 2719   1.827   0.218  17.537 -0.2637 -0.2943  0.7737
  178MPD1    N1 2720   1.816   0.033   0.384 -0.1330 -0.3761  0.3366
  178MPD1    H6 2721   1.894   0.091   0.416  0.6293  0.2082 -2.5367
  178MPD1    H7 2722   1.827   4.663   0.427  1.4399  0.2369  1.2397
  179MPD1     C 2723   0.216   3.676  16.251  0.2708  0.0551 -0.2583
  179MPD1    C1 2724   0.301   3.772  16.309  0.2361  0.1999 -0.5241
  179MPD1    C2 2725   0.423   3.803  16.241 -0.4285  0.1726  0.0653
  179MPD1    C3 2726   0.461   3.746  16.120  0.0477 -0.0316  0.9875
  179MPD1    C4 2727   0.367   3.659  16.063 -0.0746  0.1070  0.2198
  179MPD1    C5 2728   0.256   3.620  16.130  0.6064 -0.1808  0.6787
  179MPD1     H 2729   0.487   3.877  16.289 -0.6547 -0.9806  2.1653
  179MPD1    H1 2730   0.392   3.617  15.966 -0.4730 -4.1002  1.9599
  179MPD1    H2 2731   0.137   3.630  16.309  2.0476 -3.4031 -0.5849
  179MPD1    H3 2732   0.190   3.544  16.089 -0.9868  0.3785  2.1704
  179MPD1     N 2733   0.579   3.775  16.055  0.4873 -0.2203  0.0815
  179MPD1    H5 2734   0.591   3.721  15.969 -2.7236  0.2020 -0.6389
  179MPD1    N1 2735   0.278   3.813  16.440  0.2599 -0.1940 -0.2194
  179MPD1    H6 2736   0.178   3.811  16.459  0.1186 -1.2792 -1.0587
  179MPD1    H7 2737   0.325   3.901  16.463  0.7322 -0.0718 -1.6089
  180MPD1     C 2738   1.398   0.482  15.095 -0.1714 -0.0462  0.4671
  180MPD1    C1 2739   1.467   0.498  14.985 -0.3739  0.4538  0.2036
  180MPD1    C2 2740   1.399   0.507  14.866 -0.1567  0.4277  0.4216
  180MPD1    C3 2741   1.263   0.517  14.857 -0.1017  0.2894 -0.0417
  180MPD1    C4 2742   1.196   0.512  14.976  0.1690  0.4664  0.2362
  180MPD1    C5 2743   1.267   0.492  15.088 -0.0599 -0.3330 -0.2984
  180MPD1     H 2744   1.452   0.493  14.773 -0.9826  2.3046 -0.3217
  180MPD1    H1 2745   1.088   0.505  14.979  0.0907  1.0254 -1.4508
  180MPD1    H2 2746   1.445   0.466  15.192  2.5854  1.1138 -0.6532
  180MPD1    H3 2747   1.216   0.481  15.183 -1.2185  0.8650 -0.7767
  180MPD1     N 2748   1.202   0.535  14.729 -0.3520 -0.7045 -0.1170
  180MPD1    H5 2749   1.267   0.523  14.652  1.6252  1.5644  1.2001
  180MPD1    N1 2750   1.603   0.479  14.987 -0.2731 -0.2529  0.2231
  180MPD1    H6 2751   1.647   0.507  14.899 -0.9667  0.4748  0.1034
  180MPD1    H7 2752   1.649   0.519  15.068  0.8900  0.9607 -1.0197
  181MPD1     C 2753   3.553   1.716   9.247  1.0248  0.1192 -0.3394
  181MPD1    C1 2754   3.463   1.802   9.311 -0.1487 -0.1826 -0.3331
  181MPD1    C2 2755   3.507   1.862   9.430 -1.0649  0.1324  0.4479
  181MPD1    C3 2756   3.647   1.863   9.454 -0.0694  0.2906  0.0722
  181MPD1    C4 2757   3.738   1.778   9.381 -1.0715  0.2930 -0.5726
  181MPD1    C5 2758   3.688   1.709   9.281  1.1302 -0.1292 -0.3521
  181MPD1     H 2759   3.433   1.914   9.491 -0.8558 -1.0198  1.6950
  181MPD1    H1 2760   3.842   1.760   9.408 -0.9458  1.6326 -0.1444
  181MPD1    H2 2761   3.531   1.647   9.167 -3.7895  1.3288 -0.0250
  181MPD1    H3 2762   3.745   1.635   9.226 -0.6247 -1.0260 -0.9646
  181MPD1     N 2763   3.707   1.937   9.560 -0.2238 -0.2770 -0.0988
  181MPD1    H5 2764   3.807   1.921   9.571 -0.3925 -1.2186  0.0316
  181MPD1    N1 2765   3.320   1.797   9.283  0.0886  0.5302  0.1389
  181MPD1    H6 2766   3.272   1.884   9.304 -1.6190 -1.1250  3.0433
  181MPD1    H7 2767   3.310   1.778   9.183  0.6822  1.9867 -0.2050
  182MPD1     C 2768   4.322   1.347   2.087 -0.5171 -0.0096 -0.5549
  182MPD1    C1 2769   4.191   1.406   2.085 -0.2617  0.2311  0.2647
  182MPD1    C2 2770   4.098   1.345   2.010 -0.5853 -0.0613  0.2271
  182MPD1    C3 2771   4.128   1.250   1.905 -0.2137 -0.2737 -0.4316
  182MPD1    C4 2772   4.258   1.209   1.894 -0.3298 -0.7003  0.3342
  182MPD1    C5 2773   4.346   1.260   1.983  0.0951 -0.0271 -0.7312
  182MPD1     H 2774   4.000   1.387   2.028 -0.4015  0.2832  0.4144
  182MPD1    H1 2775   4.292   1.125   1.834  0.2468 -1.3592  1.5689
  182MPD1    H2 2776   4.404   1.386   2.146 -1.9156  3.7110 -1.0129
  182MPD1    H3 2777   4.448   1.223   1.980 -0.6384 -2.1474  0.1504
  182MPD1     N 2778   4.026   1.192   1.816  0.5949 -0.8961  0.4487
  182MPD1    H5 2779   4.055   1.125   1.746  2.9687  1.9825 -1.3636
  182MPD1    N1 2780   4.153   1.486   2.198  0.2712 -0.6231  0.3323
  182MPD1    H6 2781   4.241   1.534   2.215  0.2758  0.7127 -3.4066
  182MPD1    H7 2782   4.079   1.554   2.181 -1.2793 -2.1559  0.9507
  183MPD1     C 2783   3.971   2.138   8.798 -0.8105 -0.4377  0.1211
  183MPD1    C1 2784   3.928   2.258   8.853  0.1334 -0.2301  0.2068
  183MPD1    C2 2785   3.995   2.294   8.963 -0.3437 -0.0715  0.1228
  183MPD1    C3 2786   4.125   2.249   8.992  0.0223 -0.4073 -0.0663
  183MPD1    C4 2787   4.164   2.133   8.935  0.0982 -0.0043 -0.1350
  183MPD1    C5 2788   4.096   2.089   8.830 -0.4005 -0.1711 -0.1200
  183MPD1     H 2789   3.945   2.368   9.024 -0.1316 -1.3167  1.7913
  183MPD1    H1 2790   4.255   2.085   8.969  1.8784  0.8081 -3.7585
  183MPD1    H2 2791   3.907   2.093   8.723  0.2446  0.9360 -1.5858
  183MPD1    H3 2792   4.127   1.996   8.782  1.7050  0.0168  0.8814
  183MPD1     N 2793   4.201   2.310   9.093 -1.0709  0.3540  0.5854
  183MPD1    H5 2794   4.159   2.401   9.114 -2.5174 -0.3520  0.7435
  183MPD1    N1 2795   3.811   2.317   8.819 -0.3603 -0.4323 -0.2374
  183MPD1    H6 2796   3.811   2.414   8.850  0.8577 -0.7978  0.9082
  183MPD1    H7 2797   3.785   2.312   8.721 -0.3456 -0.1928 -0.2528
  184MPD1     C 2798   3.117   0.026  10.403 -0.0132 -0.6235 -0.3454
  184MPD1    C1 2799   3.059   4.657  10.312  1.1264 -0.4814  0.0913
  184MPD1    C2 2800   3.133   4.613  10.203  0.1322 -0.3634 -0.2339
  184MPD1    C3 2801   3.258   4.660  10.184 -0.2125 -0.8661 -0.6393
  184MPD1    C4 2802   3.310   0.029  10.265  0.5320  0.0244  0.2800
  184MPD1    C5 2803   3.244   0.073  10.377  0.0612 -0.4062  0.3856
  184MPD1     H 2804   3.090   4.540  10.135  0.2652 -1.8016  1.2118
  184MPD1    H1 2805   3.410   0.068  10.250 -0.6591  2.8412 -0.4127
  184MPD1    H2 2806   3.073   0.053  10.499  2.5138  0.9772  0.3670
  184MPD1    H3 2807   3.282   0.151  10.441 -0.1948  1.3266 -1.5853
  184MPD1     N 2808   3.344   4.610  10.081  0.3308  0.0276  0.4898
  184MPD1    H5 2809   3.437   4.652  10.084 -0.7781  2.5103  0.2646
  184MPD1    N1 2810   2.934   4.599  10.341 -0.2633  0.3090  0.2017
  184MPD1    H6 2811   2.877   4.560  10.266  0.9789  0.5487 -0.8567
  184MPD1    H7 2812   2.870   4.675  10.365 -1.0929 -0.6715  1.0923
  185MPD1     C 2813   3.175   3.892   9.378  0.2310 -0.8694  0.0243
  185MPD1    C1 2814   3.271   3.972   9.321  0.6878  0.7234  0.4142
  185MPD1    C2 2815   3.319   4.076   9.397 -0.1983  0.7722 -0.5479
  185MPD1    C3 2816   3.291   4.101   9.529  0.2214 -0.1031  0.2722
  185MPD1    C4 2817   3.203   4.016   9.584 -1.0424  0.2340  0.6746
  185MPD1    C5 2818   3.150   3.911   9.511 -0.3911 -0.1562  0.4529
  185MPD1     H 2819   3.389   4.141   9.346  1.3717  1.7016  2.7709
  185MPD1    H1 2820   3.182   4.023   9.690  0.1225  1.8322  0.7914
  185MPD1    H2 2821   3.126   3.814   9.322  0.8858 -1.5031  0.3371
  185MPD1    H3 2822   3.076   3.839   9.545 -0.3320  0.7195  2.3712
  185MPD1     N 2823   3.337   4.208   9.609  0.6517 -0.0578  0.2898
  185MPD1    H5 2824   3.298   4.218   9.702 -0.1116 -0.4785  0.0148
  185MPD1    N1 2825   3.290   3.967   9.183  0.2339  0.2142 -0.3910
  185MPD1    H6 2826   3.286   3.875   9.140 -1.0517  0.3833 -0.6404
  185MPD1    H7 2827   3.382   4.004   9.159  0.1291  0.7704  0.0708
  186MPD1     C 2828   1.735   3.571  15.791  0.2972  0.3116  0.6675
  186MPD1    C1 2829   1.856   3.620  15.756 -0.4856 -0.0198  0.3158
  186MPD1    C2 2830   1.918   3.705  15.848 -0.2112 -0.3329  0.5267
  186MPD1    C3 2831   1.852   3.759  15.956 -0.0641 -0.0460 -0.0060
  186MPD1    C4 2832   1.725   3.725  15.980  0.3120  0.0188  0.3439
  186MPD1    C5 2833   1.669   3.633  15.898  0.3155 -0.4780 -0.0828
  186MPD1     H 2834   2.022   3.728  15.828 -0.2472  0.9388  1.8092
  186MPD1    H1 2835   1.667   3.761  16.064  0.7157 -0.7198  0.9284
  186MPD1    H2 2836   1.675   3.506  15.728  0.2469 -1.4156  2.4919
  186MPD1    H3 2837   1.569   3.600  15.924  0.4701 -1.6161 -0.8860
  186MPD1     N 2838   1.909   3.848  16.051  0.0555 -0.0306 -0.2803
  186MPD1    H5 2839   1.840   3.893  16.110 -1.2440 -0.5605 -1.4058
  186MPD1    N1 2840   1.912   3.570  15.637 -0.1800  0.1900  0.3264
  186MPD1    H6 2841   2.001   3.616  15.620 -0.6140  0.8894 -0.0484
  186MPD1    H7 2842   1.849   3.554  15.558  1.1379 -0.6776 -0.5486
  187MPD1     C 2843   0.788   0.061   0.771 -0.3527 -0.2879 -1.2607
  187MPD1    C1 2844   0.805   0.188   0.821 -0.3963 -0.2584  0.6452
  187MPD1    C2 2845   0.845   0.285   0.729  0.2624  0.8502  0.5712
  187MPD1    C3 2846   0.865   0.247   0.597  0.2201 -0.0654  0.2242
  187MPD1    C4 2847   0.836   0.126   0.559 -0.0746 -0.5124  0.2220
  187MPD1    C5 2848   0.795   0.028   0.640 -0.5652 -0.3605 -0.4589
  187MPD1     H 2849   0.854   0.386   0.765 -0.6335  1.8738 -2.0299
  187MPD1    H1 2850   0.843   0.096   0.455  2.1316 -1.6293  0.6841
  187MPD1    H2 2851   0.750   4.710   0.841  0.0227  1.3789  0.6762
  187MPD1    H3 2852   0.769   4.650   0.605  0.4845 -0.6175 -0.5099
  187MPD1     N 2853   0.900   0.337   0.495 -0.1641  0.2362 -0.3367
  187MPD1    H5 2854   0.902   0.291   0.405  1.6210 -0.1427 -0.0981
  187MPD1    N1 2855   0.771   0.219   0.960  0.6347  0.1952 -0.2014
  187MPD1    H6 2856   0.810   0.307   0.994  0.2426  0.8889 -1.5522
  187MPD1    H7 2857   0.808   0.151   1.027  1.9848 -0.5560 -1.7252
  188MPD1     C 2858   0.396   2.010   9.780 -0.4720 -0.1056  0.2054
  188MPD1    C1 2859   0.427   1.929   9.887  0.5435  0.2062 -0.6963
  188MPD1    C2 2860   0.499   1.816   9.866 -0.5500  0.2520  0.0252
  188MPD1    C3 2861   0.508   1.760   9.740  0.8483 -0.8230 -0.0026
  188MPD1    C4 2862   0.473   1.836   9.635 -0.5791 -1.3912  0.1422
  188MPD1    C5 2863   0.402   1.952   9.654  0.8568  0.0445 -0.3626
  188MPD1     H 2864   0.533   1.761   9.953  1.1772  0.3986 -0.5390
  188MPD1    H1 2865   0.467   1.802   9.532 -0.7491 -0.2360 -0.2277
  188MPD1    H2 2866   0.329   2.095   9.781 -0.5477 -0.1826  1.7179
  188MPD1    H3 2867   0.373   2.007   9.565 -1.5454 -1.8975 -0.7791
  188MPD1     N 2868   0.555   1.632   9.708  0.3899 -0.1273 -0.8879
  188MPD1    H5 2869   0.558   1.600   9.612 -2.0005 -3.9486  0.2962
  188MPD1    N1 2870   0.397   1.978  10.014 -0.0631 -0.6275 -0.5866
  188MPD1    H6 2871   0.357   1.904  10.072  1.6047 -1.6201 -0.6930
  188MPD1    H7 2872   0.320   2.043  10.009 -0.0558 -0.5475  0.3841
  189MPD1     C 2873   2.456   0.974   0.792  0.2549 -0.0708  0.5904
  189MPD1    C1 2874   2.332   0.920   0.770  0.1256 -0.4430 -0.1941
  189MPD1    C2 2875   2.238   0.984   0.692  0.5353 -0.3952 -0.6117
  189MPD1    C3 2876   2.280   1.099   0.619 -0.0388 -0.0526  0.0190
  189MPD1    C4 2877   2.412   1.143   0.633 -0.1084  0.3195 -0.4448
  189MPD1    C5 2878   2.494   1.083   0.724 -0.6081 -0.5169 -0.1206
  189MPD1     H 2879   2.132   0.962   0.695  0.3637  0.2102 -2.0330
  189MPD1    H1 2880   2.450   1.227   0.576 -1.8711  1.6970  0.3833
  189MPD1    H2 2881   2.511   0.926   0.872  1.8861  1.6240  0.4970
  189MPD1    H3 2882   2.597   1.115   0.734 -1.4680  2.2776  0.0014
  189MPD1     N 2883   2.181   1.165   0.536 -0.5975 -0.0513  0.1649
  189MPD1    H5 2884   2.089   1.124   0.522 -0.5239 -0.3232  0.4793
  189MPD1    N1 2885   2.282   0.823   0.859  0.1421  0.4628  0.1835
  189MPD1    H6 2886   2.349   0.748   0.877 -1.7241 -1.5307 -1.1908
  189MPD1    H7 2887   2.201   0.780   0.816 -0.2914  1.3394  0.1347
  190MPD1     C 2888   1.308   1.665  15.675  0.3956  0.1063 -1.0393
  190MPD1    C1 2889   1.388   1.626  15.569 -0.2107  1.3199  0.3806
  190MPD1    C2 2890   1.381   1.498  15.526  0.4166 -0.4498 -0.1544
  190MPD1    C3 2891   1.315   1.398  15.594  0.2575  0.1669 -0.3008
  190MPD1    C4 2892   1.251   1.432  15.718 -0.1243  0.3295 -0.3134
  190MPD1    C5 2893   1.240   1.568  15.754  0.6483 -0.2831  0.2268
  190MPD1     H 2894   1.425   1.473  15.430 -1.0977  0.4551 -1.0698
  190MPD1    H1 2895   1.193   1.362  15.777  2.2181 -0.0794  1.5062
  190MPD1    H2 2896   1.305   1.769  15.705 -0.1139 -0.2749  0.2158
  190MPD1    H3 2897   1.183   1.597  15.842  2.6519 -0.7342  1.6789
  190MPD1     N 2898   1.320   1.263  15.566 -0.5095  0.5982  0.0187
  190MPD1    H5 2899   1.273   1.209  15.638  1.6395  0.6922  1.4948
  190MPD1    N1 2900   1.455   1.720  15.491 -0.1334 -0.3557  0.1065
  190MPD1    H6 2901   1.529   1.679  15.434 -1.4055 -1.4624 -0.7501
  190MPD1    H7 2902   1.488   1.805  15.537  1.7518 -1.3141  0.5528
  191MPD1     C 2903   0.525   2.249  13.005  0.4718 -0.3032 -0.2658
  191MPD1    C1 2904   0.424   2.327  12.946 -0.1573 -0.0565 -0.0751
  191MPD1    C2 2905   0.466   2.426  12.858 -0.5268 -0.9681  0.1424
  191MPD1    C3 2906   0.595   2.447  12.826 -0.2457  0.1297 -0.3835
  191MPD1    C4 2907   0.693   2.360  12.879 -0.6159 -0.5400 -0.7290
  191MPD1    C5 2908   0.657   2.264  12.967 -0.3728  0.1784 -0.4325
  191MPD1     H 2909   0.389   2.492  12.820  0.7402 -0.4269 -1.4907
  191MPD1    H1 2910   0.799   2.372  12.857 -0.2787  0.6404  1.5120
  191MPD1    H2 2911   0.501   2.184  13.088 -1.6383  0.3045 -0.3846
  191MPD1    H3 2912   0.729   2.202  13.019 -0.6450 -1.4050 -1.9164
  191MPD1     N 2913   0.625   2.565  12.753  0.4909  0.5640  0.0413
  191MPD1    H5 2914   0.544   2.617  12.721  0.9596  0.5501 -1.1743
  191MPD1    N1 2915   0.288   2.326  12.981  0.3438  0.7362  0.4350
  191MPD1    H6 2916   0.240   2.239  13.005  0.3840  0.4221 -0.5851
  191MPD1    H7 2917   0.237   2.365  12.902 -0.1203 -2.4967 -0.8929
  192MPD1     C 2918   0.122   3.230  12.699  0.1115 -0.8700  0.2962
  192MPD1    C1 2919   0.203   3.259  12.588 -0.5191  0.2616 -0.1834
  192MPD1    C2 2920   0.293   3.167  12.546  0.4899  0.2872 -0.5638
  192MPD1    C3 2921   0.305   3.047  12.608  0.7175 -0.1316  0.3336
  192MPD1    C4 2922   0.235   3.021  12.722 -0.5058  0.6316 -0.1269
  192MPD1    C5 2923   0.140   3.110  12.763  0.1090  0.5900 -0.4164
  192MPD1     H 2924   0.344   3.191  12.453 -0.8332  0.2485 -1.2928
  192MPD1    H1 2925   0.255   2.927  12.772  1.1554  1.1759  0.2111
  192MPD1    H2 2926   0.048   3.295  12.742 -0.3146 -1.5812  0.6470
  192MPD1    H3 2927   0.085   3.093  12.855  0.5424  0.7103 -0.1381
  192MPD1     N 2928   0.409   2.948  12.571  0.5413 -0.0404 -0.4633
  192MPD1    H5 2929   0.417   2.863  12.626 -0.2632  0.4311  0.3849
  192MPD1    N1 2930   0.192   3.380  12.520  0.1874  0.5069  0.1204
  192MPD1    H6 2931   0.096   3.405  12.499  0.2567  0.3609 -0.3626
  192MPD1    H7 2932   0.244   3.396  12.434 -1.4915  2.5017 -0.5402
  193MPD1     C 2933   0.821   2.014  16.478  0.5954 -0.2305  0.3853
  193MPD1    C1 2934   0.698   2.058  16.509 -0.4991 -0.3563 -0.3520
  193MPD1    C2 2935   0.693   2.125  16.624  0.4509 -0.5374  0.1157
  193MPD1    C3 2936   0.799   2.145  16.707 -0.0769  0.0503 -0.3043
  193MPD1    C4 2937   0.920   2.089  16.679 -0.1200 -0.1117 -0.1370
  193MPD1    C5 2938   0.929   2.017  16.565  0.1643 -0.3461 -0.0762
  193MPD1     H 2939   0.603   2.182  16.643  0.2030 -1.4999  1.8336
  193MPD1    H1 2940   1.006   2.113  16.741  0.7822 -3.2447 -0.1883
  193MPD1    H2 2941   0.829   1.959  16.385  0.8831  0.2008  0.1584
  193MPD1    H3 2942   1.021   1.965  16.539  0.2759  0.0070 -0.3820
  193MPD1     N 2943   0.794   2.232  16.817  0.8779  0.5377  0.0144
  193MPD1    H5 2944   0.881   2.235  16.868  1.7370 -0.8895 -1.3495
  193MPD1    N1 2945   0.580   2.058  16.428 -0.0302  0.3495 -0.1642
  193MPD1    H6 2946   0.482   2.074  16.450 -0.2848  1.6806 -2.2798
  193MPD1    H7 2947   0.592   1.983  16.360 -1.3240 -0.0634  0.0689
  194MPD1     C 2948   2.905   4.061  17.498 -0.5613  0.4272  0.2213
  194MPD1    C1 2949   2.941   4.032  17.370 -0.0550  0.5234  0.5111
  194MPD1    C2 2950   2.901   3.911  17.318 -0.0138  0.3913  0.2954
  194MPD1    C3 2951   2.822   3.822  17.393 -1.1510 -0.0094  0.5972
  194MPD1    C4 2952   2.780   3.869  17.519 -1.0021  0.4911  0.5510
  194MPD1    C5 2953   2.826   3.983  17.573 -0.9701  0.1389  0.2522
  194MPD1     H 2954   2.926   3.893  17.214  1.7218  0.6880  0.6691
  194MPD1    H1 2955   2.709   3.815  17.580  1.2113 -2.5625  0.4196
  194MPD1    H2 2956   2.929   4.153  17.550  4.1349 -1.5067  1.4015
  194MPD1    H3 2957   2.810   4.003  17.678  2.2436 -0.2068  0.8108
  194MPD1     N 2958   2.769   3.702  17.338  0.2385  0.4237  0.2553
  194MPD1    H5 2959   2.729   3.643  17.410  0.7103  0.0023  0.1717
  194MPD1    N1 2960   3.042   4.109  17.306  0.4417 -0.4113 -0.6390
  194MPD1    H6 2961   3.028   4.124  17.207  0.6826  1.1575 -0.4348
  194MPD1    H7 2962   3.037   4.204  17.341 -0.9903 -0.8302  0.3050
  195MPD1     C 2963   0.705   0.869   0.274  0.2256  0.0078 -0.3335
  195MPD1    C1 2964   0.715   0.818   0.403  0.1497 -0.4111  1.3464
  195MPD1    C2 2965   0.669   0.692   0.435 -0.0247 -0.2097  0.1014
  195MPD1    C3 2966   0.609   0.619   0.331 -0.1212 -0.2616 -0.0132
  195MPD1    C4 2967   0.597   0.677   0.204 -0.0500  0.0176 -0.6690
  195MPD1    C5 2968   0.655   0.789   0.177 -0.2483  0.9654  0.5123
  195MPD1     H 2969   0.666   0.664   0.540  0.4616  0.0937  0.1983
  195MPD1    H1 2970   0.555   0.617   0.124  0.7390  0.9886 -1.8145
  195MPD1    H2 2971   0.733   0.966   0.234 -0.4872  0.8131  1.1187
  195MPD1    H3 2972   0.652   0.834   0.078  0.5175  1.6418  0.8006
  195MPD1     N 2973   0.562   0.488   0.347  0.1554  0.3416  0.4737
  195MPD1    H5 2974   0.518   0.443   0.267 -0.2125 -0.9042  1.3797
  195MPD1    N1 2975   0.755   0.904   0.510  0.7601 -0.6561 -0.0781
  195MPD1    H6 2976   0.801   0.849   0.582 -0.1496 -1.9243 -0.4795
  195MPD1    H7 2977   0.806   0.986   0.476  0.2284 -0.0511  0.5956
  196MPD1     C 2978   4.308   0.398   1.032 -1.1939 -0.1239  0.4532
  196MPD1    C1 2979   4.370   0.276   1.014  0.0142 -0.3845  0.3870
  196MPD1    C2 2980   4.509   0.280   1.022  0.3812  0.5923  1.0023
  196MPD1    C3 2981   4.585   0.396   1.014 -0.8940 -0.2608 -0.6083
  196MPD1    C4 2982   4.511   0.511   1.006  0.9909 -0.3523 -0.4160
  196MPD1    C5 2983   4.377   0.518   1.026 -0.6901 -0.3173 -0.2837
  196MPD1     H 2984   4.560   0.184   1.016  0.8751  0.9705 -0.7735
  196MPD1    H1 2985   4.555   0.609   1.015  1.0660 -0.0876 -3.8712
  196MPD1    H2 2986   4.202   0.402   1.054 -1.1852 -0.8187  0.6282
  196MPD1    H3 2987   4.334   0.615   1.046  0.1824 -0.0810  0.4202
  196MPD1     N 2988   0.002   0.409   1.009  0.2246 -0.2544 -0.1740
  196MPD1    H5 2989   0.037   0.505   1.010 -1.4268  0.3418  0.0375
  196MPD1    N1 2990   4.302   0.153   1.023  0.2185  0.4947  0.2498
  196MPD1    H6 2991   4.203   0.161   1.000  0.1610 -0.1098  0.2884
  196MPD1    H7 2992   4.335   0.071   0.972 -0.0523  0.1406  0.6476
  197MPD1     C 2993   3.728   2.811  16.635 -0.4443  0.0668 -0.2961
  197MPD1    C1 2994   3.758   2.889  16.747  0.0493  0.2027 -0.1263
  197MPD1    C2 2995   3.885   2.938  16.764 -0.0076  0.1781  0.9122
  197MPD1    C3 2996   3.984   2.896  16.682  0.3105 -0.4603 -0.4129
  197MPD1    C4 2997   3.953   2.813  16.578 -0.0511  0.3115  0.1717
  197MPD1    C5 2998   3.829   2.766  16.558  0.0094  0.1515  0.2022
  197MPD1     H 2999   3.894   3.013  16.842  0.0705 -0.1442  1.2125
  197MPD1    H1 3000   4.029   2.772  16.512  1.6079  1.1997  1.5451
  197MPD1    H2 3001   3.626   2.777  16.623 -0.5998  1.1520 -2.1383
  197MPD1    H3 3002   3.821   2.697  16.475 -0.0128 -0.8066  1.0009
  197MPD1     N 3003   4.110   2.950  16.679  0.5750  0.0812  0.2925
  197MPD1    H5 3004   4.161   2.927  16.594 -0.7539  0.1057 -0.5154
  197MPD1    N1 3005   3.649   2.953  16.816  0.1610 -0.1750 -0.2034
  197MPD1    H6 3006   3.676   2.958  16.913  1.2210  1.1512 -0.5756
  197MPD1    H7 3007   3.565   2.895  16.815 -0.2093  0.3474  1.7795
  198MPD1     C 3008   0.627   2.556  15.435  0.4497  0.7791  0.0611
  198MPD1    C1 3009   0.599   2.459  15.524  0.3411 -0.4449  0.0835
  198MPD1    C2 3010   0.693   2.368  15.558  0.8379  0.6711  0.3551
  198MPD1    C3 3011   0.813   2.367  15.497 -0.3539 -0.5277  0.6718
  198MPD1    C4 3012   0.835   2.444  15.384  0.3946  0.4800  0.2931
  198MPD1    C5 3013   0.743   2.540  15.361  0.1263 -0.5703  0.0647
  198MPD1     H 3014   0.674   2.299  15.640  1.1200  1.1006  0.7833
  198MPD1    H1 3015   0.926   2.448  15.325  0.1242  0.7687 -0.1020
  198MPD1    H2 3016   0.567   2.644  15.415 -0.0054  0.5913  0.6101
  198MPD1    H3 3017   0.760   2.619  15.289 -0.4436 -0.4366  0.0788
  198MPD1     N 3018   0.907   2.273  15.549 -0.5392  0.1508 -0.0463
  198MPD1    H5 3019   0.881   2.214  15.627  0.3305 -0.1420  0.0257
  198MPD1    N1 3020   0.482   2.475  15.594  0.2204  0.0255  0.3035
  198MPD1    H6 3021   0.432   2.397  15.636  1.7281 -0.8005  0.5929
  198MPD1    H7 3022   0.404   2.519  15.546 -0.3689 -0.6676  0.6222
  199MPD1     C 3023   3.977   3.678  10.765 -0.5342  0.4378  0.1433
  199MPD1    C1 3024   3.915   3.712  10.650 -0.4085 -0.5483 -0.0175
  199MPD1    C2 3025   3.931   3.631  10.536  0.2279 -0.4901  0.9177
  199MPD1    C3 3026   4.022   3.533  10.535  0.3184 -0.5930  0.5195
  199MPD1    C4 3027   4.087   3.504  10.650  0.0007 -0.3790  0.0277
  199MPD1    C5 3028   4.057   3.567  10.769  0.3807 -0.1465 -0.0329
  199MPD1     H 3029   3.884   3.666  10.445 -0.3710  2.3680  2.3073
  199MPD1    H1 3030   4.157   3.420  10.650  0.0306 -0.3524 -0.6008
  199MPD1    H2 3031   3.957   3.736  10.855 -2.1512 -0.2572  0.2220
  199MPD1    H3 3032   4.098   3.536  10.864  0.0153  0.0217  0.1826
  199MPD1     N 3033   4.050   3.459  10.417 -0.0524  0.3302 -0.1158
  199MPD1    H5 3034   4.086   3.366  10.432 -4.1924 -1.3495 -0.6098
  199MPD1    N1 3035   3.814   3.815  10.647  0.1300  0.0874 -0.1422
  199MPD1    H6 3036   3.841   3.889  10.712 -1.6315 -0.1539  0.8621
  199MPD1    H7 3037   3.810   3.861  10.556 -1.6346  0.7555  0.2737
  200MPD1     C 3038   2.395   3.074  15.326  0.2833  0.7582 -0.3255
  200MPD1    C1 3039   2.523   3.093  15.381 -0.1650 -0.5641 -0.3317
  200MPD1    C2 3040   2.629   3.075  15.297  0.6176  0.2238 -0.3114
  200MPD1    C3 3041   2.608   3.056  15.163  0.2054  0.0685  0.4554
  200MPD1    C4 3042   2.488   3.067  15.105 -0.1057 -0.1210  0.1356
  200MPD1    C5 3043   2.387   3.071  15.189  1.2068 -0.4695 -0.1029
  200MPD1     H 3044   2.733   3.075  15.325  1.0298 -2.6053 -1.8700
  200MPD1    H1 3045   2.461   3.057  15.000  2.0047 -0.4329 -0.3833
  200MPD1    H2 3046   2.310   3.071  15.394  0.7471  0.9045  0.2653
  200MPD1    H3 3047   2.292   3.064  15.138  0.4549  0.7831  1.1428
  200MPD1     N 3048   2.726   3.026  15.094 -0.6174 -0.8472 -0.3729
  200MPD1    H5 3049   2.809   2.999  15.147 -1.1460 -2.4242 -0.3512
  200MPD1    N1 3050   2.541   3.087  15.521  0.0663 -0.3120 -0.1133
  200MPD1    H6 3051   2.453   3.117  15.563 -0.6796 -0.1230 -1.8462
  200MPD1    H7 3052   2.624   3.134  15.558  1.4070 -1.7250 -1.3132
  201MPD1     C 3053   4.337   2.189  13.385 -0.7433 -0.0269  0.1419
  201MPD1    C1 3054   4.356   2.086  13.295 -0.2712  0.1094 -0.5886
  201MPD1    C2 3055   4.443   1.983  13.322  0.4912 -0.2116  0.2072
  201MPD1    C3 3056   4.506   1.975  13.444  0.5883 -0.0021 -0.4305
  201MPD1    C4 3057   4.484   2.076  13.532 -0.0798 -0.6854  0.1358
  201MPD1    C5 3058   4.412   2.181  13.499 -0.2952 -0.3194 -0.6258
  201MPD1     H 3059   4.440   1.894  13.261  1.1364 -0.6849  0.8487
  201MPD1    H1 3060   4.536   2.082  13.627 -0.3636 -0.4771  0.2803
  201MPD1    H2 3061   4.266   2.270  13.374 -0.8946 -0.3972 -1.5878
  201MPD1    H3 3062   4.396   2.256  13.576 -0.8557 -0.2937 -0.7662
  201MPD1     N 3063   4.584   1.866  13.465  0.2388  0.2501 -0.3109
  201MPD1    H5 3064   4.591   1.800  13.388 -2.7503  0.4356 -0.7000
  201MPD1    N1 3065   4.261   2.071  13.193  0.3404  0.1941 -0.0116
  201MPD1    H6 3066   4.209   2.155  13.167  0.5906  0.2885 -0.2107
  201MPD1    H7 3067   4.310   2.036  13.111 -0.3352 -3.6658  1.2699
  202MPD1     C 3068   0.172   1.230   9.044 -0.2887 -0.4349 -0.2962
  202MPD1    C1 3069   0.136   1.364   9.041  0.3192  0.1147 -0.2449
  202MPD1    C2 3070   0.156   1.430   9.165 -0.1548  0.4702 -0.3704
  202MPD1    C3 3071   0.156   1.347   9.279  0.3375  0.2154 -0.7471
  202MPD1    C4 3072   0.164   1.209   9.276  0.6608 -0.5762 -0.2559
  202MPD1    C5 3073   0.182   1.156   9.157 -1.0160  0.1400  0.7021
  202MPD1     H 3074   0.150   1.538   9.177  0.7873  0.5728 -0.8574
  202MPD1    H1 3075   0.173   1.145   9.363  1.3055 -1.1780 -0.7670
  202MPD1    H2 3076   0.188   1.177   8.951  0.0208  0.8473 -0.9874
  202MPD1    H3 3077   0.209   1.051   9.150 -0.8625  0.3068 -1.1741
  202MPD1     N 3078   0.165   1.396   9.410 -0.4908 -0.8798 -0.6851
  202MPD1    H5 3079   0.181   1.324   9.480  1.3401 -1.6682 -1.9141
  202MPD1    N1 3080   0.145   1.433   8.923  0.4967  0.0419 -0.3347
  202MPD1    H6 3081   0.090   1.392   8.848 -0.3028  3.6264 -1.7277
  202MPD1    H7 3082   0.120   1.532   8.922  0.8543  0.1352 -0.3095
  203MPD1     C 3083   3.305   2.426  12.879  0.1133  0.3073 -0.3197
  203MPD1    C1 3084   3.434   2.416  12.842  0.7751 -0.1714  0.4540
  203MPD1    C2 3085   3.488   2.290  12.844  1.0779  0.2417  1.0664
  203MPD1    C3 3086   3.421   2.174  12.869  0.3271  0.1440  1.3785
  203MPD1    C4 3087   3.287   2.180  12.891 -0.3140  0.1526  0.4158
  203MPD1    C5 3088   3.232   2.310  12.896  0.8311  0.1791 -0.1634
  203MPD1     H 3089   3.594   2.289  12.821  1.0352  0.6570  0.8706
  203MPD1    H1 3090   3.216   2.098  12.903 -0.6268  0.4971  0.9395
  203MPD1    H2 3091   3.264   2.525  12.897  0.5598  0.3171  0.6938
  203MPD1    H3 3092   3.126   2.313  12.916  0.6893 -0.7943 -0.7680
  203MPD1     N 3093   3.489   2.058  12.852 -0.2059  0.0013  0.4677
  203MPD1    H5 3094   3.590   2.060  12.836 -0.0092 -1.4876  1.5111
  203MPD1    N1 3095   3.514   2.530  12.841  0.4334  1.0119 -0.2054
  203MPD1    H6 3096   3.471   2.618  12.815 -1.0933  0.1940 -0.4162
  203MPD1    H7 3097   3.598   2.519  12.784  0.2947  0.0686 -0.2214
  204MPD1     C 3098   3.530   2.647  17.550  0.1216 -0.2424  0.4596
  204MPD1    C1 3099   3.561   2.513  17.585  0.0082 -0.1789  0.2589
  204MPD1    C2 3100   3.532   2.410  17.498  0.4952 -0.0679  0.8226
  204MPD1    C3 3101   3.491   2.429  17.373  0.3748  0.5463 -0.6375
  204MPD1    C4 3102   3.479   2.562  17.331  0.8372 -0.3018 -0.4398
  204MPD1    C5 3103   3.494   2.668  17.418  0.3053  0.3049  0.7637
  204MPD1     H 3104   3.539   2.307  17.531 -1.2846 -0.3789  0.2165
  204MPD1    H1 3105   3.459   2.584  17.227 -0.2576 -0.0160 -0.1763
  204MPD1    H2 3106   3.542   2.725  17.625  0.0133  1.7706 -1.6010
  204MPD1    H3 3107   3.475   2.767  17.379 -0.6328 -0.4920 -0.8198
  204MPD1     N 3108   3.461   2.320  17.284  0.2997  0.1028  0.5178
  204MPD1    H5 3109   3.471   2.225  17.320  1.9223  0.1876  0.2777
  204MPD1    N1 3110   3.587   2.486   0.030  0.6112  0.2408 -0.0162
  204MPD1    H6 3111   3.637   2.399   0.048  2.4127  1.4037  0.5526
  204MPD1    H7 3112   3.637   2.566   0.068 -0.3389 -0.0522  1.8632
  205MPD1     C 3113   2.454   1.079  17.059  0.0170  0.6345 -0.6643
  205MPD1    C1 3114   2.483   1.037  17.185  0.5100  0.9559 -0.1617
  205MPD1    C2 3115   2.613   1.035  17.227  0.3639 -0.5288  0.7325
  205MPD1    C3 3116   2.717   1.077  17.147  0.0101 -0.7782 -0.7392
  205MPD1    C4 3117   2.685   1.130  17.023  0.2608 -0.5350 -0.5788
  205MPD1    C5 3118   2.554   1.120  16.975  0.9351 -0.3093  0.7532
  205MPD1     H 3119   2.631   0.989  17.324  0.4067  1.5005  1.6865
  205MPD1    H1 3120   2.764   1.168  16.958 -0.0329  0.3704 -0.4090
  205MPD1    H2 3121   2.352   1.082  17.023  0.0788  1.1778 -0.7950
  205MPD1    H3 3122   2.528   1.165  16.880 -0.2341  0.6117  1.5085
  205MPD1     N 3123   2.854   1.090  17.185 -0.4010  0.2433 -0.3837
  205MPD1    H5 3124   2.923   1.134  17.125 -0.2124  1.1747  0.5085
  205MPD1    N1 3125   2.378   0.970  17.246  0.1999  0.5945 -0.5437
  205MPD1    H6 3126   2.380   0.979  17.348  2.7414 -0.2783 -0.4995
  205MPD1    H7 3127   2.288   0.989  17.204 -1.0811  0.2909  2.0934
  206MPD1     C 3128   3.034   4.640  16.551  0.2489  0.5632 -0.3078
  206MPD1    C1 3129   3.079   4.533  16.477 -0.1679  0.2283 -0.6667
  206MPD1    C2 3130   3.052   4.514  16.346  0.2327 -0.4252  0.3010
  206MPD1    C3 3131   2.962   4.603  16.279  0.0991 -0.4025 -0.0009
  206MPD1    C4 3132   2.907   4.704  16.356 -0.3287 -0.0176 -0.6295
  206MPD1    C5 3133   2.940   4.721  16.489 -0.0713 -0.1857 -0.0512
  206MPD1     H 3134   3.095   4.429  16.293  0.3252 -0.8674  1.0912
  206MPD1    H1 3135   2.833   0.045  16.308 -0.1057  1.0822  0.4776
  206MPD1    H2 3136   3.054   4.660  16.656  0.2900  0.9471 -0.3910
  206MPD1    H3 3137   2.900   0.081  16.548 -0.2870  1.0131 -1.8652
  206MPD1     N 3138   2.919   4.607  16.140  0.2144 -0.0376 -0.1211
  206MPD1    H5 3139   2.830   4.653  16.131  0.6988  1.0435  0.6533
  206MPD1    N1 3140   3.154   4.435  16.546 -0.4152  0.4953  0.0505
  206MPD1    H6 3141   3.232   4.477  16.595  0.8774 -1.4299 -0.3255
  206MPD1    H7 3142   3.180   4.356  16.487  0.8257  0.8405  0.1262
  207MPD1     C 3143   0.730   2.832   9.815  0.1141 -0.9884  0.7332
  207MPD1    C1 3144   0.740   2.814   9.949  0.8793 -0.2569 -0.0126
  207MPD1    C2 3145   0.849   2.860  10.014  0.4756  0.5624 -0.7165
  207MPD1    C3 3146   0.956   2.922   9.945 -0.2363 -0.3153 -0.5948
  207MPD1    C4 3147   0.946   2.927   9.803 -0.1246  0.3318 -0.4470
  207MPD1    C5 3148   0.833   2.883   9.743  0.1810  0.1284  0.1514
  207MPD1     H 3149   0.860   2.853  10.122  2.2467 -2.1187 -1.0839
  207MPD1    H1 3150   1.032   2.959   9.744  0.6040  0.8475  0.8933
  207MPD1    H2 3151   0.648   2.795   9.754 -1.3866  1.4589  1.2640
  207MPD1    H3 3152   0.832   2.897   9.636 -0.2107  2.5335  0.4652
  207MPD1     N 3153   1.081   2.949  10.002 -0.4032 -0.1074  0.8312
  207MPD1    H5 3154   1.162   2.969   9.945 -0.4365 -0.0288  0.8104
  207MPD1    N1 3155   0.619   2.781  10.016  0.3697  0.4659  0.0724
  207MPD1    H6 3156   0.634   2.751  10.112  1.6949  0.9822  0.0340
  207MPD1    H7 3157   0.560   2.713   9.969 -0.8723  0.9057  0.9961
  208MPD1     C 3158   4.616   0.903   0.265  0.3283 -0.6028 -0.1730
  208MPD1    C1 3159   4.615   0.912   0.407 -0.7602  0.3757 -0.1026
  208MPD1    C2 3160   4.495   0.955   0.469 -0.6454 -0.0916  0.4551
  208MPD1    C3 3161   4.378   0.975   0.390 -0.3786  0.3980 -0.0157
  208MPD1    C4 3162   4.388   0.968   0.254  0.3710 -0.1271 -0.7047
  208MPD1    C5 3163   4.503   0.937   0.191 -0.1480 -0.9034 -0.4246
  208MPD1     H 3164   4.485   0.968   0.576  0.8936 -0.4657  0.6489
  208MPD1    H1 3165   4.305   0.998   0.191  0.9291  0.1017 -1.3255
  208MPD1    H2 3166   4.703   0.869   0.209  0.2657  1.1821 -1.3739
  208MPD1    H3 3167   4.517   0.919   0.085 -0.8495  1.0283 -0.8459
  208MPD1     N 3168   4.250   0.986   0.453  0.4386  0.0442 -0.1489
  208MPD1    H5 3169   4.250   0.964   0.552  1.0535  1.6584  0.2073
  208MPD1    N1 3170   0.010   0.878   0.475  0.3498  0.8679  0.8764
  208MPD1    H6 3171   4.716   0.873   0.576  1.2682 -3.0096  0.8136
  208MPD1    H7 3172   0.051   0.792   0.440 -1.1363  0.3160  0.5010
  209MPD1     C 3173   1.139   2.610  11.707  0.0547  0.2138  0.5224
  209MPD1    C1 3174   1.274   2.605  11.740  0.4966 -0.2229  0.2968
  209MPD1    C2 3175   1.365   2.647  11.647  0.0488  0.3536 -0.2752
  209MPD1    C3 3176   1.321   2.721  11.539  0.3092 -0.4123 -0.3222
  209MPD1    C4 3177   1.191   2.742  11.512 -0.0257 -0.6047 -0.2798
  209MPD1    C5 3178   1.104   2.680  11.592 -0.0810 -0.3751  0.0042
  209MPD1     H 3179   1.467   2.611  11.648  0.0315  0.2642 -1.2784
  209MPD1    H1 3180   1.157   2.803  11.429 -0.2839 -1.6355 -0.9319
  209MPD1    H2 3181   1.062   2.568  11.772 -0.2893 -0.8180 -0.5619
  209MPD1    H3 3182   1.000   2.701  11.568 -0.5786 -0.8312  1.7241
  209MPD1     N 3183   1.422   2.756  11.451  0.1673  0.1422  0.3413
  209MPD1    H5 3184   1.511   2.709  11.467 -0.5774 -0.5903  2.2872
  209MPD1    N1 3185   1.317   2.516  11.837 -0.8854  0.3257 -0.1849
  209MPD1    H6 3186   1.247   2.498  11.908 -0.1571  0.5897  0.6024
  209MPD1    H7 3187   1.399   2.557  11.883 -0.4135  0.4946 -1.1796
  210MPD1     C 3188   2.389   3.009  11.456 -0.0908 -0.4378 -0.3653
  210MPD1    C1 3189   2.287   2.981  11.547  0.3794 -0.1121  0.5344
  210MPD1    C2 3190   2.161   2.963  11.499 -0.8971  0.0539  0.4314
  210MPD1    C3 3191   2.137   2.962  11.362  0.3132 -0.1158 -0.6575
  210MPD1    C4 3192   2.245   3.009  11.280  0.1698  0.4025  0.4924
  210MPD1    C5 3193   2.374   3.026  11.324  0.2382  0.0627  0.1762
  210MPD1     H 3194   2.088   2.918  11.566 -0.7942  0.4659  0.8273
  210MPD1    H1 3195   2.233   3.028  11.174  1.3817  1.0542  0.4694
  210MPD1    H2 3196   2.489   2.998  11.496  0.1664 -0.2217 -0.9558
  210MPD1    H3 3197   2.462   3.048  11.265 -0.3300  0.0583 -0.6618
  210MPD1     N 3198   2.014   2.927  11.296  0.0464  0.4280  0.3090
  210MPD1    H5 3199   2.018   2.951  11.198 -0.0391 -0.2128  0.1537
  210MPD1    N1 3200   2.310   2.972  11.685  0.4144  0.2128 -0.5033
  210MPD1    H6 3201   2.217   2.996  11.719  1.6069  2.7885  0.9755
  210MPD1    H7 3202   2.377   3.033  11.731 -0.3850 -0.5097  1.5972
  211MPD1     C 3203   3.463   1.029  16.664 -0.1918  0.5322 -0.0432
  211MPD1    C1 3204   3.495   1.159  16.688  0.2070  0.2664 -0.1972
  211MPD1    C2 3205   3.383   1.243  16.662 -0.2968  0.1473  0.4528
  211MPD1    C3 3206   3.262   1.202  16.616  0.1020 -0.2523  0.2803
  211MPD1    C4 3207   3.236   1.069  16.591 -0.5535  0.0167  0.1658
  211MPD1    C5 3208   3.339   0.984  16.615 -0.3922 -0.0161 -0.6654
  211MPD1     H 3209   3.387   1.349  16.685  1.1928 -0.0243  1.0209
  211MPD1    H1 3210   3.140   1.029  16.560 -0.8290  1.2302 -0.5113
  211MPD1    H2 3211   3.537   0.951  16.678 -0.0585  0.4210 -1.3879
  211MPD1    H3 3212   3.330   0.877  16.603  0.0978 -0.3041  1.5861
  211MPD1     N 3213   3.160   1.301  16.606 -0.1142 -0.6040 -1.0711
  211MPD1    H5 3214   3.193   1.389  16.644 -1.6951  0.4559 -2.1648
  211MPD1    N1 3215   3.608   1.205  16.763 -0.3746  0.1796  0.5472
  211MPD1    H6 3216   3.685   1.144  16.736 -0.6588 -0.9678  2.3097
  211MPD1    H7 3217   3.633   1.302  16.743  0.9349 -0.4151 -0.7460
  212MPD1     C 3218   1.946   0.686  16.256 -0.5101  1.1257 -0.1473
  212MPD1    C1 3219   1.880   0.592  16.331 -0.3092 -0.8233  0.7952
  212MPD1    C2 3220   1.944   0.475  16.362  0.1113  0.5990  0.1072
  212MPD1    C3 3221   2.074   0.445  16.310 -0.3571  0.2900 -0.0701
  212MPD1    C4 3222   2.124   0.533  16.221  0.0530  0.0994  0.0125
  212MPD1    C5 3223   2.059   0.646  16.195 -0.0168 -0.6758 -0.0705
  212MPD1     H 3224   1.902   0.401  16.430 -1.9759  1.8537  0.1552
  212MPD1    H1 3225   2.217   0.513  16.171  0.7084  1.7666  0.5581
  212MPD1    H2 3226   1.915   0.788  16.242  0.4441  1.4416  0.0284
  212MPD1    H3 3227   2.103   0.720  16.129 -0.1836  0.5238  1.1568
  212MPD1     N 3228   2.169   0.349  16.355  0.3953 -0.0835  0.3364
  212MPD1    H5 3229   2.268   0.349  16.330  0.5747 -0.3378  1.0374
  212MPD1    N1 3230   1.763   0.631  16.400 -0.0706  0.3494  0.1518
  212MPD1    H6 3231   1.718   0.713  16.360  0.7049 -0.2811 -1.9527
  212MPD1    H7 3232   1.700   0.558  16.433  0.4943  0.0074  0.4819
  213MPD1     C 3233   1.010   1.822  16.186  1.1276 -0.2244  0.1758
  213MPD1    C1 3234   0.907   1.737  16.175 -0.8954 -0.4338 -0.4871
  213MPD1    C2 3235   0.876   1.692  16.048  0.3960  1.0204  0.5259
  213MPD1    C3 3236   0.941   1.747  15.942  0.6998 -0.1429 -0.3335
  213MPD1    C4 3237   1.029   1.849  15.958 -0.0843  0.1749 -0.0305
  213MPD1    C5 3238   1.060   1.890  16.082 -0.7105 -0.0896 -0.4275
  213MPD1     H 3239   0.808   1.610  16.026 -0.2431  2.5370 -3.1186
  213MPD1    H1 3240   1.067   1.909  15.876 -3.5139 -0.7260 -2.2653
  213MPD1    H2 3241   1.056   1.846  16.282  1.8264  2.1241 -0.7584
  213MPD1    H3 3242   1.141   1.959  16.102 -0.1226 -0.0230 -3.0448
  213MPD1     N 3243   0.918   1.687  15.814 -0.4433  0.4767  0.5098
  213MPD1    H5 3244   0.858   1.606  15.824  0.1528 -0.0215  0.0387
  213MPD1    N1 3245   0.882   1.652  16.279  0.0734 -0.4151 -0.3499
  213MPD1    H6 3246   0.881   1.702  16.369  1.3702 -1.8443  0.4611
  213MPD1    H7 3247   0.796   1.598  16.271  0.2670 -0.6146 -1.0745
  214MPD1     C 3248   0.578   0.844  15.504  0.8083  0.3474 -0.4578
  214MPD1    C1 3249   0.583   0.911  15.623  0.3066 -0.4258 -1.0462
  214MPD1    C2 3250   0.663   1.026  15.627 -0.6066  0.2857 -0.1203
  214MPD1    C3 3251   0.741   1.068  15.519 -0.5466 -0.4471 -0.4882
  214MPD1    C4 3252   0.746   0.990  15.407  0.0804  0.0280 -0.1170
  214MPD1    C5 3253   0.656   0.886  15.396  0.1027  0.2533 -0.0607
  214MPD1     H 3254   0.660   1.086  15.717 -1.2159 -1.8233  1.2645
  214MPD1    H1 3255   0.816   1.009  15.326  0.2789 -1.2110 -0.2370
  214MPD1    H2 3256   0.502   0.768  15.490 -0.7719  1.7153  0.6938
  214MPD1    H3 3257   0.633   0.835  15.303  1.5006 -2.1088  0.8816
  214MPD1     N 3258   0.819   1.186  15.517 -0.4681  0.0199  0.0816
  214MPD1    H5 3259   0.883   1.191  15.438  0.1715  0.8617  0.6623
  214MPD1    N1 3260   0.483   0.896  15.722  0.0411  0.2226 -0.2201
  214MPD1    H6 3261   0.524   0.930  15.809  1.7991  0.5836 -1.1731
  214MPD1    H7 3262   0.465   0.798  15.739 -0.6662  0.2415 -0.8713
  215MPD1     C 3263   1.041   1.492  10.434 -0.9714  0.5606  0.0215
  215MPD1    C1 3264   1.017   1.593  10.339 -0.6243 -0.3722 -0.3536
  215MPD1    C2 3265   1.044   1.721  10.383 -0.3331  0.1360 -0.8208
  215MPD1    C3 3266   1.073   1.753  10.515  0.1670 -1.0052  0.0463
  215MPD1    C4 3267   1.076   1.647  10.609 -0.4841  0.3559 -0.0994
  215MPD1    C5 3268   1.079   1.520  10.562  0.4213  0.1484  0.3625
  215MPD1     H 3269   1.040   1.799  10.308 -3.0503 -0.4605 -1.3095
  215MPD1    H1 3270   1.091   1.658  10.716 -0.2366  1.2160 -0.2187
  215MPD1    H2 3271   1.010   1.391  10.410  2.0266 -0.8789  2.1801
  215MPD1    H3 3272   1.079   1.437  10.631 -1.4514  0.0622  0.2599
  215MPD1     N 3273   1.085   1.892  10.553 -0.6511  0.1250  0.0742
  215MPD1    H5 3274   1.033   1.961  10.500 -1.2632 -0.9716 -0.7442
  215MPD1    N1 3275   0.933   1.573  10.234 -0.6270 -0.3607 -0.6775
  215MPD1    H6 3276   0.929   1.642  10.159  0.0306  1.3382  0.8645
  215MPD1    H7 3277   0.924   1.478  10.198  1.2834 -0.1885 -1.6251
  216MPD1     C 3278   2.760   0.214  16.965 -0.2282  0.0320  0.4703
  216MPD1    C1 3279   2.829   0.102  16.948  0.7422 -0.2593 -0.0598
  216MPD1    C2 3280   2.822   4.718  17.040 -0.1240  0.2379  0.4204
  216MPD1    C3 3281   2.743   0.009  17.147  0.7613 -0.3757  0.1704
  216MPD1    C4 3282   2.672   0.125  17.171 -0.1609 -0.5476 -0.6811
  216MPD1    C5 3283   2.682   0.228  17.073  0.0427  0.0237 -0.3422
  216MPD1     H 3284   2.861   4.619  17.019  0.2214  0.2122  1.1984
  216MPD1    H1 3285   2.599   0.127  17.252  0.0726  0.1425 -0.4877
  216MPD1    H2 3286   2.766   0.299  16.897 -1.2798 -1.0780 -1.0091
  216MPD1    H3 3287   2.617   0.312  17.095 -0.7559 -0.2409 -1.6585
  216MPD1     N 3288   2.734   4.611  17.216  0.0346 -0.1855  0.1299
  216MPD1    H5 3289   2.803   4.545  17.180 -0.1925 -1.0712  1.3426
  216MPD1    N1 3290   2.895   0.072  16.825 -0.7215 -0.1086  0.4173
  216MPD1    H6 3291   2.930   0.160  16.785  0.6108  0.6973  3.3754
  216MPD1    H7 3292   2.974   0.010  16.842 -0.5464 -0.6837 -2.3949
  217MPD1     C 3293   4.030   0.799   8.652  0.2795 -0.2316  0.1898
  217MPD1    C1 3294   4.150   0.740   8.699 -0.1395  0.2483 -0.2248
  217MPD1    C2 3295   4.186   0.756   8.827  0.6490  0.3817  0.0916
  217MPD1    C3 3296   4.102   0.825   8.912 -0.2361  0.8340  0.3134
  217MPD1    C4 3297   3.992   0.889   8.863  0.2338 -0.1857 -0.4076
  217MPD1    C5 3298   3.950   0.869   8.737 -0.2327  0.2849 -0.1580
  217MPD1     H 3299   4.278   0.704   8.854 -1.0640 -1.2203  2.7986
  217MPD1    H1 3300   3.936   0.952   8.931 -0.2212 -0.0606 -0.9058
  217MPD1    H2 3301   3.995   0.779   8.552 -2.6092 -0.4928  1.2473
  217MPD1    H3 3302   3.855   0.908   8.700 -0.3431 -1.4621 -1.7628
  217MPD1     N 3303   4.134   0.839   9.052  0.4904 -0.5199  0.4704
  217MPD1    H5 3304   4.070   0.898   9.104  0.1624 -2.0077  1.7858
  217MPD1    N1 3305   4.222   0.646   8.627 -0.8335  0.1004  0.2592
  217MPD1    H6 3306   4.322   0.661   8.632 -0.7867  0.2811 -1.1189
  217MPD1    H7 3307   4.183   0.649   8.533 -1.3074 -0.4999  0.4393
  218MPD1     C 3308   4.285   2.267  12.476 -0.2147 -0.4529  0.3419
  218MPD1    C1 3309   4.324   2.388  12.529  0.5019 -0.3523  0.1704
  218MPD1    C2 3310   4.459   2.406  12.552 -0.1496  0.3209 -0.1966
  218MPD1    C3 3311   4.551   2.310  12.515  0.0432 -0.3920 -0.4149
  218MPD1    C4 3312   4.511   2.196  12.445 -0.4847  0.1645  0.8227
  218MPD1    C5 3313   4.373   2.174  12.432  0.5400 -0.3471 -0.1846
  218MPD1     H 3314   4.495   2.489  12.612  0.1078  0.0630  0.0033
  218MPD1    H1 3315   4.578   2.124  12.400 -0.7222  0.0147  0.7086
  218MPD1    H2 3316   4.179   2.255  12.462 -0.6381  1.2317  1.9390
  218MPD1    H3 3317   4.342   2.079  12.391 -0.8163  0.3438 -0.7578
  218MPD1     N 3318   4.691   2.338  12.539  0.1415 -0.6295 -0.3639
  218MPD1    H5 3319   4.713   2.428  12.579 -3.2070  0.8790 -1.8825
  218MPD1    N1 3320   4.229   2.475  12.592  0.1721  0.2017 -0.0597
  218MPD1    H6 3321   4.266   2.568  12.576 -0.1752  0.6381  1.6905
  218MPD1    H7 3322   4.136   2.466  12.549 -0.1567  1.2984  0.4369
  219MPD1     C 3323   0.646   2.831  12.090  0.0895 -0.1996 -0.1129
  219MPD1    C1 3324   0.513   2.843  12.127 -0.1007 -0.5245 -0.0800
  219MPD1    C2 3325   0.468   2.756  12.218  0.2872 -0.8857  0.0621
  219MPD1    C3 3326   0.553   2.651  12.255  0.3369 -0.2272 -0.7089
  219MPD1    C4 3327   0.683   2.631  12.215  1.0175  1.0311 -0.6605
  219MPD1    C5 3328   0.733   2.729  12.135  0.1243  0.1228 -0.0976
  219MPD1     H 3329   0.366   2.760  12.255  0.2806 -0.9519  0.0502
  219MPD1    H1 3330   0.747   2.554  12.257  0.2974  0.3078 -0.8851
  219MPD1    H2 3331   0.683   2.907  12.022  1.3517 -0.5951  0.1356
  219MPD1    H3 3332   0.836   2.732  12.103 -0.6191  1.4278 -2.3807
  219MPD1     N 3333   0.518   2.561  12.356 -0.0370 -0.3937  0.5592
  219MPD1    H5 3334   0.584   2.485  12.369  0.6616  0.0811 -0.2589
  219MPD1    N1 3335   0.443   2.959  12.106  0.2169 -0.0849  0.3314
  219MPD1    H6 3336   0.470   3.020  12.183  0.7897  1.1275 -0.8137
  219MPD1    H7 3337   0.345   2.939  12.126  0.2977 -0.8339 -0.0322
  220MPD1     C 3338   4.645   2.801   9.429 -0.1150 -0.2134 -0.6261
  220MPD1    C1 3339   4.637   2.805   9.568 -0.0285 -0.5893 -0.5454
  220MPD1    C2 3340   4.704   2.704   9.640 -0.6749  0.4030  1.0267
  220MPD1    C3 3341   0.072   2.621   9.574 -0.1112  0.3066  0.4091
  220MPD1    C4 3342   0.080   2.625   9.438 -0.5173 -0.5334 -0.4959
  220MPD1    C5 3343   0.001   2.712   9.366  0.7880 -0.0748  1.1133
  220MPD1     H 3344   4.678   2.690   9.744 -0.2162 -0.1224  1.0698
  220MPD1    H1 3345   0.147   2.554   9.389  3.9177  2.8243  0.7316
  220MPD1    H2 3346   4.589   2.880   9.380 -2.3493 -0.9766  0.7424
  220MPD1    H3 3347   0.016   2.724   9.259  2.9879 -0.6461  1.3572
  220MPD1     N 3348   0.144   2.534   9.664  0.2369 -0.3243 -0.7560
  220MPD1    H5 3349   0.120   2.533   9.763 -2.8014 -2.0853 -1.5024
  220MPD1    N1 3350   4.546   2.899   9.630  0.7185  0.1875 -0.2365
  220MPD1    H6 3351   4.574   2.914   9.726 -1.5694  0.4703  0.3930
  220MPD1    H7 3352   4.539   2.989   9.584 -0.6324 -0.1326 -0.6782
  221MPD1     C 3353   2.308   1.313  16.047  0.2770 -0.3255  0.5736
  221MPD1    C1 3354   2.284   1.292  16.180 -0.2619  0.6739  0.1283
  221MPD1    C2 3355   2.386   1.252  16.261 -1.1514  0.1657  0.1600
  221MPD1    C3 3356   2.514   1.230  16.208  0.5045  0.4433  0.1209
  221MPD1    C4 3357   2.542   1.264  16.078  0.2459 -0.2440 -0.5915
  221MPD1    C5 3358   2.437   1.299  15.997 -0.2234 -0.0963 -0.2364
  221MPD1     H 3359   2.365   1.236  16.366 -0.4585 -3.6439 -0.2852
  221MPD1    H1 3360   2.643   1.267  16.041  0.1762  1.1743 -0.6840
  221MPD1    H2 3361   2.218   1.339  15.993 -0.1498 -1.0004  0.9635
  221MPD1    H3 3362   2.454   1.318  15.892  0.8065 -1.2590 -0.2832
  221MPD1     N 3363   2.625   1.170  16.283 -0.0664  0.0751 -0.6240
  221MPD1    H5 3364   2.715   1.153  16.238  0.1616  1.0518 -0.5283
  221MPD1    N1 3365   2.154   1.278  16.232 -0.1043  0.4314  0.0558
  221MPD1    H6 3366   2.078   1.322  16.180  1.5838  1.0474 -1.9005
  221MPD1    H7 3367   2.151   1.310  16.328 -1.6472  0.2416  0.0712
  222MPD1     C 3368   3.614   4.572   1.651 -0.3659 -0.2920  1.0991
  222MPD1    C1 3369   3.722   4.558   1.572 -0.0757 -0.6412  0.2985
  222MPD1    C2 3370   3.714   4.629   1.454 -0.2820 -0.1038  0.0325
  222MPD1    C3 3371   3.608   4.708   1.419 -0.3984 -0.5619 -0.1259
  222MPD1    C4 3372   3.505   4.721   1.503  0.3390  0.3997  0.2960
  222MPD1    C5 3373   3.503   4.654   1.622  0.2527  0.6749 -0.4177
  222MPD1     H 3374   3.795   4.621   1.383  1.1537  2.0547  1.4146
  222MPD1    H1 3375   3.410   0.042   1.475  0.4448  0.0021 -0.6691
  222MPD1    H2 3376   3.614   4.518   1.745  2.0914  1.6530  2.2400
  222MPD1    H3 3377   3.406   4.665   1.669 -0.5098 -1.7383 -1.4204
  222MPD1     N 3378   3.593   0.059   1.301  0.5675 -0.1766  0.7818
  222MPD1    H5 3379   3.506   0.111   1.301  0.5482 -0.2039 -0.3504
  222MPD1    N1 3380   3.836   4.478   1.599 -0.2367 -0.4815 -0.6040
  222MPD1    H6 3381   3.916   4.520   1.552  1.3649 -1.4118  1.2972
  222MPD1    H7 3382   3.857   4.479   1.698 -0.0566 -1.3232 -0.6318
  223MPD1     C 3383   4.214   0.264   0.507  0.8362  0.6432 -0.2182
  223MPD1    C1 3384   4.231   0.255   0.641  0.0896  0.3438 -0.2286
  223MPD1    C2 3385   4.123   0.237   0.728 -0.6999 -0.2730 -0.0690
  223MPD1    C3 3386   3.993   0.225   0.673 -0.1105  0.0098 -0.1933
  223MPD1    C4 3387   3.976   0.234   0.537  0.3818  0.2240 -0.0829
  223MPD1    C5 3388   4.084   0.259   0.456  0.2033 -0.1221  0.3297
  223MPD1     H 3389   4.129   0.243   0.836 -2.8636  0.0665  0.0358
  223MPD1    H1 3390   3.883   0.216   0.483  0.4108  0.4632 -0.2148
  223MPD1    H2 3391   4.291   0.282   0.432  1.2083 -1.3770 -0.3285
  223MPD1    H3 3392   4.072   0.282   0.351  1.1610 -1.2041 -0.0178
  223MPD1     N 3393   3.884   0.188   0.764  0.6410 -0.1017 -0.1401
  223MPD1    H5 3394   3.919   0.175   0.858 -0.5489  0.9867  0.4432
  223MPD1    N1 3395   4.354   0.257   0.696  0.4269 -0.6899  0.4866
  223MPD1    H6 3396   4.352   0.290   0.792 -0.2744  0.2852  0.1345
  223MPD1    H7 3397   4.423   0.316   0.649  0.7025  0.0592  1.8317
  224MPD1     C 3398   4.351   1.354   9.197  0.1549 -0.1961  0.0101
  224MPD1    C1 3399   4.480   1.334   9.232 -0.4644  0.0043  0.5506
  224MPD1    C2 3400   4.514   1.328   9.369  0.3792  0.0039  0.4923
  224MPD1    C3 3401   4.423   1.366   9.461 -0.2707  0.2380  0.0403
  224MPD1    C4 3402   4.295   1.387   9.423 -0.3037 -0.3399  0.3088
  224MPD1    C5 3403   4.256   1.379   9.295  0.6282  0.3579  0.2387
  224MPD1     H 3404   4.616   1.308   9.401  0.6457  0.6678  0.0584
  224MPD1    H1 3405   4.210   1.403   9.488 -0.4955 -4.6649  1.1206
  224MPD1    H2 3406   4.323   1.350   9.092  1.2877 -2.7736 -0.1959
  224MPD1    H3 3407   4.155   1.393   9.257  0.0452 -2.7176  0.6618
  224MPD1     N 3408   4.450   1.371   9.603 -0.1952  0.0374  0.1993
  224MPD1    H5 3409   4.376   1.398   9.667  1.1500  0.9643  1.3940
  224MPD1    N1 3410   4.567   1.308   9.127 -0.3939 -0.0608  0.5103
  224MPD1    H6 3411   4.665   1.336   9.135  0.4456 -3.1935  1.1825
  224MPD1    H7 3412   4.536   1.349   9.040  0.5785  1.5693  0.9274
  225MPD1     C 3413   4.548   3.742  12.766  0.4758 -0.0926  0.1216
  225MPD1    C1 3414   4.633   3.638  12.746  0.3085  0.1807 -0.8483
  225MPD1    C2 3415   4.623   3.562  12.628 -0.6467  0.0745  0.4017
  225MPD1    C3 3416   4.537   3.601  12.534  0.3796  0.4584 -1.0268
  225MPD1    C4 3417   4.470   3.721  12.545 -0.7483 -0.0702  0.1231
  225MPD1    C5 3418   4.463   3.781  12.666  0.5902 -0.3100  0.0592
  225MPD1     H 3419   4.678   3.469  12.620  0.7330  0.7884  1.4265
  225MPD1    H1 3420   4.404   3.760  12.468 -0.2975  1.2671  0.4115
  225MPD1    H2 3421   4.534   3.788  12.863 -0.9182 -2.7305  1.1737
  225MPD1    H3 3422   4.401   3.867  12.691 -0.7840 -1.3036  0.0625
  225MPD1     N 3423   4.507   3.528  12.417 -0.4036  0.0993  0.3005
  225MPD1    H5 3424   4.448   3.574  12.348 -0.1577 -0.6629 -0.4141
  225MPD1    N1 3425   4.718   3.610  12.847 -0.8105  0.1375  0.8460
  225MPD1    H6 3426   0.001   3.687  12.913  1.7160  0.3435  0.4491
  225MPD1    H7 3427   0.090   3.576  12.823 -1.3492 -0.8720  0.1983
  226MPD1     C 3428   4.472   4.343   9.204  0.6765  0.2657  0.4279
  226MPD1    C1 3429   4.542   4.270   9.301  0.7527  0.6707 -0.4693
  226MPD1    C2 3430   4.518   4.131   9.305 -0.0581  0.6760 -0.5485
  226MPD1    C3 3431   4.425   4.069   9.228  0.0079  0.4116  0.7352
  226MPD1    C4 3432   4.351   4.147   9.139  0.0191 -0.1505  0.0829
  226MPD1    C5 3433   4.374   4.280   9.130  0.5070  0.5428 -0.2391
  226MPD1     H 3434   4.587   4.072   9.365  0.7614  1.2070 -0.9634
  226MPD1    H1 3435   4.279   4.100   9.074  1.8431 -2.4361 -0.3022
  226MPD1    H2 3436   4.495   4.447   9.184 -1.2000  1.4247  4.2141
  226MPD1    H3 3437   4.324   4.336   9.051  0.7068 -2.7485 -2.7168
  226MPD1     N 3438   4.419   3.927   9.230 -0.0797  0.2445 -0.2505
  226MPD1    H5 3439   4.465   3.886   9.310 -0.0309  1.8602  0.5539
  226MPD1    N1 3440   4.653   4.311   9.372  0.1760 -0.5248  0.0068
  226MPD1    H6 3441   4.646   4.409   9.396  1.1689 -0.2535 -0.8179
  226MPD1    H7 3442   4.653   4.262   9.461  0.4695  0.6277  0.6323
  227MPD1     C 3443   4.698   3.661   9.917 -0.4952  0.8846  1.4318
  227MPD1    C1 3444   4.719   3.757   9.822  0.1938 -0.9446  0.0088
  227MPD1    C2 3445   4.660   3.742   9.695  0.5823  0.4355 -0.3339
  227MPD1    C3 3446   4.558   3.650   9.672  0.5730  0.3006  0.1814
  227MPD1    C4 3447   4.525   3.564   9.776 -0.5405  0.0167 -0.1190
  227MPD1    C5 3448   4.595   3.575   9.889 -0.3522  0.5800  0.5356
  227MPD1     H 3449   4.680   3.808   9.611 -0.6188  2.2924  0.8516
  227MPD1    H1 3450   4.446   3.491   9.788 -0.8429  0.8021  2.5679
  227MPD1    H2 3451   0.028   3.655  10.013 -0.1110  4.0981  1.4492
  227MPD1    H3 3452   4.572   3.505   9.968  0.1670  0.8560  0.9329
  227MPD1     N 3453   4.488   3.648   9.549 -0.3339 -0.0986  0.0871
  227MPD1    H5 3454   4.510   3.712   9.473 -2.3861  1.0362  0.4562
  227MPD1    N1 3455   0.099   3.856   9.840  0.8238 -0.2967  0.6223
  227MPD1    H6 3456   0.102   3.933   9.774  0.4552  0.3115  1.3113
  227MPD1    H7 3457   0.130   3.879   9.934  1.0742 -0.4929  0.5872
  228MPD1     C 3458   2.449   0.637  12.717  0.7649  0.5720 -0.3803
  228MPD1    C1 3459   2.368   0.730  12.661 -0.4646 -0.0684 -0.2078
  228MPD1    C2 3460   2.231   0.706  12.672 -0.3972  0.1338 -0.0652
  228MPD1    C3 3461   2.174   0.618  12.760 -0.1960 -0.0454 -0.0343
  228MPD1    C4 3462   2.266   0.548  12.838  0.0725 -0.6169 -0.7335
  228MPD1    C5 3463   2.395   0.551  12.804  0.4141  0.5268  0.0085
  228MPD1     H 3464   2.163   0.761  12.608  2.6759  1.1598 -2.4822
  228MPD1    H1 3465   2.232   0.475  12.910 -2.6448 -0.6443 -2.0679
  228MPD1    H2 3466   2.558   0.638  12.715  0.7505  0.1870 -1.2727
  228MPD1    H3 3467   2.459   0.478  12.854  0.4681 -0.8101 -2.0173
  228MPD1     N 3468   2.030   0.611  12.777 -0.4019 -1.0106 -0.3456
  228MPD1    H5 3469   1.969   0.665  12.717 -2.3058 -0.6161  1.9337
  228MPD1    N1 3470   2.415   0.810  12.555  0.1708 -0.0479  0.7212
  228MPD1    H6 3471   2.508   0.845  12.579  1.2326 -3.2499  1.3554
  228MPD1    H7 3472   2.359   0.894  12.548  1.2086  0.5144 -0.7437
  229MPD1     C 3473   1.296   3.719  14.009  0.3588 -0.4752  0.4078
  229MPD1    C1 3474   1.405   3.698  13.930 -0.0070 -0.7361  0.1734
  229MPD1    C2 3475   1.532   3.677  13.983  0.2430 -0.0249  0.4362
  229MPD1    C3 3476   1.547   3.686  14.115 -0.3137  0.5402  0.3072
  229MPD1    C4 3477   1.441   3.722  14.198 -0.1173  0.1261  0.0137
  229MPD1    C5 3478   1.315   3.739  14.139  0.1871  0.2952 -1.2840
  229MPD1     H 3479   1.615   3.643  13.923  0.1415  1.5233 -0.5871
  229MPD1    H1 3480   1.452   3.723  14.306 -0.3786  2.5755  0.0112
  229MPD1    H2 3481   1.196   3.716  13.966  0.7827  1.0888 -0.6911
  229MPD1    H3 3482   1.234   3.752  14.209  0.3021  0.1864 -1.1298
  229MPD1     N 3483   1.673   3.674  14.180  0.3038 -0.2691  0.1021
  229MPD1    H5 3484   1.670   3.670  14.281 -2.0095 -1.9243 -0.0368
  229MPD1    N1 3485   1.382   3.671  13.792  0.2710 -0.1266  0.1694
  229MPD1    H6 3486   1.290   3.707  13.769  0.1794 -0.5541 -0.1283
  229MPD1    H7 3487   1.464   3.694  13.736  0.1081  0.9078  0.3553
  230MPD1     C 3488   2.027   3.941  15.048 -0.5443 -0.1794 -0.3731
  230MPD1    C1 3489   2.135   3.879  14.992 -0.4490 -0.3716 -1.0121
  230MPD1    C2 3490   2.116   3.811  14.877  0.3048 -0.6972  0.2101
  230MPD1    C3 3491   2.021   3.846  14.787  0.5503  0.2971  0.4011
  230MPD1    C4 3492   1.926   3.942  14.825 -0.1332 -0.3285  0.2031
  230MPD1    C5 3493   1.926   3.974  14.959  0.4262 -0.3715  0.5754
  230MPD1     H 3494   2.193   3.741  14.845  0.4773  0.2296 -1.4127
  230MPD1    H1 3495   1.848   3.970  14.755 -0.9716 -1.0659  0.8357
  230MPD1    H2 3496   2.022   3.953  15.155 -1.9438 -0.2948 -0.4267
  230MPD1    H3 3497   1.835   4.023  14.992  2.2114  1.9216  2.0981
  230MPD1     N 3498   2.018   3.777  14.669  1.0036 -0.3548  0.0082
  230MPD1    H5 3499   2.096   3.713  14.655 -0.1636 -1.6167 -0.6243
  230MPD1    N1 3500   2.244   3.831  15.068 -0.7885  0.0420  0.3601
  230MPD1    H6 3501   2.285   3.896  15.135 -1.0362  0.3500  0.2101
  230MPD1    H7 3502   2.327   3.821  15.009 -1.0641  2.3287 -0.4203
  231MPD1     C 3503   4.644   0.804  15.714 -0.5212  0.6629  0.3944
  231MPD1    C1 3504   0.035   0.749  15.657  0.0403  0.0603  0.0132
  231MPD1    C2 3505   0.142   0.833  15.646  0.1201 -0.5741 -0.4180
  231MPD1    C3 3506   0.141   0.966  15.680  0.0615 -0.3983 -0.0021
  231MPD1    C4 3507   0.027   1.013  15.726  0.3486  0.3029  0.3688
  231MPD1    C5 3508   4.641   0.934  15.747 -0.2075 -0.9496 -0.7354
  231MPD1     H 3509   0.237   0.800  15.605 -0.5178 -1.2821 -1.3121
  231MPD1    H1 3510   0.015   1.121  15.730  2.2220  0.5417 -0.3498
  231MPD1    H2 3511   4.552   0.747  15.718 -0.4720  0.3264 -2.7723
  231MPD1    H3 3512   4.538   0.954  15.776  0.8329  1.2891  1.4400
  231MPD1     N 3513   0.247   1.044  15.633 -0.1770  0.3272  0.3874
  231MPD1    H5 3514   0.325   0.997  15.589 -0.4859 -1.8389  2.1416
  231MPD1    N1 3515   0.039   0.615  15.638 -0.4139  0.1665  0.6221
  231MPD1    H6 3516   4.667   0.581  15.618 -0.1839 -0.3899  0.4714
  231MPD1    H7 3517   0.103   0.590  15.563 -1.5965  0.3496 -0.4478
  232MPD1     C 3518   1.798   3.014  17.485 -0.1083  0.0613 -0.5056
  232MPD1    C1 3519   1.813   2.937  17.597 -0.4897  0.9440 -0.0919
  232MPD1    C2 3520   1.706   2.887  17.658  0.6212 -0.1862  0.5656
  232MPD1    C3 3521   1.582   2.952  17.639  0.0496 -0.9356 -1.1754
  232MPD1    C4 3522   1.568   3.033  17.529  0.1729  0.1964  0.1165
  232MPD1    C5 3523   1.678   3.065  17.456 -0.0692  0.6216  0.0143
  232MPD1     H 3524   1.715   2.810   0.047  3.2553  2.4337  2.8662
  232MPD1    H1 3525   1.479   3.092  17.509  0.5378  0.2694 -1.2616
  232MPD1    H2 3526   1.883   3.057  17.433  0.7613  1.4768  2.0741
  232MPD1    H3 3527   1.670   3.131  17.371 -0.0181 -0.6418 -0.9834
  232MPD1     N 3528   1.477   2.904   0.034 -0.7481 -0.6990 -0.8139
  232MPD1    H5 3529   1.500   2.820   0.087  0.6357  1.0540  1.4092
  232MPD1    N1 3530   1.934   2.875  17.623 -0.6642 -0.1914 -0.3160
  232MPD1    H6 3531   2.010   2.941  17.606 -0.4422  0.7630  4.4584
  232MPD1    H7 3532   1.940   2.836   0.029 -1.9518  2.2497  0.7748
  233MPD1     C 3533   2.225   0.366   1.658 -0.3092  0.1616  0.2622
  233MPD1    C1 3534   2.266   0.479   1.586  0.0373 -0.0027  0.8315
  233MPD1    C2 3535   2.374   0.548   1.631  0.0584 -0.8756  0.1160
  233MPD1    C3 3536   2.444   0.511   1.748 -0.3167 -0.4670 -0.5237
  233MPD1    C4 3537   2.397   0.402   1.820 -0.0420  0.5994 -0.1944
  233MPD1    C5 3538   2.288   0.329   1.774  0.2825 -0.1159  0.1778
  233MPD1     H 3539   2.392   0.641   1.579  1.9512 -0.9296  0.6939
  233MPD1    H1 3540   2.449   0.373   1.911  1.0516 -1.0740 -1.3402
  233MPD1    H2 3541   2.142   0.306   1.624 -1.3985  1.1753  1.1366
  233MPD1    H3 3542   2.239   0.248   1.826  1.2164 -1.1415 -0.5427
  233MPD1     N 3543   2.549   0.584   1.803  0.0492 -0.5290 -0.0109
  233MPD1    H5 3544   2.595   0.543   1.883 -0.6258 -0.2745  0.5049
  233MPD1    N1 3545   2.212   0.492   1.461 -0.0509 -0.3012 -0.8332
  233MPD1    H6 3546   2.217   0.589   1.431 -1.0287 -0.2214 -0.7196
  233MPD1    H7 3547   2.115   0.464   1.462  0.2022 -1.2408 -1.7580
  234MPD1     C 3548   4.520   0.077  10.888  0.5780 -0.0288 -0.2745
  234MPD1    C1 3549   4.629   0.161  10.879 -0.4836  0.0606  0.0237
  234MPD1    C2 3550   4.664   0.209  10.754  0.6244  0.3027  0.1192
  234MPD1    C3 3551   4.601   0.163  10.640  0.0020  0.7722  0.5901
  234MPD1    C4 3552   4.505   0.062  10.647  0.6644 -0.5127  0.4240
  234MPD1    C5 3553   4.477   0.014  10.774  1.4657  0.4597 -0.1692
  234MPD1     H 3554   0.011   0.292  10.744 -0.7621  1.1309 -2.7223
  234MPD1    H1 3555   4.455   0.029  10.556 -1.1151  3.9348 -0.2460
  234MPD1    H2 3556   4.485   0.041  10.984  0.4516 -2.0779 -1.0883
  234MPD1    H3 3557   4.399   4.660  10.769  0.0307  2.0171 -1.6732
  234MPD1     N 3558   4.644   0.232  10.522  0.4655  0.0521 -0.9872
  234MPD1    H5 3559   4.704   0.313  10.538  0.6063 -0.4426  1.0165
  234MPD1    N1 3560   4.681   0.224  10.991  0.7234 -0.2395  0.0961
  234MPD1    H6 3561   4.699   0.173  11.077 -1.2895 -0.4156  0.4334
  234MPD1    H7 3562   0.039   0.278  10.956  2.1417 -1.7720  0.9931
  235MPD1     C 3563   1.027   3.141  10.460 -0.1634 -0.4310 -0.0399
  235MPD1    C1 3564   0.983   3.211  10.352  0.0383 -0.6448  0.4408
  235MPD1    C2 3565   1.002   3.344  10.336 -0.2043  0.0450  0.0065
  235MPD1    C3 3566   1.079   3.413  10.423  0.1245 -0.9326  0.2327
  235MPD1    C4 3567   1.133   3.346  10.533 -0.0553  0.2895  0.0263
  235MPD1    C5 3568   1.103   3.210  10.539  0.4632 -0.7231 -1.2036
  235MPD1     H 3569   0.962   3.391  10.247 -0.7648 -1.1137 -0.3455
  235MPD1    H1 3570   1.190   3.393  10.613  1.2818  0.0239 -0.7586
  235MPD1    H2 3571   1.005   3.040  10.493  1.5193 -0.6519  0.3851
  235MPD1    H3 3572   1.131   3.158  10.630 -1.8317 -0.6068 -0.4318
  235MPD1     N 3573   1.112   3.543  10.395  0.3976 -0.5137  0.0630
  235MPD1    H5 3574   1.068   3.585  10.314  3.9677  0.4471 -1.3795
  235MPD1    N1 3575   0.898   3.133  10.261 -0.2090 -0.2708  0.1083
  235MPD1    H6 3576   0.887   3.180  10.171 -2.7127 -0.1106  0.5037
  235MPD1    H7 3577   0.945   3.044  10.251 -0.5500 -0.5840  1.3289
  236MPD1     C 3578   0.241   4.166   9.553 -0.4323 -0.1143 -0.7552
  236MPD1    C1 3579   0.235   4.301   9.590  0.4210 -0.1066  0.2213
  236MPD1    C2 3580   0.316   4.342   9.702 -0.8106 -0.0620 -0.0989
  236MPD1    C3 3581   0.367   4.248   9.785  0.6853  0.2278  0.3996
  236MPD1    C4 3582   0.356   4.116   9.755  0.7067  0.0098  0.4238
  236MPD1    C5 3583   0.302   4.075   9.633  0.1065 -0.8856  0.2376
  236MPD1     H 3584   0.331   4.447   9.726  1.0600 -0.5837  0.9895
  236MPD1    H1 3585   0.379   4.042   9.830  0.1070 -0.7673 -0.1635
  236MPD1    H2 3586   0.191   4.129   9.465  0.6790  1.0917 -1.8771
  236MPD1    H3 3587   0.307   3.971   9.607  1.5279 -0.7346 -0.0593
  236MPD1     N 3588   0.427   4.270   9.913  0.2347  0.0373 -0.2816
  236MPD1    H5 3589   0.481   4.196   9.956 -2.0447 -1.0473  0.7140
  236MPD1    N1 3590   0.173   4.395   9.505  0.1006  0.1185 -0.0322
  236MPD1    H6 3591   0.099   4.358   9.445 -0.2777  1.5725 -0.4676
  236MPD1    H7 3592   0.119   4.464   9.557 -1.1813 -0.1218 -1.0575
  237MPD1     C 3593   4.355   1.887  16.146 -0.7012 -0.3629 -0.2672
  237MPD1    C1 3594   4.370   1.747  16.155  0.3629  0.1218 -0.2611
  237MPD1    C2 3595   4.314   1.672  16.052  0.0948 -0.1841  0.1980
  237MPD1    C3 3596   4.252   1.725  15.942 -0.2002 -0.7533  0.2867
  237MPD1    C4 3597   4.229   1.856  15.937 -0.3687  0.3213 -0.4034
  237MPD1    C5 3598   4.289   1.941  16.031 -0.0656 -0.1939 -0.1931
  237MPD1     H 3599   4.313   1.564  16.050  0.8913 -0.2029  0.6620
  237MPD1    H1 3600   4.182   1.902  15.851  2.1201 -0.3236 -2.1267
  237MPD1    H2 3601   4.384   1.957  16.223  0.8806 -0.2291 -0.9837
  237MPD1    H3 3602   4.279   2.048  16.018  1.7942  0.2556  2.0866
  237MPD1     N 3603   4.188   1.651  15.844 -0.3792  0.2734 -0.1607
  237MPD1    H5 3604   4.137   1.709  15.777 -0.0137  1.1703  0.3357
  237MPD1    N1 3605   4.434   1.687  16.267  0.4064  0.0593  0.0698
  237MPD1    H6 3606   4.479   1.596  16.259 -1.7044 -1.1376  1.9087
  237MPD1    H7 3607   4.504   1.748  16.309 -1.8287  1.5710  1.5860
  238MPD1     C 3608   2.337   0.520  14.779 -0.2649  0.0712  0.3694
  238MPD1    C1 3609   2.220   0.448  14.796 -0.4178  0.0426  0.0193
  238MPD1    C2 3610   2.107   0.511  14.752  0.7151  0.1054  0.1543
  238MPD1    C3 3611   2.101   0.646  14.724  0.2270  0.7786  0.1615
  238MPD1    C4 3612   2.218   0.710  14.708 -0.3777 -0.4160 -0.1840
  238MPD1    C5 3613   2.336   0.647  14.738 -0.6015  0.3106  0.1997
  238MPD1     H 3614   2.017   0.454  14.770  0.8840  0.6870  2.9056
  238MPD1    H1 3615   2.218   0.806  14.657  0.1575 -0.4341 -0.2170
  238MPD1    H2 3616   2.432   0.468  14.790 -1.9940 -2.7281  2.0638
  238MPD1    H3 3617   2.430   0.698  14.718 -1.0267  0.9440 -0.2144
  238MPD1     N 3618   1.984   0.715  14.695 -1.0085  0.2837  0.2691
  238MPD1    H5 3619   1.992   0.808  14.656  3.7025 -0.1684  0.0587
  238MPD1    N1 3620   2.221   0.311  14.835  0.1101 -0.0255  0.4632
  238MPD1    H6 3621   2.305   0.291  14.889 -0.4936 -0.0266  1.4111
  238MPD1    H7 3622   2.134   0.295  14.885  1.4999 -0.6784  2.6821
  239MPD1     C 3623   1.811   1.501  14.603 -0.0370 -0.1262 -0.2442
  239MPD1    C1 3624   1.922   1.548  14.665  0.0615 -0.5432 -0.3355
  239MPD1    C2 3625   2.003   1.640  14.599  0.8102 -0.0877  0.3832
  239MPD1    C3 3626   1.976   1.679  14.470 -0.0020  0.0498 -0.4742
  239MPD1    C4 3627   1.861   1.630  14.410  0.2898 -0.4626 -0.2764
  239MPD1    C5 3628   1.782   1.540  14.480  0.4771 -0.4878  0.2195
  239MPD1     H 3629   2.092   1.679  14.647  1.6149 -0.0072 -1.1577
  239MPD1    H1 3630   1.822   1.654  14.312 -2.8817  0.6653  1.2734
  239MPD1    H2 3631   1.735   1.440  14.652  0.4479  0.1356  0.8423
  239MPD1    H3 3632   1.693   1.495  14.437 -0.5144  0.2122  1.5371
  239MPD1     N 3633   2.056   1.773  14.394 -0.0153 -0.0383  0.1427
  239MPD1    H5 3634   2.035   1.776  14.294 -1.5599 -0.8672  0.4533
  239MPD1    N1 3635   1.969   1.478  14.779 -0.4678  0.1620 -0.1676
  239MPD1    H6 3636   1.898   1.461  14.850  1.4577 -1.9839  1.2648
  239MPD1    H7 3637   2.028   1.543  14.831  2.3279  0.6026 -3.9331
  240MPD1     C 3638   1.617   2.066  14.045 -0.2537 -0.3491  0.0579
  240MPD1    C1 3639   1.580   2.070  14.177  0.6505  0.5645 -0.2602
  240MPD1    C2 3640   1.534   1.952  14.240 -0.1940 -0.1728  0.4517
  240MPD1    C3 3641   1.524   1.826  14.176 -0.4923 -0.1862  0.4913
  240MPD1    C4 3642   1.571   1.822  14.051 -0.3712  0.2181 -0.4385
  240MPD1    C5 3643   1.613   1.938  13.990  0.2089  0.7293  0.5188
  240MPD1     H 3644   1.486   1.964  14.336 -0.1247 -1.5608  0.6576
  240MPD1    H1 3645   1.573   1.729  13.995  0.4443 -0.1085  0.1311
  240MPD1    H2 3646   1.651   2.155  13.993  1.2042 -1.2431 -0.5174
  240MPD1    H3 3647   1.622   1.929  13.883 -1.4835 -1.4828  0.5603
  240MPD1     N 3648   1.461   1.720  14.243  0.3298 -1.5992  0.0385
  240MPD1    H5 3649   1.420   1.738  14.334  0.7106  1.5003 -0.4201
  240MPD1    N1 3650   1.577   2.199  14.238 -0.3117  0.3500 -0.4410
  240MPD1    H6 3651   1.552   2.211  14.336  2.0592  0.2573  0.1810
  240MPD1    H7 3652   1.641   2.273  14.208  1.6551 -0.8484  0.8514
  241MPD1     C 3653   1.338   1.105  15.036 -0.3491 -0.6120 -0.3178
  241MPD1    C1 3654   1.452   1.151  14.966  0.3613  0.8993 -0.1108
  241MPD1    C2 3655   1.418   1.239  14.859 -0.3364 -0.2521 -0.5243
  241MPD1    C3 3656   1.286   1.256  14.809  0.3374 -0.1399  0.1528
  241MPD1    C4 3657   1.183   1.192  14.873  0.0323  0.9711  0.0172
  241MPD1    C5 3658   1.209   1.124  14.990  0.7330  0.2569  0.6137
  241MPD1     H 3659   1.503   1.288  14.812 -1.9691  2.2674 -0.8802
  241MPD1    H1 3660   1.083   1.217  14.839  0.4067  0.3145 -1.6159
  241MPD1    H2 3661   1.341   1.038  15.121  0.1856  0.5929  0.6171
  241MPD1    H3 3662   1.132   1.072  15.045 -0.5671  0.3613 -1.1166
  241MPD1     N 3663   1.264   1.328  14.687  0.8046  0.3107 -0.5473
  241MPD1    H5 3664   1.167   1.337  14.661  0.6326  2.7632  0.8700
  241MPD1    N1 3665   1.581   1.127  15.015  0.0005 -0.1850  0.3370
  241MPD1    H6 3666   1.648   1.126  14.939  0.9518 -1.8968  1.1998
  241MPD1    H7 3667   1.578   1.042  15.071 -0.2583  0.1172  0.7859
  242MPD1     C 3668   1.337   0.073  15.732 -0.4738  0.6645  0.3215
  242MPD1    C1 3669   1.236   0.144  15.676  0.3566 -0.4895  0.1259
  242MPD1    C2 3670   1.221   0.154  15.539  0.5069  0.1450 -0.1642
  242MPD1    C3 3671   1.312   0.080  15.459  0.4760  0.1442 -0.0177
  242MPD1    C4 3672   1.424   0.022  15.517 -0.2883  0.6898  0.1612
  242MPD1    C5 3673   1.436   0.021  15.651  0.9148  0.6321 -0.2583
  242MPD1     H 3674   1.137   0.210  15.498 -0.7229 -2.1205 -0.7798
  242MPD1    H1 3675   1.501   4.688  15.465 -0.1742  0.4008  0.6405
  242MPD1    H2 3676   1.356   0.074  15.839 -0.7345  0.5669  0.3703
  242MPD1    H3 3677   1.524   4.692  15.690 -0.9856 -0.6059  2.4529
  242MPD1     N 3678   1.304   0.070  15.328 -0.3834  0.4239 -0.5347
  242MPD1    H5 3679   1.391   0.034  15.290 -0.9371 -0.0439 -1.3600
  242MPD1    N1 3680   1.161   0.225  15.764 -0.1856  0.0705 -1.2079
  242MPD1    H6 3681   1.163   0.201  15.863 -0.3812 -1.1623 -1.4967
  242MPD1    H7 3682   1.066   0.229  15.728 -0.4880  2.2483 -0.1125
  243MPD1     C 3683   1.912   3.312  17.345 -0.3311  0.1379  0.2748
  243MPD1    C1 3684   2.004   3.253  17.425 -0.2663  0.7392  0.2502
  243MPD1    C2 3685   2.105   3.168  17.369 -0.4925  0.0622  0.6530
  243MPD1    C3 3686   2.108   3.140  17.237 -0.8548  0.1596  0.0708
  243MPD1    C4 3687   1.995   3.176  17.164  0.2443  0.7261 -0.2737
  243MPD1    C5 3688   1.905   3.263  17.219  0.6269 -0.0725  0.8897
  243MPD1     H 3689   2.186   3.133  17.431 -0.5968 -1.4295 -0.0558
  243MPD1    H1 3690   1.986   3.143  17.062 -0.6594 -0.7235  0.2699
  243MPD1    H2 3691   1.840   3.383  17.384  1.2089  1.4276  0.7843
  243MPD1    H3 3692   1.829   3.305  17.154 -0.6844 -2.0463  1.1484
  243MPD1     N 3693   2.218   3.065  17.184 -0.0342  0.1658 -0.5723
  243MPD1    H5 3694   2.288   3.051  17.256 -0.0828 -0.3843 -0.6340
  243MPD1    N1 3695   2.010   3.289  17.565  0.6658  0.1829 -0.3477
  243MPD1    H6 3696   2.039   3.207  17.618  0.4033  0.7263  0.6211
  243MPD1    H7 3697   1.919   3.319  17.597  1.1283  1.9153 -0.6762
  244MPD1     C 3698   2.729   2.833   0.095 -0.4525 -0.2325  0.6463
  244MPD1    C1 3699   2.656   2.943   0.062 -0.3528 -0.5976  0.5967
  244MPD1    C2 3700   2.620   2.953  17.614  0.3062 -0.2915 -0.5841
  244MPD1    C3 3701   2.652   2.856  17.518 -0.6255  0.3076  0.9872
  244MPD1    C4 3702   2.726   2.743  17.559 -0.2236  0.0431 -0.0045
  244MPD1    C5 3703   2.756   2.735   0.005  1.0290  0.2560 -0.1406
  244MPD1     H 3704   2.571   3.043  17.576  0.7417 -0.2685 -1.0830
  244MPD1    H1 3705   2.754   2.664  17.490 -1.0247 -0.1398 -0.1288
  244MPD1    H2 3706   2.780   2.824   0.190  0.3922  1.4272  0.3398
  244MPD1    H3 3707   2.815   2.651   0.041  1.2991  1.4220  2.1117
  244MPD1     N 3708   2.606   2.876  17.384 -0.1551 -0.3661  0.2653
  244MPD1    H5 3709   2.569   2.966  17.356 -1.1993 -0.6035  0.8795
  244MPD1    N1 3710   2.635   3.049   0.151  0.4075  0.2077 -0.7153
  244MPD1    H6 3711   2.637   3.030   0.251  0.6980  0.8037 -0.6092
  244MPD1    H7 3712   2.553   3.104   0.127  0.7799  2.4120  3.1603
  245MPD1     C 3713   4.200   3.489  13.263 -0.1187 -0.5871 -0.1085
  245MPD1    C1 3714   4.257   3.476  13.386  0.2216 -0.4029 -0.0077
  245MPD1    C2 3715   4.359   3.564  13.413  0.0323 -0.2650 -0.4050
  245MPD1    C3 3716   4.392   3.666  13.317 -0.2735  0.5190 -0.0932
  245MPD1    C4 3717   4.325   3.671  13.201 -0.3027 -0.2677 -0.6955
  245MPD1    C5 3718   4.230   3.584  13.172 -0.5873  0.0918 -0.5748
  245MPD1     H 3719   4.409   3.557  13.509  1.2325 -0.8544 -1.0641
  245MPD1    H1 3720   4.335   3.750  13.128 -0.6243 -0.8597 -1.3783
  245MPD1    H2 3721   4.131   3.409  13.240 -1.1910  0.5968 -1.0089
  245MPD1    H3 3722   4.173   3.590  13.080  1.9528 -0.9884 -2.2135
  245MPD1     N 3723   4.481   3.766  13.355  0.0046  0.5094 -0.7172
  245MPD1    H5 3724   4.515   3.765  13.450  1.8114 -3.2269 -1.3825
  245MPD1    N1 3725   4.224   3.371  13.473 -0.2152  0.6391 -0.6019
  245MPD1    H6 3726   4.267   3.387  13.564 -2.1913 -2.9477  0.9400
  245MPD1    H7 3727   4.130   3.334  13.468  0.0114  0.1111 -0.9302
  246MPD1     C 3728   3.711   1.386   8.806 -0.5052  0.8353  0.5073
  246MPD1    C1 3729   3.763   1.370   8.675  0.8732 -0.7568  0.7363
  246MPD1    C2 3730   3.886   1.318   8.671 -0.3688  0.3093 -0.4023
  246MPD1    C3 3731   3.957   1.284   8.785 -0.1452 -0.7841 -0.0259
  246MPD1    C4 3732   3.913   1.311   8.913 -0.4562  0.0432 -0.1266
  246MPD1    C5 3733   3.785   1.356   8.920 -0.0315 -0.7720 -0.4910
  246MPD1     H 3734   3.931   1.300   8.574  1.1868  2.1527 -0.0256
  246MPD1    H1 3735   3.963   1.291   9.006 -0.1631  2.8684  0.3374
  246MPD1    H2 3736   3.608   1.418   8.814 -1.4042 -1.8525 -0.2841
  246MPD1    H3 3737   3.750   1.389   9.017 -0.2532 -0.5066 -0.6632
  246MPD1     N 3738   4.082   1.216   8.768  0.2418  0.2967  0.2845
  246MPD1    H5 3739   4.103   1.178   8.677 -0.3113  0.7771 -0.0488
  246MPD1    N1 3740   3.686   1.385   8.556 -0.4977 -0.0493 -0.7712
  246MPD1    H6 3741   3.748   1.406   8.478 -0.7170 -1.0818 -1.2201
  246MPD1    H7 3742   3.614   1.456   8.560  0.1595  0.7898 -3.9166
  247MPD1     C 3743   3.316   3.140  16.515  0.6126 -0.5686 -0.1382
  247MPD1    C1 3744   3.317   3.193  16.391 -0.2885  0.5245  0.1829
  247MPD1    C2 3745   3.436   3.182  16.322 -0.5828 -0.6876 -0.5787
  247MPD1    C3 3746   3.551   3.121  16.373 -0.6189  0.5881 -0.6502
  247MPD1    C4 3747   3.541   3.062  16.493 -0.4580 -0.0163 -0.3427
  247MPD1    C5 3748   3.424   3.080  16.563 -0.5191 -0.3141  0.0702
  247MPD1     H 3749   3.445   3.225  16.223  0.6542  0.7786  0.1577
  247MPD1    H1 3750   3.626   3.021  16.547  1.9973  4.1932 -1.0127
  247MPD1    H2 3751   3.231   3.154  16.580 -0.8969 -3.4997 -1.4750
  247MPD1    H3 3752   3.412   3.033  16.661  1.3128  3.3949  2.0554
  247MPD1     N 3753   3.678   3.118  16.306 -0.1325  0.5308 -0.4010
  247MPD1    H5 3754   3.758   3.082  16.356 -1.7486 -2.7034 -0.1920
  247MPD1    N1 3755   3.215   3.254  16.326  0.2540  0.3197 -0.3045
  247MPD1    H6 3756   3.213   3.235  16.226  0.6170 -0.7918 -0.1052
  247MPD1    H7 3757   3.123   3.242  16.368  0.7045 -0.0108  0.5751
  248MPD1     C 3758   0.272   2.340   0.326  0.4517 -0.0293  0.2951
  248MPD1    C1 3759   0.192   2.243   0.389 -0.1760  0.5350 -0.0646
  248MPD1    C2 3760   0.056   2.269   0.422 -0.2977 -0.6180  0.4640
  248MPD1    C3 3761   0.009   2.400   0.397 -0.0815 -0.1042 -0.6924
  248MPD1    C4 3762   0.095   2.500   0.340  0.3542  0.0020 -0.6083
  248MPD1    C5 3763   0.223   2.470   0.320  0.9458 -0.0312 -0.2281
  248MPD1     H 3764   4.721   2.196   0.479  0.4438 -0.0647  1.9234
  248MPD1    H1 3765   0.058   2.602   0.336 -0.9496 -0.4616 -0.6060
  248MPD1    H2 3766   0.370   2.322   0.283  1.7468 -0.0332  3.2085
  248MPD1    H3 3767   0.292   2.545   0.285  1.1888  0.1316  0.5844
  248MPD1     N 3768   4.598   2.429   0.432  0.5745 -0.5116  0.0893
  248MPD1    H5 3769   4.543   2.355   0.477  0.9939 -1.1697 -0.4775
  248MPD1    N1 3770   0.236   2.111   0.395 -0.2268 -0.5892 -0.2270
  248MPD1    H6 3771   0.335   2.097   0.414 -0.3942 -1.2887  0.1393
  248MPD1    H7 3772   0.185   2.063   0.470  0.0672 -1.1834 -0.4080
  249MPD1     C 3773   0.801   3.462  10.050 -0.5801  0.4174  0.0494
  249MPD1    C1 3774   0.915   3.535  10.058 -0.7018 -0.7979  0.6429
  249MPD1    C2 3775   1.013   3.500   9.967  0.2587  0.4083  0.3240
  249MPD1    C3 3776   0.999   3.405   9.871 -0.3387 -0.4939 -1.0221
  249MPD1    C4 3777   0.877   3.343   9.861 -0.7406 -0.3378  0.5111
  249MPD1    C5 3778   0.781   3.375   9.951 -0.2454 -0.3008 -0.3346
  249MPD1     H 3779   1.110   3.546   9.983  0.1759  0.4843  0.6003
  249MPD1    H1 3780   0.862   3.256   9.798  2.6515 -0.4697 -0.1232
  249MPD1    H2 3781   0.726   3.485  10.125 -1.7756 -0.6984 -0.7965
  249MPD1    H3 3782   0.684   3.326   9.952 -0.5502  0.1838 -4.0986
  249MPD1     N 3783   1.112   3.379   9.789  0.7752  0.5459 -0.6722
  249MPD1    H5 3784   1.195   3.433   9.810  0.9514 -0.4325  1.1343
  249MPD1    N1 3785   0.935   3.626  10.161  0.2769  0.0791 -0.1715
  249MPD1    H6 3786   1.003   3.694  10.126  1.8210 -0.7468  1.2030
  249MPD1    H7 3787   0.853   3.678  10.191  1.0081  0.9252  0.3846
  250MPD2     C 3788   3.415   2.322  13.231 -0.1995 -0.0572  0.8056
  250MPD2    C1 3789   3.301   2.405  13.226 -0.0542  0.1029 -0.1347
  250MPD2    C2 3790   3.174   2.346  13.234 -0.4857  0.5066 -0.5488
  250MPD2    C3 3791   3.159   2.213  13.238 -0.7090  0.5695 -0.0941
  250MPD2    C4 3792   3.272   2.136  13.232  0.5727 -0.0215  0.0739
  250MPD2    C5 3793   3.397   2.188  13.223  0.0168  0.2990  0.0356
  250MPD2     H 3794   3.087   2.409  13.216  0.8468  2.4898 -0.0422
  250MPD2    H1 3795   3.267   2.028  13.222  0.4337 -0.0025 -0.0610
  250MPD2    H2 3796   3.517   2.356  13.226 -0.5566  0.9365  0.2401
  250MPD2    H3 3797   3.477   2.115  13.220 -0.3416 -0.2076  3.3415
  250MPD2     N 3798   3.036   2.155  13.236  0.3170  0.0553  0.1725
  250MPD2    H5 3799   3.037   2.056  13.215  1.5330 -0.0089  0.5395
  250MPD2    N1 3800   3.321   2.544  13.210  0.5488  1.0150  0.3377
  250MPD2    H7 3801   3.412   2.578  13.182  2.2686 -2.2244  1.9968
  251TMC3    C1 3802   3.297   2.775  13.202  0.1605  0.6016 -0.2250
  251TMC3    C2 3803   3.221   2.887  13.221  0.3341  0.2324 -0.9694
  251TMC3    C3 3804   3.279   3.016  13.237  0.0556  0.4273  0.4086
  251TMC3    C4 3805   3.433   2.781  13.193 -0.8841 -0.5040  0.2555
  251TMC3    C5 3806   3.489   2.910  13.198  0.0901  0.0297  0.1351
  251TMC3    C6 3807   3.422   3.027  13.219 -0.2989  0.5511 -0.3066
  251TMC3     C 3808   3.234   2.646  13.222 -0.1808 -0.5773  0.4527
  251TMC3     O 3809   3.120   2.645  13.264  0.0506 -0.2085 -0.5615
  251TMC3     H 3810   3.114   2.874  13.233  0.6222  0.2562  1.6863
  251TMC3    H1 3811   3.493   2.696  13.162  0.1428 -0.2920  1.6925
  251TMC3    H2 3812   3.473   3.121  13.236 -0.8676  0.9954 -1.0628
  251TMC3    C7 3813   3.633   2.918  13.188 -0.1264 -0.2119  0.1771
  251TMC3    C8 3814   3.178   3.117  13.280 -0.2843  0.0007 -0.4271
  251TMC3    O1 3815   3.695   2.817  13.221 -0.8102 -0.6354  0.2887
  251TMC3    O2 3816   3.062   3.081  13.268 -0.0421  0.1003 -0.0376
  252TMC3    C1 3817   3.911   3.782   8.952 -0.6564 -0.3674  0.3796
  252TMC3    C2 3818   3.929   3.899   9.030  0.5271  0.1896 -0.7098
  252TMC3    C3 3819   3.971   3.875   9.157 -0.7369  0.5062 -0.2833
  252TMC3    C4 3820   3.915   3.658   9.002  0.7290 -0.1345  0.6110
  252TMC3    C5 3821   3.941   3.646   9.139  0.3175 -0.1166  0.2967
  252TMC3    C6 3822   3.983   3.749   9.213  1.1527 -0.1752  0.6703
  252TMC3     C 3823   3.857   3.807   8.820 -0.4986 -0.7073 -0.3280
  252TMC3     O 3824   3.819   3.919   8.802 -0.0386  0.5009 -0.1942
  252TMC3     H 3825   3.933   4.000   8.992 -0.8203  0.3016 -0.5269
  252TMC3    H1 3826   3.886   3.575   8.939 -0.0247  0.1647  0.5705
  252TMC3    H2 3827   4.044   3.736   9.302  0.7125 -2.2461  0.6488
  252TMC3    C7 3828   3.977   3.514   9.187  0.0801 -0.5174 -0.3011
  252TMC3    C8 3829   4.023   3.995   9.227 -0.4699 -0.5491  0.5143
  252TMC3    O1 3830   3.992   3.425   9.106  0.4971 -0.3107  0.3503
  252TMC3    O2 3831   4.043   4.094   9.159 -0.3889 -0.8192 -0.1106
  253MPD2     C 3832   3.845   1.663  14.782 -0.4958  0.1443 -0.3548
  253MPD2    C1 3833   3.781   1.750  14.868  0.3169  0.2362  0.1699
  253MPD2    C2 3834   3.738   1.701  14.992 -0.1507 -1.0777  0.0867
  253MPD2    C3 3835   3.786   1.577  15.025 -0.6399  0.2200  0.0461
  253MPD2    C4 3836   3.847   1.496  14.933 -1.6900  0.4551 -0.3370
  253MPD2    C5 3837   3.869   1.535  14.801  0.2492 -0.5011  0.1387
  253MPD2     H 3838   3.682   1.768  15.056 -1.4138 -0.4353 -1.6970
  253MPD2    H1 3839   3.889   1.402  14.968 -1.0482  0.1482 -1.9168
  253MPD2    H2 3840   3.885   1.693  14.686  1.1561 -1.3008 -0.1120
  253MPD2    H3 3841   3.921   1.476  14.726 -0.8198 -1.8099  0.4262
  253MPD2     N 3842   3.761   1.527  15.153 -0.1078  0.2191  0.2328
  253MPD2    H5 3843   3.785   1.429  15.166  0.7477  0.0993 -2.1528
  253MPD2    N1 3844   3.727   1.870  14.824  0.6473 -0.5336 -0.0035
  253MPD2    H7 3845   3.648   1.908  14.875  0.3805 -0.6798 -0.3100
  254TMC3    C1 3846   3.685   1.525  15.379  0.1106 -0.7503  0.1012
  254TMC3    C2 3847   3.600   1.414  15.365  0.2506 -0.3687  0.3514
  254TMC3    C3 3848   3.567   1.346  15.487  0.6123 -0.7877  0.3008
  254TMC3    C4 3849   3.718   1.571  15.498  0.4118  0.1707  0.2723
  254TMC3    C5 3850   3.691   1.495  15.615 -0.5497  0.7245  0.0213
  254TMC3    C6 3851   3.621   1.374  15.608  0.0996  0.1077  0.1510
  254TMC3     C 3852   3.721   1.601  15.264 -0.3573  0.6346  0.0773
  254TMC3     O 3853   3.727   1.723  15.275 -0.1631  0.5465  0.0941
  254TMC3     H 3854   3.562   1.389  15.267  0.0410  0.6771  0.1704
  254TMC3    H1 3855   3.785   1.656  15.500  1.3760 -0.6047  0.6878
  254TMC3    H2 3856   3.599   1.326  15.702 -1.4285 -0.6368 -0.5856
  254TMC3    C7 3857   3.743   1.530  15.749 -0.1428  0.1614  0.2801
  254TMC3    C8 3858   3.429   1.316  15.509 -0.6487 -0.5274  0.2153
  254TMC3    O1 3859   3.751   1.440  15.832  0.2637 -0.4832 -0.6785
  254TMC3    O2 3860   3.397   1.276  15.621  0.0911 -0.8665 -1.0412
  255MPD2     C 3861   2.315   1.152   9.580  0.0000 -0.1890  0.1467
  255MPD2    C1 3862   2.451   1.127   9.588 -0.9285  0.7790 -0.1159
  255MPD2    C2 3863   2.500   1.052   9.691  0.0111  0.3257 -0.5033
  255MPD2    C3 3864   2.415   1.010   9.791  0.0007  0.6709  1.1528
  255MPD2    C4 3865   2.280   1.026   9.776 -0.2980  0.5341 -0.6033
  255MPD2    C5 3866   2.230   1.096   9.672 -0.5202 -0.5914  0.0692
  255MPD2     H 3867   2.598   1.008   9.699  0.2285  0.8020 -0.5348
  255MPD2    H1 3868   2.205   1.004   9.851 -0.5017  1.8171 -0.4310
  255MPD2    H2 3869   2.266   1.201   9.496 -0.7476 -0.8258  0.2073
  255MPD2    H3 3870   2.123   1.113   9.665 -0.7255 -2.6441 -1.5854
  255MPD2     N 3871   2.471   0.911   9.876  0.6848  0.2482  0.0505
  255MPD2    H5 3872   2.568   0.886   9.864  0.9846  1.2322  0.4695
  255MPD2    N1 3873   2.531   1.174   9.482 -0.4845 -0.0923  0.1214
  255MPD2    H7 3874   2.488   1.178   9.390 -1.3596 -0.3203  0.5212
  256TMC3    C1 3875   2.727   1.136   9.363 -0.2984  0.1918 -0.1645
  256TMC3    C2 3876   2.853   1.185   9.347  0.2126 -0.7890  0.1096
  256TMC3    C3 3877   2.928   1.142   9.250 -0.1403 -0.8887 -0.2064
  256TMC3    C4 3878   2.674   1.044   9.278 -0.4089 -0.1715 -0.1776
  256TMC3    C5 3879   2.754   0.985   9.197 -0.2457  0.4702 -0.0929
  256TMC3    C6 3880   2.878   1.042   9.170  0.6901  0.4130  0.1065
  256TMC3     C 3881   2.670   1.174   9.490 -0.3937  0.3130 -0.1382
  256TMC3     O 3882   2.740   1.186   9.586  0.4848 -0.5066  0.3551
  256TMC3     H 3883   2.893   1.252   9.423  2.3882 -0.0067 -1.7351
  256TMC3    H1 3884   2.583   0.995   9.309 -0.2840 -0.5437 -0.3933
  256TMC3    H2 3885   2.930   1.018   9.079  1.3684 -0.0443  0.6138
  256TMC3    C7 3886   2.740   0.839   9.197 -0.4501 -0.2473 -0.2280
  256TMC3    C8 3887   3.071   1.132   9.265 -0.8052 -0.6099  0.2852
  256TMC3    O1 3888   2.634   0.793   9.236  0.1802  0.1173 -0.4679
  256TMC3    O2 3889   3.125   1.027   9.224 -0.1077 -0.1433  0.1959
  257MPD2     C 3890   1.568   2.525  13.294 -0.4455 -0.7185 -0.3880
  257MPD2    C1 3891   1.661   2.471  13.200 -1.1508 -0.1305 -0.6627
  257MPD2    C2 3892   1.735   2.357  13.243  0.1084 -0.4693  0.2847
  257MPD2    C3 3893   1.706   2.294  13.362 -0.7203 -0.2701  0.2331
  257MPD2    C4 3894   1.616   2.350  13.451  0.4359 -0.0028  0.2304
  257MPD2    C5 3895   1.565   2.472  13.418  0.5930  0.3731  0.3933
  257MPD2     H 3896   1.809   2.310  13.180 -0.1206  0.1801 -0.4778
  257MPD2    H1 3897   1.592   2.300  13.545 -1.3533  0.4629  0.0112
  257MPD2    H2 3898   1.515   2.618  13.276 -0.0074 -0.4053 -0.0628
  257MPD2    H3 3899   1.499   2.527  13.484  0.5170  0.5947  0.1333
  257MPD2     N 3900   1.757   2.163  13.380  0.0952  0.5249 -0.8640
  257MPD2    H5 3901   1.812   2.124  13.304  0.4018 -1.5624  0.4291
  257MPD2    N1 3902   1.690   2.541  13.079 -0.8684 -0.1919 -0.2875
  257MPD2    H7 3903   1.634   2.622  13.055  0.5482  1.3701  1.6936
  258TMC3    C1 3904   1.795   1.959  13.509 -0.2321 -0.3259  0.1581
  258TMC3    C2 3905   1.815   1.883  13.391 -0.1643  0.5046  0.1949
  258TMC3    C3 3906   1.851   1.751  13.414  0.7842 -0.1878  0.1156
  258TMC3    C4 3907   1.789   1.904  13.638  0.1858  0.9383 -0.1533
  258TMC3    C5 3908   1.828   1.773  13.642 -0.3024 -0.5245 -0.5696
  258TMC3    C6 3909   1.852   1.687  13.537 -0.0505  0.4692  0.3238
  258TMC3     C 3910   1.755   2.099  13.503  0.1884 -0.4681 -0.0435
  258TMC3     O 3911   1.713   2.136  13.612 -0.3020  0.5108 -0.0589
  258TMC3     H 3912   1.841   1.932  13.298 -2.1652  0.8346 -0.1786
  258TMC3    H1 3913   1.778   1.968  13.724 -0.0850 -1.2433  1.4409
  258TMC3    H2 3914   1.882   1.583  13.552 -0.6494  0.5664  2.1553
  258TMC3    C7 3915   1.866   1.739  13.775  0.3574 -0.5826 -0.8424
  258TMC3    C8 3916   1.925   1.680  13.306  0.3544  0.2949 -0.4556
  258TMC3    O1 3917   1.925   1.820  13.842  0.2792 -0.2201  0.1714
  258TMC3    O2 3918   1.911   1.733  13.195 -0.2579  0.3313  0.7004
  259MPD2     C 3919   4.473   3.146   1.148 -0.0938  0.2006  0.1761
  259MPD2    C1 3920   4.580   3.107   1.223 -0.0315  0.2679 -0.0767
  259MPD2    C2 3921   4.695   3.077   1.153 -0.1979  0.2630 -0.2904
  259MPD2    C3 3922   4.706   3.089   1.017 -0.4769 -0.3096  0.3960
  259MPD2    C4 3923   4.597   3.132   0.944 -0.3736 -0.1651  0.2546
  259MPD2    C5 3924   4.478   3.141   1.010 -0.4216 -0.0965  0.3395
  259MPD2     H 3925   0.062   3.042   1.206 -0.2581  0.5170 -0.0195
  259MPD2    H1 3926   4.611   3.143   0.837  1.6623 -0.2778  0.5097
  259MPD2    H2 3927   4.378   3.172   1.193  0.1115  1.5655 -0.1949
  259MPD2    H3 3928   4.383   3.165   0.963 -0.9648  0.2627  1.6231
  259MPD2     N 3929   0.112   3.054   0.956  0.2225  0.8217  0.2176
  259MPD2    H5 3930   0.186   3.013   1.012  0.1027  0.5777  0.1947
  259MPD2    N1 3931   4.577   3.111   1.365 -0.5025  0.2449  0.0890
  259MPD2    H7 3932   4.489   3.138   1.409 -0.0070 -0.5208  1.5538
  260TMC3    C1 3933   0.292   3.076   0.784 -0.5764  0.0823 -0.5388
  260TMC3    C2 3934   0.342   3.148   0.680 -0.9774  0.1101 -0.2623
  260TMC3    C3 3935   0.476   3.119   0.642  0.1128  0.4795  0.5650
  260TMC3    C4 3936   0.356   2.966   0.839 -0.1723  0.8597 -0.2604
  260TMC3    C5 3937   0.476   2.932   0.786 -0.3130  0.1570  0.2365
  260TMC3    C6 3938   0.545   3.014   0.698  0.1859 -0.0247  0.0330
  260TMC3     C 3939   0.159   3.112   0.841  0.2519  0.5443  0.9193
  260TMC3     O 3940   0.096   3.185   0.765 -0.6206  0.2249 -0.4696
  260TMC3     H 3941   0.301   3.235   0.629 -0.7987 -0.4603 -1.3766
  260TMC3    H1 3942   0.314   2.910   0.922  1.3204 -0.3948 -0.3429
  260TMC3    H2 3943   0.650   2.993   0.681 -0.2490 -2.3689  0.2372
  260TMC3    C7 3944   0.546   2.804   0.806 -0.7452  0.2502 -0.4096
  260TMC3    C8 3945   0.529   3.191   0.524  0.1558  0.0715  0.1737
  260TMC3    O1 3946   0.664   2.794   0.770 -0.0862  0.0368 -0.1405
  260TMC3    O2 3947   0.481   3.296   0.498  0.1176 -0.5348  0.5417
  261MPD2     C 3948   2.450   2.018  12.775  0.0404 -0.2220  0.0892
  261MPD2    C1 3949   2.510   2.129  12.828  0.3711 -0.3449 -0.1551
  261MPD2    C2 3950   2.536   2.226  12.735 -0.1026 -0.4599 -0.4579
  261MPD2    C3 3951   2.526   2.209  12.596 -0.4752  0.6934  0.3489
  261MPD2    C4 3952   2.470   2.093  12.550  0.0053 -0.5781 -0.3420
  261MPD2    C5 3953   2.418   2.009  12.643  0.3571  0.0406  0.1831
  261MPD2     H 3954   2.590   2.309  12.780  2.4007 -2.2378 -0.1543
  261MPD2    H1 3955   2.465   2.076  12.443  0.5974  0.2692 -0.5107
  261MPD2    H2 3956   2.408   1.942  12.840 -0.7397  1.0065  1.0369
  261MPD2    H3 3957   2.369   1.921  12.603 -0.2319  1.3004 -1.9114
  261MPD2     N 3958   2.564   2.311  12.506  0.3187  0.1533 -0.0528
  261MPD2    H5 3959   2.570   2.288  12.408 -1.4712 -0.1677 -0.0986
  261MPD2    N1 3960   2.532   2.144  12.965 -0.1656 -0.6341  0.0658
  261MPD2    H7 3961   2.570   2.234  12.991 -2.1472  0.3099 -0.2838
  262TMC3    C1 3962   2.616   2.512  12.411  0.5117  0.6067  0.0330
  262TMC3    C2 3963   2.538   2.627  12.403 -0.5779 -0.1571 -0.4456
  262TMC3    C3 3964   2.481   2.641  12.283  0.2714  0.5360  0.7047
  262TMC3    C4 3965   2.636   2.423  12.309  0.3829  0.8527 -0.5590
  262TMC3    C5 3966   2.573   2.450  12.191 -0.0404  0.8580 -0.1809
  262TMC3    C6 3967   2.496   2.555  12.176  0.8892 -0.0786 -0.2917
  262TMC3     C 3968   2.588   2.442  12.541  0.4628  0.2558  0.8376
  262TMC3     O 3969   2.552   2.506  12.639  0.4321  0.1988 -0.5172
  262TMC3     H 3970   2.535   2.703  12.480  1.3555 -0.6106  0.0712
  262TMC3    H1 3971   2.715   2.349  12.321 -1.9799 -1.4537  0.6734
  262TMC3    H2 3972   2.476   2.574  12.071  2.0140 -0.9065 -0.6612
  262TMC3    C7 3973   2.535   2.321  12.137  0.0708  0.3056  0.4796
  262TMC3    C8 3974   2.445   2.774  12.231  0.4507 -0.0723 -0.0649
  262TMC3    O1 3975   2.543   2.220  12.208  0.4071 -0.2759  0.2036
  262TMC3    O2 3976   2.513   2.873  12.264 -0.9723 -0.6571 -0.2213
  263MPD2     C 3977   3.459   1.584  11.678 -0.7929 -0.1081  0.3188
  263MPD2    C1 3978   3.565   1.649  11.609  0.1506 -0.4065  0.4348
  263MPD2    C2 3979   3.552   1.696  11.479  0.2365  0.3702 -0.3119
  263MPD2    C3 3980   3.432   1.679  11.417 -0.8012 -0.0186  0.0537
  263MPD2    C4 3981   3.317   1.625  11.484  0.6348 -0.4685 -0.7775
  263MPD2    C5 3982   3.338   1.577  11.611 -0.3544  0.0541  0.1074
  263MPD2     H 3983   3.631   1.745  11.424  0.6247  0.8624  0.6940
  263MPD2    H1 3984   3.217   1.618  11.444  0.5082 -0.8866 -0.3879
  263MPD2    H2 3985   3.462   1.551  11.782  1.4713 -1.7011 -0.2390
  263MPD2    H3 3986   3.254   1.537  11.666 -0.6626 -0.2904 -0.6160
  263MPD2     N 3987   3.422   1.718  11.285  1.0444 -0.3841 -0.3459
  263MPD2    H5 3988   3.501   1.758  11.235  1.3907  1.0725  1.3658
  263MPD2    N1 3989   3.680   1.672  11.682 -0.4891  0.1712 -0.2431
  263MPD2    H7 3990   3.692   1.639  11.777  1.6786  2.7938  0.4002
  264TMC3    C1 3991   3.321   1.804  11.099  0.2986 -0.1881 -0.3296
  264TMC3    C2 3992   3.238   1.915  11.092  0.4919  0.3203  0.2557
  264TMC3    C3 3993   3.264   2.016  11.000 -0.2486  0.1211  0.7736
  264TMC3    C4 3994   3.431   1.799  11.010  0.5801  0.1651  0.1224
  264TMC3    C5 3995   3.448   1.891  10.915 -0.6777  0.2100 -0.5811
  264TMC3    C6 3996   3.355   1.992  10.904  0.0508  0.6248  0.3131
  264TMC3     C 3997   3.305   1.719  11.211  0.4384  0.3533 -0.3218
  264TMC3     O 3998   3.191   1.691  11.246  0.2190 -0.2490  0.6124
  264TMC3     H 3999   3.165   1.923  11.171 -0.2266  0.0111 -0.3765
  264TMC3    H1 4000   3.506   1.722  11.018 -1.1649 -1.7318 -1.8258
  264TMC3    H2 4001   3.376   2.056  10.819 -1.4416 -0.3304 -0.7676
  264TMC3    C7 4002   3.583   1.912  10.873 -0.1905  0.3396  0.2463
  264TMC3    C8 4003   3.303   2.133  11.062 -0.4808 -0.5826 -0.5594
  264TMC3    O1 4004   3.655   1.816  10.846 -0.3943 -0.5531  0.0103
  264TMC3    O2 4005   3.391   2.195  11.008 -0.3251  0.0684 -0.4524
  265MPD2     C 4006   1.503   2.439  15.501  0.1330 -0.8178  0.0798
  265MPD2    C1 4007   1.377   2.458  15.454  0.3524  0.0622 -0.1878
  265MPD2    C2 4008   1.357   2.445  15.317 -0.2279 -0.4668 -0.3914
  265MPD2    C3 4009   1.454   2.407  15.223  0.0646 -0.4795  0.1973
  265MPD2    C4 4010   1.580   2.379  15.277 -0.1836  0.8927  0.1872
  265MPD2    C5 4011   1.597   2.390  15.407  0.2005  0.5619  0.1787
  265MPD2     H 4012   1.257   2.456  15.276 -0.3346 -1.2655 -0.3457
  265MPD2    H1 4013   1.664   2.341  15.220 -0.9095  0.1882 -0.4041
  265MPD2    H2 4014   1.529   2.458  15.604 -0.7857  0.9310 -0.0188
  265MPD2    H3 4015   1.695   2.373  15.449  0.1608 -1.8279 -0.7061
  265MPD2     N 4016   1.442   2.378  15.086  0.4566  0.0525  0.5420
  265MPD2    H5 4017   1.526   2.343  15.042  0.5593  0.5456  0.3401
  265MPD2    N1 4018   1.271   2.500  15.534  0.4714 -0.0513 -0.0897
  265MPD2    H7 4019   1.177   2.504  15.497  0.6309 -0.3746 -0.5303
  266TMC3    C1 4020   1.130   2.539  15.703 -0.1093 -0.4382 -0.3591
  266TMC3    C2 4021   1.094   2.514  15.829  0.6965 -0.3522 -0.3596
  266TMC3    C3 4022   0.968   2.564  15.870 -0.1410 -0.0666  0.2215
  266TMC3    C4 4023   1.055   2.611  15.620 -0.5111 -0.2395  0.0392
  266TMC3    C5 4024   0.933   2.651  15.654  0.6691 -0.0353 -0.7127
  266TMC3    C6 4025   0.888   2.632  15.783  0.0096 -0.6402  0.3173
  266TMC3     C 4026   1.269   2.507  15.671 -0.2391  0.4050  0.5023
  266TMC3     O 4027   1.346   2.474  15.755  0.6327 -0.0709  0.3086
  266TMC3     H 4028   1.170   2.479  15.898 -1.4657 -4.6082 -0.1593
  266TMC3    H1 4029   1.086   2.652  15.525  2.7155  1.1152  1.6901
  266TMC3    H2 4030   0.787   2.659  15.815 -0.7848 -0.7227 -2.1089
  266TMC3    C7 4031   0.892   2.770  15.590  0.0538 -0.2657 -0.0989
  266TMC3    C8 4032   0.939   2.567  16.013  0.4541  0.4115  1.1361
  266TMC3    O1 4033   0.972   2.850  15.542  0.3952 -0.4535  1.1444
  266TMC3    O2 4034   0.860   2.650  16.051 -0.0712  0.2811  0.2024
  267MPD2     C 4035   2.685   4.165   0.389 -0.2968  0.6057 -0.9100
  267MPD2    C1 4036   2.625   4.073   0.307 -0.3397 -0.7121  0.6556
  267MPD2    C2 4037   2.587   4.110   0.178  0.8049 -0.0524 -0.3448
  267MPD2    C3 4038   2.603   4.241   0.129  0.3528 -0.5915 -0.3031
  267MPD2    C4 4039   2.653   4.331   0.217 -0.2561  0.6477 -0.1855
  267MPD2    C5 4040   2.694   4.297   0.344 -0.3265  0.7648 -0.1665
  267MPD2     H 4041   2.542   4.034   0.115 -1.6525  0.3091  0.9918
  267MPD2    H1 4042   2.662   4.434   0.185 -2.6416  0.2005 -2.2620
  267MPD2    H2 4043   2.710   4.147   0.493 -0.9190  0.6316 -0.7549
  267MPD2    H3 4044   2.741   4.378   0.400  1.2333 -1.2787  1.4923
  267MPD2     N 4045   2.571   4.287  17.680  1.0473  0.0902  0.3203
  267MPD2    H5 4046   2.596   4.381  17.653 -1.3904  0.2566 -1.3365
  267MPD2    N1 4047   2.598   3.944   0.361 -0.1396  0.4473  0.0660
  267MPD2    H7 4048   2.652   3.911   0.441 -0.2802  1.3173  0.5149
  268TMC3    C1 4049   2.522   3.731   0.381  0.0250  0.4671 -0.9296
  268TMC3    C2 4050   2.418   3.650   0.373 -0.3390 -0.0909  0.1847
  268TMC3    C3 4051   2.423   3.531   0.441 -0.4901 -0.1129  0.2648
  268TMC3    C4 4052   2.645   3.695   0.446 -0.4596 -0.1945  0.0237
  268TMC3    C5 4053   2.651   3.577   0.512  0.3112  0.0830 -0.4173
  268TMC3    C6 4054   2.536   3.504   0.517 -0.3934 -0.5294  0.8318
  268TMC3     C 4055   2.511   3.853   0.313  0.0270  0.5744 -0.0722
  268TMC3     O 4056   2.428   3.873   0.221 -0.2751 -0.7299  0.4453
  268TMC3     H 4057   2.338   3.676   0.305  0.3268  1.6600  0.0875
  268TMC3    H1 4058   2.733   3.758   0.450 -0.0165 -0.7716 -0.5994
  268TMC3    H2 4059   2.553   3.404   0.556 -0.3447 -0.0940  1.9196
  268TMC3    C7 4060   2.779   3.509   0.549  0.0608 -0.8590  0.2098
  268TMC3    C8 4061   2.369   3.418   0.371  0.2053  0.6300 -0.1355
  268TMC3    O1 4062   2.775   3.408   0.618 -0.9578  0.6439  0.0017
  268TMC3    O2 4063   2.339   3.319   0.434  0.1744  0.2516 -0.0042
  269MPD2     C 4064   3.297   2.480  15.976  0.3687 -0.3891 -0.3689
  269MPD2    C1 4065   3.181   2.483  15.909  0.1799 -0.0904  0.2720
  269MPD2    C2 4066   3.131   2.602  15.864 -0.1729  0.2237  0.3178
  269MPD2    C3 4067   3.197   2.722  15.852  0.1230 -0.1706 -0.1446
  269MPD2    C4 4068   3.321   2.714  15.912 -0.1247 -1.2749  0.5502
  269MPD2    C5 4069   3.364   2.601  15.970  0.6208  0.1676 -0.0565
  269MPD2     H 4070   3.039   2.598  15.806  1.7177  0.1495 -2.6768
  269MPD2    H1 4071   3.401   2.787  15.905 -0.6179 -0.9414 -1.6415
  269MPD2    H2 4072   3.348   2.399  16.027 -1.4531 -2.2136 -1.4919
  269MPD2    H3 4073   3.460   2.598  16.020 -0.9073  1.0220  2.9647
  269MPD2     N 4074   3.139   2.827  15.783  0.2528 -0.4374  0.9507
  269MPD2    H5 4075   3.040   2.816  15.760  0.0974  1.7413  0.6407
  269MPD2    N1 4076   3.107   2.363  15.908 -0.4696  0.8984 -0.5505
  269MPD2    H7 4077   3.141   2.280  15.956 -2.0850  0.8873  0.6157
  270TMC3    C1 4078   2.936   2.213  15.855  0.0641  0.3880  0.2827
  270TMC3    C2 4079   2.871   2.171  15.741  0.5244 -0.4816 -0.4203
  270TMC3    C3 4080   2.834   2.042  15.723 -0.4511 -0.1194 -0.2707
  270TMC3    C4 4081   2.971   2.120  15.954  0.5414 -0.3913 -0.7114
  270TMC3    C5 4082   2.933   1.983  15.932 -0.2009 -0.3735 -0.1159
  270TMC3    C6 4083   2.868   1.946  15.817  0.7080 -0.0113 -0.1311
  270TMC3     C 4084   2.988   2.345  15.842 -0.2533 -0.3624 -0.8261
  270TMC3     O 4085   2.917   2.420  15.778  0.3455  0.1260  0.0271
  270TMC3     H 4086   2.836   2.251  15.676 -2.2200 -0.9891  0.4297
  270TMC3    H1 4087   3.025   2.154  16.041 -1.3318  2.3761 -0.6362
  270TMC3    H2 4088   2.868   1.843  15.784  1.3910 -0.1706  0.3835
  270TMC3    C7 4089   2.985   1.878  16.015  0.0836 -0.0044  0.1739
  270TMC3    C8 4090   2.793   2.006  15.585 -0.5977  0.1559  0.4524
  270TMC3    O1 4091   2.997   1.771  15.955 -0.3735 -0.4362  0.1675
  270TMC3    O2 4092   2.803   2.098  15.503  0.5508  0.4132 -0.1286
  271MPD2     C 4093   2.457   2.692  13.933 -0.3056 -0.6693  0.3448
  271MPD2    C1 4094   2.373   2.621  14.018 -0.2145  0.1932 -0.1699
  271MPD2    C2 4095   2.238   2.633  14.004  0.3737 -0.3453 -0.0031
  271MPD2    C3 4096   2.181   2.704  13.902 -0.0142 -0.0437  0.4522
  271MPD2    C4 4097   2.261   2.784  13.826 -0.4398  0.5442  0.5557
  271MPD2    C5 4098   2.400   2.787  13.844 -0.2457 -0.0314 -0.1856
  271MPD2     H 4099   2.177   2.570  14.067  0.8138  0.0128  0.7773
  271MPD2    H1 4100   2.229   2.851  13.747  0.6032  2.2590  1.5827
  271MPD2    H2 4101   2.565   2.693  13.940 -0.2852 -1.6171  0.2593
  271MPD2    H3 4102   2.458   2.851  13.779 -1.4249  2.0079  0.7831
  271MPD2     N 4103   2.038   2.710  13.874 -0.4343  0.4677 -0.2433
  271MPD2    H5 4104   2.009   2.772  13.798 -1.0144  0.0466 -0.3640
  271MPD2    N1 4105   2.423   2.523  14.115 -0.9724 -0.1704  0.2314
  271MPD2    H7 4106   2.346   2.479  14.164 -0.4118  0.5041  1.7121
  272TMC3    C1 4107   2.574   2.400  14.253 -0.4718  0.2530  0.5502
  272TMC3    C2 4108   2.690   2.322  14.248 -0.6264  0.4348 -0.3862
  272TMC3    C3 4109   2.698   2.217  14.340  0.3217  0.2175 -0.2982
  272TMC3    C4 4110   2.471   2.377  14.343  0.0236 -0.4087 -0.4204
  272TMC3    C5 4111   2.490   2.272  14.437 -0.0752  0.2654 -0.3822
  272TMC3    C6 4112   2.604   2.189  14.435  0.4934  0.2582  0.8095
  272TMC3     C 4113   2.554   2.496  14.143 -0.3019  0.2640  1.0120
  272TMC3     O 4114   2.652   2.537  14.081  0.2697 -0.3747 -0.0298
  272TMC3     H 4115   2.768   2.351  14.178 -1.7473  0.9087 -1.4404
  272TMC3    H1 4116   2.391   2.448  14.359  0.8244  0.6365 -1.1179
  272TMC3    H2 4117   2.613   2.109  14.508 -0.4080  0.4739  1.1585
  272TMC3    C7 4118   2.409   2.276  14.561  0.1578 -0.1942 -0.0102
  272TMC3    C8 4119   2.813   2.134  14.324  0.1402 -0.4215  0.6212
  272TMC3    O1 4120   2.293   2.312  14.546  0.1291  0.1073 -0.2437
  272TMC3    O2 4121   2.903   2.176  14.250  0.1089 -0.1553 -0.0470
  273MPD2     C 4122   4.083   0.291  11.836  0.2119  0.2253 -0.7919
  273MPD2    C1 4123   4.139   0.423  11.845  0.1306 -0.5168  0.0675
  273MPD2    C2 4124   4.188   0.488  11.736 -0.2217 -0.5179  0.6945
  273MPD2    C3 4125   4.186   0.427  11.607  0.5316  1.0464 -0.4130
  273MPD2    C4 4126   4.129   0.299  11.598 -0.1312  0.2126 -0.1904
  273MPD2    C5 4127   4.076   0.235  11.712  0.4861  0.0852  0.5450
  273MPD2     H 4128   4.224   0.590  11.734 -1.7560  0.0037 -0.5926
  273MPD2    H1 4129   4.124   0.245  11.503 -0.0769 -2.4626  1.3250
  273MPD2    H2 4130   4.043   0.240  11.923 -0.0189  1.9158  0.0944
  273MPD2    H3 4131   4.023   0.141  11.703  1.2892 -0.2172 -0.9052
  273MPD2     N 4132   4.226   0.491  11.478 -0.0502 -0.4172 -0.2809
  273MPD2    H5 4133   4.191   0.445  11.395  0.0415  0.6205 -0.8825
  273MPD2    N1 4134   4.141   0.480  11.977 -0.4066 -0.5104 -0.2420
  273MPD2    H7 4135   4.101   0.423  12.051 -1.5753  2.0979  1.1510
  274TMC3    C1 4136   4.274   0.677  11.339  0.5155 -0.5029  0.8095
  274TMC3    C2 4137   4.146   0.683  11.282  0.6040  0.3445 -0.4980
  274TMC3    C3 4138   4.112   0.790  11.204 -0.4959 -0.2944  0.4601
  274TMC3    C4 4139   4.345   0.792  11.339 -0.1502 -0.8323 -0.1902
  274TMC3    C5 4140   4.303   0.903  11.272 -0.1947 -0.0275 -0.1020
  274TMC3    C6 4141   4.193   0.899  11.187 -0.7761  0.3874 -0.3010
  274TMC3     C 4142   4.291   0.616  11.473 -0.2345 -0.4043 -0.4106
  274TMC3     O 4143   4.335   0.688  11.563 -0.3983 -0.2337 -0.0418
  274TMC3     H 4144   4.079   0.598  11.285 -1.3563  1.8997 -0.8725
  274TMC3    H1 4145   4.448   0.787  11.372  0.0071 -1.9811 -0.8674
  274TMC3    H2 4146   4.155   0.997  11.159 -2.6932 -0.6521 -1.3496
  274TMC3    C7 4147   4.287   1.010  11.368 -0.1293  0.3916 -0.7498
  274TMC3    C8 4148   4.005   0.752  11.109 -0.6746 -0.3269 -0.0292
  274TMC3    O1 4149   4.257   1.122  11.338 -0.0916 -0.2748 -1.0071
  274TMC3    O2 4150   3.922   0.672  11.150 -0.6464 -0.5539  0.2461
  275MPD2     C 4151   4.147   3.088  14.624  0.3957 -0.2767  0.2138
  275MPD2    C1 4152   4.105   3.033  14.744  0.4111 -0.7078 -0.2808
  275MPD2    C2 4153   3.972   3.025  14.776  0.5163  0.2494 -1.1079
  275MPD2    C3 4154   3.876   3.043  14.678  0.0860 -0.0090  0.4628
  275MPD2    C4 4155   3.918   3.104  14.564  1.4335 -0.2397  0.6459
  275MPD2    C5 4156   4.053   3.135  14.535 -0.0462  0.1333  0.3555
  275MPD2     H 4157   3.946   2.966  14.862 -1.0240  1.6262 -0.6175
  275MPD2    H1 4158   3.850   3.134  14.486  3.1212  1.6860 -0.0908
  275MPD2    H2 4159   4.249   3.107  14.591  0.1214 -0.1285 -0.5519
  275MPD2    H3 4160   4.078   3.180  14.440  1.6261 -1.2789  0.1111
  275MPD2     N 4161   3.743   3.004  14.687 -0.1208 -0.0315  0.8712
  275MPD2    H5 4162   3.687   3.015  14.603 -2.4687  1.9196  2.7237
  275MPD2    N1 4163   4.189   2.992  14.848 -0.2912 -0.4395  0.3944
  275MPD2    H7 4164   4.148   2.954  14.933 -2.2426 -2.3448 -1.4257
  276TMC3    C1 4165   4.375   2.922  14.971  0.4795  0.5001 -0.4195
  276TMC3    C2 4166   4.277   2.857  15.045 -0.1526  0.1598 -0.3155
  276TMC3    C3 4167   4.266   2.881  15.174  0.2865  0.0407  0.2855
  276TMC3    C4 4168   4.467   3.001  15.041  0.3977  0.4106 -0.4407
  276TMC3    C5 4169   4.458   3.008  15.176 -0.3999 -0.3936  0.3091
  276TMC3    C6 4170   4.359   2.955  15.246  0.2300 -0.1627 -0.0735
  276TMC3     C 4171   4.326   2.992  14.852  0.6227  0.1801  0.2453
  276TMC3     O 4172   4.401   3.064  14.788  0.1516  0.6834  0.6648
  276TMC3     H 4173   4.212   2.796  14.983 -1.7680 -1.2302  2.7617
  276TMC3    H1 4174   4.537   3.064  14.987  1.0891 -1.3203 -1.5513
  276TMC3    H2 4175   4.369   2.944  15.354  0.2680 -1.2386 -0.1861
  276TMC3    C7 4176   4.521   3.117  15.249 -0.3831 -0.3644  0.1896
  276TMC3    C8 4177   4.196   2.774  15.243 -1.2128 -0.1869 -0.9342
  276TMC3    O1 4178   4.448   3.179  15.328 -0.4731  0.4988  0.2163
  276TMC3    O2 4179   4.229   2.761  15.364  0.2827 -0.3435 -0.0357
  277MPD2     C 4180   1.080   2.523  13.331 -0.3218 -0.4914 -0.1497
  277MPD2    C1 4181   0.948   2.499  13.360 -0.4250  0.2227  0.4775
  277MPD2    C2 4182   0.904   2.444  13.478 -0.0076 -0.3151  0.3210
  277MPD2    C3 4183   1.001   2.410  13.575  0.3880 -0.3334 -0.7430
  277MPD2    C4 4184   1.135   2.418  13.548 -0.3475 -0.0753 -0.6755
  277MPD2    C5 4185   1.174   2.479  13.428  0.6012  0.0799 -0.0158
  277MPD2     H 4186   0.800   2.423  13.498 -0.2221  0.0005 -0.4545
  277MPD2    H1 4187   1.215   2.392  13.617  1.2294  1.1664 -2.0499
  277MPD2    H2 4188   1.110   2.585  13.247 -0.1443 -2.9354 -1.9014
  277MPD2    H3 4189   1.280   2.499  13.425  0.9356 -1.5003  0.9408
  277MPD2     N 4190   0.940   2.377  13.695  0.1031  0.1594  0.5852
  277MPD2    H5 4191   0.839   2.367  13.693  0.2380 -1.5390  1.7424
  277MPD2    N1 4192   0.855   2.536  13.262 -0.3024 -0.1158  0.0155
  277MPD2    H7 4193   0.897   2.578  13.180 -1.4448 -1.8044 -1.4259
  278TMC3    C1 4194   0.892   2.280  13.896 -0.1772  0.0182 -0.8559
  278TMC3    C2 4195   0.906   2.155  13.947 -0.1890 -0.0205  0.5797
  278TMC3    C3 4196   0.799   2.101  14.019  0.1926 -0.2284 -0.2295
  278TMC3    C4 4197   0.774   2.351  13.915 -1.2173 -0.3704 -0.3209
  278TMC3    C5 4198   0.675   2.297  13.992  1.0940  0.0402  0.0824
  278TMC3    C6 4199   0.684   2.172  14.044  0.0253 -0.3887  0.3817
  278TMC3     C 4200   0.995   2.333  13.812 -0.6002 -0.5718  0.2373
  278TMC3     O 4201   1.118   2.314  13.832 -0.0471  0.3081 -0.4413
  278TMC3     H 4202   0.995   2.096  13.927 -0.9165 -0.6690 -0.7043
  278TMC3    H1 4203   0.759   2.450  13.873 -0.1592  1.1427  2.8951
  278TMC3    H2 4204   0.617   2.142  14.124  0.0845 -1.9160 -0.1371
  278TMC3    C7 4205   0.554   2.388  14.016 -0.5263 -0.4606  0.0602
  278TMC3    C8 4206   0.791   1.957  14.021  0.2853 -0.4313  0.2694
  278TMC3    O1 4207   0.581   2.503  13.983  0.9294  0.0650  0.0600
  278TMC3    O2 4208   0.879   1.897  14.075 -0.4119  0.2664 -0.0349
  279MPD2     C 4209   0.190   1.514   0.234 -0.5335 -0.2063 -0.5122
  279MPD2    C1 4210   0.136   1.641   0.228  0.0998 -0.1756  0.5747
  279MPD2    C2 4211   0.113   1.714   0.116  0.8672 -0.0556  0.1423
  279MPD2    C3 4212   0.135   1.650  17.679  0.4872  0.2391  0.3472
  279MPD2    C4 4213   0.192   1.524  17.678 -0.4575 -0.6509 -0.3559
  279MPD2    C5 4214   0.226   1.454   0.108 -0.1664  0.5344 -0.2268
  279MPD2     H 4215   0.070   1.814   0.121  0.2268 -0.2928 -0.5795
  279MPD2    H1 4216   0.204   1.466  17.587 -1.1228 -0.1546 -0.7594
  279MPD2    H2 4217   0.203   1.462   0.329 -1.2616  1.2673  0.4008
  279MPD2    H3 4218   0.280   1.360   0.101 -2.2586 -0.6993  0.1064
  279MPD2     N 4219   0.108   1.719  17.563 -0.4520  0.0309 -0.4055
  279MPD2    H5 4220   0.077   1.815  17.579  1.3422  0.5064  0.1438
  279MPD2    N1 4221   0.099   1.690   0.361 -0.4713  0.0905  0.6227
  279MPD2    H7 4222   0.138   1.635   0.437 -1.5219 -0.2311  0.9187
  280TMC3    C1 4223   4.612   1.815   0.321  0.2224 -0.6805 -0.4289
  280TMC3    C2 4224   4.558   1.717   0.242 -1.0062  0.2955  0.4948
  280TMC3    C3 4225   4.456   1.756   0.155  0.1037  0.1384 -0.1248
  280TMC3    C4 4226   4.560   1.939   0.331  0.5174  0.2106 -0.9354
  280TMC3    C5 4227   4.450   1.965   0.250 -0.2138  0.2504  0.5439
  280TMC3    C6 4228   4.395   1.878   0.159 -0.3984 -0.2496 -0.2674
  280TMC3     C 4229   0.020   1.799   0.396 -0.0700  0.0560 -0.0558
  280TMC3     O 4230   0.018   1.848   0.509  0.3732 -0.5153  0.1520
  280TMC3     H 4231   4.610   1.622   0.236 -2.2311 -0.3299 -0.0963
  280TMC3    H1 4232   4.610   2.010   0.395 -1.8202  1.3344 -0.3540
  280TMC3    H2 4233   4.302   1.887   0.104 -0.1359 -1.1215 -0.8663
  280TMC3    C7 4234   4.396   2.101   0.261  0.4127  0.2603  0.0566
  280TMC3    C8 4235   4.431   1.676   0.039 -0.1044 -0.6072 -0.7124
  280TMC3    O1 4236   4.430   2.179   0.351  0.1314 -0.4217 -0.5942
  280TMC3    O2 4237   4.390   1.728  17.624  0.6415  0.4450 -0.5788
  281TMC3    C1 4238   4.122   2.670  13.412 -0.0776 -0.3322  0.0383
  281TMC3    C2 4239   4.187   2.745  13.318  0.0612 -0.8022 -0.2594
  281TMC3    C3 4240   4.206   2.690  13.191 -0.2317 -0.4695  0.0422
  281TMC3    C4 4241   4.090   2.534  13.390 -0.3237  0.3551  0.1580
  281TMC3    C5 4242   4.128   2.478  13.271  0.0152 -0.1305 -0.2367
  281TMC3    C6 4243   4.177   2.558  13.173 -0.4272  0.2579  0.5014
  281TMC3     C 4244   4.045   2.738  13.521  0.3160 -0.2345  0.1599
  281TMC3     O 4245   4.014   2.677  13.621 -0.6882 -0.0489 -0.3157
  281TMC3     H 4246   4.201   2.851  13.339 -1.4514  0.1944 -4.3684
  281TMC3    H1 4247   4.049   2.481  13.474  1.1991 -1.0562  0.0142
  281TMC3    H2 4248   4.189   2.509  13.078  1.0619  1.0998  0.2426
  281TMC3    C7 4249   4.056   2.363  13.224  0.6902 -0.7410 -0.0086
  281TMC3    C8 4250   4.146   2.764  13.085  0.1890  0.1062 -0.0735
  281TMC3    O1 4251   4.097   2.295  13.132 -0.8881 -0.4337 -0.2347
  281TMC3    O2 4252   4.072   2.714  13.006  0.3545  0.0201  0.4752
  282MPD2     C 4253   1.121   4.410  15.212 -0.2353  0.2319  0.0844
  282MPD2    C1 4254   0.991   4.442  15.252  0.0653  0.8618 -0.4860
  282MPD2    C2 4255   0.884   4.418  15.171  0.7011 -0.8869  0.0084
  282MPD2    C3 4256   0.898   4.346  15.057 -0.1688 -0.2212  0.2859
  282MPD2    C4 4257   1.026   4.312  15.012  0.1730  0.1591 -0.5759
  282MPD2    C5 4258   1.132   4.348  15.090 -0.4167 -0.3048 -0.4637
  282MPD2     H 4259   0.785   4.445  15.207  0.9437  2.1401 -1.5866
  282MPD2    H1 4260   1.039   4.258  14.919 -0.1903 -1.9402  0.5859
  282MPD2    H2 4261   1.208   4.437  15.270 -0.0825 -3.0323  1.3646
  282MPD2    H3 4262   1.232   4.335  15.051  0.0732  1.6205  0.1610
  282MPD2     N 4263   0.780   4.290  14.999 -0.4192  0.2223  0.6899
  282MPD2    H5 4264   0.691   4.319  15.039  0.5119  3.5441  0.3905
  282MPD2    N1 4265   0.972   4.497  15.380 -0.4365  0.7111  0.2034
  282MPD2    H7 4266   0.881   4.536  15.404 -1.8643 -2.7219  0.2938
  283TMC3    C1 4267   1.017   4.536  15.594  0.0239 -0.3856  1.0345
  283TMC3    C2 4268   0.977   4.663  15.594 -0.1567 -0.3882  0.1866
  283TMC3    C3 4269   0.908   4.702  15.709  0.3289  0.1162 -0.2025
  283TMC3    C4 4270   0.978   4.442  15.684 -0.3057  0.3472  0.5910
  283TMC3    C5 4271   0.900   4.479  15.785  0.2908 -0.0536  0.2682
  283TMC3    C6 4272   0.875   4.614  15.806 -0.5442 -0.1435  0.0147
  283TMC3     C 4273   1.067   4.487  15.476  0.3128  0.4302  0.2000
  283TMC3     O 4274   1.154   4.405  15.492  0.5375 -0.3276 -0.4170
  283TMC3     H 4275   1.008   4.721  15.508  1.2910 -2.1823 -0.4925
  283TMC3    H1 4276   1.015   4.341  15.679  2.2373  1.1803  2.2000
  283TMC3    H2 4277   0.823   4.647  15.895 -0.4496  1.7929 -0.6257
  283TMC3    C7 4278   0.804   4.394  15.852 -0.2607  0.1672 -0.4893
  283TMC3    C8 4279   0.880   0.123  15.726  0.3097 -0.0562  0.6006
  283TMC3    O1 4280   0.737   4.447  15.936 -0.4880  0.0345  0.0251
  283TMC3    O2 4281   0.854   0.173  15.831 -0.5078 -0.4309  0.0653
  284MPD2     C 4282   2.859   3.470  12.060  0.3738 -0.5360  0.3539
  284MPD2    C1 4283   2.861   3.353  11.983 -0.3462  0.5779 -0.4871
  284MPD2    C2 4284   2.892   3.237  12.040  0.6268  0.0702  0.1387
  284MPD2    C3 4285   2.928   3.225  12.174 -0.4188  0.0457  0.0035
  284MPD2    C4 4286   2.915   3.338  12.253 -0.1647  0.9104 -0.1433
  284MPD2    C5 4287   2.876   3.461  12.197  0.2703  0.3804  0.6047
  284MPD2     H 4288   2.894   3.151  11.974 -1.1376  0.2446 -0.1178
  284MPD2    H1 4289   2.960   3.345  12.351  0.2925 -0.1575 -0.2740
  284MPD2    H2 4290   2.826   3.566  12.022  2.2379  0.4028  1.1518
  284MPD2    H3 4291   2.884   3.556  12.249  1.5909  0.2983  0.5622
  284MPD2     N 4292   3.013   3.126  12.222  0.7209  0.2461  0.4917
  284MPD2    H5 4293   3.059   3.142  12.311  0.4601 -0.7164  0.7949
  284MPD2    N1 4294   2.852   3.351  11.842 -0.0651  0.1497 -0.2146
  284MPD2    H7 4295   2.878   3.268  11.789  0.3750  0.2871 -0.2141
  285TMC3    C1 4296   2.880   3.453  11.640  0.7394  0.2375  0.0669
  285TMC3    C2 4297   2.988   3.367  11.614 -0.4037 -0.6728  0.1686
  285TMC3    C3 4298   3.060   3.399  11.503 -0.0347  0.0821 -0.0216
  285TMC3    C4 4299   2.838   3.546  11.543 -0.5273 -0.0566 -0.4804
  285TMC3    C5 4300   2.900   3.551  11.423  0.3127  0.3155  0.4115
  285TMC3    C6 4301   3.012   3.477  11.405 -0.5902  0.0105 -0.4370
  285TMC3     C 4302   2.827   3.467  11.772  0.6123  0.3752  0.1624
  285TMC3     O 4303   2.789   3.578  11.805 -0.6756  0.2559 -0.2528
  285TMC3     H 4304   3.018   3.291  11.685  2.0504  0.0249 -0.1279
  285TMC3    H1 4305   2.752   3.608  11.565  0.4827  1.6164 -1.2986
  285TMC3    H2 4306   3.061   3.465  11.309 -0.4215 -0.6742 -0.2656
  285TMC3    C7 4307   2.917   3.691  11.381  0.3310 -0.5641 -0.1442
  285TMC3    C8 4308   3.192   3.338  11.479 -0.7040  0.0060 -1.0882
  285TMC3    O1 4309   2.902   3.773  11.468  0.1511 -0.0296 -0.0839
  285TMC3    O2 4310   3.225   3.230  11.529  0.3807  0.1541  0.6079
  286MPD2     C 4311   3.866   1.580   1.526 -0.2158 -0.1320 -0.2912
  286MPD2    C1 4312   3.867   1.540   1.392 -0.2141 -0.1934  0.1488
  286MPD2    C2 4313   3.992   1.496   1.339 -0.1521  0.4613  0.0106
  286MPD2    C3 4314   4.096   1.473   1.429  0.2228  0.0553  0.4652
  286MPD2    C4 4315   4.091   1.511   1.563  0.7177 -0.4446  0.3149
  286MPD2    C5 4316   3.978   1.573   1.608 -0.5122  0.2533  0.1137
  286MPD2     H 4317   4.011   1.480   1.233  0.4367 -2.3650  0.5463
  286MPD2    H1 4318   4.176   1.493   1.628  1.2187 -0.1761 -0.2639
  286MPD2    H2 4319   3.785   1.634   1.574  0.5047  1.2099 -0.5941
  286MPD2    H3 4320   3.967   1.607   1.710 -0.2327  2.6555 -0.6631
  286MPD2     N 4321   4.217   1.421   1.386 -0.1503 -0.3213 -0.1816
  286MPD2    H5 4322   4.290   1.424   1.456  2.5309 -0.1640 -2.9622
  286MPD2    N1 4323   3.754   1.571   1.312  0.2257 -0.1506 -0.2459
  286MPD2    H7 4324   3.766   1.590   1.213 -0.9435  1.9959  0.0317
  287TMC3    C1 4325   4.378   1.296   1.242  0.0899  0.2559 -0.2667
  287TMC3    C2 4326   4.399   1.215   1.127 -0.9855  0.4544 -0.5365
  287TMC3    C3 4327   4.522   1.162   1.100  0.1817  0.1475 -0.0480
  287TMC3    C4 4328   4.473   1.316   1.338  0.6742  0.0771 -0.0486
  287TMC3    C5 4329   4.591   1.236   1.320  0.7342 -0.3193  0.3601
  287TMC3    C6 4330   4.620   1.164   1.201  0.1673 -0.2803 -0.1781
  287TMC3     C 4331   4.245   1.358   1.267  0.0779 -0.6593 -0.1027
  287TMC3     O 4332   4.165   1.332   1.185  0.2817  0.0711  0.5405
  287TMC3     H 4333   4.316   1.203   1.059 -1.2620  0.9632 -0.2919
  287TMC3    H1 4334   4.456   1.376   1.426 -0.3872 -1.5695  0.8453
  287TMC3    H2 4335   4.719   1.122   1.188  0.1381 -0.0634 -1.0662
  287TMC3    C7 4336   4.704   1.271   1.401 -0.1962 -0.0663  0.2414
  287TMC3    C8 4337   4.528   1.064   0.996 -0.2508  0.3222  0.2955
  287TMC3    O1 4338   4.696   1.365   1.480 -0.0934  0.5337 -0.0441
  287TMC3    O2 4339   4.434   1.071   0.919 -0.2232 -0.4380 -0.1499
  288TMC3    C1 4340   0.671   2.038  14.710 -0.3043  0.3576  0.0545
  288TMC3    C2 4341   0.666   2.023  14.844 -0.2920 -0.1826 -0.7672
  288TMC3    C3 4342   0.737   2.113  14.913  0.1334 -0.1329 -0.2794
  288TMC3    C4 4343   0.755   2.135  14.652 -0.8438  0.1646 -0.2229
  288TMC3    C5 4344   0.836   2.210  14.734 -0.2157  0.2108  0.1240
  288TMC3    C6 4345   0.824   2.206  14.869  0.5048 -1.3388  0.0698
  288TMC3     C 4346   0.604   1.939  14.638  0.1990 -0.0619  0.0128
  288TMC3     O 4347   0.558   1.843  14.702  0.0341  0.0743 -0.6254
  288TMC3     H 4348   0.582   1.967  14.883 -1.2787  1.8898  0.0866
  288TMC3    H1 4349   0.761   2.154  14.545 -0.9736  0.2655 -0.2127
  288TMC3    H2 4350   0.878   2.274  14.935 -0.6293  0.7138 -1.0905
  288TMC3    C7 4351   0.945   2.298  14.686  0.1074  0.1673  0.2348
  288TMC3    C8 4352   0.719   2.110  15.062 -0.2920  0.0300 -0.3149
  288TMC3    O1 4353   0.979   2.385  14.763 -0.1954 -0.4190 -0.3577
  288TMC3    O2 4354   0.742   2.212  15.120 -0.0993  0.6373 -1.1067
  289MPD2     C 4355   1.034   1.191  13.879  0.1329  0.3005 -0.4155
  289MPD2    C1 4356   0.989   1.223  14.002 -0.3907  0.4367  0.4902
  289MPD2    C2 4357   0.855   1.216  14.029  0.2975 -0.0320 -0.8580
  289MPD2    C3 4358   0.764   1.179  13.925 -0.1741 -0.4751  0.1126
  289MPD2    C4 4359   0.807   1.151  13.795 -0.2107  0.6541  0.2910
  289MPD2    C5 4360   0.940   1.160  13.781  0.7057  0.3793  0.0953
  289MPD2     H 4361   0.815   1.243  14.127 -0.2280 -0.4948 -0.9460
  289MPD2    H1 4362   0.740   1.125  13.714 -1.6567  2.3380  0.9411
  289MPD2    H2 4363   1.138   1.203  13.851  1.1815 -2.4635  2.3018
  289MPD2    H3 4364   0.983   1.137  13.685 -0.1964 -0.8837 -0.0068
  289MPD2     N 4365   0.629   1.153  13.957  0.5656  0.2881  0.0769
  289MPD2    H5 4366   0.571   1.106  13.889  1.0911  0.0241 -0.1919
  289MPD2    N1 4367   1.086   1.270  14.101  0.0327  0.3386  0.5988
  289MPD2    H7 4368   1.177   1.304  14.073 -0.2474  2.0287  1.7083
  290TMC3    C1 4369   0.429   1.174  14.063 -0.3948 -0.0143  0.2363
  290TMC3    C2 4370   0.346   1.279  14.084 -0.1823  0.6807 -0.3484
  290TMC3    C3 4371   0.215   1.272  14.055  0.2215  0.5529  0.3949
  290TMC3    C4 4372   0.378   1.054  14.024  0.3507 -1.4886  0.4265
  290TMC3    C5 4373   0.244   1.045  14.012  0.5569 -0.1396 -0.2481
  290TMC3    C6 4374   0.160   1.156  14.024 -0.1376  0.3162 -0.0003
  290TMC3     C 4375   0.568   1.201  14.073  0.1129 -0.0685 -0.7721
  290TMC3     O 4376   0.603   1.288  14.151 -0.2980  0.7367  0.2153
  290TMC3     H 4377   0.400   1.373  14.096 -0.2018  0.5918  0.4686
  290TMC3    H1 4378   0.436   0.966  13.995  0.4864 -2.0352  2.3663
  290TMC3    H2 4379   0.052   1.152  14.015 -0.0024 -0.5586 -1.2121
  290TMC3    C7 4380   0.192   0.926  13.956  0.5129  0.2437  0.2998
  290TMC3    C8 4381   0.132   1.388  14.037 -0.2572  0.3474 -0.2588
  290TMC3    O1 4382   0.088   0.941  13.896  0.3023 -0.2142 -0.3156
  290TMC3    O2 4383   0.039   1.377  13.961  0.0546  0.2187 -0.0227
  291MPD2     C 4384   0.349   4.521   1.072 -0.6858 -0.6748  0.6004
  291MPD2    C1 4385   0.268   4.515   0.967 -0.2255 -0.1973 -0.2117
  291MPD2    C2 4386   0.302   4.589   0.853 -0.0318  0.7010 -0.4006
  291MPD2    C3 4387   0.411   4.663   0.851  0.8906  0.2364 -0.4647
  291MPD2    C4 4388   0.493   4.679   0.960 -0.8415  0.3543 -0.2325
  291MPD2    C5 4389   0.460   4.609   1.069  0.2048 -0.1835  0.1485
  291MPD2     H 4390   0.244   4.575   0.763 -0.8053  2.4701 -0.1939
  291MPD2    H1 4391   0.585   0.015   0.962 -1.0278  0.6394  0.2864
  291MPD2    H2 4392   0.327   4.465   1.162 -0.2374 -0.7463  0.6675
  291MPD2    H3 4393   0.514   4.628   1.161 -0.1294 -0.1302  0.3343
  291MPD2     N 4394   0.440   0.016   0.735  0.2010  0.1020 -0.2632
  291MPD2    H5 4395   0.510   0.090   0.743 -0.3883  0.6460 -0.1695
  291MPD2    N1 4396   0.146   4.445   0.964  0.0636 -0.5074 -0.2364
  291MPD2    H7 4397   0.103   4.442   0.873 -0.2583 -0.8989 -0.0708
  292TMC3    C1 4398   4.701   4.280   1.048  0.1446  0.7359  0.3161
  292TMC3    C2 4399   4.624   4.242   1.155 -0.6813  0.3644 -0.6606
  292TMC3    C3 4400   4.488   4.222   1.131 -0.2745  0.3683  0.5885
  292TMC3    C4 4401   4.656   4.285   0.917 -0.4986  0.6207 -0.7117
  292TMC3    C5 4402   4.527   4.249   0.897 -0.0267  0.1332  0.3959
  292TMC3    C6 4403   4.444   4.228   1.001 -0.3364  0.2890  0.3941
  292TMC3     C 4404   0.089   4.370   1.074 -0.0428 -0.3760 -0.9397
  292TMC3     O 4405   0.113   4.380   1.192  0.4668 -0.4938 -0.0294
  292TMC3     H 4406   4.657   4.252   1.258  1.5144  0.5087 -1.3924
  292TMC3    H1 4407   4.718   4.304   0.830 -0.5120  1.2546 -0.5788
  292TMC3    H2 4408   4.345   4.196   0.971 -0.4844 -0.6891  1.9366
  292TMC3    C7 4409   4.471   4.217   0.766 -0.4724 -0.7375 -0.5994
  292TMC3    C8 4410   4.411   4.183   1.250  0.8688  0.0685 -1.3571
  292TMC3    O1 4411   4.542   4.140   0.699 -0.3203  0.2194 -0.6126
  292TMC3    O2 4412   4.469   4.129   1.341 -0.1404  0.0287  0.0874
  293MPD2     C 4413   2.002   2.348  12.432  0.6433 -0.3185 -0.9042
  293MPD2    C1 4414   1.900   2.347  12.523 -0.1164 -0.3241  0.0878
  293MPD2    C2 4415   1.926   2.332  12.653  0.0599  0.2205 -0.0730
  293MPD2    C3 4416   2.063   2.319  12.699  0.7570 -0.1506  0.1339
  293MPD2    C4 4417   2.165   2.327  12.609 -0.4067  0.7960 -0.0752
  293MPD2    C5 4418   2.132   2.330  12.476 -0.0358 -0.0475 -1.1779
  293MPD2     H 4419   1.848   2.329  12.728 -1.4897  0.2723 -1.6784
  293MPD2    H1 4420   2.271   2.322  12.630 -0.0511  0.8375 -1.8404
  293MPD2    H2 4421   1.986   2.344  12.325  2.3900 -0.0092 -1.1689
  293MPD2    H3 4422   2.214   2.327  12.405  0.1548  1.2900 -1.0104
  293MPD2     N 4423   2.093   2.325  12.838 -0.4856 -0.0680 -0.1569
  293MPD2    H5 4424   2.013   2.307  12.897 -0.0761  1.3556  0.8473
  293MPD2    N1 4425   1.773   2.373  12.468  0.5082  0.3210  0.3516
  293MPD2    H7 4426   1.769   2.403  12.371  0.9447 -1.0753 -0.0998
  294TMC3    C1 4427   1.541   2.388  12.454 -0.6348 -0.0236 -0.0839
  294TMC3    C2 4428   1.420   2.343  12.499 -0.6060  0.1266 -0.1060
  294TMC3    C3 4429   1.313   2.369  12.423  0.5960 -0.3412 -0.0101
  294TMC3    C4 4430   1.549   2.481  12.352  0.4384 -0.4149 -0.3338
  294TMC3    C5 4431   1.433   2.504  12.279  0.5388  0.8637 -0.6065
  294TMC3    C6 4432   1.312   2.444  12.304 -0.7294  0.0213  0.0372
  294TMC3     C 4433   1.654   2.370  12.541  0.3330  0.3061 -0.2706
  294TMC3     O 4434   1.627   2.353  12.658 -0.2409 -0.3693  0.0480
  294TMC3     H 4435   1.413   2.266  12.575 -0.1809 -0.3318 -0.5205
  294TMC3    H1 4436   1.643   2.531  12.333  0.3114  0.3548  1.0413
  294TMC3    H2 4437   1.220   2.457  12.250 -0.8101  0.2948  0.2400
  294TMC3    C7 4438   1.436   2.590  12.158 -0.8719  0.5222 -0.0567
  294TMC3    C8 4439   1.208   2.266  12.438 -0.1337 -0.5413  0.1170
  294TMC3    O1 4440   1.329   2.623  12.111  0.0093  0.5049 -0.0525
  294TMC3    O2 4441   1.161   2.245  12.549  0.5551 -0.3876  0.1378
  295MPD2     C 4442   2.384   0.573   0.342  0.8264 -0.3221 -0.1178
  295MPD2    C1 4443   2.374   0.621   0.476  0.0853  0.2448  0.5769
  295MPD2    C2 4444   2.256   0.610   0.546 -0.0903 -0.6333 -0.4598
  295MPD2    C3 4445   2.142   0.564   0.485 -0.1237 -0.0366 -0.8053
  295MPD2    C4 4446   2.149   0.518   0.355 -0.4488  0.0355  0.0525
  295MPD2    C5 4447   2.273   0.526   0.288 -0.3260 -0.2176 -1.1149
  295MPD2     H 4448   2.265   0.638   0.651 -1.0350 -0.8881 -0.3117
  295MPD2    H1 4449   2.070   0.457   0.312  1.6373 -3.2157  0.8685
  295MPD2    H2 4450   2.482   0.566   0.296  1.1985 -1.5637  0.8718
  295MPD2    H3 4451   2.271   0.494   0.184 -1.2935  0.1069 -1.1930
  295MPD2     N 4452   2.020   0.552   0.556  0.1789  0.6911 -0.0129
  295MPD2    H5 4453   1.955   0.501   0.498  1.9725 -0.2780 -1.1764
  295MPD2    N1 4454   2.485   0.660   0.556 -0.0306 -0.3459 -0.2236
  295MPD2    H7 4455   2.471   0.675   0.655 -1.6527 -1.2296 -0.3258
  296TMC3    C1 4456   1.852   0.599   0.709 -0.0964  0.5720 -0.1554
  296TMC3    C2 4457   1.800   0.700   0.782  0.1638 -0.0952 -0.1394
  296TMC3    C3 4458   1.717   0.669   0.882 -0.1709 -0.3264  0.8502
  296TMC3    C4 4459   1.827   0.464   0.729  0.2139 -0.5071  0.1638
  296TMC3    C5 4460   1.739   0.436   0.835 -0.7560 -0.2194 -0.2063
  296TMC3    C6 4461   1.687   0.538   0.912 -0.0136 -0.3474 -0.3176
  296TMC3     C 4462   1.992   0.612   0.679  0.2754 -0.1789 -0.0616
  296TMC3     O 4463   2.058   0.675   0.765  0.3921 -0.1217  0.7937
  296TMC3     H 4464   1.841   0.800   0.774 -3.2965  1.3900  0.4928
  296TMC3    H1 4465   1.852   0.385   0.659  2.4903  1.7518 -1.5412
  296TMC3    H2 4466   1.605   0.517   0.980 -1.7898  0.3082 -2.2507
  296TMC3    C7 4467   1.669   0.312   0.835  0.0409  0.3661 -0.1374
  296TMC3    C8 4468   1.708   0.770   0.984  0.7109  0.2656 -0.1110
  296TMC3    O1 4469   1.676   0.251   0.730 -0.3665 -0.0323 -0.1595
  296TMC3    O2 4470   1.722   0.886   0.947 -0.1277  0.4339 -0.1271
  297MPD2     C 4471   4.340   2.705  16.717  0.2978  0.2065 -0.4012
  297MPD2    C1 4472   4.394   2.743  16.601  0.2978  0.4999  0.3745
  297MPD2    C2 4473   4.493   2.836  16.594 -0.9120  0.6522 -0.1991
  297MPD2    C3 4474   4.536   2.895  16.716  0.1739  0.1508 -0.1928
  297MPD2    C4 4475   4.474   2.857  16.832  0.4759 -0.1182 -0.4214
  297MPD2    C5 4476   4.377   2.765  16.835 -0.1987  0.0923  0.3264
  297MPD2     H 4477   4.542   2.857  16.500 -0.0823 -0.9076 -0.1268
  297MPD2    H1 4478   4.507   2.905  16.924  0.7032  0.8996 -1.0332
  297MPD2    H2 4479   4.258   2.635  16.721  2.2501 -2.1835 -2.3889
  297MPD2    H3 4480   4.322   2.736  16.924  1.6155  0.7644  1.6481
  297MPD2     N 4481   4.637   2.991  16.707 -0.0174  0.2276 -0.2111
  297MPD2    H5 4482   4.674   3.006  16.613 -0.6568 -1.0306 -0.6676
  297MPD2    N1 4483   4.358   2.690  16.472  0.2655 -0.6400 -0.1536
  297MPD2    H7 4484   4.403   2.715  16.384 -0.0829 -1.0224 -0.4362
  298TMC3    C1 4485   4.245   2.553  16.317  1.3965 -0.1268  0.2302
  298TMC3    C2 4486   4.338   2.570  16.219  0.2606 -0.2627 -0.0935
  298TMC3    C3 4487   4.297   2.571  16.089  0.4360 -0.0139  0.0255
  298TMC3    C4 4488   4.108   2.540  16.284 -0.0659 -0.2117 -0.4801
  298TMC3    C5 4489   4.070   2.548  16.150  0.7372 -0.0035 -0.1436
  298TMC3    C6 4490   4.165   2.567  16.053 -0.3611  0.4511 -0.6162
  298TMC3     C 4491   4.267   2.592  16.451  0.7743 -0.2032 -0.0377
  298TMC3     O 4492   4.183   2.544  16.531 -0.0963  0.1337 -0.0596
  298TMC3     H 4493   4.441   2.588  16.247  0.1961  0.3560 -0.2604
  298TMC3    H1 4494   4.027   2.530  16.355  0.4977  1.9780  0.4726
  298TMC3    H2 4495   4.147   2.584  15.947 -0.9465  0.5238 -0.5088
  298TMC3    C7 4496   3.935   2.582  16.134 -0.0442  0.8653 -0.2932
  298TMC3    C8 4497   4.390   2.578  15.979  1.0405  0.1076  0.7855
  298TMC3    O1 4498   3.856   2.529  16.209 -0.2271  0.0388 -0.5321
  298TMC3    O2 4499   4.367   2.668  15.894  0.5447  0.3234  0.5098
  299MPD2     C 4500   0.590   2.700  10.327  0.5143  0.0577 -0.0031
  299MPD2    C1 4501   0.544   2.799  10.410 -0.1971  0.5685 -0.3556
  299MPD2    C2 4502   0.413   2.825  10.413  0.8193  0.7976  0.7089
  299MPD2    C3 4503   0.324   2.756  10.336 -0.1848  0.1084  0.0801
  299MPD2    C4 4504   0.365   2.657  10.257 -0.3139 -0.4493 -0.3583
  299MPD2    C5 4505   0.497   2.632  10.248  0.1350  0.3948  0.6971
  299MPD2     H 4506   0.372   2.905  10.473  0.0626  1.2684 -0.4430
  299MPD2    H1 4507   0.302   2.603  10.187 -1.0055  1.4994 -1.2348
  299MPD2    H2 4508   0.696   2.677  10.327  0.8835  1.8051  0.7427
  299MPD2    H3 4509   0.541   2.552  10.189 -0.7668 -1.2456  2.2487
  299MPD2     N 4510   0.186   2.777  10.362 -0.2031 -0.1870 -0.3076
  299MPD2    H5 4511   0.156   2.829  10.444  0.0105  2.1628 -1.7152
  299MPD2    N1 4512   0.643   2.875  10.476  0.1556  0.0690  0.6069
  299MPD2    H7 4513   0.737   2.837  10.468  0.4599  1.4785 -2.6820
  300TMC3    C1 4514   4.669   2.787  10.332 -0.1317 -0.1650  0.1610
  300TMC3    C2 4515   4.582   2.853  10.254 -0.7040  0.9554  0.8774
  300TMC3    C3 4516   4.458   2.874  10.302  0.2601  0.2759  0.0026
  300TMC3    C4 4517   4.645   2.746  10.458  0.0510 -0.0305  0.3383
  300TMC3    C5 4518   4.524   2.769  10.506 -0.2071 -0.6261  0.2228
  300TMC3    C6 4519   4.428   2.833  10.428 -0.1180 -0.2833 -0.4621
  300TMC3     C 4520   0.079   2.749  10.275 -0.3921  0.0416  0.1513
  300TMC3     O 4521   0.081   2.729  10.153 -0.2351 -0.5519  0.0675
  300TMC3     H 4522   4.606   2.882  10.153  1.0515  0.9604  1.3021
  300TMC3    H1 4523   0.002   2.695  10.512  0.6689  1.4468  0.8404
  300TMC3    H2 4524   4.326   2.833  10.463 -0.4224 -0.2391 -1.3596
  300TMC3    C7 4525   4.487   2.682  10.615 -0.3324 -0.1163 -0.0747
  300TMC3    C8 4526   4.420   3.013  10.299  0.3204 -0.8462  1.1311
  300TMC3    O1 4527   4.567   2.606  10.670 -0.5365  0.2708 -0.2336
  300TMC3    O2 4528   4.394   3.061  10.409 -0.4828  0.0965  0.3777
  301MPD2     C 4529   2.659   3.414   1.305 -0.1819  0.2262 -0.4335
  301MPD2    C1 4530   2.567   3.397   1.203  0.1831  0.0545 -0.1804
  301MPD2    C2 4531   2.592   3.287   1.120 -0.2315 -0.4277 -0.1365
  301MPD2    C3 4532   2.687   3.189   1.145  0.1822  0.3018  0.6253
  301MPD2    C4 4533   2.768   3.202   1.255  0.6671 -0.0694 -0.1203
  301MPD2    C5 4534   2.750   3.316   1.327  0.3020  0.2553 -0.3433
  301MPD2     H 4535   2.521   3.256   1.044 -0.3512 -3.0233  1.0225
  301MPD2    H1 4536   2.839   3.126   1.286  0.8520  0.5447  0.9571
  301MPD2    H2 4537   2.659   3.495   1.377  0.8397  0.3693 -0.5892
  301MPD2    H3 4538   2.807   3.335   1.417 -2.8044  4.5223  0.7400
  301MPD2     N 4539   2.703   3.073   1.067  0.2630  0.6297  0.3900
  301MPD2    H5 4540   2.778   3.016   1.104 -0.0212 -0.1746 -0.2770
  301MPD2    N1 4541   2.457   3.476   1.170 -0.0177  0.4322 -0.3129
  301MPD2    H7 4542   2.401   3.437   1.095 -0.1272  1.0722 -0.5596
  302TMC3    C1 4543   2.706   2.936   0.872 -0.0425  0.3223 -0.2957
  302TMC3    C2 4544   2.819   2.868   0.916 -0.2273 -0.2747 -0.0875
  302TMC3    C3 4545   2.876   2.779   0.831  0.7815  0.5943  0.6140
  302TMC3    C4 4546   2.652   2.907   0.750  0.6094 -0.1247  0.3950
  302TMC3    C5 4547   2.711   2.811   0.674 -0.3586 -0.0617 -0.7944
  302TMC3    C6 4548   2.825   2.751   0.709  0.3108  0.0295 -0.3046
  302TMC3     C 4549   2.635   3.042   0.951  0.0011  0.4683  0.0515
  302TMC3     O 4550   2.544   3.094   0.892  0.5269 -0.0158  0.4229
  302TMC3     H 4551   2.866   2.883   1.012  1.5322  0.9684 -1.1407
  302TMC3    H1 4552   2.566   2.963   0.715  0.0391 -0.8022  0.7334
  302TMC3    H2 4553   2.869   2.671   0.651  0.1212 -0.5938  0.4196
  302TMC3    C7 4554   2.658   2.786   0.537 -0.2506  0.0144 -1.2386
  302TMC3    C8 4555   2.944   2.663   0.891 -0.0031 -0.0190 -0.1146
  302TMC3    O1 4556   2.721   2.715   0.457  0.2998 -0.1243 -0.0229
  302TMC3    O2 4557   3.035   2.612   0.828 -0.4493 -0.4026 -0.5436
  303MPD2     C 4558   3.924   2.928   9.118 -0.1064  0.2209  0.2444
  303MPD2    C1 4559   3.922   2.802   9.070  0.5436  0.8397  0.2750
  303MPD2    C2 4560   3.945   2.695   9.158  0.4914 -0.1829  0.1598
  303MPD2    C3 4561   3.951   2.725   9.298 -0.1518 -0.7245  0.2039
  303MPD2    C4 4562   3.930   2.856   9.339 -0.4250  0.0047  0.6260
  303MPD2    C5 4563   3.917   2.957   9.250 -0.1086 -0.7281 -0.1876
  303MPD2     H 4564   3.955   2.598   9.109 -1.1290 -0.1499 -0.2602
  303MPD2    H1 4565   3.933   2.888   9.442 -0.2808  0.3619  0.5101
  303MPD2    H2 4566   3.924   3.010   9.048 -1.7234  0.7275  0.8202
  303MPD2    H3 4567   3.918   3.061   9.280  0.9781 -1.0783  0.9892
  303MPD2     N 4568   3.975   2.629   9.396 -0.2042 -0.2795  0.4091
  303MPD2    H5 4569   3.981   2.661   9.492 -0.1807  1.8452 -0.2961
  303MPD2    N1 4570   3.916   2.784   8.931  0.4129 -0.0976  0.2666
  303MPD2    H7 4571   3.949   2.859   8.872  1.5271 -1.1815 -0.4994
  304TMC3    C1 4572   3.895   2.675   8.727  0.1024 -0.1034 -0.0957
  304TMC3    C2 4573   4.020   2.693   8.684 -0.3976 -0.1341  0.5891
  304TMC3    C3 4574   4.053   2.643   8.561  0.0670 -0.2642 -0.8431
  304TMC3    C4 4575   3.805   2.613   8.649  0.3357 -0.1453 -0.2332
  304TMC3    C5 4576   3.836   2.567   8.523 -0.4912 -1.3280  0.1993
  304TMC3    C6 4577   3.956   2.591   8.475  0.5308  0.2428 -0.2507
  304TMC3     C 4578   3.861   2.679   8.868  0.0065 -0.0813  0.1116
  304TMC3     O 4579   3.792   2.592   8.921  0.0037 -0.2709  0.3276
  304TMC3     H 4580   4.097   2.728   8.752 -0.9589  1.6068  0.3071
  304TMC3    H1 4581   3.704   2.620   8.688  0.1533 -2.0078 -0.4015
  304TMC3    H2 4582   3.986   2.564   8.375 -1.6689  0.4474 -0.9553
  304TMC3    C7 4583   3.792   2.431   8.493  0.1886  0.3904  0.2570
  304TMC3    C8 4584   4.172   2.562   8.552  0.4167 -0.5134  0.4616
  304TMC3    O1 4585   3.883   2.354   8.468  0.1434  0.5061  0.4175
  304TMC3    O2 4586   4.280   2.610   8.584  0.5548  0.0173  0.0011
  305MPD2     C 4587   0.549   4.453  13.900 -0.3424  0.1284  0.0929
  305MPD2    C1 4588   0.547   4.319  13.912  0.2924 -0.3251  0.3525
  305MPD2    C2 4589   0.512   4.241  13.800 -0.6146 -0.6010  0.3550
  305MPD2    C3 4590   0.491   4.298  13.672 -0.3753  1.1208  0.3086
  305MPD2    C4 4591   0.507   4.437  13.661 -0.5695 -0.0058 -0.5491
  305MPD2    C5 4592   0.539   4.513  13.773  0.4380 -0.3923  0.6403
  305MPD2     H 4593   0.500   4.134  13.803 -1.0257 -0.5184  1.4748
  305MPD2    H1 4594   0.519   4.485  13.565 -1.1448 -1.0564 -1.1447
  305MPD2    H2 4595   0.581   4.516  13.983  0.5098 -2.2298  1.5429
  305MPD2    H3 4596   0.578   4.613  13.763 -0.6446 -0.0556 -0.2271
  305MPD2     N 4597   0.446   4.235  13.553  0.3888  0.2170  0.0935
  305MPD2    H5 4598   0.443   4.299  13.474 -0.1567 -1.9942 -1.6673
  305MPD2    N1 4599   0.574   4.269  14.042 -0.5120 -0.1148  0.6670
  305MPD2    H7 4600   0.621   4.332  14.107 -0.1846 -1.1133  1.4062
  306TMC3    C1 4601   0.602   4.119  14.214 -0.1275  0.1736 -0.4612
  306TMC3    C2 4602   0.726   4.072  14.245 -0.1274 -0.3227  0.5595
  306TMC3    C3 4603   0.795   4.112  14.355 -0.1553  0.2255  0.9042
  306TMC3    C4 4604   0.542   4.207  14.303  0.2781  0.0550  0.1759
  306TMC3    C5 4605   0.607   4.232  14.418 -0.1298 -0.5318  0.5264
  306TMC3    C6 4606   0.732   4.188  14.451  0.3553  0.6109  1.0829
  306TMC3     C 4607   0.584   4.140  14.071 -0.2206 -0.5135 -0.3285
  306TMC3     O 4608   0.582   4.044  13.999 -0.2079  0.7059 -0.0136
  306TMC3     H 4609   0.777   4.012  14.170 -1.0288 -1.7840  1.1225
  306TMC3    H1 4610   0.439   4.241  14.301  1.0125  2.2752 -0.5203
  306TMC3    H2 4611   0.770   4.178  14.552 -2.0516 -2.0303  1.7623
  306TMC3    C7 4612   0.548   4.321  14.509 -0.7137 -1.0472 -0.3749
  306TMC3    C8 4613   0.897   4.020  14.400 -0.7601 -0.2276  0.3470
  306TMC3    O1 4614   0.426   4.329  14.514  0.1296  0.1657  0.8303
  306TMC3    O2 4615   0.890   3.908  14.360  0.6758 -0.1193  0.1517
  307MPD2     C 4616   2.904   1.008   0.987  0.2179  0.7393 -0.2713
  307MPD2    C1 4617   2.900   1.129   0.934 -0.3960  0.2205 -0.1829
  307MPD2    C2 4618   2.779   1.190   0.937  0.7431 -0.3409 -0.8315
  307MPD2    C3 4619   2.672   1.140   1.012  0.1585  0.1293  0.4407
  307MPD2    C4 4620   2.683   1.017   1.079  0.3147  0.3096  0.3061
  307MPD2    C5 4621   2.799   0.950   1.059 -0.1775 -0.6660  0.0542
  307MPD2     H 4622   2.769   1.282   0.880  1.1967 -0.9241 -1.8488
  307MPD2    H1 4623   2.603   0.976   1.140  0.0719  0.7989  0.3126
  307MPD2    H2 4624   2.992   0.948   0.966  0.4643  0.2249  2.1698
  307MPD2    H3 4625   2.824   0.851   1.098  2.0149 -1.3244 -3.0439
  307MPD2     N 4626   2.558   1.221   1.017  0.2177  0.9997  0.1559
  307MPD2    H5 4627   2.562   1.314   0.976 -2.6696  1.2158  0.3543
  307MPD2    N1 4628   3.003   1.183   0.860 -0.5786  0.2205 -0.1607
  307MPD2    H7 4629   2.980   1.270   0.813 -0.9287  0.6932  0.8893
  308TMC3    C1 4630   2.195   1.419   0.898 -0.1694  0.2201  0.1353
  308TMC3    C2 4631   2.261   1.538   0.921 -0.0715 -1.1386 -0.4278
  308TMC3    C3 4632   2.352   1.533   1.022  0.0249  0.7396 -0.3465
  308TMC3    C4 4633   2.235   1.304   0.957 -0.7635  0.4338 -0.2441
  308TMC3    C5 4634   2.339   1.297   1.045 -0.5582  0.0108 -0.4484
  308TMC3    C6 4635   2.391   1.416   1.086 -0.2350  0.9677 -0.4533
  308TMC3     C 4636   2.078   1.420   0.815 -0.7677  0.0209  0.6262
  308TMC3     O 4637   2.004   1.319   0.813  0.7407 -0.3294 -0.0918
  308TMC3     H 4638   2.223   1.631   0.882 -1.4645 -0.8810  1.5669
  308TMC3    H1 4639   2.189   1.217   0.911  0.3680  0.3760 -1.2531
  308TMC3    H2 4640   2.477   1.406   1.152  0.3973  0.0773 -1.4308
  308TMC3    C7 4641   2.430   1.186   1.062 -0.3197 -0.3233 -0.4672
  308TMC3    C8 4642   2.435   1.652   1.053 -0.2125  0.0086 -0.2130
  308TMC3    O1 4643   2.393   1.087   1.123  0.4408 -0.3692 -0.7013
  308TMC3    O2 4644   2.506   1.637   1.152 -0.2578  0.6335 -0.4431
  309MPD2     C 4645   2.354   2.531  17.119 -0.0211 -0.8174 -0.4177
  309MPD2    C1 4646   2.296   2.578  16.999 -0.8026  0.5849  0.2516
  309MPD2    C2 4647   2.175   2.638  17.019 -0.6527 -0.0501 -0.2744
  309MPD2    C3 4648   2.103   2.646  17.134 -0.1815  0.1752 -0.6782
  309MPD2    C4 4649   2.155   2.587  17.246 -0.6452 -1.0771 -0.0620
  309MPD2    C5 4650   2.284   2.533  17.236 -0.4171  0.0708 -0.4086
  309MPD2     H 4651   2.134   2.668  16.923  0.6517  0.6095 -0.6388
  309MPD2    H1 4652   2.094   2.579  17.336 -1.0584 -2.1587 -0.4342
  309MPD2    H2 4653   2.449   2.478  17.129 -1.1147 -2.6492  0.3637
  309MPD2    H3 4654   2.337   2.496  17.323 -1.0632 -0.4779 -0.2443
  309MPD2     N 4655   1.977   2.714  17.141  0.1344  0.2142 -0.4694
  309MPD2    H5 4656   1.923   2.708  17.227 -1.2241 -1.8880 -1.4648
  309MPD2    N1 4657   2.357   2.569  16.874 -0.3206 -0.5965 -0.0803
  309MPD2    H7 4658   2.299   2.607  16.801 -2.2275 -1.2142  1.1051
  310TMC3    C1 4659   2.522   2.496  16.712 -0.0960 -0.5754 -0.5493
  310TMC3    C2 4660   2.442   2.533  16.606  0.0476  0.1333 -0.1439
  310TMC3    C3 4661   2.488   2.507  16.476 -0.2361 -0.7273 -0.6212
  310TMC3    C4 4662   2.647   2.455  16.690  0.1707  0.3876  0.0630
  310TMC3    C5 4663   2.695   2.436  16.562 -0.5138  0.3146  0.1062
  310TMC3    C6 4664   2.619   2.463  16.450 -0.1613  0.1906  0.2862
  310TMC3     C 4665   2.479   2.507  16.849  0.9442  0.5924 -0.1432
  310TMC3     O 4666   2.561   2.466  16.931 -0.5431 -0.1410 -0.1240
  310TMC3     H 4667   2.345   2.577  16.630  0.5837  1.0649  0.3196
  310TMC3    H1 4668   2.710   2.447  16.778  0.5705 -2.0327 -0.4212
  310TMC3    H2 4669   2.646   2.437  16.348  1.1704  3.7829 -0.2903
  310TMC3    C7 4670   2.821   2.369  16.536 -0.3505  0.4175 -0.2056
  310TMC3    C8 4671   2.415   2.576  16.369 -0.3033  0.2116  0.2933
  310TMC3    O1 4672   2.825   2.303  16.432  0.8052  0.5081  0.4675
  310TMC3    O2 4673   2.343   2.669  16.402 -0.1552 -0.1189 -0.2620
  311MPD2     C 4674   4.387   4.203  12.430 -0.3715 -0.6152  0.3053
  311MPD2    C1 4675   4.474   4.248  12.527  0.4527  0.3890  0.1452
  311MPD2    C2 4676   4.447   4.210  12.659 -0.0213  0.4838 -0.5893
  311MPD2    C3 4677   4.336   4.132  12.687 -0.1312 -0.6756  0.1833
  311MPD2    C4 4678   4.254   4.086  12.588  0.6307 -0.4847 -0.6724
  311MPD2    C5 4679   4.283   4.122  12.462  0.5267 -0.4665  0.9608
  311MPD2     H 4680   4.503   4.261  12.736 -0.5167  0.5587 -0.2727
  311MPD2    H1 4681   4.171   4.018  12.596  1.6298 -1.7119 -0.7849
  311MPD2    H2 4682   4.396   4.243  12.330 -2.8821 -1.8416 -0.4156
  311MPD2    H3 4683   4.223   4.090  12.377  1.7806 -0.6248  0.1428
  311MPD2     N 4684   4.303   4.097  12.822  1.2142  0.4355  0.3819
  311MPD2    H5 4685   4.376   4.119  12.888  1.4259 -2.1679  0.9944
  311MPD2    N1 4686   4.595   4.314  12.500 -0.9258  0.4640 -0.2699
  311MPD2    H7 4687   4.647   4.345  12.582  1.6615 -2.2350 -0.8715
  312TMC3    C1 4688   4.190   3.991  12.998  0.0920 -0.2909 -0.1066
  312TMC3    C2 4689   4.084   3.908  13.026 -0.5843 -0.1147  0.1123
  312TMC3    C3 4690   4.039   3.897  13.152  0.0565 -0.5354 -0.1256
  312TMC3    C4 4691   4.250   4.067  13.092  0.0610  0.1816 -0.0673
  312TMC3    C5 4692   4.204   4.051  13.220  0.0366 -0.1124  0.2889
  312TMC3    C6 4693   4.092   3.971  13.252 -0.2438  0.4373 -0.2414
  312TMC3     C 4694   4.190   4.029  12.859 -0.3566  0.1821  0.1073
  312TMC3     O 4695   4.087   4.001  12.801 -0.0569  0.0497 -0.1889
  312TMC3     H 4696   4.063   3.830  12.954  2.0740  1.5226 -2.3964
  312TMC3    H1 4697   4.340   4.125  13.075  1.1695 -1.2134  1.0107
  312TMC3    H2 4698   4.054   3.973  13.354 -0.1982 -1.0317 -0.1936
  312TMC3    C7 4699   4.280   4.116  13.329  0.6408  1.2871  0.5052
  312TMC3    C8 4700   3.911   3.828  13.168  0.3017 -0.6901  0.5972
  312TMC3    O1 4701   4.354   4.209  13.293 -0.9063  0.2876 -0.3472
  312TMC3    O2 4702   3.893   3.725  13.102  0.1883 -0.6075 -0.6380
  313MPD2     C 4703   3.298   3.261  11.069 -0.8451  0.2781  0.6824
  313MPD2    C1 4704   3.413   3.299  11.005 -0.7884  0.3113  0.0956
  313MPD2    C2 4705   3.490   3.199  10.945  0.8366  0.1861  0.3152
  313MPD2    C3 4706   3.457   3.065  10.955  0.0896  0.1965  0.1795
  313MPD2    C4 4707   3.341   3.035  11.024  0.2761  0.8736 -0.2028
  313MPD2    C5 4708   3.265   3.134  11.080  0.3798  0.6186 -0.1191
  313MPD2     H 4709   3.581   3.219  10.890  0.1799  1.5494 -0.2569
  313MPD2    H1 4710   3.297   2.937  11.040 -0.9130  1.0060 -2.7043
  313MPD2    H2 4711   3.240   3.336  11.122  0.5494  0.5259  1.8309
  313MPD2    H3 4712   3.173   3.104  11.129 -0.1978  0.5922 -1.2440
  313MPD2     N 4713   3.538   2.974  10.886  0.0884  0.2633 -0.0730
  313MPD2    H5 4714   3.631   2.999  10.852 -0.3816 -1.6256 -2.7247
  313MPD2    N1 4715   3.454   3.437  10.989 -1.0518  0.0062 -0.4324
  313MPD2    H7 4716   3.538   3.450  10.934 -0.8973  0.1388 -0.1622
  314TMC3    C1 4717   3.452   3.666  10.989  0.9544 -0.2437  0.1633
  314TMC3    C2 4718   3.580   3.693  11.023 -0.3656  0.1831  0.0045
  314TMC3    C3 4719   3.624   3.810  10.974  0.2992 -0.2718 -0.1779
  314TMC3    C4 4720   3.369   3.750  10.920  0.0566 -0.0529 -0.0889
  314TMC3    C5 4721   3.415   3.866  10.878  0.4268  0.2313  0.2570
  314TMC3    C6 4722   3.548   3.896  10.894 -0.1938 -0.2653  0.1631
  314TMC3     C 4723   3.385   3.548  11.033 -0.7354 -0.0086  0.0062
  314TMC3     O 4724   3.274   3.562  11.086 -0.1248  0.2125 -0.2076
  314TMC3     H 4725   3.648   3.623  11.072  1.2392  1.6351 -0.1309
  314TMC3    H1 4726   3.265   3.721  10.917 -0.4034  1.3635  1.7825
  314TMC3    H2 4727   3.579   3.998  10.875  2.0609 -0.8660  0.6394
  314TMC3    C7 4728   3.378   3.888  10.738 -0.1039  0.5230  0.8638
  314TMC3    C8 4729   3.761   3.851  11.010 -0.1035  0.0620  0.1813
  314TMC3    O1 4730   3.283   3.827  10.697  0.5110 -0.1673  0.3833
  314TMC3    O2 4731   3.812   3.940  10.940  0.5886  0.2565  0.1589
  315MPD2     C 4732   3.742   1.746  17.103  1.1255  0.6081 -0.5886
  315MPD2    C1 4733   3.788   1.778  17.228  0.1995  0.2615  0.0470
  315MPD2    C2 4734   3.812   1.909  17.262  0.1129  0.1890  0.2321
  315MPD2    C3 4735   3.806   2.010  17.161 -0.5322  0.1793 -0.0302
  315MPD2    C4 4736   3.774   1.972  17.036 -0.1580 -0.0344 -0.0295
  315MPD2    C5 4737   3.747   1.840  17.004 -0.0789 -0.0080  0.3215
  315MPD2     H 4738   3.846   1.931  17.363 -3.7113  1.3170  1.2869
  315MPD2    H1 4739   3.785   2.038  16.950  0.8347  1.8029  1.5071
  315MPD2    H2 4740   3.732   1.642  17.073 -0.7510  0.7701 -0.4979
  315MPD2    H3 4741   3.744   1.814  16.899 -0.0631 -0.2211  0.3746
  315MPD2     N 4742   3.826   2.144  17.199 -0.2553  0.3781  0.4468
  315MPD2    H5 4743   3.845   2.165  17.296 -1.5619  0.1584  0.7534
  315MPD2    N1 4744   3.802   1.684  17.336 -0.0607 -0.8367 -0.7180
  315MPD2    H7 4745   3.816   1.719  17.430  1.2496 -1.0058 -0.8555
  316TMC3    C1 4746   3.854   2.385  17.178  0.1443 -0.2126 -0.1560
  316TMC3    C2 4747   3.926   2.379  17.293  0.4308 -0.8297 -0.4443
  316TMC3    C3 4748   3.931   2.496  17.367  0.6183  0.0271  0.4066
  316TMC3    C4 4749   3.776   2.487  17.141  0.1363  0.1102 -0.0838
  316TMC3    C5 4750   3.787   2.600  17.214  0.7184 -0.2140  0.2832
  316TMC3    C6 4751   3.866   2.607  17.326  0.2644 -0.4981 -0.0041
  316TMC3     C 4752   3.821   2.254  17.115 -0.2934  0.4579 -0.2818
  316TMC3     O 4753   3.781   2.252  16.996  0.2023 -0.1321  0.0842
  316TMC3     H 4754   3.981   2.288  17.315  0.4846 -1.0110 -1.3333
  316TMC3    H1 4755   3.712   2.464  17.057  0.4062  2.7829 -1.0074
  316TMC3    H2 4756   3.897   2.700  17.373  0.2493 -0.0239 -0.9336
  316TMC3    C7 4757   3.702   2.712  17.190  0.0046  0.1968  0.3054
  316TMC3    C8 4758   3.962   2.495  17.511  0.1668  0.5264  0.5188
  316TMC3    O1 4759   3.727   2.814  17.250  0.3959  0.4350 -0.3432
  316TMC3    O2 4760   3.931   2.590  17.578  0.2130  0.1739 -0.6216
  317MPD2     C 4761   1.036   1.416  12.925  0.2698  0.0439 -0.4117
  317MPD2    C1 4762   1.086   1.306  12.857 -0.6762 -0.1479 -0.0578
  317MPD2    C2 4763   1.185   1.232  12.926  0.1872  0.3514 -0.3158
  317MPD2    C3 4764   1.229   1.271  13.049  0.1661  0.1777 -0.7312
  317MPD2    C4 4765   1.186   1.391  13.102  0.2012 -0.3383 -0.3892
  317MPD2    C5 4766   1.087   1.461  13.040  1.5683  0.0686 -0.0719
  317MPD2     H 4767   1.229   1.142  12.886  0.3016  0.9370 -1.5064
  317MPD2    H1 4768   1.219   1.431  13.197 -0.2854  1.9850 -1.2061
  317MPD2    H2 4769   0.965   1.482  12.878  0.0614  2.4313  3.2471
  317MPD2    H3 4770   1.053   1.555  13.082 -1.0961 -1.1414  0.4899
  317MPD2     N 4771   1.322   1.189  13.109  0.5424 -0.5073 -0.5550
  317MPD2    H5 4772   1.345   1.109  13.051 -1.4054  0.1698 -2.2799
  317MPD2    N1 4773   1.043   1.275  12.722 -0.3582 -0.5051  0.3785
  317MPD2    H7 4774   1.095   1.199  12.679  0.0585 -0.6659  1.1773
  318TMC3    C1 4775   1.429   1.064  13.266  0.9773  0.4684 -0.2899
  318TMC3    C2 4776   1.362   0.959  13.217 -0.2256 -0.1662  0.0346
  318TMC3    C3 4777   1.396   0.841  13.271  0.3315 -0.2748  0.1949
  318TMC3    C4 4778   1.525   1.058  13.360  0.2800 -0.5403 -0.2270
  318TMC3    C5 4779   1.557   0.933  13.417 -0.1483  1.1480 -0.1223
  318TMC3    C6 4780   1.496   0.822  13.358  0.5810  0.5209  0.1657
  318TMC3     C 4781   1.382   1.195  13.231 -0.6601  0.3839  0.1534
  318TMC3     O 4782   1.371   1.283  13.317  0.2738  0.2106 -0.5868
  318TMC3     H 4783   1.272   0.977  13.160  1.2623  0.1429 -2.2005
  318TMC3    H1 4784   1.578   1.139  13.409  0.1755 -1.6177  1.6200
  318TMC3    H2 4785   1.511   0.724  13.401  3.3432 -0.5760 -3.3350
  318TMC3    C7 4786   1.667   0.919  13.518 -0.0793 -0.0293  0.3448
  318TMC3    C8 4787   1.317   0.722  13.239 -0.6978  0.1564 -0.2404
  318TMC3    O1 4788   1.704   1.018  13.571 -0.2672 -0.5373 -0.1875
  318TMC3    O2 4789   1.354   0.607  13.255 -0.8982  0.3156  0.2597
  319MPD2     C 4790   2.244   2.240  16.558 -0.1613 -0.6021 -0.6812
  319MPD2    C1 4791   2.188   2.232  16.684 -1.0332  0.3526 -0.2418
  319MPD2    C2 4792   2.053   2.270  16.699 -0.2411  0.3099  0.4944
  319MPD2    C3 4793   1.971   2.309  16.594  0.2272 -0.4552  0.9442
  319MPD2    C4 4794   2.033   2.321  16.475  0.4274 -0.5286  0.1504
  319MPD2    C5 4795   2.165   2.280  16.458 -0.1563  0.2066  0.4074
  319MPD2     H 4796   2.011   2.266  16.799 -0.7393  0.1494  0.2811
  319MPD2    H1 4797   1.971   2.355  16.393  0.4373  1.4463  0.9713
  319MPD2    H2 4798   2.346   2.215  16.530 -0.0709 -0.0207 -0.8702
  319MPD2    H3 4799   2.221   2.283  16.365 -1.2945 -0.3763 -0.3008
  319MPD2     N 4800   1.836   2.340  16.613 -0.2754 -0.0735  0.0925
  319MPD2    H5 4801   1.791   2.385  16.534  0.5251  0.7490  0.1002
  319MPD2    N1 4802   2.265   2.211  16.798  0.3374 -0.1936 -0.6685
  319MPD2    H7 4803   2.215   2.228  16.884  0.1928  1.0994 -1.0083
  320TMC3    C1 4804   1.620   2.362  16.702  0.4403 -0.0957  0.3198
  320TMC3    C2 4805   1.598   2.472  16.625  0.4556  0.0605  0.2062
  320TMC3    C3 4806   1.465   2.507  16.607 -0.7195 -0.1613  0.5499
  320TMC3    C4 4807   1.513   2.306  16.765 -0.6616 -0.1762 -0.7753
  320TMC3    C5 4808   1.383   2.338  16.740 -0.1775 -0.0630 -0.2987
  320TMC3    C6 4809   1.357   2.441  16.657  0.6002  0.9549 -0.1954
  320TMC3     C 4810   1.755   2.300  16.718 -0.0087 -0.2884 -0.4106
  320TMC3     O 4811   1.784   2.222  16.807 -0.7575 -0.0069 -0.1283
  320TMC3     H 4812   1.675   2.546  16.603 -1.6848  1.7669 -1.5565
  320TMC3    H1 4813   1.556   2.224  16.822  2.1217  1.1321 -0.9680
  320TMC3    H2 4814   1.255   2.469  16.637 -0.0332 -1.3822 -0.2308
  320TMC3    C7 4815   1.287   2.224  16.742 -0.0913  0.1110 -0.2314
  320TMC3    C8 4816   1.424   2.600  16.508  0.1628 -0.2405  0.1102
  320TMC3    O1 4817   1.217   2.208  16.646 -0.1816 -0.0737 -0.4064
  320TMC3    O2 4818   1.317   2.655  16.521 -0.0482 -0.2165 -0.3683
  321TMC3    C1 4819   2.448   2.133  16.930 -0.2847 -0.5893  0.4431
  321TMC3    C2 4820   2.360   2.099  17.030 -0.0867  0.2894 -0.6846
  321TMC3    C3 4821   2.403   2.095  17.162  0.4275  0.4378  0.1424
  321TMC3    C4 4822   2.577   2.159  16.962  0.0607 -0.9877 -0.4027
  321TMC3    C5 4823   2.615   2.147  17.089  0.3608 -0.4048 -1.2570
  321TMC3    C6 4824   2.533   2.133  17.189  0.0452  0.5950 -0.2593
  321TMC3     C 4825   2.397   2.179  16.802 -0.3994  0.3855  0.3034
  321TMC3     O 4826   2.478   2.165  16.710 -0.0231  1.0977  0.1958
  321TMC3     H 4827   2.260   2.066  17.004 -0.5662  0.1844  1.2980
  321TMC3    H1 4828   2.653   2.182  16.887 -0.8878 -0.5044 -1.2158
  321TMC3    H2 4829   2.558   2.138  17.294  0.5388  0.3266 -0.3639
  321TMC3    C7 4830   2.736   2.075  17.112 -0.0687  0.4567 -0.3657
  321TMC3    C8 4831   2.352   1.990  17.240  0.7162  0.0575  0.1633
  321TMC3    O1 4832   2.719   1.956  17.133  0.0610  0.0213  0.1601
  321TMC3    O2 4833   2.238   1.996  17.285 -0.0352  0.4842  0.7079
  322MPD2     C 4834   0.479   3.606  13.527 -0.6676  0.7122 -0.0118
  322MPD2    C1 4835   0.482   3.530  13.643  0.4715  0.1967 -0.2073
  322MPD2    C2 4836   0.485   3.391  13.630  0.3803  0.0882  0.4327
  322MPD2    C3 4837   0.489   3.322  13.510 -0.0606 -0.9486  1.0910
  322MPD2    C4 4838   0.483   3.403  13.398 -0.4921 -0.1056 -0.2225
  322MPD2    C5 4839   0.473   3.541  13.408 -0.2353 -0.3003  0.1046
  322MPD2     H 4840   0.487   3.331  13.720 -0.7538  0.3962  0.6714
  322MPD2    H1 4841   0.467   3.356  13.302  0.6225 -2.6424  0.8463
  322MPD2    H2 4842   0.492   3.714  13.529 -1.2121  0.8305 -1.9898
  322MPD2    H3 4843   0.453   3.602  13.320 -0.1457  0.2190  0.4454
  322MPD2     N 4844   0.508   3.178  13.522 -0.7547 -0.6241  0.2226
  322MPD2    H5 4845   0.540   3.141  13.610  1.4138  0.9641  0.1015
  322MPD2    N1 4846   0.507   3.597  13.766  0.1557  0.3090 -0.2731
  322MPD2    H7 4847   0.508   3.699  13.771 -0.1116  0.3809 -1.6114
  323TMC3    C1 4848   0.565   3.614  13.995 -0.2465 -0.5778 -0.5114
  323TMC3    C2 4849   0.655   3.710  13.967 -0.0904  0.3095  0.1431
  323TMC3    C3 4850   0.748   3.753  14.056 -0.0905  0.2574  0.0255
  323TMC3    C4 4851   0.578   3.553  14.118  1.0441  0.2010 -0.0493
  323TMC3    C5 4852   0.668   3.599  14.208 -0.7374 -0.0969  0.2016
  323TMC3    C6 4853   0.753   3.699  14.181  0.0047 -0.0620 -0.7662
  323TMC3     C 4854   0.518   3.531  13.891 -0.2757 -0.2478  0.0513
  323TMC3     O 4855   0.495   3.415  13.926 -0.5342  0.1664  0.5982
  323TMC3     H 4856   0.664   3.763  13.873 -2.5592  1.9122  0.8319
  323TMC3    H1 4857   0.512   3.472  14.145 -0.4236  1.1629 -0.7626
  323TMC3    H2 4858   0.842   3.713  14.242 -0.5964  0.0368  0.0826
  323TMC3    C7 4859   0.675   3.528  14.334  0.5686 -0.3039  0.8716
  323TMC3    C8 4860   0.865   3.819  14.011  0.2171  0.1458 -0.0291
  323TMC3    O1 4861   0.661   3.404  14.329 -0.1782 -0.3385 -0.6351
  323TMC3    O2 4862   0.961   3.778  14.072  0.1020  0.1661  0.3409
  324MPD2     C 4863   2.377   4.251  14.003  0.2292 -0.3321  0.1864
  324MPD2    C1 4864   2.381   4.376  14.062  0.2770  0.9437 -0.4274
  324MPD2    C2 4865   2.280   4.466  14.023 -0.0464 -0.0845  0.4579
  324MPD2    C3 4866   2.173   4.423  13.940 -0.4851 -0.1677  0.0056
  324MPD2    C4 4867   2.176   4.289  13.890 -0.4820 -0.2456  0.7618
  324MPD2    C5 4868   2.281   4.207  13.921 -0.6193 -0.3486 -0.3350
  324MPD2     H 4869   2.278   4.566  14.066  1.9144  0.0473  0.2517
  324MPD2    H1 4870   2.106   4.241  13.823  1.1378 -0.2396 -0.9154
  324MPD2    H2 4871   2.463   4.184  14.005 -1.3150 -2.2978  0.5499
  324MPD2    H3 4872   2.282   4.110  13.873 -1.9677 -1.4267  1.8368
  324MPD2     N 4873   2.067   4.508  13.903 -0.0275  0.2803  0.2997
  324MPD2    H5 4874   1.992   4.457  13.859 -0.1903 -0.0981  1.0114
  324MPD2    N1 4875   2.487   4.422  14.147 -1.1869 -0.2837  0.0480
  324MPD2    H7 4876   2.476   4.515  14.184 -1.5604 -0.9186  1.5444
  325TMC3    C1 4877   1.928   4.702  13.946 -0.0484  0.0277  0.0253
  325TMC3    C2 4878   1.841   4.655  13.857 -0.0027  0.2154 -0.1554
  325TMC3    C3 4879   1.718   4.717  13.853 -0.5236 -0.5254 -0.2681
  325TMC3    C4 4880   1.903   0.095  14.021 -0.7320 -0.2177  0.6620
  325TMC3    C5 4881   1.784   0.152  14.016  0.2424 -0.4259  0.0777
  325TMC3    C6 4882   1.691   0.112  13.928 -0.3836 -0.3853  0.4534
  325TMC3     C 4883   2.058   4.639  13.954  0.1916  0.9936  0.1195
  325TMC3     O 4884   2.139   4.714  14.001  0.3441  0.2339  0.3241
  325TMC3     H 4885   1.854   4.558  13.810 -0.9283  0.3504 -0.6978
  325TMC3    H1 4886   1.965   0.135  14.101  1.2403  0.3851 -1.1803
  325TMC3    H2 4887   1.604   0.174  13.915  0.9686  1.5065  0.4984
  325TMC3    C7 4888   1.780   0.294  14.042 -0.0742 -0.2525  0.4038
  325TMC3    C8 4889   1.613   4.653  13.780  0.1353 -0.4891  0.2246
  325TMC3    O1 4890   1.874   0.365  14.009  0.2773  0.2282 -0.2868
  325TMC3    O2 4891   1.651   4.555  13.718  0.4834 -0.4184  0.0167
  326MPD2     C 4892   3.451   0.762  11.305  0.2818 -0.6571  0.1024
  326MPD2    C1 4893   3.426   0.808  11.176 -0.6398 -0.1499 -0.2326
  326MPD2    C2 4894   3.503   0.901  11.118 -0.5892  0.2400 -0.6009
  326MPD2    C3 4895   3.619   0.951  11.180  0.0449  0.2714  0.1746
  326MPD2    C4 4896   3.651   0.889  11.299 -0.1305  0.0329  0.1166
  326MPD2    C5 4897   3.570   0.798  11.369 -0.5567  0.1363 -1.3849
  326MPD2     H 4898   3.477   0.938  11.020 -2.0883  3.7921  1.1268
  326MPD2    H1 4899   3.742   0.915  11.351 -0.2660  1.1750 -0.2117
  326MPD2    H2 4900   3.388   0.697  11.365 -1.0726 -0.2201 -0.8437
  326MPD2    H3 4901   3.590   0.765  11.470  0.2172 -1.0765 -1.9383
  326MPD2     N 4902   3.701   1.045  11.104 -0.1841  0.1948 -0.1526
  326MPD2    H5 4903   3.670   1.083  11.015  0.2813 -2.7877 -1.5763
  326MPD2    N1 4904   3.306   0.781  11.105  0.5062 -0.4113  0.1332
  326MPD2    H7 4905   3.306   0.839  11.022  0.3362  0.2070  0.5613
  327TMC3    C1 4906   3.242   0.612  10.975 -0.6091 -0.1591 -0.9569
  327TMC3    C2 4907   3.126   0.656  10.915 -0.8030  0.7342  0.2926
  327TMC3    C3 4908   3.135   0.693  10.783 -0.0574 -0.7869 -0.0258
  327TMC3    C4 4909   3.359   0.595  10.908 -0.3312 -0.3345  0.1654
  327TMC3    C5 4910   3.359   0.636  10.770 -0.1952  0.4059 -0.3302
  327TMC3    C6 4911   3.243   0.680  10.706 -0.1500 -0.3279  0.1783
  327TMC3     C 4912   3.262   0.651  11.108 -0.5004  0.5674  0.5932
  327TMC3     O 4913   3.302   0.563  11.181 -0.4131  0.2245 -0.2612
  327TMC3     H 4914   3.053   0.706  10.978 -1.3095  0.8878 -0.4077
  327TMC3    H1 4915   3.453   0.588  10.961 -0.1169  2.0243  0.1260
  327TMC3    H2 4916   3.244   0.724  10.607 -2.5596  0.3900  0.4540
  327TMC3    C7 4917   3.482   0.695  10.716 -0.0043  0.0998  0.4916
  327TMC3    C8 4918   3.027   0.757  10.715 -0.2990  0.1902  0.3491
  327TMC3    O1 4919   3.462   0.758  10.612 -0.6122 -0.4830  0.2364
  327TMC3    O2 4920   3.061   0.833  10.625 -0.2445  0.2805  0.0142
  328MPD2     C 4921   1.418   0.717  17.299 -0.4751  0.0610  0.5947
  328MPD2    C1 4922   1.297   0.674  17.250 -0.6037  0.2372  0.1443
  328MPD2    C2 4923   1.186   0.765  17.230  0.4984  0.0930 -0.3766
  328MPD2    C3 4924   1.202   0.897  17.289  0.1835 -0.2035  0.7200
  328MPD2    C4 4925   1.323   0.933  17.331  1.4783 -0.4903 -0.1929
  328MPD2    C5 4926   1.426   0.841  17.350 -0.2206  0.3530 -1.0094
  328MPD2     H 4927   1.088   0.728  17.203  0.3841  0.6443 -0.7201
  328MPD2    H1 4928   1.340   1.026  17.384  3.7564 -1.4546  0.7708
  328MPD2    H2 4929   1.499   0.648  17.320 -0.4603  0.6865  2.6253
  328MPD2    H3 4930   1.516   0.875  17.400 -1.1863 -0.6135  1.3703
  328MPD2     N 4931   1.099   0.989  17.306 -0.6777 -0.1173 -0.3518
  328MPD2    H5 4932   1.131   1.075  17.349 -1.5870  0.8287 -1.5542
  328MPD2    N1 4933   1.291   0.538  17.213  0.2231 -0.7623  0.4072
  328MPD2    H7 4934   1.373   0.483  17.235  0.8649 -0.3192 -0.9193
  329TMC3    C1 4935   1.195   0.334  17.153 -0.0579 -0.5298 -0.0923
  329TMC3    C2 4936   1.069   0.283  17.141 -0.3330 -0.3956 -0.3931
  329TMC3    C3 4937   1.032   0.177  17.217 -0.7163  0.3506 -0.5795
  329TMC3    C4 4938   1.286   0.270  17.237 -0.3212  0.2418 -0.2279
  329TMC3    C5 4939   1.247   0.161  17.302  0.1372 -0.0661  1.2971
  329TMC3    C6 4940   1.120   0.101  17.300 -0.3225  0.5452  0.4976
  329TMC3     C 4941   1.195   0.477  17.138  0.4814 -0.1356 -0.2597
  329TMC3     O 4942   1.102   0.523  17.071  0.0767 -0.0058  0.3520
  329TMC3     H 4943   0.995   0.340  17.086  1.0850  2.0746  0.2519
  329TMC3    H1 4944   1.390   0.298  17.221  0.4729 -3.0085 -0.8100
  329TMC3    H2 4945   1.080   0.010  17.343  0.4053 -0.4401 -0.9192
  329TMC3    C7 4946   1.354   0.074  17.338  0.0684 -0.4228 -0.9325
  329TMC3    C8 4947   0.887   0.153  17.231  0.1544  0.6279  0.1041
  329TMC3    O1 4948   1.468   0.111  17.314 -0.4058 -0.1123  0.2282
  329TMC3    O2 4949   0.809   0.178  17.140 -0.7733 -0.0121  0.2589
  330TMC3    C1 4950   4.239   0.241   9.909  0.0266 -0.2691  0.1733
  330TMC3    C2 4951   4.165   0.193   9.803  0.1452 -0.4512  0.4184
  330TMC3    C3 4952   4.146   0.057   9.776 -0.1561 -0.1321 -0.0379
  330TMC3    C4 4953   4.314   0.150   9.977 -0.2410 -0.4018 -0.2069
  330TMC3    C5 4954   4.298   0.017   9.945  0.4649 -0.2177 -0.0770
  330TMC3    C6 4955   4.217   4.688   9.843  0.2774 -0.1468  1.0317
  330TMC3     C 4956   4.240   0.383   9.941  0.4077  0.7678  0.2970
  330TMC3     O 4957   4.292   0.413  10.051  0.1314 -0.1153 -0.5455
  330TMC3     H 4958   4.092   0.254   9.751 -0.5436 -3.0964 -1.7366
  330TMC3    H1 4959   4.373   0.180  10.064 -0.2645 -1.6875  0.2535
  330TMC3    H2 4960   4.202   4.581   9.834  0.9987  0.1361 -3.3150
  330TMC3    C7 4961   4.419   4.663   9.977 -0.0679  0.0756 -0.2939
  330TMC3    C8 4962   4.092   0.021   9.648 -0.9538 -0.6504  0.1104
  330TMC3    O1 4963   4.511   0.018   9.995  1.0673  0.4772  0.5170
  330TMC3    O2 4964   4.110   0.105   9.558 -0.3878  0.5100  0.3442
  331MPD2     C 4965   1.456   3.554  12.871  0.0900 -0.6500  0.6407
  331MPD2    C1 4966   1.564   3.634  12.856  0.8797  0.8595 -0.5612
  331MPD2    C2 4967   1.684   3.577  12.849 -0.1043  1.1377  0.7226
  331MPD2    C3 4968   1.701   3.445  12.857 -0.5519  0.1764  0.3628
  331MPD2    C4 4969   1.591   3.359  12.870  0.1356 -1.1077 -0.5786
  331MPD2    C5 4970   1.469   3.418  12.884 -0.2495  0.3436  0.1037
  331MPD2     H 4971   1.776   3.632  12.835 -0.1615  0.8302 -0.9127
  331MPD2    H1 4972   1.602   3.251  12.862  1.8886 -1.0273  0.6163
  331MPD2    H2 4973   1.357   3.597  12.859  0.4441 -0.3121 -0.9465
  331MPD2    H3 4974   1.388   3.346  12.884 -0.3099  0.4146  0.7434
  331MPD2     N 4975   1.833   3.399  12.839 -0.4320 -0.5484 -0.4343
  331MPD2    H5 4976   1.905   3.471  12.844 -1.5859  0.6113 -0.5059
  331MPD2    N1 4977   1.551   3.774  12.849 -0.1137  0.2060  0.5321
  331MPD2    H7 4978   1.454   3.805  12.853  0.1320  0.9084  1.0755
  332TMC3    C1 4979   2.010   3.283  12.751 -0.3127  0.2381  0.1390
  332TMC3    C2 4980   2.056   3.374  12.652 -0.0962  0.3680  0.2423
  332TMC3    C3 4981   2.187   3.372  12.625  0.1227 -0.9040 -0.5823
  332TMC3    C4 4982   2.104   3.216  12.828 -0.0149 -0.2176  0.4762
  332TMC3    C5 4983   2.236   3.233  12.808  0.5575  0.3363 -0.0119
  332TMC3    C6 4984   2.280   3.317  12.706 -0.6152 -0.4237  0.4645
  332TMC3     C 4985   1.877   3.274  12.800  0.1059 -0.1333 -0.7061
  332TMC3     O 4986   1.833   3.160  12.806 -0.2511  0.2324  0.0689
  332TMC3     H 4987   1.977   3.412  12.588 -1.2841 -0.5882  1.1484
  332TMC3    H1 4988   2.072   3.150  12.909  2.0774 -1.0572  0.5984
  332TMC3    H2 4989   2.383   3.333  12.677 -0.5215 -0.7945  0.5893
  332TMC3    C7 4990   2.332   3.141  12.869 -0.2606 -0.1361  0.6859
  332TMC3    C8 4991   2.227   3.454  12.510 -0.7602 -0.0896  0.1231
  332TMC3    O1 4992   2.283   3.035  12.913 -0.1738 -0.1532  0.3714
  332TMC3    O2 4993   2.342   3.498  12.523  0.5141  0.3244 -0.1205
  333MPD2     C 4994   2.334   4.202  11.146 -1.0028 -0.0099  0.4326
  333MPD2    C1 4995   2.314   4.122  11.035 -0.3122  0.0002 -0.0454
  333MPD2    C2 4996   2.264   3.990  11.055 -0.9667 -0.1162 -0.3572
  333MPD2    C3 4997   2.238   3.938  11.184  0.1030 -0.6112 -0.8649
  333MPD2    C4 4998   2.252   4.027  11.292  0.5345  0.0274  0.3840
  333MPD2    C5 4999   2.299   4.157  11.272  0.7026 -0.2048 -0.1166
  333MPD2     H 5000   2.248   3.927  10.968  1.3291 -0.7520 -0.3027
  333MPD2    H1 5001   2.222   3.999  11.393  1.0583 -0.2123  0.4738
  333MPD2    H2 5002   2.364   4.306  11.147  1.9289 -0.9080  4.0736
  333MPD2    H3 5003   2.304   4.223  11.358 -1.9118 -0.6708  0.4031
  333MPD2     N 5004   2.195   3.810  11.196  0.2129  0.7447  0.0432
  333MPD2    H5 5005   2.176   3.759  11.110 -1.3989  1.3033  0.0683
  333MPD2    N1 5006   2.358   4.183  10.920 -0.2415  0.0685 -0.7127
  333MPD2    H7 5007   2.382   4.281  10.920 -2.5635  0.6456 -1.5424
  334TMC3    C1 5008   2.434   4.190  10.693  0.2264  0.2019  0.5515
  334TMC3    C2 5009   2.529   4.124  10.626 -0.0180 -0.3748  0.1736
  334TMC3    C3 5010   2.618   4.193  10.544 -0.2358 -0.1666  0.0755
  334TMC3    C4 5011   2.412   4.325  10.673  0.5957  0.0387  0.0730
  334TMC3    C5 5012   2.501   4.378  10.586 -0.6913 -1.0581 -0.4281
  334TMC3    C6 5013   2.606   4.323  10.518 -0.2937 -0.1981  0.8233
  334TMC3     C 5014   2.369   4.111  10.802  0.1523 -0.3673  0.6095
  334TMC3     O 5015   2.379   3.990  10.784 -0.5136  0.2592  0.0768
  334TMC3     H 5016   2.546   4.021  10.655 -1.0364 -0.9429 -1.2004
  334TMC3    H1 5017   2.340   4.371  10.739 -1.9187 -0.0811 -2.5924
  334TMC3    H2 5018   2.672   4.371  10.445 -0.9131  0.3224  0.6034
  334TMC3    C7 5019   2.486   4.518  10.545 -0.3889 -0.3660 -0.5510
  334TMC3    C8 5020   2.726   4.119  10.483 -0.8384 -0.0066  0.3252
  334TMC3    O1 5021   2.591   4.573  10.503 -0.0943 -0.3307  0.0246
  334TMC3    O2 5022   2.700   4.003  10.458  0.2113 -0.2320  0.7929
  335TMC3    C1 5023   1.940   0.440  17.569  0.3004 -0.5532  0.5919
  335TMC3    C2 5024   1.852   0.448  17.461  0.6039 -0.1534  0.7498
  335TMC3    C3 5025   1.879   0.546  17.371 -0.2735 -0.7319  0.1093
  335TMC3    C4 5026   2.042   0.536  17.597 -0.5733 -0.6080 -0.0857
  335TMC3    C5 5027   2.059   0.632  17.502  0.1033  0.0845 -0.4629
  335TMC3    C6 5028   1.977   0.641  17.388 -0.2916  0.0209  0.4205
  335TMC3     C 5029   1.914   0.346  17.678  0.1387  0.3139  0.2647
  335TMC3     O 5030   1.928   0.395   0.105  0.4877  0.0538  0.2553
  335TMC3     H 5031   1.766   0.383  17.449  0.3875  0.1807  0.4798
  335TMC3    H1 5032   2.105   0.528  17.685  1.2030  0.5134 -1.2509
  335TMC3    H2 5033   1.981   0.724  17.320 -2.2463 -0.7264 -0.6063
  335TMC3    C7 5034   2.196   0.676  17.477 -0.2107 -0.6349 -0.0854
  335TMC3    C8 5035   1.811   0.560  17.246 -1.0295 -0.1967 -0.0206
  335TMC3    O1 5036   2.220   0.720  17.365 -0.1171  0.0653 -0.2724
  335TMC3    O2 5037   1.806   0.669  17.195 -0.6373 -0.0478  0.1405
  336MPD2     C 5038   1.398   3.659  16.206 -0.2899 -0.1186 -0.3005
  336MPD2    C1 5039   1.303   3.564  16.161  0.2777 -0.4393  0.1645
  336MPD2    C2 5040   1.326   3.428  16.181  0.9123 -0.4143 -0.2908
  336MPD2    C3 5041   1.450   3.395  16.224 -0.4026  0.1241 -0.0380
  336MPD2    C4 5042   1.550   3.484  16.247  0.9927 -0.1188 -0.9388
  336MPD2    C5 5043   1.524   3.618  16.241  0.1118  0.1854  0.6992
  336MPD2     H 5044   1.249   3.356  16.156  2.6320 -1.2233 -3.3122
  336MPD2    H1 5045   1.646   3.445  16.278  0.2540  0.9932  2.7344
  336MPD2    H2 5046   1.390   3.767  16.211 -0.2354 -0.0606 -1.6056
  336MPD2    H3 5047   1.614   3.674  16.264  1.2219 -1.4475  0.3013
  336MPD2     N 5048   1.487   3.257  16.236  0.4962  0.0496 -0.2292
  336MPD2    H5 5049   1.585   3.239  16.255  0.8328  2.4718  0.3212
  336MPD2    N1 5050   1.188   3.597  16.086  0.0668 -0.1881  0.8588
  336MPD2    H7 5051   1.130   3.526  16.042 -2.2865  1.2521  1.6453
  337TMC3    C1 5052   1.021   3.754  16.015 -0.4518  0.4783  0.2028
  337TMC3    C2 5053   1.007   3.685  15.896  0.1432  0.3176  0.3029
  337TMC3    C3 5054   0.889   3.693  15.831  0.0770  0.6558  0.1194
  337TMC3    C4 5055   0.924   3.828  16.066  0.1589  0.5037  0.0953
  337TMC3    C5 5056   0.801   3.831  16.001  0.1435 -0.3820  0.6405
  337TMC3    C6 5057   0.782   3.765  15.881  0.5577 -0.0789  0.0198
  337TMC3     C 5058   1.139   3.726  16.096 -0.7086  0.5829 -0.6849
  337TMC3     O 5059   1.155   3.807  16.188 -0.3686  0.1360  0.4791
  337TMC3     H 5060   1.089   3.631  15.851 -1.6600  0.2647 -2.9455
  337TMC3    H1 5061   0.933   3.876  16.162 -2.1781  0.0930  0.5305
  337TMC3    H2 5062   0.694   3.800  15.829  0.7756 -0.2949 -0.4950
  337TMC3    C7 5063   0.685   3.859  16.088  0.2667 -0.2716  0.0120
  337TMC3    C8 5064   0.904   3.680  15.689  0.4432 -0.3138  0.3393
  337TMC3    O1 5065   0.711   3.913  16.196 -0.0550 -0.4085 -0.1710
  337TMC3    O2 5066   1.014   3.680  15.641  0.0064 -0.0905 -0.2027
  338MPD2     C 5067   2.345   2.438   0.518 -0.2768  0.0123 -0.2996
  338MPD2    C1 5068   2.208   2.477   0.487  0.5466 -0.0731 -0.0187
  338MPD2    C2 5069   2.164   2.598   0.542  0.0160 -0.2291  0.3020
  338MPD2    C3 5070   2.235   2.670   0.640  0.4677  0.2916  0.1632
  338MPD2    C4 5071   2.366   2.617   0.671 -0.1342  0.7264 -0.3582
  338MPD2    C5 5072   2.422   2.505   0.610  0.2163  0.1220 -1.0036
  338MPD2     H 5073   2.070   2.639   0.509  1.7933  2.1861 -1.8550
  338MPD2    H1 5074   2.434   2.658   0.744 -0.8428 -0.7256  1.1200
  338MPD2    H2 5075   2.390   2.361   0.455 -1.3802 -1.0990  0.2891
  338MPD2    H3 5076   2.524   2.474   0.630 -0.5325 -1.1353  0.9641
  338MPD2     N 5077   2.167   2.785   0.695 -0.8624 -0.6248  0.2685
  338MPD2    H5 5078   2.072   2.803   0.664 -0.5883 -2.3966 -1.5694
  338MPD2    N1 5079   2.131   2.401   0.398 -0.7266  0.6608  0.2823
  338MPD2    H7 5080   2.049   2.449   0.362  0.1620  0.5672 -1.8514
  339TMC3    C1 5081   2.125   2.959   0.848 -0.0073  1.4949  0.5039
  339TMC3    C2 5082   2.124   2.977   0.983  0.5537  0.2668 -0.1113
  339TMC3    C3 5083   2.007   3.021   1.044 -0.2809 -0.3091 -0.1428
  339TMC3    C4 5084   2.009   2.981   0.778  0.5390 -0.0108  0.0114
  339TMC3    C5 5085   1.902   3.034   0.834 -0.4195 -0.1199 -0.1747
  339TMC3    C6 5086   1.890   3.035   0.976 -0.7546  0.1041 -0.0219
  339TMC3     C 5087   2.227   2.864   0.795 -0.1945 -0.4069  0.2979
  339TMC3     O 5088   2.334   2.847   0.850 -0.4901  0.3976 -0.6476
  339TMC3     H 5089   2.221   2.971   1.032  0.6891 -1.4911 -0.5786
  339TMC3    H1 5090   2.008   2.986   0.670  3.4203  0.7086  0.0166
  339TMC3    H2 5091   1.808   3.073   1.036 -0.2979 -1.2268  1.4472
  339TMC3    C7 5092   1.772   3.034   0.764  0.7986 -0.3871  0.6755
  339TMC3    C8 5093   2.012   3.002   1.183  0.5202 -0.2080 -0.1630
  339TMC3    O1 5094   1.785   3.013   0.645 -0.3911  0.2673 -0.1635
  339TMC3    O2 5095   2.121   3.012   1.239  0.4597  0.3030  0.7127
  340MPD2     C 5096   2.899   0.388   9.014 -0.1664 -0.0533 -0.3633
  340MPD2    C1 5097   2.803   0.417   9.105  0.2180 -0.4415 -0.0816
  340MPD2    C2 5098   2.787   0.548   9.154 -0.6853 -0.6475 -0.5179
  340MPD2    C3 5099   2.872   0.648   9.111 -1.2257 -0.6060  0.0643
  340MPD2    C4 5100   2.969   0.616   9.019 -0.6267  0.0376 -0.8188
  340MPD2    C5 5101   2.978   0.488   8.971 -0.2266  0.4773 -0.0192
  340MPD2     H 5102   2.720   0.568   9.237 -1.4082  3.0655 -2.0195
  340MPD2    H1 5103   3.023   0.690   8.962  2.0408  0.2743  1.9807
  340MPD2    H2 5104   2.918   0.294   8.963 -2.0437  0.2783 -1.6489
  340MPD2    H3 5105   3.045   0.463   8.890 -1.4733 -0.4232 -0.7495
  340MPD2     N 5106   2.853   0.781   9.136 -0.1925  0.1877  0.3070
  340MPD2    H5 5107   2.922   0.841   9.092  0.9003 -2.6017 -1.7673
  340MPD2    N1 5108   2.726   0.311   9.155  0.3878  0.5332  0.0814
  340MPD2    H7 5109   2.744   0.215   9.131  0.7018  0.8298 -0.8498
  341TMC3    C1 5110   2.551   0.200   9.278 -0.4581  0.0118 -0.3296
  341TMC3    C2 5111   2.413   0.208   9.287  0.3498  0.2217  0.1676
  341TMC3    C3 5112   2.352   0.106   9.356  0.1146  0.6002  0.6561
  341TMC3    C4 5113   2.623   0.098   9.332 -0.6879  0.3247  0.2203
  341TMC3    C5 5114   2.554   0.009   9.417 -0.8143  0.3001 -0.6295
  341TMC3    C6 5115   2.419   0.007   9.427 -0.2116 -0.0371 -0.8142
  341TMC3     C 5116   2.612   0.321   9.232  0.8194 -0.4889 -0.0238
  341TMC3     O 5117   2.549   0.419   9.266  0.6574  0.2888 -0.4496
  341TMC3     H 5118   2.365   0.287   9.231 -1.6951  0.2832  2.0193
  341TMC3    H1 5119   2.729   0.113   9.346 -0.7686  1.0730  0.0202
  341TMC3    H2 5120   2.370   4.648   9.481  2.3966  0.7435  2.6533
  341TMC3    C7 5121   2.623   4.628   9.500 -0.1138  1.3371 -0.3184
  341TMC3    C8 5122   2.210   0.107   9.371 -0.1495 -0.1587 -0.3831
  341TMC3    O1 5123   2.558   4.583   9.597 -0.2275  0.4081  0.1260
  341TMC3    O2 5124   2.168   0.098   9.484  0.2166 -0.1511  0.6999
  342MPD2     C 5125   4.053   3.268  17.553 -0.1305 -0.2346  0.1517
  342MPD2    C1 5126   4.192   3.275  17.536 -0.0264 -0.1228 -0.4215
  342MPD2    C2 5127   4.259   3.391  17.568 -0.6645  0.0591 -0.2134
  342MPD2    C3 5128   4.185   3.508  17.598  0.2804 -0.1886  1.0264
  342MPD2    C4 5129   4.051   3.491  17.624  0.1363 -0.0341 -0.1098
  342MPD2    C5 5130   3.986   3.373  17.604 -0.8758  0.1097 -0.0848
  342MPD2     H 5131   4.365   3.397  17.547 -0.1051 -2.4577  1.8355
  342MPD2    H1 5132   3.993   3.576  17.659 -1.4923 -1.5339  0.8539
  342MPD2    H2 5133   3.994   3.180  17.533 -0.2100  0.1130 -1.1870
  342MPD2    H3 5134   3.880   3.377  17.627 -0.8381  0.3943  0.0388
  342MPD2     N 5135   4.232   3.639  17.606  0.6917  0.8747 -0.4010
  342MPD2    H5 5136   4.171   3.714  17.636 -0.0144  0.7244 -1.4320
  342MPD2    N1 5137   4.272   3.161  17.500  0.1425  0.3183 -0.4090
  342MPD2    H7 5138   4.371   3.181  17.497  0.5457 -1.4916  0.5127
  343TMC3    C1 5139   4.316   2.927  17.428  0.6944 -0.7974 -0.4890
  343TMC3    C2 5140   4.454   2.954  17.423  0.3665  0.3625  0.8272
  343TMC3    C3 5141   4.534   2.859  17.368  0.5949 -0.3609  0.0210
  343TMC3    C4 5142   4.264   2.807  17.390 -0.6632 -0.9017  0.1182
  343TMC3    C5 5143   4.351   2.717  17.335  0.2900  0.2220 -0.6698
  343TMC3    C6 5144   4.485   2.739  17.321  0.4689  0.0791  0.1265
  343TMC3     C 5145   4.214   3.035  17.459  0.0693  0.1793  0.7458
  343TMC3     O 5146   4.093   3.004  17.456 -0.1842  0.7561  0.9604
  343TMC3     H 5147   4.493   3.051  17.454 -0.9887  1.0813  0.2818
  343TMC3    H1 5148   4.161   2.784  17.415 -1.1386 -0.4287 -1.3899
  343TMC3    H2 5149   4.543   2.674  17.257  0.8112  1.7486 -1.2672
  343TMC3    C7 5150   4.299   2.612  17.239 -0.0720  0.9618 -0.0745
  343TMC3    C8 5151   4.672   2.871  17.396  0.3402  0.1571  0.0628
  343TMC3    O1 5152   4.359   2.507  17.229  0.1709 -0.6265  0.1316
  343TMC3    O2 5153   4.689   2.928  17.505  0.5361 -0.1141  0.0412
  344MPD2     C 5154   0.842   3.657  10.840 -0.7619  0.2789 -0.3368
  344MPD2    C1 5155   0.844   3.609  10.711 -0.2532 -0.0425  0.1723
  344MPD2    C2 5156   0.862   3.704  10.611 -0.4719  0.5590 -0.6220
  344MPD2    C3 5157   0.876   3.835  10.638 -0.2801 -0.0182 -0.4480
  344MPD2    C4 5158   0.877   3.880  10.767 -0.6363  0.2279 -0.2727
  344MPD2    C5 5159   0.847   3.789  10.866 -0.4764  0.3228  0.2048
  344MPD2     H 5160   0.849   3.674  10.507 -4.1182 -0.1506  0.0288
  344MPD2    H1 5161   0.899   3.983  10.795 -0.5895 -0.3167  1.6938
  344MPD2    H2 5162   0.836   3.597  10.930 -0.4538  1.3452  0.3870
  344MPD2    H3 5163   0.852   3.819  10.970 -0.7438  1.7050 -0.1906
  344MPD2     N 5164   0.898   3.942  10.545 -0.5447  0.1175  0.1954
  344MPD2    H5 5165   0.922   4.027  10.595 -1.6105  0.1786  0.6021
  344MPD2    N1 5166   0.834   3.474  10.679 -0.1015 -0.6411  0.0131
  344MPD2    H7 5167   0.850   3.457  10.580 -2.1623  0.2056 -0.4618
  345TMC3    C1 5168   0.914   4.067  10.348  0.1575 -0.2985  0.6709
  345TMC3    C2 5169   0.961   4.175  10.418  0.1368 -0.1535 -0.4025
  345TMC3    C3 5170   0.961   4.297  10.351  1.1686 -0.4426  0.1440
  345TMC3    C4 5171   0.878   4.078  10.220  0.1049  0.5161 -0.5347
  345TMC3    C5 5172   0.894   4.201  10.152  0.1044  0.0810  0.5828
  345TMC3    C6 5173   0.931   4.314  10.220 -0.3080  0.1100  0.3434
  345TMC3     C 5174   0.877   3.941  10.415  0.8193  0.1751 -0.0855
  345TMC3     O 5175   0.850   3.848  10.343  0.4032 -0.3367  0.0494
  345TMC3     H 5176   1.002   4.171  10.519  1.7275  0.6654 -1.0251
  345TMC3    H1 5177   0.854   3.985  10.171 -0.9482  0.3537  0.2823
  345TMC3    H2 5178   0.941   4.415  10.181 -1.9112 -0.0783 -0.5572
  345TMC3    C7 5179   0.867   4.202  10.011 -0.3745 -0.1677 -1.0451
  345TMC3    C8 5180   1.019   4.418  10.415 -0.1763  0.6856  0.2641
  345TMC3    O1 5181   0.840   4.087   9.975 -0.2953  0.0830  0.2014
  345TMC3    O2 5182   0.968   4.521  10.390 -0.3114 -0.1522 -0.2569
  346MPD2     C 5183   0.726   0.146  13.972  0.2920  0.0260  0.1115
  346MPD2    C1 5184   0.730   0.268  13.903 -0.4007  0.0193 -0.4124
  346MPD2    C2 5185   0.746   0.380  13.985 -0.1728  0.2588 -0.0847
  346MPD2    C3 5186   0.773   0.372  14.121 -0.6260 -0.2292  1.0495
  346MPD2    C4 5187   0.772   0.250  14.186  0.4988 -0.1700  0.7008
  346MPD2    C5 5188   0.746   0.139  14.114 -0.3847 -0.1180  0.1175
  346MPD2     H 5189   0.748   0.481  13.947 -1.6983  0.4636  0.3925
  346MPD2    H1 5190   0.796   0.239  14.291 -1.9734 -1.3868  1.1416
  346MPD2    H2 5191   0.729   0.053  13.916 -0.2534  0.8819 -1.3290
  346MPD2    H3 5192   0.746   0.041  14.160 -0.7658  0.0778  0.5422
  346MPD2     N 5193   0.804   0.486  14.187 -0.1316  0.1797  0.0838
  346MPD2    H5 5194   0.822   0.573  14.137  2.2354  0.3027  1.1246
  346MPD2    N1 5195   0.730   0.280  13.761  0.2811 -0.6694 -0.3185
  346MPD2    H7 5196   0.723   0.374  13.724  4.2993  0.8206  2.6089
  347TMC3    C1 5197   0.891   0.596  14.377  0.2401  0.4469 -0.1055
  347TMC3    C2 5198   0.989   0.645  14.291  0.1618 -0.4306 -0.1491
  347TMC3    C3 5199   1.114   0.663  14.348 -0.2753 -0.4452 -0.4811
  347TMC3    C4 5200   0.920   0.577  14.509  0.0305 -0.0494  1.1081
  347TMC3    C5 5201   1.047   0.594  14.561 -0.4171  0.0782 -0.6303
  347TMC3    C6 5202   1.148   0.635  14.478  0.4617  0.1215 -0.1984
  347TMC3     C 5203   0.797   0.504  14.322 -0.4750  0.1947  0.0346
  347TMC3     O 5204   0.733   0.439  14.402 -0.3013  0.6523 -0.0544
  347TMC3     H 5205   0.987   0.670  14.186 -2.0817 -2.3204 -0.5330
  347TMC3    H1 5206   0.842   0.544  14.577 -2.1126  1.0398 -0.8292
  347TMC3    H2 5207   1.243   0.665  14.521  0.3613 -0.7773  0.6284
  347TMC3    C7 5208   1.070   0.559  14.699 -0.2617  0.0999  0.7993
  347TMC3    C8 5209   1.222   0.698  14.258  0.2831  0.0864  0.3369
  347TMC3    O1 5210   0.973   0.559  14.780 -0.2362 -0.6179 -0.0316
  347TMC3    O2 5211   1.195   0.769  14.165  0.6005  0.0360  0.1487
  348MPD2     C 5212   4.409   4.461  12.047 -0.1719 -0.4033 -0.0014
  348MPD2    C1 5213   4.320   4.450  11.941  0.1634  0.3902 -0.4788
  348MPD2    C2 5214   4.306   4.553  11.845  0.3764 -0.4388 -0.0375
  348MPD2    C3 5215   4.387   4.660  11.848  0.4438  0.5083  0.5533
  348MPD2    C4 5216   4.476   4.676  11.954  0.2883  0.2036  0.0980
  348MPD2    C5 5217   4.481   4.578  12.046 -0.5245 -0.2634 -0.4705
  348MPD2     H 5218   4.246   4.537  11.756  0.0178 -0.7082  0.2513
  348MPD2    H1 5219   4.549   0.034  11.967 -1.2016  1.6838 -0.5600
  348MPD2    H2 5220   4.410   4.392  12.130  0.8069 -0.4197 -0.0207
  348MPD2    H3 5221   4.544   4.601  12.131 -1.0956 -0.2346 -0.0582
  348MPD2     N 5222   4.384   0.028  11.742  0.0153 -0.2483 -0.0537
  348MPD2    H5 5223   4.317   0.008  11.669  0.5878 -0.1332 -0.6025
  348MPD2    N1 5224   4.242   4.334  11.932 -0.1799  0.3092 -0.7545
  348MPD2    H7 5225   4.169   4.329  11.861  0.6112  1.6375 -1.6577
  349TMC3    C1 5226   4.177   4.104  11.981  0.6776 -0.3784 -0.4813
  349TMC3    C2 5227   4.192   3.993  12.057 -0.0224 -0.2925 -0.5137
  349TMC3    C3 5228   4.081   3.902  12.055  0.4053 -0.6486  0.6028
  349TMC3    C4 5229   4.075   4.116  11.894 -0.6651  0.1635  0.2245
  349TMC3    C5 5230   3.974   4.022  11.890 -0.7117  0.4987 -0.1324
  349TMC3    C6 5231   3.974   3.912  11.971  0.6003 -0.9759  0.0130
  349TMC3     C 5232   4.276   4.212  11.996 -0.3749  0.1399 -0.2140
  349TMC3     O 5233   4.377   4.185  12.060  0.6259 -0.5061  0.1204
  349TMC3     H 5234   4.276   3.973  12.123 -1.8624 -0.6974  1.7197
  349TMC3    H1 5235   4.074   4.202  11.829  0.8637  0.1539  0.1791
  349TMC3    H2 5236   3.897   3.837  11.959 -0.0794  0.1604 -2.5355
  349TMC3    C7 5237   3.882   4.029  11.774 -0.2693 -0.3495  0.2480
  349TMC3    C8 5238   4.093   3.780  12.139 -0.3219 -0.1294 -0.0222
  349TMC3    O1 5239   3.762   4.030  11.793  0.6087 -0.3542 -0.5617
  349TMC3    O2 5240   4.208   3.744  12.162  0.6888  0.4662 -0.3555
  350MPD2     C 5241   3.770   2.685  10.001 -0.1618  0.0248 -0.1067
  350MPD2    C1 5242   3.816   2.575  10.070  0.6087  0.3861  0.2658
  350MPD2    C2 5243   3.850   2.587  10.203  0.2239  0.1315  0.5959
  350MPD2    C3 5244   3.823   2.709  10.271  0.9275 -0.3796  0.1564
  350MPD2    C4 5245   3.773   2.813  10.194 -0.3708  0.0517  0.6335
  350MPD2    C5 5246   3.755   2.804  10.058  0.6436  0.1758 -0.4042
  350MPD2     H 5247   3.892   2.509  10.265  1.2622  0.5062  0.3647
  350MPD2    H1 5248   3.763   2.913  10.235  1.0006  0.9022 -1.0418
  350MPD2    H2 5249   3.755   2.683   9.894 -0.6424 -2.0395 -0.0023
  350MPD2    H3 5250   3.737   2.895  10.003  3.2301  2.6394  2.8423
  350MPD2     N 5251   3.834   2.705  10.409 -0.0506 -0.2991  0.2400
  350MPD2    H5 5252   3.879   2.626  10.452 -0.7251 -2.3974 -2.9077
  350MPD2    N1 5253   3.833   2.448  10.013 -0.3015  0.8051  0.0314
  350MPD2    H7 5254   3.862   2.374  10.076  1.8870  0.2900 -1.5577
  351TMC3    C1 5255   3.813   2.278   9.859 -0.0903 -0.1911 -0.1959
  351TMC3    C2 5256   3.892   2.195   9.945  0.0326 -0.5461 -0.0310
  351TMC3    C3 5257   3.879   2.057   9.932  0.1403  0.2715 -1.1081
  351TMC3    C4 5258   3.742   2.218   9.756 -0.5387 -0.0207  0.5286
  351TMC3    C5 5259   3.737   2.082   9.745  0.4012 -0.7606 -0.4593
  351TMC3    C6 5260   3.803   1.997   9.831  0.8549  0.0510 -0.4874
  351TMC3     C 5261   3.800   2.414   9.885  0.4751 -0.6011 -0.3458
  351TMC3     O 5262   3.737   2.482   9.801 -0.0472 -0.2723  0.0301
  351TMC3     H 5263   3.957   2.242  10.017  0.4837  0.5800 -1.1871
  351TMC3    H1 5264   3.683   2.283   9.693 -2.9928 -0.9579  1.8811
  351TMC3    H2 5265   3.805   1.889   9.820  1.1029 -0.1139  1.2556
  351TMC3    C7 5266   3.644   2.030   9.639  0.3857  0.1046 -0.8667
  351TMC3    C8 5267   3.993   1.973   9.961 -0.3480 -1.2356  0.3031
  351TMC3    O1 5268   3.541   2.089   9.616  0.3977 -0.4849  0.0663
  351TMC3    O2 5269   4.022   1.876   9.890  0.0109 -0.4600  0.4162
  352MPD2     C 5270   2.159   4.450   1.347  0.0981  0.3830 -0.6726
  352MPD2    C1 5271   2.084   4.402   1.246 -0.0926 -0.3299 -0.0854
  352MPD2    C2 5272   2.121   4.280   1.175 -1.0340 -0.4313  0.1395
  352MPD2    C3 5273   2.227   4.200   1.230 -0.2437 -0.3388  0.8871
  352MPD2    C4 5274   2.294   4.247   1.341 -0.1968  0.2352 -0.3102
  352MPD2    C5 5275   2.263   4.373   1.402  0.0601  0.2241 -0.1038
  352MPD2     H 5276   2.084   4.253   1.076  1.8435 -0.2452 -1.0083
  352MPD2    H1 5277   2.383   4.199   1.379 -0.3949 -1.2461 -1.7247
  352MPD2    H2 5278   2.130   4.547   1.388  0.3880  0.4497 -0.6246
  352MPD2    H3 5279   2.320   4.404   1.488 -0.6929  1.6002 -0.0964
  352MPD2     N 5280   2.275   4.078   1.177  0.0907 -0.0051 -0.0094
  352MPD2    H5 5281   2.348   4.025   1.224  0.7648 -1.3806 -2.6167
  352MPD2    N1 5282   1.975   4.482   1.195  0.2324  0.0175  0.7778
  352MPD2    H7 5283   1.957   4.577   1.224 -2.7045 -1.1391  2.7661
  353TMC3    C1 5284   2.277   3.882   1.035 -0.0789  0.0801  0.2357
  353TMC3    C2 5285   2.328   3.804   1.140 -0.1617  0.1723 -0.5360
  353TMC3    C3 5286   2.352   3.667   1.113 -0.3079  0.3598 -0.7643
  353TMC3    C4 5287   2.260   3.838   0.909  0.4543  0.0361  0.2202
  353TMC3    C5 5288   2.293   3.711   0.880 -0.2326 -0.0002 -0.6443
  353TMC3    C6 5289   2.342   3.626   0.982  0.7893 -0.2517  0.1613
  353TMC3     C 5290   2.218   4.011   1.072 -0.1962 -0.3078 -0.5900
  353TMC3     O 5291   2.138   4.046   0.992 -0.1490  0.0687  0.4843
  353TMC3     H 5292   2.345   3.844   1.239 -2.2954 -1.2930  0.4161
  353TMC3    H1 5293   2.211   3.902   0.836 -1.1855  1.1047  2.2596
  353TMC3    H2 5294   2.368   3.528   0.943 -1.1658 -0.6818 -0.0552
  353TMC3    C7 5295   2.234   3.654   0.757  0.5530 -0.7208 -0.0847
  353TMC3    C8 5296   2.440   3.605   1.207  0.1115  0.2576 -0.0016
  353TMC3    O1 5297   2.229   3.533   0.750 -0.2457 -0.0261  0.6369
  353TMC3    O2 5298   2.505   3.666   1.296 -0.1073 -0.2004 -0.4474
  354TMC3    C1 5299   3.742   0.630  13.482 -0.4693 -0.5776  0.7485
  354TMC3    C2 5300   3.636   0.718  13.461 -0.1921  0.6224 -0.7494
  354TMC3    C3 5301   3.649   0.809  13.358 -1.1604  0.5492  0.0989
  354TMC3    C4 5302   3.855   0.627  13.400  0.3511  0.3124 -0.0508
  354TMC3    C5 5303   3.870   0.725  13.304  0.1117 -0.1225 -0.6010
  354TMC3    C6 5304   3.769   0.813  13.282 -0.2143 -0.2135 -0.1835
  354TMC3     C 5305   3.758   0.574  13.618  0.4622  0.3178 -0.5739
  354TMC3     O 5306   3.867   0.545  13.659  0.3537 -0.0927  0.4537
  354TMC3     H 5307   3.552   0.720  13.529  2.1381 -0.4850  2.1398
  354TMC3    H1 5308   3.943   0.567  13.424 -2.2338 -3.0163  1.1093
  354TMC3    H2 5309   3.771   0.874  13.192  1.6699  1.2914  0.8937
  354TMC3    C7 5310   3.983   0.732  13.218  0.8406 -0.3663 -0.3769
  354TMC3    C8 5311   3.550   0.916  13.356  0.1468  0.1175 -0.3852
  354TMC3    O1 5312   4.038   0.627  13.192 -0.8992  0.4089 -0.6280
  354TMC3    O2 5313   3.470   0.902  13.448  0.0496  0.7543 -0.2653
  355MPD2     C 5314   3.543   2.153  11.586  0.0593 -0.4918  0.3101
  355MPD2    C1 5315   3.644   2.091  11.516  0.2319 -0.2852 -0.2446
  355MPD2    C2 5316   3.775   2.098  11.557 -0.4839 -0.5176  0.2229
  355MPD2    C3 5317   3.806   2.153  11.679  0.1683 -0.4782  0.0419
  355MPD2    C4 5318   3.710   2.210  11.759 -0.4887  0.0849 -0.1568
  355MPD2    C5 5319   3.582   2.218  11.704 -0.3435 -0.8537 -0.1569
  355MPD2     H 5320   3.857   2.055  11.501 -2.0808 -2.0248 -0.9636
  355MPD2    H1 5321   3.735   2.253  11.856  0.8450  0.0408 -0.4811
  355MPD2    H2 5322   3.440   2.139  11.554  0.6561 -2.5365 -0.7177
  355MPD2    H3 5323   3.511   2.257  11.777  2.1714 -1.6493  2.6921
  355MPD2     N 5324   3.936   2.150  11.733  0.1107  0.0639  0.1566
  355MPD2    H5 5325   3.954   2.199  11.820  0.1831 -2.3260  1.4832
  355MPD2    N1 5326   3.604   2.038  11.387 -0.3667  0.4393 -0.1029
  355MPD2    H7 5327   3.510   2.001  11.394  0.4766 -1.6474  0.1014
  356TMC3    C1 5328   4.155   2.213  11.692  0.4990 -0.0716 -0.4925
  356TMC3    C2 5329   4.193   2.277  11.581  0.3216 -0.1764 -0.1345
  356TMC3    C3 5330   4.242   2.403  11.591  0.0209  0.2670  0.9366
  356TMC3    C4 5331   4.160   2.267  11.813 -0.0192  0.4027  0.1720
  356TMC3    C5 5332   4.205   2.396  11.824  0.4273  0.0671 -0.3208
  356TMC3    C6 5333   4.243   2.471  11.713 -0.1503 -0.3158  1.1739
  356TMC3     C 5334   4.047   2.110  11.665 -0.1857 -0.3685 -0.1851
  356TMC3     O 5335   4.064   2.052  11.561  0.3690 -1.0695  0.5752
  356TMC3     H 5336   4.183   2.228  11.485  0.3281  1.7130 -1.1059
  356TMC3    H1 5337   4.126   2.215  11.901 -0.1982  0.8429  0.3632
  356TMC3    H2 5338   4.287   2.569  11.712 -0.3839 -0.1801  2.8179
  356TMC3    C7 5339   4.259   2.439  11.948 -0.0109 -0.4229  0.9418
  356TMC3    C8 5340   4.287   2.460  11.468  0.6802  0.2215  0.5786
  356TMC3    O1 5341   4.264   2.354  12.039 -0.0371  0.3355  0.1448
  356TMC3    O2 5342   4.284   2.379  11.369  0.1289 -0.2890 -0.4211
  357MPD2     C 5343   3.250   1.149   1.296  0.6062 -0.1079  0.4394
  357MPD2    C1 5344   3.281   1.146   1.434 -0.1126 -0.1643  0.3955
  357MPD2    C2 5345   3.192   1.095   1.519  0.1969  0.2640 -0.2335
  357MPD2    C3 5346   3.061   1.052   1.475 -0.5363  0.7503 -0.0424
  357MPD2    C4 5347   3.029   1.061   1.343 -0.1332 -0.0721  0.2400
  357MPD2    C5 5348   3.126   1.103   1.252 -0.0832 -0.1871 -0.2969
  357MPD2     H 5349   3.226   1.092   1.622  0.9145 -2.3349 -0.5647
  357MPD2    H1 5350   2.933   1.025   1.308  0.4799 -0.8785 -0.6161
  357MPD2    H2 5351   3.329   1.185   1.231  0.1672  0.2696  0.1132
  357MPD2    H3 5352   3.099   1.095   1.147  1.5199  1.1402 -0.8026
  357MPD2     N 5353   2.974   0.987   1.562  0.3655  0.5708 -0.2311
  357MPD2    H5 5354   2.889   0.944   1.526 -1.1060  2.9684  0.3669
  357MPD2    N1 5355   3.411   1.194   1.467  0.2949  0.2274 -0.8714
  357MPD2    H7 5356   3.471   1.228   1.392  3.0260 -1.1567  0.6825
  358TMC3    C1 5357   3.618   1.209   1.580  0.2179  0.2429 -0.5225
  358TMC3    C2 5358   3.686   1.167   1.469 -0.4928  0.5449 -0.2715
  358TMC3    C3 5359   3.820   1.143   1.471 -0.4831  0.7194  0.6510
  358TMC3    C4 5360   3.687   1.235   1.693 -0.0599  0.0009 -0.0173
  358TMC3    C5 5361   3.820   1.203   1.693 -0.3242 -0.2914 -0.5250
  358TMC3    C6 5362   3.887   1.161   1.584 -0.2575 -0.6857  0.1858
  358TMC3     C 5363   3.473   1.175   1.588 -0.8663 -0.0697 -0.1903
  358TMC3     O 5364   3.430   1.141   1.698 -0.1452 -0.2590 -0.8507
  358TMC3     H 5365   3.630   1.135   1.381  1.3056 -3.0883 -0.0748
  358TMC3    H1 5366   3.631   1.252   1.784 -0.5242  4.8853 -1.2277
  358TMC3    H2 5367   3.995   1.170   1.583 -0.2974 -0.3452 -1.1527
  358TMC3    C7 5368   3.895   1.232   1.814 -0.2759  0.2810 -0.0294
  358TMC3    C8 5369   3.881   1.091   1.351 -0.2057 -0.3063 -0.1106
  358TMC3    O1 5370   3.832   1.298   1.893 -0.7245  0.0886  0.7482
  358TMC3    O2 5371   3.814   1.091   1.250  0.4467  0.3135 -0.4514
  359MPD2     C 5372   4.233   0.223  12.661  0.7668 -0.1303 -0.3174
  359MPD2    C1 5373   4.171   0.237  12.542  0.0945  1.0804 -0.8915
  359MPD2    C2 5374   4.069   0.151  12.498  0.1121  0.4794  0.0711
  359MPD2    C3 5375   4.003   0.071  12.592 -0.0211 -0.2880  0.2591
  359MPD2    C4 5376   4.057   0.052  12.713  0.6022  0.3996  0.6726
  359MPD2    C5 5377   4.173   0.126  12.743 -0.3413  0.3815  0.0447
  359MPD2     H 5378   4.032   0.159  12.397  0.6832  0.3889 -0.1461
  359MPD2    H1 5379   4.009   4.716  12.790  1.5569 -0.4993  0.6009
  359MPD2    H2 5380   4.311   0.284  12.706 -0.6601  0.1467  1.7594
  359MPD2    H3 5381   4.210   0.120  12.845 -1.0598 -2.8828  0.1103
  359MPD2     N 5382   3.893   4.710  12.560 -0.3114 -0.4467 -0.2757
  359MPD2    H5 5383   3.846   4.662  12.637 -1.1395  1.7313  0.5826
  359MPD2    N1 5384   4.212   0.329  12.444  0.5790 -0.2010  0.9679
  359MPD2    H7 5385   4.149   0.332  12.364  3.9478  0.7013 -1.6134
  360TMC3    C1 5386   4.292   0.533  12.358  0.7451 -0.1454  0.6529
  360TMC3    C2 5387   4.322   0.658  12.398  0.6249  0.2997  0.1090
  360TMC3    C3 5388   4.298   0.764  12.314  0.7548  0.7766 -0.3915
  360TMC3    C4 5389   4.222   0.510  12.243 -0.0944 -0.0001 -0.5580
  360TMC3    C5 5390   4.203   0.617  12.156 -0.3181  0.3227  0.2838
  360TMC3    C6 5391   4.246   0.741  12.189  0.0997 -0.1113 -0.4367
  360TMC3     C 5392   4.305   0.433  12.456  0.4387 -0.0903  0.1058
  360TMC3     O 5393   4.379   0.455  12.548 -0.3064 -0.3545 -0.1107
  360TMC3     H 5394   4.381   0.678  12.487  0.4037  0.9465  0.1108
  360TMC3    H1 5395   4.223   0.409  12.205 -2.6667 -0.4438  0.5150
  360TMC3    H2 5396   4.234   0.823  12.119  1.1355 -0.8235 -1.4523
  360TMC3    C7 5397   4.209   0.594  12.018 -0.7640 -1.2185 -0.3527
  360TMC3    C8 5398   4.408   0.857  12.295 -0.0673 -0.1701  0.5685
  360TMC3    O1 5399   4.297   0.653  11.957 -0.0446 -0.0997  0.2923
  360TMC3    O2 5400   4.455   0.927  12.381 -0.0984 -0.0146  0.0675
  361MPD2     C 5401   0.822   3.862  17.267 -0.1622  0.0561  0.1548
  361MPD2    C1 5402   0.865   3.990  17.246 -0.2009  0.1867 -0.4672
  361MPD2    C2 5403   0.978   4.017  17.177  0.0374  0.3862 -0.4246
  361MPD2    C3 5404   1.057   3.914  17.131 -0.1333 -0.1615  0.0736
  361MPD2    C4 5405   1.015   3.785  17.143  0.2047  0.0145 -1.1306
  361MPD2    C5 5406   0.900   3.758  17.217  0.5521 -0.2198 -0.0582
  361MPD2     H 5407   1.005   4.121  17.162  2.5322 -0.3043 -0.7890
  361MPD2    H1 5408   1.079   3.711  17.096  0.5252  0.0831 -0.8029
  361MPD2    H2 5409   0.736   3.841  17.330 -0.6671  0.3051 -0.4567
  361MPD2    H3 5410   0.877   3.658  17.250  1.8558 -1.1108 -1.8380
  361MPD2     N 5411   1.185   3.937  17.076 -0.4580 -0.9611  0.5070
  361MPD2    H5 5412   1.220   3.846  17.048  1.2632 -0.2551  0.3913
  361MPD2    N1 5413   0.791   4.100  17.285  0.0908 -0.0705  0.1792
  361MPD2    H7 5414   0.823   4.190  17.251  0.5369  0.0617  0.9579
  362TMC3    C1 5415   0.615   4.224  17.390 -0.8253 -0.5768 -0.1062
  362TMC3    C2 5416   0.522   4.230  17.497 -0.0800  0.5630  0.3379
  362TMC3    C3 5417   0.432   4.328  17.496  0.1681 -1.1876 -0.7215
  362TMC3    C4 5418   0.605   4.312  17.285 -0.2798  0.3025  0.0573
  362TMC3    C5 5419   0.499   4.402  17.277 -0.1514 -0.3227 -0.1543
  362TMC3    C6 5420   0.420   4.415  17.393  0.5982 -0.1853 -0.7243
  362TMC3     C 5421   0.685   4.098  17.382  0.2390  0.4147 -0.1363
  362TMC3     O 5422   0.666   4.008  17.461  0.7269 -0.1415 -0.2858
  362TMC3     H 5423   0.517   4.150  17.569 -0.5641  0.2432 -0.0546
  362TMC3    H1 5424   0.671   4.306  17.199  2.9285 -1.0256  2.5964
  362TMC3    H2 5425   0.340   4.487  17.391 -0.4865 -1.3553  0.5880
  362TMC3    C7 5426   0.473   4.504  17.171  0.5577 -0.2926  0.4147
  362TMC3    C8 5427   0.327   4.327  17.586  0.4663 -0.3790 -0.2989
  362TMC3    O1 5428   0.370   4.575  17.185  0.0995  0.5657  0.3420
  362TMC3    O2 5429   0.353   4.277   0.004  0.4200 -1.0961 -0.4808
  363TMC3    C1 5430   4.380   2.376   9.225 -0.5168 -0.7350 -0.7432
  363TMC3    C2 5431   4.433   2.342   9.343  0.2773 -0.3932 -0.4752
  363TMC3    C3 5432   4.451   2.443   9.439  0.6931 -0.3298 -0.0073
  363TMC3    C4 5433   4.350   2.509   9.194 -0.8736  0.2434 -0.0625
  363TMC3    C5 5434   4.353   2.603   9.289  0.5482 -0.0898  0.4339
  363TMC3    C6 5435   4.398   2.568   9.416  0.0470  0.4843  0.3003
  363TMC3     C 5436   4.323   2.268   9.150 -0.6734 -0.1785  0.1603
  363TMC3     O 5437   4.380   2.160   9.154 -0.1891 -0.1910 -0.1120
  363TMC3     H 5438   4.427   2.237   9.366 -1.7087  0.1258  1.4206
  363TMC3    H1 5439   4.308   2.530   9.096 -0.8412 -1.2074 -0.3873
  363TMC3    H2 5440   4.402   2.638   9.499  0.2222  0.8082  0.0205
  363TMC3    C7 5441   4.340   2.750   9.253  0.1147  0.1038 -0.0369
  363TMC3    C8 5442   4.501   2.422   9.570  0.2069 -0.3451 -0.4214
  363TMC3    O1 5443   4.363   2.831   9.340  0.0440  0.0262 -0.4042
  363TMC3    O2 5444   4.469   2.498   9.661 -0.3905  0.0172 -0.2060
  364MPD2     C 5445   2.527   0.870  10.635  0.1137 -0.2706 -0.0991
  364MPD2    C1 5446   2.646   0.934  10.589  0.1084 -0.4167  0.0049
  364MPD2    C2 5447   2.765   0.888  10.639  0.0888  0.3440  0.4759
  364MPD2    C3 5448   2.771   0.781  10.728  0.1043  0.0159  0.4717
  364MPD2    C4 5449   2.651   0.734  10.775 -0.4018  0.0076  0.1994
  364MPD2    C5 5450   2.530   0.777  10.733 -0.3714 -0.0711  0.6829
  364MPD2     H 5451   2.858   0.928  10.599 -1.7899  1.5747 -2.6389
  364MPD2    H1 5452   2.655   0.644  10.836  0.5816 -0.6151 -0.7859
  364MPD2    H2 5453   2.440   0.915  10.589 -0.0653 -1.3969 -0.8651
  364MPD2    H3 5454   2.435   0.734  10.763 -0.8525 -1.2801 -2.5614
  364MPD2     N 5455   2.900   0.736  10.778 -0.6068 -1.0230 -0.2758
  364MPD2    H5 5456   2.900   0.676  10.860 -0.7106  0.8219  1.0706
  364MPD2    N1 5457   2.638   1.053  10.511 -0.2104  0.2525 -0.4299
  364MPD2    H7 5458   2.544   1.086  10.493  0.3805  2.1916  0.1104
  365TMC3    C1 5459   2.709   1.245  10.407 -0.1799 -0.1940  0.1445
  365TMC3    C2 5460   2.787   1.290  10.301 -0.3159 -0.3884  0.7822
  365TMC3    C3 5461   2.783   1.425  10.278 -0.0440  0.0940 -0.5749
  365TMC3    C4 5462   2.639   1.330  10.491  0.5186  0.4048  0.3612
  365TMC3    C5 5463   2.641   1.465  10.463 -0.5695  0.7037 -0.6181
  365TMC3    C6 5464   2.696   1.506  10.346  0.4059 -0.6061 -0.2510
  365TMC3     C 5465   2.746   1.117  10.459  0.2664 -0.2886 -0.6853
  365TMC3     O 5466   2.866   1.097  10.459 -0.3272  0.4389  0.0974
  365TMC3     H 5467   2.847   1.213  10.252  0.2152 -0.1306  1.0299
  365TMC3    H1 5468   2.576   1.282  10.565  2.3502 -3.6252 -0.6866
  365TMC3    H2 5469   2.680   1.608  10.313 -1.6089 -0.2056  2.0264
  365TMC3    C7 5470   2.564   1.563  10.547 -0.3446 -0.1739  1.1670
  365TMC3    C8 5471   2.854   1.478  10.159  0.1184 -0.7639  0.1279
  365TMC3    O1 5472   2.563   1.683  10.518  0.2550  0.0792 -0.2490
  365TMC3    O2 5473   2.800   1.569  10.099 -0.2767 -0.1834 -0.2049
  366MPD2     C 5474   1.859   2.616  14.902  0.3435  0.3264  0.3477
  366MPD2    C1 5475   1.857   2.626  15.040  0.2372 -0.2887 -0.0021
  366MPD2    C2 5476   1.976   2.624  15.107  0.3034  0.3182 -0.1148
  366MPD2    C3 5477   2.090   2.622  15.041  0.1586 -0.6889  0.0304
  366MPD2    C4 5478   2.090   2.581  14.909  0.3395  0.2700 -0.2703
  366MPD2    C5 5479   1.971   2.576  14.836  0.2382  0.2182  0.6835
  366MPD2     H 5480   1.978   2.629  15.215 -1.0344  4.4906 -0.2541
  366MPD2    H1 5481   2.181   2.552  14.858  0.0733 -0.2168 -0.4645
  366MPD2    H2 5482   1.764   2.609  14.850  1.3278 -2.8217 -1.0853
  366MPD2    H3 5483   1.961   2.540  14.734  3.3101  1.2482  0.0454
  366MPD2     N 5484   2.215   2.646  15.098 -0.0859 -0.1386 -0.1919
  366MPD2    H5 5485   2.298   2.626  15.044  0.4591  3.4199 -0.6563
  366MPD2    N1 5486   1.733   2.644  15.111 -0.3714 -0.0163  0.2616
  366MPD2    H7 5487   1.741   2.657  15.212  0.4281 -1.5100  0.3867
  367TMC3    C1 5488   1.520   2.735  15.174  0.5686  0.4828  0.5634
  367TMC3    C2 5489   1.582   2.810  15.273  0.5968  0.5658  0.1150
  367TMC3    C3 5490   1.493   2.878  15.355 -1.0330  0.5237 -0.5464
  367TMC3    C4 5491   1.389   2.738  15.141  0.6015 -0.4648  0.7095
  367TMC3    C5 5492   1.313   2.814  15.222  0.5727  0.1848  0.6779
  367TMC3    C6 5493   1.364   2.893  15.325 -0.7962 -0.0362  0.4016
  367TMC3     C 5494   1.605   2.682  15.062 -0.3892 -0.8431 -0.5984
  367TMC3     O 5495   1.561   2.674  14.949 -0.0595  0.5181  1.0568
  367TMC3     H 5496   1.689   2.812  15.288  0.6175 -1.6132  0.2346
  367TMC3    H1 5497   1.344   2.678  15.063  2.0347 -0.3942 -0.1642
  367TMC3    H2 5498   1.299   2.956  15.384  2.0978  1.1925  2.2996
  367TMC3    C7 5499   1.168   2.823  15.217  0.4324 -0.4714  1.1954
  367TMC3    C8 5500   1.554   2.945  15.472 -0.7119 -0.5156  0.1082
  367TMC3    O1 5501   1.109   2.911  15.280  0.1015  0.2518  0.0974
  367TMC3    O2 5502   1.676   2.939  15.476 -0.5200 -0.2694 -0.1314
  368MPD2     C 5503   2.190   4.432  13.273  0.6857 -0.6094  0.9572
  368MPD2    C1 5504   2.195   4.555  13.206  0.3141  0.9161 -0.2757
  368MPD2    C2 5505   2.311   4.609  13.163  0.1518  0.5228  0.1279
  368MPD2    C3 5506   2.432   4.546  13.186  0.4066  0.3301  0.0162
  368MPD2    C4 5507   2.429   4.415  13.247  0.0492 -0.3122 -0.0194
  368MPD2    C5 5508   2.306   4.366  13.294  0.3190 -0.4780 -0.3019
  368MPD2     H 5509   2.314   4.702  13.106  1.8970 -0.1397 -0.8815
  368MPD2    H1 5510   2.519   4.354  13.251 -0.1087 -0.4448  1.4608
  368MPD2    H2 5511   2.098   4.391  13.312 -0.6859 -0.8644 -2.5184
  368MPD2    H3 5512   2.306   4.270  13.343 -1.2942  1.8567  4.3094
  368MPD2     N 5513   2.554   4.603  13.137  0.0410  0.1957 -0.4678
  368MPD2    H5 5514   2.634   4.541  13.143  0.2804  0.4261 -1.2813
  368MPD2    N1 5515   2.071   4.615  13.186  0.3216 -0.2000 -0.2106
  368MPD2    H7 5516   1.991   4.557  13.208  0.9344 -0.7777  0.4750
  369TMC3    C1 5517   1.912   0.012  13.054  0.1118  0.7599  0.2803
  369TMC3    C2 5518   1.878   0.130  12.992 -0.1526  0.0655 -0.2358
  369TMC3    C3 5519   1.769   0.132  12.907  0.1954 -0.9822  0.8544
  369TMC3    C4 5520   1.838   4.619  13.041 -0.7988  0.2724 -0.0386
  369TMC3    C5 5521   1.729   4.628  12.960 -0.5349 -0.1378  0.6738
  369TMC3    C6 5522   1.691   0.022  12.895  0.6184 -0.3699 -0.1774
  369TMC3     C 5523   2.047   0.014  13.112 -0.1178 -0.1466  0.2022
  369TMC3     O 5524   2.124   0.103  13.081  0.1161 -0.0785  0.1856
  369TMC3     H 5525   1.950   0.211  12.997 -0.7179  0.6860 -1.9457
  369TMC3    H1 5526   1.876   4.521  13.065 -0.0693  0.3135 -1.0358
  369TMC3    H2 5527   1.612   0.020  12.820  0.4960  0.3809 -0.0631
  369TMC3    C7 5528   1.654   4.501  12.931  0.2785 -1.4648  0.3373
  369TMC3    C8 5529   1.790   0.201  12.782  0.2691 -0.1259 -0.1872
  369TMC3    O1 5530   1.696   4.406  13.000  0.5211  0.1304 -0.0111
  369TMC3    O2 5531   1.701   0.217  12.700 -0.1794  0.3799  0.1643
  370TMC3    C1 5532   1.610   0.244  16.125 -0.0849 -0.8355  0.4969
  370TMC3    C2 5533   1.597   0.156  16.230  0.6230 -0.6972  0.5303
  370TMC3    C3 5534   1.640   0.028  16.211 -0.0827  0.8917 -0.2937
  370TMC3    C4 5535   1.657   0.204  16.004  0.4900 -0.2195  0.6704
  370TMC3    C5 5536   1.692   0.075  15.982  0.0377 -0.6118 -0.3521
  370TMC3    C6 5537   1.686   4.705  16.084  0.7770 -0.6073  0.4455
  370TMC3     C 5538   1.570   0.383  16.148 -0.3235  0.7558  0.5457
  370TMC3     O 5539   1.493   0.405  16.243  0.5614 -0.9544  0.2735
  370TMC3     H 5540   1.566   0.192  16.327 -0.9803 -0.2540 -0.1330
  370TMC3    H1 5541   1.682   0.268  15.921 -1.8588 -2.4091 -1.7112
  370TMC3    H2 5542   1.687   4.597  16.070 -0.1212 -0.4418 -0.8587
  370TMC3    C7 5543   1.746   0.029  15.859 -0.4128  0.0464 -0.4843
  370TMC3    C8 5544   1.707   4.688  16.328 -0.0159  0.7715  0.9824
  370TMC3    O1 5545   1.722   0.106  15.768  0.3672  0.1849  0.0957
  370TMC3    O2 5546   1.773   4.589  16.300 -0.3451 -0.1449 -0.5686
  371TMC3    C1 5547   3.145   3.039  15.686  0.4136  0.1010  0.0970
  371TMC3    C2 5548   3.027   3.087  15.730 -0.3162 -0.0951  0.6191
  371TMC3    C3 5549   2.995   3.219  15.713 -0.2796  0.7689  0.2959
  371TMC3    C4 5550   3.232   3.118  15.617 -0.1209  0.0834 -0.2386
  371TMC3    C5 5551   3.202   3.250  15.599 -0.5135  0.1171  0.7926
  371TMC3    C6 5552   3.084   3.299  15.643 -0.6935 -0.0869  0.0656
  371TMC3     C 5553   3.219   2.938  15.753 -0.1515 -0.2701 -0.3068
  371TMC3     O 5554   3.339   2.955  15.763 -0.1433 -0.6350  0.4608
  371TMC3     H 5555   2.964   3.024  15.792 -1.2788 -0.3965 -0.6682
  371TMC3    H1 5556   3.314   3.068  15.566 -1.1491  0.6159 -2.4047
  371TMC3    H2 5557   3.047   3.394  15.605  0.4789  0.2955 -0.1346
  371TMC3    C7 5558   3.288   3.326  15.503  0.0138  0.6230  0.4749
  371TMC3    C8 5559   2.856   3.252  15.732 -0.0084  0.0879  0.5114
  371TMC3    O1 5560   3.261   3.448  15.492  0.7620 -0.7092 -0.2397
  371TMC3    O2 5561   2.783   3.164  15.688 -0.3008  0.5220  0.1737
  372MPD2     C 5562   3.587   4.631  13.779  0.5319 -0.3203 -1.3169
  372MPD2    C1 5563   3.549   4.532  13.868 -0.4033  0.1208 -0.2592
  372MPD2    C2 5564   3.423   4.476  13.861  0.6526  0.6210  0.4851
  372MPD2    C3 5565   3.329   4.522  13.770 -0.9073  0.5807  0.6798
  372MPD2    C4 5566   3.363   4.627  13.686  0.1602 -0.5477 -0.1713
  372MPD2    C5 5567   3.494   4.680  13.692 -0.2510  0.3724 -0.5743
  372MPD2     H 5568   3.394   4.397  13.930  0.3835  1.6033  1.4952
  372MPD2    H1 5569   3.304   4.657  13.601  0.3100 -0.2105 -0.1557
  372MPD2    H2 5570   3.686   4.674  13.778 -0.5806  2.2641  0.8118
  372MPD2    H3 5571   3.526   0.033  13.620 -1.1461  0.6345 -0.7015
  372MPD2     N 5572   3.196   4.473  13.766 -0.1986 -0.1602  0.0808
  372MPD2    H5 5573   3.129   4.499  13.695 -0.1490  1.5606  0.6769
  372MPD2    N1 5574   3.630   4.500  13.977  0.0685  0.3577  0.0465
  372MPD2    H7 5575   3.581   4.446  14.047  1.0210 -0.2177  0.2574
  373TMC3    C1 5576   3.029   4.312  13.804 -0.1247  0.3245 -0.1706
  373TMC3    C2 5577   2.934   4.268  13.888 -0.3796  0.3110  0.3582
  373TMC3    C3 5578   2.859   4.160  13.863  0.7438  0.2134  0.0955
  373TMC3    C4 5579   3.063   4.233  13.693  0.1850 -0.8827 -0.5163
  373TMC3    C5 5580   2.992   4.112  13.677  0.0988  0.5485  0.1884
  373TMC3    C6 5581   2.882   4.080  13.753 -0.0432  0.1250 -0.0049
  373TMC3     C 5582   3.142   4.388  13.858 -0.3975 -0.0381  0.3547
  373TMC3     O 5583   3.173   4.368  13.971 -0.1471  0.0941  0.5479
  373TMC3     H 5584   2.921   4.313  13.986 -0.7074  0.7747  0.0979
  373TMC3    H1 5585   3.157   4.256  13.644  0.8865 -1.7264  0.4264
  373TMC3    H2 5586   2.821   3.993  13.730  0.9088 -0.5265 -0.0288
  373TMC3    C7 5587   3.088   3.999  13.652  0.2613  0.5782 -0.4745
  373TMC3    C8 5588   2.844   4.072  13.973 -0.0246 -0.0349  0.4659
  373TMC3    O1 5589   3.205   4.023  13.661  0.5233  0.4219 -0.2983
  373TMC3    O2 5590   2.918   4.085  14.065  0.0682  0.3765  0.1760
  374TMC3    C1 5591   3.407   4.501   9.879 -0.2543  0.6198  0.1178
  374TMC3    C2 5592   3.496   4.604   9.856 -0.5617  0.4194 -0.3970
  374TMC3    C3 5593   3.549   4.606   9.734  0.4655  0.4012 -1.0969
  374TMC3    C4 5594   3.382   4.396   9.798 -0.8031  0.1986 -0.5383
  374TMC3    C5 5595   3.441   4.405   9.672  0.2841 -0.9054  0.4181
  374TMC3    C6 5596   3.523   4.507   9.640  0.5085  0.0300  0.3037
  374TMC3     C 5597   3.298   4.533   9.973  0.2538  0.3375 -0.5945
  374TMC3     O 5598   3.186   4.523   9.927 -0.2728  0.3162 -0.5418
  374TMC3     H 5599   3.498   4.695   9.917 -0.4163  0.1213  0.0458
  374TMC3    H1 5600   3.298   4.331   9.817 -0.5981 -0.2831 -1.2861
  374TMC3    H2 5601   3.573   4.515   9.544 -1.5550  1.0196 -0.6809
  374TMC3    C7 5602   3.425   4.303   9.574  0.4582  0.8386  0.0064
  374TMC3    C8 5603   3.642   4.717   9.698  0.6871 -0.4298 -0.1773
  374TMC3    O1 5604   3.494   4.311   9.472 -0.4603  0.2517  0.7667
  374TMC3    O2 5605   3.643   0.036   9.581 -0.0748  0.4767  0.2451
  375MPD2     C 5606   3.360   0.246  16.947  0.2875  0.4674 -0.1699
  375MPD2    C1 5607   3.251   0.279  16.866  0.7389  0.2795  0.1935
  375MPD2    C2 5608   3.250   0.260  16.734  0.1257 -0.1529 -0.4669
  375MPD2    C3 5609   3.358   0.190  16.672 -0.4058  0.9856 -0.6015
  375MPD2    C4 5610   3.456   0.151  16.751 -0.0072  0.3316  0.0049
  375MPD2    C5 5611   3.468   0.182  16.886 -0.0783 -0.0711 -0.4394
  375MPD2     H 5612   3.167   0.300  16.676  0.3223 -0.1005 -0.7144
  375MPD2    H1 5613   3.536   0.100  16.697  1.1363  1.0981  0.9670
  375MPD2    H2 5614   3.367   0.268  17.053  0.0915 -0.6199  0.0724
  375MPD2    H3 5615   3.555   0.142  16.937 -0.3937  0.7663  0.7708
  375MPD2     N 5616   3.373   0.151  16.538 -0.6803 -0.8699 -0.0351
  375MPD2    H5 5617   3.448   0.085  16.521 -0.3392 -0.2429 -0.9917
  375MPD2    N1 5618   3.139   0.353  16.912  0.1344 -0.5070 -1.1788
  375MPD2    H7 5619   3.066   0.373  16.845 -0.5628  1.8015  0.2740
  376TMC3    C1 5620   3.308   0.092  16.320 -0.7187  0.1606  0.0140
  376TMC3    C2 5621   3.412   4.720  16.325  0.1821  0.0665 -0.4510
  376TMC3    C3 5622   3.458   4.691  16.200 -0.1080 -0.8037 -0.8392
  376TMC3    C4 5623   3.240   0.126  16.206 -0.1342 -0.3982 -0.1579
  376TMC3    C5 5624   3.270   0.064  16.090  0.2762 -0.0855  0.8308
  376TMC3    C6 5625   3.391   0.001  16.083  0.2477 -0.0213  0.2640
  376TMC3     C 5626   3.275   0.169  16.441  0.1781  0.4812 -1.1083
  376TMC3     O 5627   3.177   0.237  16.441 -0.2785 -0.2606 -0.4836
  376TMC3     H 5628   3.472   4.685  16.408 -1.2869  0.5549  0.8219
  376TMC3    H1 5629   3.156   0.193  16.218  1.4250  1.0868  2.6684
  376TMC3    H2 5630   3.419   4.679  15.987  1.6055 -0.1989  0.7480
  376TMC3    C7 5631   3.203   0.116  15.975 -0.1866 -0.4559  0.0839
  376TMC3    C8 5632   3.590   4.628  16.200 -0.1461 -0.3455  0.0937
  376TMC3    O1 5633   3.132   0.215  15.990 -0.4885 -0.2905  1.0584
  376TMC3    O2 5634   3.620   4.553  16.291  0.7859  0.3910  0.2438
  377MPD2     C 5635   1.214   0.182  12.134  0.1707  0.2771 -0.0647
  377MPD2    C1 5636   1.266   0.172  12.266  0.2085  0.2951 -0.4348
  377MPD2    C2 5637   1.177   0.182  12.372 -0.5061 -0.1458  0.3946
  377MPD2    C3 5638   1.048   0.219  12.357  0.4391  0.2500 -0.0995
  377MPD2    C4 5639   1.005   0.250  12.232 -0.0766  0.4883  0.1051
  377MPD2    C5 5640   1.087   0.234  12.118  0.7379  0.8983 -0.8062
  377MPD2     H 5641   1.210   0.172  12.475  0.9260  3.6094  0.3263
  377MPD2    H1 5642   0.913   0.301  12.208  0.9380  1.0411 -2.5919
  377MPD2    H2 5643   1.276   0.168  12.047  0.5218 -1.6970  0.4945
  377MPD2    H3 5644   1.056   0.267  12.019  1.5296 -1.4819 -1.8430
  377MPD2     N 5645   0.952   0.224  12.460  0.2849  0.3714 -0.5356
  377MPD2    H5 5646   0.864   0.268  12.433 -0.5832 -1.0410 -0.0162
  377MPD2    N1 5647   1.402   0.131  12.281 -0.9028 -0.1107  0.7901
  377MPD2    H7 5648   1.448   0.109  12.193 -1.5056 -1.4342  0.8110
  378TMC3    C1 5649   1.806   0.165  12.297  0.2514  0.4110 -0.3004
  378TMC3    C2 5650   1.670   0.174  12.293 -0.1975 -0.4168 -0.6660
  378TMC3    C3 5651   1.605   0.087  12.383 -0.2130  0.6253  0.1306
  378TMC3    C4 5652   1.882   0.093  12.389  0.2744  0.3197 -0.1414
  378TMC3    C5 5653   1.807   0.008  12.466  0.2336  0.1940  0.3468
  378TMC3    C6 5654   1.669   0.002  12.470 -0.8565  0.1295 -0.2738
  378TMC3     C 5655   1.868   0.246  12.189  0.6403  0.1124 -0.3854
  378TMC3     O 5656   1.803   0.322  12.117 -0.7234  0.0180  0.2995
  378TMC3     H 5657   1.618   0.231  12.217  0.6512  0.2478 -0.7465
  378TMC3    H1 5658   1.984   0.125  12.406  0.1075  1.5250 -1.3618
  378TMC3    H2 5659   1.624   4.677  12.557  0.9493  0.9332  1.0901
  378TMC3    C7 5660   1.877   4.657  12.572  0.7059  0.5875  0.3477
  378TMC3    C8 5661   1.460   0.091  12.399 -0.2408 -0.3972  0.4451
  378TMC3    O1 5662   1.803   4.610  12.657 -0.2660 -0.6224 -0.2153
  378TMC3    O2 5663   1.414   0.092  12.511  0.1248 -0.1187 -0.2517
  379MPD2     C 5664   2.333   2.678  15.879 -0.8119  0.1169 -0.3949
  379MPD2    C1 5665   2.316   2.757  15.988  0.3209 -0.6416  0.1454
  379MPD2    C2 5666   2.337   2.702  16.113 -0.2016 -0.0547  0.7421
  379MPD2    C3 5667   2.389   2.570  16.118 -0.2142 -0.5012  0.2781
  379MPD2    C4 5668   2.421   2.499  16.005 -0.4269  0.6874  0.2048
  379MPD2    C5 5669   2.390   2.557  15.883  0.0556 -1.1601  0.1521
  379MPD2     H 5670   2.312   2.772  16.191 -1.6595  1.1938 -0.8407
  379MPD2    H1 5671   2.471   2.403  16.004 -0.4421  0.6528  2.0889
  379MPD2    H2 5672   2.307   2.717  15.782  2.7954  1.5738 -0.7844
  379MPD2    H3 5673   2.417   2.497  15.797 -0.6683 -2.0883  0.5602
  379MPD2     N 5674   2.427   2.517  16.243  0.5669 -0.1920 -0.2117
  379MPD2    H5 5675   2.477   2.429  16.244 -0.0134 -0.5372 -1.3732
  379MPD2    N1 5676   2.266   2.888  15.959 -0.4356 -0.9940 -0.2345
  379MPD2    H7 5677   2.261   2.911  15.860 -0.6115 -1.2691 -0.2884
  380TMC3    C1 5678   2.185   3.112  15.983 -0.8172 -0.7790 -0.2120
  380TMC3    C2 5679   2.228   3.138  15.859  0.1324 -0.0472 -0.2328
  380TMC3    C3 5680   2.160   3.232  15.790 -0.8733 -0.9124 -0.1250
  380TMC3    C4 5681   2.072   3.162  16.044 -0.4956  0.2696 -0.1580
  380TMC3    C5 5682   1.998   3.247  15.964 -0.0643 -0.4165  0.0564
  380TMC3    C6 5683   2.043   3.282  15.839 -0.3226  0.5772 -0.2112
  380TMC3     C 5684   2.234   2.987  16.048 -0.7015  0.0023 -0.6839
  380TMC3     O 5685   2.221   2.970  16.167  0.1878  0.0887  0.4381
  380TMC3     H 5686   2.324   3.105  15.822 -0.1534 -0.4848 -0.5920
  380TMC3    H1 5687   2.033   3.132  16.140 -1.5755 -0.5692 -0.8651
  380TMC3    H2 5688   1.977   3.350  15.785 -3.0068  0.3127  2.7406
  380TMC3    C7 5689   1.859   3.243  15.973 -1.2905  0.2751  0.6452
  380TMC3    C8 5690   2.193   3.251  15.648 -0.3419  0.4568  0.2296
  380TMC3    O1 5691   1.812   3.230  16.084  0.0382  0.1520  0.2859
  380TMC3    O2 5692   2.297   3.197  15.619  0.0113  0.0451 -0.0345
  381TMC3    C1 5693   2.080   3.993  16.151 -0.5879 -0.3038 -0.4474
  381TMC3    C2 5694   2.125   4.105  16.099  0.2646 -0.1847 -0.3611
  381TMC3    C3 5695   2.092   4.221  16.163 -0.0252 -0.1185  0.0293
  381TMC3    C4 5696   2.022   3.987  16.275  0.5724  0.4427  0.1523
  381TMC3    C5 5697   2.013   4.103  16.343 -0.0663  0.2233 -0.1813
  381TMC3    C6 5698   2.033   4.226  16.286 -0.3736  0.1250  0.7415
  381TMC3     C 5699   2.038   3.897  16.050  0.2464  0.1078  0.8231
  381TMC3     O 5700   2.115   3.882  15.958 -0.5330 -0.4467 -0.0237
  381TMC3     H 5701   2.180   4.108  16.006 -1.2311  1.7210 -1.1715
  381TMC3    H1 5702   1.996   3.893  16.321  0.9649 -0.2601 -1.0783
  381TMC3    H2 5703   2.003   4.318  16.335 -1.1675  0.8656 -1.1100
  381TMC3    C7 5704   1.981   4.090  16.482 -0.1371  0.1163  0.7133
  381TMC3    C8 5705   2.153   4.345  16.109  0.7589  0.4545 -0.1781
  381TMC3    O1 5706   2.017   3.984  16.527 -0.5072  0.1176 -0.5000
  381TMC3    O2 5707   2.207   4.336  15.997  0.6469  0.5576  0.4847
  382MPD2     C 5708   1.463   1.138   0.043  0.2550  0.5138  0.0445
  382MPD2    C1 5709   1.405   1.153   0.167  0.0011  0.1752  0.2015
  382MPD2    C2 5710   1.324   1.058   0.217  0.1199 -0.6194 -0.0400
  382MPD2    C3 5711   1.296   0.951   0.135 -0.0326 -0.1307 -0.4025
  382MPD2    C4 5712   1.344   0.942   0.008 -0.0376 -0.4873 -0.2878
  382MPD2    C5 5713   1.433   1.035  17.650 -0.1208  0.2370 -0.5698
  382MPD2     H 5714   1.279   1.077   0.314 -0.2271  0.8298 -0.4885
  382MPD2    H1 5715   1.317   0.861  17.628 -2.0649  0.7649 -0.9771
  382MPD2    H2 5716   1.533   1.205  17.682  0.9508 -0.2052  0.0504
  382MPD2    H3 5717   1.473   1.017  17.551  2.2782 -1.1439  0.6632
  382MPD2     N 5718   1.214   0.844   0.174 -0.4149  0.2093 -0.1973
  382MPD2    H5 5719   1.203   0.776   0.100 -2.4218 -0.2547  0.5372
  382MPD2    N1 5720   1.429   1.273   0.242 -0.3947  0.9993 -0.3245
  382MPD2    H7 5721   1.376   1.295   0.325 -1.6169  1.7231 -1.2947
  383TMC3    C1 5722   1.071   0.706   0.282  0.2610 -0.0843  0.5063
  383TMC3    C2 5723   1.013   0.671   0.165  0.3526  0.3989  0.5071
  383TMC3    C3 5724   0.922   0.566   0.172  0.0016 -0.1090  0.4096
  383TMC3    C4 5725   1.048   0.639   0.399 -0.5757  0.1166  0.1985
  383TMC3    C5 5726   0.960   0.536   0.393  0.1456  0.3798 -0.3323
  383TMC3    C6 5727   0.898   0.496   0.281  0.3145  0.3920  0.0315
  383TMC3     C 5728   1.148   0.828   0.296 -0.0450  0.1764 -0.3487
  383TMC3     O 5729   1.152   0.887   0.406  0.4595 -0.4637  0.7466
  383TMC3     H 5730   1.032   0.729   0.076  0.7244  0.5337  0.6733
  383TMC3    H1 5731   1.094   0.676   0.489  1.0243 -0.6393 -0.3216
  383TMC3    H2 5732   0.825   0.415   0.282  1.6446 -0.8056 -1.0207
  383TMC3    C7 5733   0.934   0.469   0.518  0.5006 -0.2745 -0.2679
  383TMC3    C8 5734   0.848   0.522   0.058 -0.2399 -0.2661  0.0666
  383TMC3    O1 5735   0.975   0.523   0.619  0.2191  0.1273  0.3271
  383TMC3    O2 5736   0.762   0.436   0.084  0.0911  0.0638  0.2298
  384MPD2     C 5737   2.774   2.734  12.043 -0.3503 -0.1639  0.4017
  384MPD2    C1 5738   2.843   2.688  12.157 -0.5335 -0.0418  0.1326
  384MPD2    C2 5739   2.890   2.563  12.145 -0.6231 -0.7557 -0.3552
  384MPD2    C3 5740   2.875   2.480  12.032 -0.6022  0.0371  0.2510
  384MPD2    C4 5741   2.823   2.536  11.920  0.3797 -0.3102 -0.4511
  384MPD2    C5 5742   2.775   2.662  11.926  0.4501  0.2438 -0.2894
  384MPD2     H 5743   2.922   2.513  12.236 -0.3589 -2.0055 -1.1369
  384MPD2    H1 5744   2.812   2.484  11.826 -0.2960  0.6477 -0.9040
  384MPD2    H2 5745   2.721   2.828  12.042 -0.1693 -0.0581  1.8193
  384MPD2    H3 5746   2.728   2.703  11.837 -1.3477  0.3629  0.7003
  384MPD2     N 5747   2.909   2.346  12.052  0.0808  0.1557 -0.2628
  384MPD2    H5 5748   2.938   2.313  12.143  0.4949  1.3751  0.0534
  384MPD2    N1 5749   2.846   2.763  12.275 -0.0642  0.4547  0.0274
  384MPD2    H7 5750   2.806   2.856  12.275 -3.8722 -1.1625  2.0795
  385TMC3    C1 5751   2.934   2.123  12.015 -0.2919  0.5251 -0.5842
  385TMC3    C2 5752   2.834   2.031  12.003  0.1773  0.2140  0.2059
  385TMC3    C3 5753   2.788   1.972  12.119  0.5587  0.0233  0.6969
  385TMC3    C4 5754   3.004   2.137  12.131  0.0359 -0.3781 -0.2691
  385TMC3    C5 5755   2.946   2.083  12.242  0.4907  0.3477 -0.0659
  385TMC3    C6 5756   2.838   2.002  12.239  0.2170 -0.6634 -0.0026
  385TMC3     C 5757   2.901   2.250  11.953 -0.1783  0.0813 -0.5231
  385TMC3     O 5758   2.851   2.248  11.842 -0.0421  0.2090 -0.2923
  385TMC3     H 5759   2.778   2.025  11.911 -0.6560  1.4758  0.6363
  385TMC3    H1 5760   3.088   2.205  12.148 -1.1487  0.7813  0.9469
  385TMC3    H2 5761   2.797   1.955  12.328  0.0831  2.1062  1.3839
  385TMC3    C7 5762   2.947   2.180  12.351 -0.1495 -0.1953  0.2613
  385TMC3    C8 5763   2.682   1.864  12.117  0.7119 -0.4761  0.2435
  385TMC3    O1 5764   2.969   2.294  12.315  0.0513 -0.1917  0.0618
  385TMC3    O2 5765   2.647   1.831  12.225 -0.1799  0.1354 -0.8701
  386TMC3    C1 5766   2.720   0.401  11.682 -0.1584 -0.1517  0.3303
  386TMC3    C2 5767   2.772   0.381  11.560 -1.0193 -0.2873  0.6175
  386TMC3    C3 5768   2.682   0.414  11.455 -1.0044 -0.5774  0.1555
  386TMC3    C4 5769   2.609   0.477  11.711  0.0003  0.3244 -0.0858
  386TMC3    C5 5770   2.540   0.528  11.606 -0.6016  0.0765  0.0564
  386TMC3    C6 5771   2.568   0.484  11.479  0.1535  0.5155  0.7728
  386TMC3     C 5772   2.769   0.314  11.788 -0.0672 -0.0828 -0.2343
  386TMC3     O 5773   2.702   0.315  11.888 -0.2827  0.3149 -0.1595
  386TMC3     H 5774   2.871   0.344  11.537 -0.0797  0.7029  3.0638
  386TMC3    H1 5775   2.586   0.498  11.815 -1.2635  0.0055 -0.3101
  386TMC3    H2 5776   2.500   0.495  11.395  1.2774  2.2639  0.0955
  386TMC3    C7 5777   2.402   0.578  11.638 -0.0572  0.0744 -0.0393
  386TMC3    C8 5778   2.722   0.406  11.313  0.5543  0.4062  0.3394
  386TMC3    O1 5779   2.371   0.570  11.755 -0.3279 -0.0658 -0.2370
  386TMC3    O2 5780   2.640   0.448  11.236  0.1159 -0.0104 -0.7782
  387MPD2     C 5781   0.332   0.932   9.461 -0.0764 -0.3371 -0.3346
  387MPD2    C1 5782   0.376   0.915   9.589 -0.0872 -0.2966 -0.2745
  387MPD2    C2 5783   0.379   0.787   9.635 -0.2180  0.0152 -0.2488
  387MPD2    C3 5784   0.365   0.672   9.553 -0.1391  0.4894  0.0302
  387MPD2    C4 5785   0.327   0.691   9.425  1.1228  0.0872  0.2486
  387MPD2    C5 5786   0.314   0.820   9.379 -0.1763  0.0221 -0.0943
  387MPD2     H 5787   0.411   0.766   9.737 -0.0513 -1.9825 -0.7039
  387MPD2    H1 5788   0.322   0.617   9.346 -1.6372  2.1966 -1.5657
  387MPD2    H2 5789   0.349   1.027   9.411 -1.1828 -1.1648 -2.2833
  387MPD2    H3 5790   0.305   0.828   9.271  2.0098  0.2952 -0.2684
  387MPD2     N 5791   0.407   0.550   9.608 -0.1516  0.4152 -0.8329
  387MPD2    H5 5792   0.428   0.555   9.707 -0.1835  0.5177 -0.8306
  387MPD2    N1 5793   0.416   1.023   9.668  0.2303 -0.0318 -0.1206
  387MPD2    H7 5794   0.449   1.005   9.763  1.1613 -0.0075 -0.4473
  388TMC3    C1 5795   0.533   1.222   9.713 -0.0225 -0.3847  0.6978
  388TMC3    C2 5796   0.536   1.360   9.692  0.0863  0.3293 -0.4539
  388TMC3    C3 5797   0.649   1.418   9.748 -0.2704 -0.3655  0.8448
  388TMC3    C4 5798   0.630   1.146   9.780 -0.5552  0.0347 -0.6786
  388TMC3    C5 5799   0.740   1.212   9.827  0.1454 -0.1163  0.0527
  388TMC3    C6 5800   0.749   1.348   9.812 -0.1364  0.5766  0.1278
  388TMC3     C 5801   0.442   1.147   9.620 -0.1170  0.4003  0.5181
  388TMC3     O 5802   0.401   1.205   9.521  0.4811 -0.3718 -0.2661
  388TMC3     H 5803   0.463   1.415   9.634  1.0092  0.4263 -1.5212
  388TMC3    H1 5804   0.612   1.040   9.792  1.0920 -0.3531 -1.4898
  388TMC3    H2 5805   0.831   1.400   9.860 -0.8906  0.4992  1.5144
  388TMC3    C7 5806   0.835   1.138   9.895  0.3112 -0.2343 -0.1624
  388TMC3    C8 5807   0.627   1.552   9.792  0.4685 -0.4741  0.4227
  388TMC3    O1 5808   0.900   1.188   9.987 -0.5604 -0.2607 -0.4203
  388TMC3    O2 5809   0.667   1.587   9.900  0.0649 -0.3661 -0.5339
  389MPD2     C 5810   4.603   3.705  11.148  0.4683  0.4398  0.1438
  389MPD2    C1 5811   4.530   3.625  11.057  0.3887 -0.1546  0.8249
  389MPD2    C2 5812   4.433   3.539  11.102 -0.2164 -0.0448 -0.4227
  389MPD2    C3 5813   4.403   3.520  11.234 -0.2417  0.3437  0.1333
  389MPD2    C4 5814   4.479   3.589  11.319 -0.2786  0.2692  0.0736
  389MPD2    C5 5815   4.574   3.682  11.279  0.6533  0.3089 -0.2662
  389MPD2     H 5816   4.374   3.487  11.027  2.1134 -0.5961 -1.8723
  389MPD2    H1 5817   4.467   3.579  11.426  0.4225  0.8391  0.2092
  389MPD2    H2 5818   4.690   3.765  11.123 -0.8055  1.5667 -1.5771
  389MPD2    H3 5819   4.646   3.719  11.351  0.4424  1.4668 -0.6601
  389MPD2     N 5820   4.302   3.442  11.287  0.3786 -0.1624 -0.2625
  389MPD2    H5 5821   4.303   3.451  11.388  1.7096  2.6782 -0.5397
  389MPD2    N1 5822   4.561   3.652  10.922  0.3931  0.3901  0.0582
  389MPD2    H7 5823   4.631   3.723  10.905  2.3705 -1.8860 -1.1846
  390TMC3    C1 5824   4.142   3.282  11.335  0.1146  0.9681  0.2902
  390TMC3    C2 5825   4.124   3.150  11.328  0.2090 -0.4754  0.0768
  390TMC3    C3 5826   4.036   3.086  11.415 -0.4713 -0.1264 -0.1755
  390TMC3    C4 5827   4.054   3.359  11.409  0.5488 -0.5604  0.2166
  390TMC3    C5 5828   3.964   3.290  11.489  0.3671 -0.3177 -0.2420
  390TMC3    C6 5829   3.960   3.153  11.508  0.4478  1.1701 -0.2727
  390TMC3     C 5830   4.215   3.351  11.225  0.1680  0.4425 -0.1950
  390TMC3     O 5831   4.215   3.295  11.115 -0.1082  0.1988  0.4303
  390TMC3     H 5832   4.183   3.080  11.269 -1.7939  0.2599 -2.7727
  390TMC3    H1 5833   4.055   3.467  11.403 -3.3776 -0.4546  1.4218
  390TMC3    H2 5834   3.885   3.104  11.569  0.9236  0.2405 -0.4425
  390TMC3    C7 5835   3.873   3.374  11.569 -0.0903 -0.0693  0.0581
  390TMC3    C8 5836   4.042   2.938  11.413 -0.5012  0.2157  0.3590
  390TMC3    O1 5837   3.867   3.494  11.554  0.4751  0.6141  0.0474
  390TMC3    O2 5838   4.071   2.881  11.305  0.3901  0.5142  0.1732
  391MPD2     C 5839   4.158   4.574  11.146  0.0240 -0.5652  0.3183
  391MPD2    C1 5840   4.227   4.698  11.128  0.1044 -0.7199 -0.4782
  391MPD2    C2 5841   4.215   0.036  11.008 -0.6704  0.3476  0.4545
  391MPD2    C3 5842   4.150   4.702  10.900 -0.3558  0.2983  0.7709
  391MPD2    C4 5843   4.082   4.581  10.922  0.8882 -0.4546 -0.1694
  391MPD2    C5 5844   4.092   4.516  11.041 -0.4650 -0.2222  0.3134
  391MPD2     H 5845   4.253   0.137  10.998  0.7758 -0.0645  1.6408
  391MPD2    H1 5846   4.051   4.517  10.840  1.0539 -0.2081 -0.4226
  391MPD2    H2 5847   4.160   4.520  11.240 -0.2156 -1.0746  0.0291
  391MPD2    H3 5848   4.041   4.422  11.058 -1.9123  0.4041 -0.5415
  391MPD2     N 5849   4.143   0.056  10.781  0.3732 -0.3159 -0.2970
  391MPD2    H5 5850   4.187   0.147  10.790  2.6052 -1.4629  0.3230
  391MPD2    N1 5851   4.302   0.011  11.246 -0.0027 -0.6298 -0.4486
  391MPD2    H7 5852   4.301   4.665  11.323 -0.1556  0.9162  0.9040
  392TMC3    C1 5853   4.105   0.127  10.561 -0.2837  0.5189 -0.4790
  392TMC3    C2 5854   4.035   0.123  10.443  0.2602  0.0597 -0.5728
  392TMC3    C3 5855   4.065   0.202  10.339 -0.1531 -0.9918  0.1496
  392TMC3    C4 5856   4.209   0.222  10.565  0.6888  0.1970 -0.5475
  392TMC3    C5 5857   4.234   0.293  10.449  0.1537 -0.6599  0.3885
  392TMC3    C6 5858   4.167   0.287  10.327  0.0190 -0.2610 -0.3369
  392TMC3     C 5859   4.082   0.019  10.660 -0.0190  0.1582 -0.2723
  392TMC3     O 5860   4.000   4.649  10.643  0.2928  0.8724  0.2455
  392TMC3     H 5861   3.952   0.054  10.434  0.2435  0.1340 -0.9666
  392TMC3    H1 5862   4.280   0.238  10.646 -0.9110 -0.0003  0.8982
  392TMC3    H2 5863   4.181   0.355  10.244 -0.3336  2.4070  1.7828
  392TMC3    C7 5864   4.330   0.400  10.473 -0.4371  0.9118  0.6549
  392TMC3    C8 5865   4.004   0.161  10.218 -0.3572 -0.3840  0.1453
  392TMC3    O1 5866   4.377   0.419  10.587  1.0501 -0.4232  0.0455
  392TMC3    O2 5867   3.970   0.045  10.207 -0.0804 -0.1638 -0.1650
  393TMC3    C1 5868   3.360   2.479   9.769 -0.4457 -0.4836  0.1136
  393TMC3    C2 5869   3.280   2.568   9.827 -0.3141 -0.0540  0.6247
  393TMC3    C3 5870   3.262   2.564   9.960  0.1232 -0.7247  0.0678
  393TMC3    C4 5871   3.436   2.399   9.847 -0.6213  0.3287 -0.0449
  393TMC3    C5 5872   3.406   2.386   9.980 -0.1407  0.1953  0.0854
  393TMC3    C6 5873   3.326   2.478  10.045  0.3467  0.4732  0.1520
  393TMC3     C 5874   3.410   2.525   9.632  0.2231 -0.9436 -0.0662
  393TMC3     O 5875   3.379   2.638   9.596 -0.3594 -0.3231  0.5411
  393TMC3     H 5876   3.227   2.640   9.765 -1.3840 -0.5623  0.9633
  393TMC3    H1 5877   3.504   2.327   9.801 -0.5961 -0.1588  0.7603
  393TMC3    H2 5878   3.287   2.468  10.145 -0.8424  3.7612  0.0094
  393TMC3    C7 5879   3.470   2.285  10.053  0.1250 -0.5597 -0.1673
  393TMC3    C8 5880   3.172   2.658  10.017 -0.2159  0.1402  0.2707
  393TMC3    O1 5881   3.481   2.177   9.998  0.1239  0.3460  0.3423
  393TMC3    O2 5882   3.084   2.704   9.945  0.1143 -0.5116  0.0928
  394TMC3    C1 5883   4.541   3.640  10.678  0.2593  0.3991 -0.1339
  394TMC3    C2 5884   4.449   3.623  10.573  0.3949 -0.3885 -0.2367
  394TMC3    C3 5885   4.461   3.696  10.460 -0.1006 -0.7307  0.4023
  394TMC3    C4 5886   4.652   3.716  10.656 -0.0432  0.9179  0.2913
  394TMC3    C5 5887   4.665   3.784  10.538 -0.1584  0.1999 -0.4697
  394TMC3    C6 5888   4.567   3.781  10.446  0.1221 -0.4736 -0.3909
  394TMC3     C 5889   4.495   3.592  10.811  1.4346 -0.2557 -0.0173
  394TMC3     O 5890   4.410   3.503  10.811 -0.0440 -0.4275 -0.2006
  394TMC3     H 5891   4.369   3.551  10.585 -0.4978  0.5348 -0.6534
  394TMC3    H1 5892   0.005   3.715  10.735  0.0952 -2.1524  0.1468
  394TMC3    H2 5893   4.576   3.833  10.352  0.0458  1.0762  0.4585
  394TMC3    C7 5894   0.078   3.825  10.496  0.0279  0.1170  0.0848
  394TMC3    C8 5895   4.401   3.658  10.339 -0.2185 -0.5614  0.0792
  394TMC3    O1 5896   0.079   3.889  10.395  0.3208 -0.4417  0.1140
  394TMC3    O2 5897   4.362   3.731  10.247  0.2352  0.0079 -0.0686
  395TMC3    C1 5898   0.053   0.444  14.680  0.2288 -0.0767  0.5073
  395TMC3    C2 5899   0.001   0.512  14.573  0.4290 -0.0063 -0.3477
  395TMC3    C3 5900   0.023   0.648  14.575 -0.4052 -0.4440 -0.5578
  395TMC3    C4 5901   0.129   0.506  14.776  0.4222  0.6968  0.2930
  395TMC3    C5 5902   0.147   0.644  14.777  0.0122 -0.2476  0.0057
  395TMC3    C6 5903   0.102   0.713  14.668  0.0126 -0.3258  0.1394
  395TMC3     C 5904   4.693   0.333  14.736  0.6470 -0.3919  0.5938
  395TMC3     O 5905   4.682   0.323  14.858  0.2939 -0.0869 -0.0093
  395TMC3     H 5906   4.700   0.468  14.477 -1.1257  1.6272 -0.7245
  395TMC3    H1 5907   0.160   0.457  14.868 -1.2561 -0.8715  0.0117
  395TMC3    H2 5908   0.113   0.821  14.669  2.5009 -0.5898  0.2157
  395TMC3    C7 5909   0.233   0.704  14.866 -0.0180 -0.3662 -0.0618
  395TMC3    C8 5910   4.616   0.713  14.567  0.6314  0.2220 -0.0100
  395TMC3    O1 5911   0.253   0.656  14.976 -0.0276 -0.6681  0.0179
  395TMC3    O2 5912   4.597   0.820  14.629 -0.2579 -0.0664 -0.0249
  396MPD2     C 5913   4.202   0.727  16.763 -0.5364  0.6776  0.1864
  396MPD2    C1 5914   4.291   0.807  16.820  0.0628  0.6555 -0.2617
  396MPD2    C2 5915   4.290   0.935  16.767 -1.1723 -0.3427  0.4592
  396MPD2    C3 5916   4.207   0.973  16.660  0.1485 -0.2117 -0.0611
  396MPD2    C4 5917   4.123   0.880  16.603 -0.1310 -0.4333  0.0364
  396MPD2    C5 5918   4.118   0.758  16.665 -0.3260  0.1785  0.0015
  396MPD2     H 5919   4.342   1.014  16.819 -0.9519 -1.7939  2.4525
  396MPD2    H1 5920   4.049   0.895  16.524  0.5429  0.6354 -0.3908
  396MPD2    H2 5921   4.195   0.628  16.807 -0.9701  1.0142  0.8658
  396MPD2    H3 5922   4.043   0.688  16.631  1.1563 -1.0683 -0.7298
  396MPD2     N 5923   4.218   1.111  16.618  0.0685 -0.6235 -0.0258
  396MPD2    H5 5924   4.282   1.168  16.671 -1.5104  1.0512  0.0959
  396MPD2    N1 5925   4.364   0.761  16.937 -0.1605  0.1370 -0.9545
  396MPD2    H7 5926   4.344   0.666  16.966 -1.3915  0.9520  0.8257
  397TMC3    C1 5927   4.498   0.797  17.130  0.4326 -0.4025 -0.5642
  397TMC3    C2 5928   4.469   0.661  17.149 -0.0671  0.2598 -0.3011
  397TMC3    C3 5929   4.489   0.614  17.273  0.2937  0.1330  0.0500
  397TMC3    C4 5930   4.496   0.877  17.240  0.3503  0.1434  0.3978
  397TMC3    C5 5931   4.500   0.825  17.365 -0.6640 -0.0428  0.0165
  397TMC3    C6 5932   4.512   0.693  17.385 -0.3044  0.7933 -0.1037
  397TMC3     C 5933   4.438   0.850  17.010 -0.0979  0.2589  1.3090
  397TMC3     O 5934   4.476   0.968  16.986  0.2582 -0.1050 -0.1196
  397TMC3     H 5935   4.460   0.590  17.068 -1.0453 -1.4616  1.3022
  397TMC3    H1 5936   4.494   0.985  17.226 -0.7263  0.0253 -0.4079
  397TMC3    H2 5937   4.516   0.645  17.482 -2.6375  0.6989 -0.0431
  397TMC3    C7 5938   4.399   0.890  17.446 -0.3998 -0.6136  0.0054
  397TMC3    C8 5939   4.425   0.484  17.295 -0.1825 -0.5376  0.3611
  397TMC3    O1 5940   4.336   0.980  17.393 -0.0103 -0.4206  0.4050
  397TMC3    O2 5941   4.462   0.412  17.389 -0.1288  0.0368 -0.1065
  398MPD2     C 5942   2.077   1.820  17.672  0.5233 -0.0982  0.2441
  398MPD2    C1 5943   2.130   1.762   0.092 -0.4602  0.0165 -0.8528
  398MPD2    C2 5944   2.242   1.828   0.148  0.0869 -0.3019 -0.0690
  398MPD2    C3 5945   2.294   1.945   0.100  0.4009  0.2360  0.5225
  398MPD2    C4 5946   2.240   2.003  17.682 -0.2530  0.9970 -0.3812
  398MPD2    C5 5947   2.123   1.946  17.630  0.0871  0.6473 -0.1046
  398MPD2     H 5948   2.291   1.779   0.232 -0.8685  0.5418  0.9689
  398MPD2    H1 5949   2.269   2.101  17.644  0.3512  0.2742 -1.7505
  398MPD2    H2 5950   1.990   1.780  17.621  0.8938  0.1254 -0.5549
  398MPD2    H3 5951   2.080   1.998  17.546  0.5473  0.5268 -0.4110
  398MPD2     N 5952   2.404   1.993   0.162 -0.3603 -0.1489  0.1538
  398MPD2    H5 5953   2.432   1.945   0.247 -0.0258  1.5775  1.0154
  398MPD2    N1 5954   2.085   1.646   0.157  0.6116 -0.1975  0.0222
  398MPD2    H7 5955   2.146   1.616   0.232 -0.7637 -0.4491  1.0336
  399TMC3    C1 5956   1.987   1.445   0.213  0.0665  0.1054  0.6960
  399TMC3    C2 5957   2.096   1.425   0.293 -0.4312  0.3542  0.1696
  399TMC3    C3 5958   2.101   1.308   0.366 -0.5306 -0.6166  0.6647
  399TMC3    C4 5959   1.893   1.348   0.187 -0.3477 -0.9622 -0.6113
  399TMC3    C5 5960   1.899   1.240   0.265 -0.0438  0.3907 -0.0013
  399TMC3    C6 5961   2.001   1.212   0.347 -0.0559  0.3728 -0.4780
  399TMC3     C 5962   1.992   1.555   0.123  0.4601 -0.2550  0.1123
  399TMC3     O 5963   1.899   1.571   0.039  0.2342  0.1005 -0.3857
  399TMC3     H 5964   2.162   1.504   0.328 -0.3518 -0.4418  1.8152
  399TMC3    H1 5965   1.810   1.358   0.118 -1.8529  1.3040  1.4987
  399TMC3    H2 5966   2.006   1.110   0.382  1.8063 -0.0696 -1.9923
  399TMC3    C7 5967   1.811   1.126   0.244 -0.0513  0.4810  0.5275
  399TMC3    C8 5968   2.211   1.276   0.459 -0.1485 -0.1581 -0.0396
  399TMC3    O1 5969   1.756   1.078   0.343 -0.4163 -0.2389  0.0423
  399TMC3    O2 5970   2.315   1.346   0.449 -0.0981 -0.0558 -0.9743
  400TMC3    C1 5971   0.885   1.094  17.263  0.0487  0.5993  0.8895
  400TMC3    C2 5972   0.754   1.072  17.237 -0.1038  0.0685  0.4372
  400TMC3    C3 5973   0.672   1.177  17.199  0.2742 -0.2107 -0.0866
  400TMC3    C4 5974   0.949   1.214  17.241 -0.4619 -0.2758 -0.4572
  400TMC3    C5 5975   0.864   1.312  17.204 -0.1930 -0.5245  0.2994
  400TMC3    C6 5976   0.731   1.299  17.185  0.1840 -0.8871 -0.5386
  400TMC3     C 5977   0.972   0.977  17.254  0.4465  0.9219 -0.3094
  400TMC3     O 5978   0.932   0.890  17.179 -0.2395 -0.4332  0.4886
  400TMC3     H 5979   0.722   0.969  17.245 -1.0351  0.6562  4.3733
  400TMC3    H1 5980   1.054   1.225  17.266 -0.6918 -0.4606  0.5941
  400TMC3    H2 5981   0.676   1.381  17.139  0.4116  0.2649  1.2398
  400TMC3    C7 5982   0.928   1.441  17.179  0.0650  0.2253 -0.3077
  400TMC3    C8 5983   0.530   1.161  17.162 -0.5617 -0.3557  0.2846
  400TMC3    O1 5984   1.017   1.475  17.257  0.0059  0.1935  0.7027
  400TMC3    O2 5985   0.456   1.257  17.173  0.1819 -0.4296  0.1772
  401MPD2     C 5986   3.369   4.170   0.732  0.2807 -0.6403  0.7323
  401MPD2    C1 5987   3.422   4.082   0.828  0.5953  0.0904 -0.0037
  401MPD2    C2 5988   3.461   3.957   0.790  0.2779 -0.4388  0.6175
  401MPD2    C3 5989   3.451   3.919   0.654 -0.2850 -0.0113 -0.5353
  401MPD2    C4 5990   3.404   4.012   0.557 -1.2426 -0.4440 -0.1148
  401MPD2    C5 5991   3.363   4.138   0.602 -0.0540 -0.1973  0.2797
  401MPD2     H 5992   3.497   3.889   0.866 -0.1094 -1.3854 -0.0541
  401MPD2    H1 5993   3.384   3.976   0.456  0.9474  0.1346 -0.7517
  401MPD2    H2 5994   3.326   4.259   0.776  0.2905  0.8434 -2.3108
  401MPD2    H3 5995   3.312   4.199   0.527 -3.7743 -1.6037  1.6435
  401MPD2     N 5996   3.480   3.786   0.622  0.3010 -0.5647 -0.6767
  401MPD2    H5 5997   3.510   3.723   0.696  0.2128  0.1467 -0.0324
  401MPD2    N1 5998   3.437   4.113   0.959 -0.2632  0.4148  0.5892
  401MPD2    H7 5999   3.465   4.036   1.019 -0.7330  0.0101  0.2953
  402TMC3    C1 6000   3.546   3.589   0.521 -0.7574 -0.0392 -0.0452
  402TMC3    C2 6001   3.485   3.519   0.627 -0.2202  0.3870 -0.1249
  402TMC3    C3 6002   3.528   3.394   0.650  0.0895 -0.0622  0.2695
  402TMC3    C4 6003   3.641   3.533   0.434  0.4033 -0.3484 -0.2516
  402TMC3    C5 6004   3.678   3.403   0.459  0.6440  0.0903 -1.0022
  402TMC3    C6 6005   3.625   3.340   0.570  0.3620 -0.1326 -0.4844
  402TMC3     C 6006   3.500   3.729   0.494 -0.0908  0.1725 -0.3466
  402TMC3     O 6007   3.472   3.759   0.377 -0.0860  0.3526  0.1086
  402TMC3     H 6008   3.407   3.568   0.683  0.2241  0.4807  0.4153
  402TMC3    H1 6009   3.681   3.598   0.357  0.1272 -2.3543 -2.0894
  402TMC3    H2 6010   3.639   3.233   0.582  1.1948  0.0592  0.2583
  402TMC3    C7 6011   3.790   3.355   0.379  0.3105  0.1341 -0.2435
  402TMC3    C8 6012   3.496   3.328   0.767 -0.5566 -0.1879  0.2839
  402TMC3    O1 6013   3.815   3.429   0.281  0.0338  0.1041  0.3248
  402TMC3    O2 6014   3.571   3.237   0.801 -0.0198 -0.5339 -0.4225
  403MPD2     C 6015   2.318   2.876  13.345  0.6975  0.9149  0.6964
  403MPD2    C1 6016   2.393   2.765  13.334 -0.5095  0.4322 -0.4429
  403MPD2    C2 6017   2.533   2.773  13.356  0.6474 -0.3894  0.2204
  403MPD2    C3 6018   2.590   2.893  13.402  0.3317 -0.7386  0.1112
  403MPD2    C4 6019   2.515   2.998  13.411  0.1293 -0.3905 -1.1369
  403MPD2    C5 6020   2.381   2.992  13.381 -0.0801 -0.2652  0.7725
  403MPD2     H 6021   2.592   2.682  13.352  0.2690 -0.4660 -3.3966
  403MPD2    H1 6022   2.556   3.094  13.440 -1.1005 -0.3702  0.5157
  403MPD2    H2 6023   2.213   2.891  13.322  0.9214 -0.6959 -1.3857
  403MPD2    H3 6024   2.329   3.087  13.381 -1.0401 -0.7871  0.4183
  403MPD2     N 6025   2.724   2.885  13.442  0.3633 -0.0416  0.2969
  403MPD2    H5 6026   2.767   2.793  13.444  0.4375  0.0005  0.6233
  403MPD2    N1 6027   2.327   2.647  13.310  0.0256 -0.0617  0.4908
  403MPD2    H7 6028   2.229   2.659  13.286  0.5580  1.4293 -0.9004
  404TMC3    C1 6029   2.290   2.427  13.241 -0.2418  0.0443 -0.7574
  404TMC3    C2 6030   2.237   2.320  13.302  0.2951 -0.8314 -0.2166
  404TMC3    C3 6031   2.173   2.221  13.230 -0.2521 -0.2182 -0.4136
  404TMC3    C4 6032   2.288   2.442  13.110 -0.5814  0.2088  0.0559
  404TMC3    C5 6033   2.215   2.352  13.036  0.2765  0.5731  0.1712
  404TMC3    C6 6034   2.161   2.236  13.088  0.8672  0.3746  0.0838
  404TMC3     C 6035   2.372   2.521  13.317  0.0642 -0.1390 -0.2888
  404TMC3     O 6036   2.475   2.473  13.369 -0.1699  0.3847 -0.1944
  404TMC3     H 6037   2.256   2.299  13.406  1.2175 -0.0526 -0.2262
  404TMC3    H1 6038   2.338   2.526  13.062 -0.1002 -0.3640 -0.4415
  404TMC3    H2 6039   2.121   2.148  13.038 -1.9374  0.3137  2.4465
  404TMC3    C7 6040   2.210   2.369  12.892  0.5138  0.3594  0.5828
  404TMC3    C8 6041   2.122   2.099  13.294  0.5418 -0.1222 -0.4477
  404TMC3    O1 6042   2.301   2.437  12.845  0.1113  0.1846  0.5195
  404TMC3    O2 6043   2.107   1.999  13.223 -0.0011 -0.0165 -0.0607
  405MPD2     C 6044   2.815   3.410  14.487 -0.2227  0.1197 -0.3023
  405MPD2    C1 6045   2.801   3.275  14.485  0.7518  0.0019 -0.7822
  405MPD2    C2 6046   2.726   3.214  14.392  0.9500 -0.1837  0.6481
  405MPD2    C3 6047   2.658   3.294  14.302  0.3388  0.2848  0.0499
  405MPD2    C4 6048   2.648   3.432  14.307 -0.4144  0.3198  0.4621
  405MPD2    C5 6049   2.735   3.491  14.402 -0.5264 -0.4786  0.2926
  405MPD2     H 6050   2.711   3.107  14.391 -1.4739  0.1607  1.1652
  405MPD2    H1 6051   2.585   3.490  14.241  0.3761 -1.3893 -1.7741
  405MPD2    H2 6052   2.884   3.464  14.553  1.6157 -3.3172  0.5626
  405MPD2    H3 6053   2.736   3.598  14.415  2.0637 -0.6547  1.7620
  405MPD2     N 6054   2.585   3.211  14.203  0.2927 -0.2654  0.0238
  405MPD2    H5 6055   2.609   3.112  14.203 -1.1601 -0.6067  1.2679
  405MPD2    N1 6056   2.867   3.203  14.591 -0.5903 -0.2095 -0.1018
  405MPD2    H7 6057   2.912   3.243  14.673  2.3561  0.5720 -2.0862
  406TMC3    C1 6058   2.174   3.104  14.038  0.7844  0.5367  0.4021
  406TMC3    C2 6059   2.169   2.995  14.125 -0.3681 -0.4050 -0.0084
  406TMC3    C3 6060   2.293   2.950  14.163 -0.5578  0.3570  0.2801
  406TMC3    C4 6061   2.277   3.188  14.027  1.1663 -0.0782  0.0337
  406TMC3    C5 6062   2.398   3.145  14.075  0.3442  0.4486 -0.2788
  406TMC3    C6 6063   2.412   3.021  14.137  0.1354 -0.3613  0.5743
  406TMC3     C 6064   2.051   3.148  13.987 -0.6814  0.0214 -0.1139
  406TMC3     O 6065   2.044   3.171  13.867 -0.1129  0.5591  0.3714
  406TMC3     H 6066   2.083   2.931  14.141 -1.7398  1.1049 -1.3291
  406TMC3    H1 6067   2.266   3.288  13.987  1.3015 -0.4071 -0.8144
  406TMC3    H2 6068   2.507   2.975  14.160  0.7181  0.1080 -0.8710
  406TMC3    C7 6069   2.491   3.256  14.113 -0.0882 -0.5999  0.2802
  406TMC3    C8 6070   2.309   2.853  14.275  0.9620 -0.1236 -0.4851
  406TMC3    O1 6071   2.453   3.370  14.093  0.1920 -0.1031  1.0891
  406TMC3    O2 6072   2.201   2.810  14.318  0.4883 -0.1818 -0.4644
  407MPD2     C 6073   0.187   0.077   9.834  0.0989  0.1408  0.5324
  407MPD2    C1 6074   0.197   0.195   9.768 -0.5162  0.4800 -0.1064
  407MPD2    C2 6075   0.250   0.301   9.842 -0.2994 -0.0461  0.1105
  407MPD2    C3 6076   0.288   0.293   9.977  0.8574 -0.2549  0.0387
  407MPD2    C4 6077   0.260   0.169  10.035 -0.0762  0.2188 -0.1061
  407MPD2    C5 6078   0.224   0.060   9.961  0.1365 -0.7119 -0.0348
  407MPD2     H 6079   0.257   0.397   9.792  3.2946 -0.5552 -0.3835
  407MPD2    H1 6080   0.286   0.156  10.139  0.2427 -1.2876 -0.3789
  407MPD2    H2 6081   0.151   4.710   9.782  0.8882  0.6708 -0.9248
  407MPD2    H3 6082   0.224   4.686  10.012  1.3595 -0.9632 -0.5067
  407MPD2     N 6083   0.344   0.394  10.053 -0.5593 -0.0766  0.4463
  407MPD2    H5 6084   0.357   0.367  10.150  1.6660  1.5079  0.5840
  407MPD2    N1 6085   0.150   0.221   9.635  0.3934 -0.3713 -0.0037
  407MPD2    H7 6086   0.167   0.311   9.591 -0.4671  0.3484  1.1349
  408TMC3    C1 6087   0.087   0.189   9.426  0.3367 -0.0370  1.2311
  408TMC3    C2 6088   0.162   0.122   9.328  0.1084  0.1963 -0.2636
  408TMC3    C3 6089   0.208   0.196   9.223  0.0181  0.6303  0.4149
  408TMC3    C4 6090   0.062   0.319   9.422  0.0930 -0.1870  0.5220
  408TMC3    C5 6091   0.111   0.393   9.315  0.2882 -0.4859 -0.6545
  408TMC3    C6 6092   0.186   0.337   9.215  0.0860  0.1180  0.6520
  408TMC3     C 6093   0.096   0.130   9.556 -0.1705 -0.2375 -0.3242
  408TMC3     O 6094   0.090   0.007   9.560 -0.1524  0.4264 -0.1636
  408TMC3     H 6095   0.166   0.013   9.334  1.0569  0.1891 -0.9680
  408TMC3    H1 6096   4.720   0.353   9.503 -0.7090 -0.4032 -0.0172
  408TMC3    H2 6097   0.216   0.393   9.127  2.3623  0.3722  1.5752
  408TMC3    C7 6098   0.051   0.522   9.285  0.0862  0.2419  0.2295
  408TMC3    C8 6099   0.338   0.147   9.174 -0.4407 -0.3895 -0.2043
  408TMC3    O1 6100   0.068   0.555   9.166 -0.3179  0.2352  0.2982
  408TMC3    O2 6101   0.346   0.039   9.110 -0.6568  0.5212 -0.6581
  409MPD2     C 6102   4.340   4.660  17.659  0.4060 -0.2134 -0.3721
  409MPD2    C1 6103   4.425   0.022   0.041 -0.3158 -0.4980 -0.4484
  409MPD2    C2 6104   4.514   0.098  17.665 -0.1174  0.0844 -0.6701
  409MPD2    C3 6105   4.523   0.095  17.532 -0.0502  0.3944 -0.3461
  409MPD2    C4 6106   4.440   0.011  17.462  0.5236 -0.0492 -0.2140
  409MPD2    C5 6107   4.349   4.657  17.519  0.1124 -0.9070 -0.0307
  409MPD2     H 6108   4.593   0.141   0.038  0.1911 -2.5560  0.8141
  409MPD2    H1 6109   4.441   0.007  17.354 -1.5575 -2.4337 -0.1365
  409MPD2    H2 6110   4.261   4.601   0.018  0.7306  0.5426  1.1408
  409MPD2    H3 6111   4.280   4.588  17.472 -0.2142 -0.6529  0.0724
  409MPD2     N 6112   4.632   0.150  17.460  0.2037 -0.0093 -0.1010
  409MPD2    H5 6113   4.649   0.118  17.365  1.1633 -0.2084  0.1365
  409MPD2    N1 6114   4.443   0.014   0.180 -0.0458  0.2365  0.3584
  409MPD2    H7 6115   4.508   0.083   0.218 -0.4321 -0.6050  2.5668
  410TMC3    C1 6116   0.067   0.309  17.393  0.2953 -0.0060 -0.2430
  410TMC3    C2 6117   0.189   0.353  17.435  0.2707 -0.0773  0.9498
  410TMC3    C3 6118   0.301   0.341  17.356 -0.1848  0.0349  0.7151
  410TMC3    C4 6119   0.050   0.278  17.261  0.7644  0.2701 -0.2018
  410TMC3    C5 6120   0.164   0.272  17.183 -0.2880 -0.8903  0.3133
  410TMC3    C6 6121   0.290   0.293  17.230 -0.2088  0.4254  0.3935
  410TMC3     C 6122   4.709   0.255  17.505  0.5849 -0.5081 -0.6403
  410TMC3     O 6123   4.710   0.314  17.614 -0.3506 -0.1426 -0.0587
  410TMC3     H 6124   0.195   0.371  17.541  2.3408  0.3675  0.7676
  410TMC3    H1 6125   4.674   0.250  17.221  1.6375 -0.3685 -1.8742
  410TMC3    H2 6126   0.378   0.285  17.167 -0.3760  1.4459  0.0363
  410TMC3    C7 6127   0.155   0.266  17.043  0.7857 -0.1014  0.1302
  410TMC3    C8 6128   0.419   0.386  17.424 -0.5997  0.9014  0.4701
  410TMC3    O1 6129   0.238   0.199  16.983 -0.8772 -0.1342  0.2147
  410TMC3    O2 6130   0.426   0.390  17.543 -0.0705  0.4235  0.5537
  411MPD2     C 6131   0.141   1.044  14.354 -0.4883 -0.3287  0.2876
  411MPD2    C1 6132   0.018   1.103  14.344  0.0380 -1.0480 -0.4982
  411MPD2    C2 6133   4.629   1.024  14.309  0.3569 -0.0782 -0.2477
  411MPD2    C3 6134   4.636   0.892  14.285 -0.5821  0.2490 -0.5040
  411MPD2    C4 6135   0.044   0.836  14.286  0.2319 -0.3139 -0.8623
  411MPD2    C5 6136   0.154   0.912  14.316 -0.3034 -0.9256 -0.1293
  411MPD2     H 6137   4.530   1.067  14.305  0.7088  0.8128  0.7559
  411MPD2    H1 6138   0.063   0.732  14.263  2.5454 -0.6103  2.3741
  411MPD2    H2 6139   0.217   1.113  14.389  0.8762 -1.4259 -0.5178
  411MPD2    H3 6140   0.250   0.866  14.331 -0.7114 -1.3104  1.3639
  411MPD2     N 6141   4.527   0.808  14.261  0.6626 -0.1183 -0.8730
  411MPD2    H5 6142   4.557   0.725  14.211  0.1039  0.3899 -2.0465
  411MPD2    N1 6143   0.010   1.243  14.344 -0.2784 -0.4368  0.0813
  411MPD2    H7 6144   0.091   1.297  14.369 -0.7842 -0.9730  2.8326
  412TMC3    C1 6145   4.310   0.732  14.230  0.1168 -0.2809  0.5859
  412TMC3    C2 6146   4.180   0.726  14.277  0.2294  0.7968 -0.5812
  412TMC3    C3 6147   4.089   0.665  14.191  0.2545 -0.4551 -0.8454
  412TMC3    C4 6148   4.351   0.675  14.110  0.7528  0.0693 -0.5114
  412TMC3    C5 6149   4.256   0.603  14.038  0.0633  0.4593 -0.5444
  412TMC3    C6 6150   4.124   0.592  14.079 -0.7214  0.6870  0.2986
  412TMC3     C 6151   4.393   0.839  14.286 -0.1148  0.4445 -0.2322
  412TMC3     O 6152   4.347   0.946  14.324 -0.1594  0.0228  0.1056
  412TMC3     H 6153   4.159   0.794  14.359 -1.1081 -1.0713  0.6040
  412TMC3    H1 6154   4.455   0.673  14.079  0.5482 -2.7509 -1.0188
  412TMC3    H2 6155   4.047   0.551  14.014  0.8697  0.8922 -1.7258
  412TMC3    C7 6156   4.275   0.646  13.899 -0.3411  0.7066 -0.3506
  412TMC3    C8 6157   3.976   0.737  14.160 -0.3462  0.3019 -0.2126
  412TMC3    O1 6158   4.385   0.666  13.848  0.4431  0.3318  0.0606
  412TMC3    O2 6159   3.947   0.732  14.041  0.2149 -0.4630  0.2174
  413MPD2     C 6160   1.789   0.192  14.938  0.1013 -0.0943  0.0785
  413MPD2    C1 6161   1.703   0.093  14.902  0.6238  0.8305 -0.6603
  413MPD2    C2 6162   1.752   4.697  14.849 -0.2803 -0.0384  0.4628
  413MPD2    C3 6163   1.890   4.681  14.832 -0.2410 -0.1700 -0.2726
  413MPD2    C4 6164   1.977   0.059  14.869  0.2221  0.4142 -0.9564
  413MPD2    C5 6165   1.923   0.177  14.929  0.0110  0.3494 -0.5090
  413MPD2     H 6166   1.684   4.618  14.818  0.3834 -0.3190 -0.2687
  413MPD2    H1 6167   2.083   0.062  14.846 -0.0324 -0.5448 -2.2920
  413MPD2    H2 6168   1.752   0.281  14.987 -2.1923 -2.3805  2.5238
  413MPD2    H3 6169   1.981   0.264  14.959 -0.6702  1.2220 -1.6978
  413MPD2     N 6170   1.940   4.562  14.777  0.3650 -0.0646  0.4711
  413MPD2    H5 6171   1.871   4.494  14.748 -0.2214  1.1523 -0.9819
  413MPD2    N1 6172   1.564   0.112  14.915 -0.3197  0.0507 -0.4992
  413MPD2    H7 6173   1.537   0.196  14.964  1.2818  0.2060  0.1065
  414TMC3    C1 6174   2.087   4.397  14.707  0.0969  0.1374  0.7280
  414TMC3    C2 6175   2.189   4.322  14.754  0.5404  0.0633 -0.3282
  414TMC3    C3 6176   2.190   4.189  14.710 -0.0119  0.1298 -0.6948
  414TMC3    C4 6177   1.982   4.352  14.637 -0.1541  0.1450 -0.3647
  414TMC3    C5 6178   1.992   4.224  14.588  0.0070  0.1843  0.0557
  414TMC3    C6 6179   2.095   4.147  14.623  0.0865 -0.8171  0.0189
  414TMC3     C 6180   2.072   4.527  14.767  0.0982 -0.2556 -0.0510
  414TMC3     O 6181   2.168   4.575  14.831  0.0957  0.5940 -0.4548
  414TMC3     H 6182   2.266   4.376  14.806 -1.8326  1.9733  1.2032
  414TMC3    H1 6183   1.914   4.413  14.579 -0.1345 -0.8450 -1.4343
  414TMC3    H2 6184   2.107   4.041  14.602  1.7151 -0.2188 -2.0129
  414TMC3    C7 6185   1.898   4.182  14.488 -0.6167  0.3315  0.0771
  414TMC3    C8 6186   2.291   4.096  14.751  0.7070 -0.1930  0.0206
  414TMC3    O1 6187   1.789   4.231  14.508  0.2725  0.0091 -0.1765
  414TMC3    O2 6188   2.324   3.998  14.691 -0.5312  0.3201  0.1853
  415TMC3    C1 6189   4.063   2.418   9.464  0.0374  0.9379 -0.7437
  415TMC3    C2 6190   4.117   2.470   9.581 -0.8656  0.1492  0.0493
  415TMC3    C3 6191   4.168   2.370   9.667 -0.3091  0.9850 -0.8043
  415TMC3    C4 6192   4.079   2.290   9.421 -0.0832 -0.4967 -0.8175
  415TMC3    C5 6193   4.129   2.195   9.509 -0.1440  0.2510  0.5185
  415TMC3    C6 6194   4.176   2.241   9.634  0.3614  0.2882 -0.5043
  415TMC3     C 6195   4.014   2.504   9.359  0.4901  0.1450 -0.4471
  415TMC3     O 6196   4.038   2.460   9.248  0.3837 -0.1795  0.1201
  415TMC3     H 6197   4.118   2.577   9.594 -1.8002  0.3863 -1.9982
  415TMC3    H1 6198   4.043   2.256   9.324 -0.8508  0.4767 -0.8639
  415TMC3    H2 6199   4.210   2.165   9.702  1.4379  1.4840  0.3100
  415TMC3    C7 6200   4.179   2.067   9.471  0.1178 -0.0086  0.6555
  415TMC3    C8 6201   4.187   2.402   9.806  0.2790  0.2216  0.5870
  415TMC3    O1 6202   4.251   2.007   9.552  0.8258 -0.3828  0.2568
  415TMC3    O2 6203   4.210   2.310   9.880  0.2538 -0.1688 -0.3177
  416MPD2     C 6204   4.339   1.172  11.859 -0.3105  0.5670  0.7563
  416MPD2    C1 6205   4.291   1.247  11.753  0.1274 -0.0313 -0.3577
  416MPD2    C2 6206   4.270   1.173  11.634 -0.0014  0.1805  0.3366
  416MPD2    C3 6207   4.319   1.038  11.622 -0.5661 -0.1011  0.4122
  416MPD2    C4 6208   4.368   0.977  11.730  0.5510  0.1520 -0.3430
  416MPD2    C5 6209   4.373   1.039  11.852 -0.5278 -0.0603  0.1069
  416MPD2     H 6210   4.232   1.229  11.549  1.4240 -0.1584 -0.5352
  416MPD2    H1 6211   4.388   0.870  11.732  0.9614  0.2506  1.6343
  416MPD2    H2 6212   4.358   1.221  11.954  0.8517  0.6680  0.4758
  416MPD2    H3 6213   4.406   0.986  11.941 -3.7653 -0.5381  1.0043
  416MPD2     N 6214   4.310   0.966  11.497  0.4628 -0.0547 -1.1729
  416MPD2    H5 6215   4.340   0.870  11.506  2.7560  0.9921  2.4898
  416MPD2    N1 6216   4.255   1.383  11.778 -0.2582  0.8505 -0.1604
  416MPD2    H7 6217   4.278   1.430  11.865  1.8273  1.6740 -1.1402
  417TMC3    C1 6218   4.106   1.570  11.755 -0.3183  0.5994 -0.5720
  417TMC3    C2 6219   4.081   1.557  11.886  0.4486  0.2836  0.5251
  417TMC3    C3 6220   3.962   1.617  11.935  0.5428 -0.0279 -0.6047
  417TMC3    C4 6221   4.022   1.643  11.673  0.2054 -0.0768  0.3043
  417TMC3    C5 6222   3.904   1.695  11.725  0.3964  0.1542 -0.2122
  417TMC3    C6 6223   3.869   1.683  11.855  0.2123 -0.2084  0.0729
  417TMC3     C 6224   4.184   1.465  11.690 -0.2454  0.0684 -0.3336
  417TMC3     O 6225   4.166   1.448  11.569 -0.3511  0.3164 -0.0636
  417TMC3     H 6226   4.151   1.506  11.951 -0.9080 -2.2028  0.0502
  417TMC3    H1 6227   4.037   1.650  11.566 -3.5921  0.2985 -0.2106
  417TMC3    H2 6228   3.781   1.734  11.892  0.7277  0.9678 -0.3089
  417TMC3    C7 6229   3.799   1.725  11.627 -0.4637 -0.3733 -0.0862
  417TMC3    C8 6230   3.929   1.619  12.072  0.3932  0.5030  0.0040
  417TMC3    O1 6231   3.832   1.753  11.511  0.2385  0.3180 -0.4295
  417TMC3    O2 6232   3.820   1.663  12.106 -0.4332  0.1369  0.2912
  418TMC3    C1 6233   2.815   2.069   0.256 -0.8792  0.5525  0.5805
  418TMC3    C2 6234   2.722   2.082   0.156  0.2449 -0.5717  0.3890
  418TMC3    C3 6235   2.597   2.108   0.203  0.1426  0.1240  0.2704
  418TMC3    C4 6236   2.787   2.097   0.387  0.6798  0.3911  0.2650
  418TMC3    C5 6237   2.655   2.110   0.430 -0.6897 -0.3166 -0.0826
  418TMC3    C6 6238   2.562   2.111   0.333 -0.1402  0.6294 -0.4278
  418TMC3     C 6239   2.945   2.017   0.224  0.4193 -1.0116  0.2155
  418TMC3     O 6240   2.995   2.062   0.120 -0.1872  0.1467 -0.1734
  418TMC3     H 6241   2.748   2.040   0.059  0.0705  0.8928 -0.2881
  418TMC3    H1 6242   2.867   2.095   0.460 -0.4623  0.5636  1.5225
  418TMC3    H2 6243   2.458   2.123   0.361  0.1926 -0.2343  1.1838
  418TMC3    C7 6244   2.619   2.031   0.543  0.5387  0.5399  0.4695
  418TMC3    C8 6245   2.489   2.087   0.107 -0.4062  0.2947  0.0061
  418TMC3    O1 6246   2.528   1.957   0.506  0.8516 -0.1290 -0.3852
  418TMC3    O2 6247   2.494   2.152   0.004 -0.1448 -0.2789 -0.6085
  419MPD2     C 6248   1.362   1.275  12.213  1.3563  0.0043  0.2869
  419MPD2    C1 6249   1.309   1.401  12.199  0.3802  0.2429 -0.3241
  419MPD2    C2 6250   1.287   1.477  12.309 -0.1818  0.4631 -0.2925
  419MPD2    C3 6251   1.313   1.433  12.438 -0.4881 -0.1209 -0.7152
  419MPD2    C4 6252   1.365   1.306  12.451 -1.3236  0.1889 -0.6813
  419MPD2    C5 6253   1.390   1.231  12.341 -0.2785  0.1497  0.0098
  419MPD2     H 6254   1.255   1.580  12.302  0.5179  0.6571 -0.6018
  419MPD2    H1 6255   1.397   1.278  12.550 -1.6504  0.2065 -0.5697
  419MPD2    H2 6256   1.381   1.202  12.134 -1.2623 -0.3429 -0.0148
  419MPD2    H3 6257   1.412   1.127  12.365 -1.1745 -0.1529 -0.4645
  419MPD2     N 6258   1.282   1.518  12.549 -0.3454 -0.2382  0.8286
  419MPD2    H5 6259   1.235   1.607  12.532 -2.4242 -1.7905 -1.5856
  419MPD2    N1 6260   1.266   1.456  12.077 -0.3707 -0.0713 -0.3099
  419MPD2    H7 6261   1.223   1.547  12.088  0.3331  0.2434 -0.2163
  420TMC3    C1 6262   1.267   1.619  12.757  0.1383  0.2665 -0.3155
  420TMC3    C2 6263   1.139   1.666  12.715 -0.3642 -0.3479  0.0043
  420TMC3    C3 6264   1.087   1.774  12.783  0.4350 -0.6392  0.3491
  420TMC3    C4 6265   1.331   1.669  12.868 -0.1081  0.2011  0.7765
  420TMC3    C5 6266   1.278   1.780  12.924  0.1811  0.6438 -0.2841
  420TMC3    C6 6267   1.165   1.836  12.878  0.2158 -0.8681  0.3984
  420TMC3     C 6268   1.315   1.509  12.681 -0.2082  0.2023 -0.3609
  420TMC3     O 6269   1.389   1.436  12.741 -0.2022  0.2235 -0.0764
  420TMC3     H 6270   1.082   1.620  12.635  0.8122  0.6711 -1.4337
  420TMC3    H1 6271   1.430   1.638  12.901 -0.6451 -3.3201 -0.9963
  420TMC3    H2 6272   1.113   1.915  12.931  0.8831  0.5539 -1.0751
  420TMC3    C7 6273   1.311   1.820  13.058  0.2388  0.1621 -0.3070
  420TMC3    C8 6274   0.955   1.824  12.754  0.4856  0.0510 -0.1089
  420TMC3    O1 6275   1.264   1.921  13.104 -0.0971 -0.2137 -0.2011
  420TMC3    O2 6276   0.930   1.937  12.790 -0.0805  0.3872  0.3390
  421TMC3    C1 6277   2.926   2.956  13.544 -0.3419 -0.4535 -0.1365
  421TMC3    C2 6278   2.978   3.059  13.621  0.3326  0.0999 -0.9345
  421TMC3    C3 6279   3.112   3.052  13.642  0.0692 -0.1793 -0.0926
  421TMC3    C4 6280   2.987   2.835  13.510 -0.4221  0.6577  0.0751
  421TMC3    C5 6281   3.122   2.832  13.542 -0.8356  0.4804  0.4426
  421TMC3    C6 6282   3.181   2.936  13.605 -0.8553  0.3576 -0.2254
  421TMC3     C 6283   2.795   2.992  13.491 -0.2160 -0.1769 -0.4582
  421TMC3     O 6284   2.761   3.107  13.524 -0.3265  0.2482 -0.0986
  421TMC3     H 6285   2.925   3.148  13.653  0.5909 -1.0482  2.7117
  421TMC3    H1 6286   2.939   2.752  13.459 -1.1205  1.9936 -1.4296
  421TMC3    H2 6287   3.285   2.926  13.632 -0.6244  0.2373 -1.1884
  421TMC3    C7 6288   3.162   2.709  13.614 -0.6275  0.2499  0.3956
  421TMC3    C8 6289   3.172   3.125  13.753 -0.7575  0.5081  0.4617
  421TMC3    O1 6290   3.239   2.719  13.709  0.5391  0.3928  0.4889
  421TMC3    O2 6291   3.293   3.128  13.754 -0.0010 -0.6090 -0.4320
  422TMC3    C1 6292   0.205   4.509  12.225 -0.0380  0.3293 -0.1728
  422TMC3    C2 6293   0.228   4.613  12.316  0.7009  0.5341 -0.6757
  422TMC3    C3 6294   0.161   4.618  12.434  0.5417 -0.3055  0.9707
  422TMC3    C4 6295   0.112   4.410  12.250  0.0042 -0.5311  0.4351
  422TMC3    C5 6296   0.035   4.421  12.367 -0.2312  0.0961  0.2080
  422TMC3    C6 6297   0.064   4.525  12.463 -0.4570 -0.3021 -0.4677
  422TMC3     C 6298   0.287   4.485  12.105 -0.2331  0.6706  0.4594
  422TMC3     O 6299   0.300   4.374  12.060 -0.0952 -0.2646  0.4720
  422TMC3     H 6300   0.306   4.686  12.293  1.6171 -0.4941 -0.8452
  422TMC3    H1 6301   0.089   4.340  12.170 -0.9169 -0.0313  0.2556
  422TMC3    H2 6302   0.020   4.518  12.562  0.7439 -0.0903  0.0921
  422TMC3    C7 6303   4.639   4.342  12.372 -0.3172 -0.1546 -0.2420
  422TMC3    C8 6304   0.185   0.010  12.521  0.1303 -0.8181 -0.1782
  422TMC3    O1 6305   4.607   4.292  12.266 -0.1465 -0.4937 -0.3416
  422TMC3    O2 6306   0.291   0.071  12.507  0.6375 -0.1597 -0.2150
  423MPD2     C 6307   2.162   0.220   0.701 -0.3195 -0.1981 -0.2527
  423MPD2    C1 6308   2.086   0.115   0.657 -0.6185  0.4228 -0.5628
  423MPD2    C2 6309   2.110   0.067   0.532 -0.3240 -0.4058 -0.3777
  423MPD2    C3 6310   2.209   0.128   0.452  0.3389  0.4008  0.2262
  423MPD2    C4 6311   2.287   0.236   0.500 -0.4566  0.4035  0.7631
  423MPD2    C5 6312   2.261   0.271   0.626  0.0386  0.3962 -0.5850
  423MPD2     H 6313   2.045   4.713   0.490  1.7718 -3.1763  1.3723
  423MPD2    H1 6314   2.376   0.273   0.449 -1.1783 -0.7156 -1.3178
  423MPD2    H2 6315   2.145   0.259   0.801  0.7409 -0.1958 -0.0683
  423MPD2    H3 6316   2.319   0.357   0.655  1.9033 -0.9041 -0.4795
  423MPD2     N 6317   2.219   0.095   0.313  0.2166  0.2588  0.2456
  423MPD2    H5 6318   2.283   0.150   0.256 -0.8570  1.5672  0.2963
  423MPD2    N1 6319   1.975   0.058   0.726 -0.2982  0.4613  0.2717
  423MPD2    H7 6320   1.915   4.709   0.684 -0.5768  0.6553  0.3405
  424TMC3    C1 6321   1.835   4.721   0.914 -0.1144 -0.1188  0.5401
  424TMC3    C2 6322   1.867   4.650   1.027  0.3718  0.2665  0.2676
  424TMC3    C3 6323   1.809   4.526   1.042 -0.0493 -0.0095  0.2343
  424TMC3    C4 6324   1.738   4.680   0.831 -0.4363 -0.0655  0.2576
  424TMC3    C5 6325   1.669   4.566   0.859 -0.8270 -0.8342  0.6352
  424TMC3    C6 6326   1.708   4.482   0.960  0.0594 -0.1560  0.2461
  424TMC3     C 6327   1.953   0.076   0.860  0.4563  0.3903 -0.6578
  424TMC3     O 6328   2.031   0.117   0.944 -0.2167 -0.1143 -0.4679
  424TMC3     H 6329   1.956   4.683   1.079  1.0430  1.4509 -1.6489
  424TMC3    H1 6330   1.700   0.008   0.742 -1.2470 -1.2959 -0.0858
  424TMC3    H2 6331   1.657   4.386   0.964  0.8256 -0.4918  2.0824
  424TMC3    C7 6332   1.555   4.525   0.774 -0.0351  0.1942  0.0837
  424TMC3    C8 6333   1.874   4.427   1.122 -0.1637  0.5204  0.9726
  424TMC3    O1 6334   1.567   4.571   0.658 -0.3343  0.3857  0.5503
  424TMC3    O2 6335   1.859   4.313   1.085  0.4039  0.0744  0.1172
  425MPD2     C 6336   0.391   3.712  17.470 -0.5223 -0.0099 -0.2696
  425MPD2    C1 6337   0.288   3.620  17.488 -0.7613  0.1717  0.1399
  425MPD2    C2 6338   0.168   3.671  17.547  0.2352 -0.2182 -0.0983
  425MPD2    C3 6339   0.153   3.806  17.573 -0.0686  0.7219  0.5769
  425MPD2    C4 6340   0.256   3.899  17.557  1.5000  0.2711  0.6469
  425MPD2    C5 6341   0.376   3.847  17.515 -0.3317  0.0029 -0.1966
  425MPD2     H 6342   0.083   3.604  17.558  1.1765 -0.7937  3.7452
  425MPD2    H1 6343   0.244   4.005  17.576 -0.7551 -0.0491  0.9851
  425MPD2    H2 6344   0.492   3.689  17.438 -0.2814  1.0602 -0.2703
  425MPD2    H3 6345   0.460   3.915  17.508  0.8996 -1.5240 -0.3219
  425MPD2     N 6346   0.026   3.842  17.614 -0.6041  0.3374 -0.0801
  425MPD2    H5 6347   4.680   3.767  17.625  1.3787 -1.5740 -0.8495
  425MPD2    N1 6348   0.313   3.486  17.459  0.6225  0.1367  0.1033
  425MPD2    H7 6349   0.403   3.461  17.418 -0.4778  0.6227 -2.5857
  426TMC3    C1 6350   0.343   3.272  17.531 -0.4759 -0.1240 -0.3494
  426TMC3    C2 6351   0.425   3.253  17.425 -0.3105  0.2200  0.5446
  426TMC3    C3 6352   0.530   3.164  17.446  0.1026  0.0103  0.8176
  426TMC3    C4 6353   0.347   3.202  17.649 -0.2609  0.2801 -0.2776
  426TMC3    C5 6354   0.442   3.104  17.661  0.4462 -0.6483 -0.4316
  426TMC3    C6 6355   0.546   3.098  17.567  0.3239  0.2204 -0.4186
  426TMC3     C 6356   0.248   3.385  17.526 -0.3691 -0.5603  0.1042
  426TMC3     O 6357   0.163   3.384  17.611  0.0436  0.5384  0.2114
  426TMC3     H 6358   0.410   3.302  17.330  0.6520 -4.4841 -2.0050
  426TMC3    H1 6359   0.272   3.217   0.037 -0.3243 -0.8112 -0.1256
  426TMC3    H2 6360   0.633   3.034  17.581  1.3363  1.7827  0.4605
  426TMC3    C7 6361   0.449   3.006   0.077  0.3286  0.0288 -0.3196
  426TMC3    C8 6362   0.583   3.092  17.325  0.1245  0.0466  0.1641
  426TMC3    O1 6363   0.532   2.917   0.059  0.2355 -0.6176 -0.6140
  426TMC3    O2 6364   0.701   3.058  17.323 -0.1112 -0.0100  0.5245
  427MPD2     C 6365   3.779   1.297  14.565  0.4640 -0.1340 -0.4675
  427MPD2    C1 6366   3.729   1.229  14.674 -0.1189 -0.0976  0.8545
  427MPD2    C2 6367   3.595   1.235  14.708  0.5103  0.2755  0.2045
  427MPD2    C3 6368   3.513   1.317  14.637  0.8707 -0.6730 -0.7001
  427MPD2    C4 6369   3.556   1.385  14.528 -0.2450  0.1765  0.2487
  427MPD2    C5 6370   3.688   1.370  14.489 -0.0345 -0.2632 -0.5984
  427MPD2     H 6371   3.558   1.170  14.786 -1.5665 -1.1008 -1.9197
  427MPD2    H1 6372   3.487   1.452  14.479  0.4698 -0.1479 -1.2139
  427MPD2    H2 6373   3.874   1.293  14.514  0.6369  0.9093 -0.2457
  427MPD2    H3 6374   3.720   1.419  14.397 -0.0216  0.9539  0.0545
  427MPD2     N 6375   3.378   1.335  14.665 -0.2550 -0.1874  0.4094
  427MPD2    H5 6376   3.324   1.379  14.591 -1.5246 -0.3213  1.2521
  427MPD2    N1 6377   3.813   1.141  14.753  0.0019 -0.6339 -0.2951
  427MPD2    H7 6378   3.780   1.087  14.833 -0.0518  2.0587  1.4788
  428TMC3    C1 6379   4.019   1.069  14.841 -0.2140 -0.3344  0.9625
  428TMC3    C2 6380   3.958   0.959  14.899 -0.0105  0.1519  0.1618
  428TMC3    C3 6381   4.016   0.899  15.007 -0.8637 -0.5019  0.1302
  428TMC3    C4 6382   4.149   1.098  14.869 -0.6343 -0.1567  0.1167
  428TMC3    C5 6383   4.214   1.031  14.968  0.2681  0.4749 -0.5619
  428TMC3    C6 6384   4.144   0.938  15.044  0.1867 -0.4367 -0.3272
  428TMC3     C 6385   3.952   1.128  14.734  0.3650 -0.1119  0.2471
  428TMC3     O 6386   4.020   1.165  14.639 -0.1959 -0.4602 -0.3241
  428TMC3     H 6387   3.872   0.918  14.846  1.2669 -1.6316 -0.5189
  428TMC3    H1 6388   4.200   1.173  14.811  1.5836 -2.4503 -0.9069
  428TMC3    H2 6389   4.195   0.901  15.132  0.2480 -0.3768 -0.3379
  428TMC3    C7 6390   4.360   1.041  14.983 -0.0473  0.6498  1.4458
  428TMC3    C8 6391   3.973   0.769  15.054 -0.1334  0.1901  0.8483
  428TMC3    O1 6392   4.404   1.009  15.090  0.0674  0.5678 -0.1537
  428TMC3    O2 6393   4.058   0.705  15.111  0.3741  0.5073 -0.3089
  429MPD2     C 6394   0.537   1.282   0.017 -0.5045  0.7210 -0.1720
  429MPD2    C1 6395   0.438   1.227  17.617 -0.0588 -0.1814  0.5148
  429MPD2    C2 6396   0.414   1.282  17.494 -0.8567 -0.5999 -0.3702
  429MPD2    C3 6397   0.460   1.410  17.468 -0.3956  0.4487  0.4330
  429MPD2    C4 6398   0.562   1.464  17.549 -0.1886 -0.7076  0.0356
  429MPD2    C5 6399   0.595   1.400  17.661 -0.0677  0.1355 -0.2905
  429MPD2     H 6400   0.337   1.235  17.433 -0.3946 -0.8674 -0.7491
  429MPD2    H1 6401   0.605   1.562  17.527 -0.4774 -0.0173  2.5550
  429MPD2    H2 6402   0.548   1.242   0.117 -0.1796 -0.6735 -0.7611
  429MPD2    H3 6403   0.657   1.448   0.049 -2.4757  0.3491  1.5471
  429MPD2     N 6404   0.430   1.468  17.349  0.7441 -0.3252 -0.1569
  429MPD2    H5 6405   0.370   1.417  17.284  0.7563  1.2269 -1.3838
  429MPD2    N1 6406   0.363   1.113  17.648 -0.2475  0.3874  0.1393
  429MPD2    H7 6407   0.288   1.094  17.583 -1.8919  0.6041  1.9977
  430TMC3    C1 6408   0.433   1.614  17.163  0.1377  0.1234 -0.3722
  430TMC3    C2 6409   0.359   1.525  17.087  1.1256 -0.3493 -0.6549
  430TMC3    C3 6410   0.332   1.562  16.963  0.2729 -0.3265  0.3544
  430TMC3    C4 6411   0.484   1.732  17.108 -0.4690 -0.9026  0.0184
  430TMC3    C5 6412   0.473   1.757  16.973  0.0937 -0.3395  0.0737
  430TMC3    C6 6413   0.387   1.676  16.904 -0.0631 -0.1983 -0.4787
  430TMC3     C 6414   0.462   1.598  17.310  0.0527 -0.1289  0.2903
  430TMC3     O 6415   0.515   1.689  17.370 -0.4398  0.3701 -0.1586
  430TMC3     H 6416   0.315   1.433  17.123 -3.8186  2.0187 -0.6468
  430TMC3    H1 6417   0.543   1.790  17.178  1.5507  0.0314 -2.4466
  430TMC3    H2 6418   0.378   1.690  16.797  0.1848 -0.9040 -0.5902
  430TMC3    C7 6419   0.527   1.873  16.900  0.2840  0.0920  0.4992
  430TMC3    C8 6420   0.216   1.496  16.905  0.6026  0.4705 -0.4141
  430TMC3    O1 6421   0.451   1.927  16.815 -0.0037  0.0348 -0.5865
  430TMC3    O2 6422   0.200   1.380  16.926  0.3938  0.2008  0.1603
  431MPD2     C 6423   0.989   2.077  12.366  0.7581 -0.5510  0.2177
  431MPD2    C1 6424   1.103   2.095  12.291  0.0376 -0.0086  0.6177
  431MPD2    C2 6425   1.129   2.010  12.187  0.3791  0.2435 -0.3065
  431MPD2    C3 6426   1.047   1.903  12.155 -0.1996  0.4274 -0.2525
  431MPD2    C4 6427   0.938   1.884  12.241  0.2341  0.2823 -0.8022
  431MPD2    C5 6428   0.905   1.977  12.336  0.5110 -0.7245  1.0139
  431MPD2     H 6429   1.218   2.030  12.128  0.4359 -1.4332 -0.7882
  431MPD2    H1 6430   0.873   1.800  12.219 -0.9159  0.3716  2.2325
  431MPD2    H2 6431   0.964   2.155  12.438 -1.9061 -1.1318 -0.0527
  431MPD2    H3 6432   0.815   1.968  12.396 -1.1832  3.0538 -1.0133
  431MPD2     N 6433   1.063   1.828  12.044 -0.0224  0.1387 -0.0393
  431MPD2    H5 6434   0.987   1.763  12.024  0.8351 -1.9127  3.3607
  431MPD2    N1 6435   1.200   2.196  12.320  0.0234 -0.1894 -0.2769
  431MPD2    H7 6436   1.261   2.224  12.244  1.0057 -1.0808  0.1784
  432TMC3    C1 6437   1.176   1.726  11.865  0.1671 -0.6480 -0.2103
  432TMC3    C2 6438   1.267   1.748  11.768  0.3138 -0.0892 -0.6173
  432TMC3    C3 6439   1.329   1.643  11.710  0.6070  0.4243 -0.2600
  432TMC3    C4 6440   1.150   1.604  11.914  0.0453 -0.4969 -0.3587
  432TMC3    C5 6441   1.213   1.496  11.855 -0.2922  0.0716 -0.3083
  432TMC3    C6 6442   1.300   1.512  11.747  0.1420 -0.1279 -0.1175
  432TMC3     C 6443   1.160   1.841  11.946 -0.4547 -0.3252 -0.1223
  432TMC3     O 6444   1.255   1.913  11.939  0.3705  0.0448 -0.1533
  432TMC3     H 6445   1.290   1.849  11.735 -4.1111  0.4377 -2.1374
  432TMC3    H1 6446   1.079   1.590  11.994  0.2141 -0.7048 -0.2457
  432TMC3    H2 6447   1.351   1.433  11.695 -1.5032 -1.3124  0.0621
  432TMC3    C7 6448   1.273   1.406  11.948 -0.5784 -0.4447 -0.1156
  432TMC3    C8 6449   1.459   1.664  11.681  0.2197  0.1351  0.8002
  432TMC3    O1 6450   1.334   1.312  11.899  0.7032 -0.2841  0.5106
  432TMC3    O2 6451   1.487   1.769  11.625 -0.2415  0.3984 -0.0311
  433MPD2     C 6452   0.402   0.753  10.818 -0.2003 -0.4173  0.4786
  433MPD2    C1 6453   0.345   0.638  10.858  0.5042 -0.2349 -0.7607
  433MPD2    C2 6454   0.332   0.618  10.994  0.2601  0.0818  0.5289
  433MPD2    C3 6455   0.357   0.722  11.086 -0.2477  0.6443 -0.3732
  433MPD2    C4 6456   0.403   0.845  11.037  0.7223 -0.1238 -0.1155
  433MPD2    C5 6457   0.433   0.857  10.906  0.6475 -0.3253  0.2661
  433MPD2     H 6458   0.289   0.527  11.033  1.4079 -0.5475  0.3393
  433MPD2    H1 6459   0.434   0.924  11.104  1.0045  0.1184 -0.5327
  433MPD2    H2 6460   0.419   0.773  10.713  2.0268 -0.3312  0.8581
  433MPD2    H3 6461   0.470   0.951  10.866 -0.3299  0.1539  0.4832
  433MPD2     N 6462   0.329   0.698  11.224 -0.0789 -0.0769 -0.0078
  433MPD2    H5 6463   0.301   0.602  11.239  0.0278 -0.4960 -2.4497
  433MPD2    N1 6464   0.305   0.540  10.764  0.5598 -0.0911  0.3998
  433MPD2    H7 6465   0.338   0.560  10.670 -1.2508 -0.6856 -0.3672
  434TMC3    C1 6466   0.283   0.316  10.721 -0.2700  0.3039  0.3480
  434TMC3    C2 6467   0.296   0.197  10.784 -0.6989  0.1491  0.6047
  434TMC3    C3 6468   0.384   0.105  10.732  0.6592  0.4918  0.0157
  434TMC3    C4 6469   0.337   0.332  10.599 -0.0226 -0.5958  0.0896
  434TMC3    C5 6470   0.413   0.236  10.540 -0.4402 -0.0600 -0.1790
  434TMC3    C6 6471   0.452   0.127  10.613 -0.4936  0.3923 -0.3511
  434TMC3     C 6472   0.238   0.428  10.792 -0.6864 -0.0148 -0.1914
  434TMC3     O 6473   0.165   0.405  10.886  0.2635 -0.1368  0.7460
  434TMC3     H 6474   0.253   0.185  10.882 -0.0199 -0.7102  0.7927
  434TMC3    H1 6475   0.327   0.428  10.549  2.2419  0.2637  1.2584
  434TMC3    H2 6476   0.525   0.053  10.584 -0.1954  0.8488 -0.7714
  434TMC3    C7 6477   0.362   0.196  10.413 -0.5618  0.3406  0.4546
  434TMC3    C8 6478   0.438   0.020  10.826  0.2520 -0.3449 -0.2893
  434TMC3    O1 6479   0.288   0.271  10.352  0.6511  0.1315 -0.2504
  434TMC3    O2 6480   0.363   4.701  10.916  0.4389  1.1119  0.3662
  435MPD2     C 6481   1.796   0.681  15.152  0.2759 -0.3501 -0.2902
  435MPD2    C1 6482   1.730   0.620  15.258 -0.1608 -1.0097 -0.8510
  435MPD2    C2 6483   1.774   0.498  15.311  0.6712 -0.1698 -0.0485
  435MPD2    C3 6484   1.884   0.430  15.257  0.0711 -0.2550 -0.2634
  435MPD2    C4 6485   1.954   0.501  15.160 -0.0079  0.1679 -0.0860
  435MPD2    C5 6486   1.902   0.617  15.098 -0.7874 -0.2683  0.1645
  435MPD2     H 6487   1.722   0.458  15.397 -0.3709  1.3619  0.0437
  435MPD2    H1 6488   2.042   0.470  15.106  0.2095  0.5021  0.0811
  435MPD2    H2 6489   1.770   0.770  15.096  0.6496 -1.0173 -1.5113
  435MPD2    H3 6490   1.945   0.658  15.007 -2.2377 -1.0470 -0.8687
  435MPD2     N 6491   1.925   0.310  15.316 -0.7394  0.8114 -0.0755
  435MPD2    H5 6492   1.879   0.280  15.401  0.4327  0.9274  0.5948
  435MPD2    N1 6493   1.610   0.680  15.308  0.0269 -0.0301  0.3630
  435MPD2    H7 6494   1.566   0.619  15.376 -0.2787  0.2775  0.4450
  436TMC3    C1 6495   1.335   0.865  15.565  0.6393 -0.7030  0.4831
  436TMC3    C2 6496   1.420   0.797  15.484  0.2646 -0.4889  0.6224
  436TMC3    C3 6497   1.469   0.874  15.374  0.3804  0.0634  0.7859
  436TMC3    C4 6498   1.300   0.997  15.549  0.1927 -0.5886  0.7570
  436TMC3    C5 6499   1.355   1.069  15.446 -0.5094  0.6767  0.3243
  436TMC3    C6 6500   1.444   1.009  15.359  0.1039 -0.4282 -0.0612
  436TMC3     C 6501   1.246   0.792  15.659  0.0798 -0.1647  0.1206
  436TMC3     O 6502   1.214   0.675  15.626  0.5092 -0.2059  0.0375
  436TMC3     H 6503   1.444   0.693  15.500  1.9534 -0.2278 -0.1187
  436TMC3    H1 6504   1.215   1.039  15.602  1.7189  1.2973  1.7103
  436TMC3    H2 6505   1.477   1.072  15.277 -2.5250  0.0453 -0.7593
  436TMC3    C7 6506   1.363   1.210  15.445 -0.2685 -0.5241 -0.3375
  436TMC3    C8 6507   1.562   0.808  15.279 -0.1741  0.2483  0.6616
  436TMC3    O1 6508   1.384   1.261  15.336  0.0042  0.1364 -0.3413
  436TMC3    O2 6509   1.612   0.886  15.198 -0.5217  0.1875  0.2344
  437TMC3    C1 6510   0.742   2.708  12.611  0.0375  0.2316 -0.8526
  437TMC3    C2 6511   0.622   2.779  12.601 -0.4254  0.1327  0.3510
  437TMC3    C3 6512   0.624   2.877  12.503 -0.1532 -0.9229  0.0349
  437TMC3    C4 6513   0.859   2.731  12.540 -0.1170  0.6649 -0.7876
  437TMC3    C5 6514   0.848   2.823  12.445  0.0809  0.1141 -0.0768
  437TMC3    C6 6515   0.732   2.898  12.428  0.0562 -0.0273  0.2449
  437TMC3     C 6516   0.746   2.596  12.700  0.4741  0.4840  0.7004
  437TMC3     O 6517   0.847   2.525  12.708  0.2542 -0.3371  0.1480
  437TMC3     H 6518   0.546   2.774  12.678 -1.0217 -1.2248 -0.3176
  437TMC3    H1 6519   0.949   2.676  12.564 -0.6392  0.8384  1.5523
  437TMC3    H2 6520   0.730   2.963  12.341 -2.0722  0.3601  0.5822
  437TMC3    C7 6521   0.969   2.880  12.378  0.4660 -0.2123 -0.7874
  437TMC3    C8 6522   0.505   2.967  12.478 -0.2247 -0.7750 -0.3722
  437TMC3    O1 6523   0.945   2.933  12.273 -0.3318  0.1798  0.0753
  437TMC3    O2 6524   0.511   3.051  12.390 -0.1830  0.1037 -0.2680
  438MPD2     C 6525   3.236   2.286  16.288 -0.4253 -0.2213  0.0828
  438MPD2    C1 6526   3.320   2.183  16.314  0.3583 -0.3060  0.1031
  438MPD2    C2 6527   3.356   2.153  16.451 -0.6264  0.2206  0.3723
  438MPD2    C3 6528   3.294   2.225  16.559  0.1609  0.2249 -1.2219
  438MPD2    C4 6529   3.215   2.330  16.523  0.1737  0.2215 -0.0655
  438MPD2    C5 6530   3.185   2.355  16.392 -0.6822 -0.3026 -0.0633
  438MPD2     H 6531   3.439   2.085  16.467 -0.0534  1.2697  1.9092
  438MPD2    H1 6532   3.177   2.392  16.603 -2.5119 -0.4885 -0.7881
  438MPD2    H2 6533   3.204   2.324  16.192 -0.6974  0.6668  0.5169
  438MPD2    H3 6534   3.112   2.433  16.372  1.5989  1.4165 -1.6769
  438MPD2     N 6535   3.323   2.201  16.695 -0.3216 -0.9031  0.0320
  438MPD2    H5 6536   3.289   2.272  16.759  1.6643 -0.3660  0.5118
  438MPD2    N1 6537   3.399   2.113  16.216 -0.2527  0.5440  0.4500
  438MPD2    H7 6538   3.471   2.049  16.248  0.7514 -0.0992 -3.1706
  439TMC3    C1 6539   3.452   1.991  16.024  0.2409  0.0632 -0.4502
  439TMC3    C2 6540   3.377   1.902  15.945  0.7656 -0.0191  0.6892
  439TMC3    C3 6541   3.397   1.768  15.971  0.0248 -0.2283  0.2603
  439TMC3    C4 6542   3.547   1.956  16.111  0.2881  0.0828 -0.0245
  439TMC3    C5 6543   3.570   1.822  16.132  0.6106 -0.5697 -0.3662
  439TMC3    C6 6544   3.498   1.728  16.061  0.1316 -0.1403 -0.0595
  439TMC3     C 6545   3.381   2.109  16.077 -0.1426 -0.1837  0.3356
  439TMC3     O 6546   3.285   2.150  16.014 -0.7203 -0.0965 -0.1848
  439TMC3     H 6547   3.296   1.950  15.891  1.1701  1.0806  1.0649
  439TMC3    H1 6548   3.610   2.031  16.157  0.6114 -0.3049  0.1674
  439TMC3    H2 6549   3.518   1.622  16.068  1.0018  0.0996  1.1447
  439TMC3    C7 6550   3.633   1.794  16.261  0.6942 -0.1125  0.4851
  439TMC3    C8 6551   3.361   1.669  15.875  0.4891 -0.1281 -0.0582
  439TMC3    O1 6552   3.668   1.895  16.319  0.1721 -0.4528 -0.1136
  439TMC3    O2 6553   3.419   1.564  15.879  1.0472  0.2271 -0.0486
  440MPD2     C 6554   2.319   3.221  14.439 -0.6519 -0.5464  0.2178
  440MPD2    C1 6555   2.340   3.355  14.461 -0.2823  0.1884  0.5748
  440MPD2    C2 6556   2.428   3.387  14.565  0.0445  0.2547 -0.1689
  440MPD2    C3 6557   2.496   3.294  14.639 -0.0221 -0.1223 -0.2317
  440MPD2    C4 6558   2.473   3.156  14.614  0.0396  0.3589  0.0061
  440MPD2    C5 6559   2.381   3.125  14.513 -0.3644  0.5424  0.3374
  440MPD2     H 6560   2.438   3.493  14.584  0.1540  0.1183  0.5482
  440MPD2    H1 6561   2.509   3.078  14.681 -1.6544 -1.0556 -0.7439
  440MPD2    H2 6562   2.238   3.189  14.374 -0.7980 -0.2831  0.2688
  440MPD2    H3 6563   2.350   3.022  14.501  1.0620  0.3853 -1.9986
  440MPD2     N 6564   2.572   3.325  14.748 -0.9604  0.0303  0.3674
  440MPD2    H5 6565   2.602   3.249  14.807 -1.7282 -1.0901 -0.6923
  440MPD2    N1 6566   2.255   3.456  14.415 -0.0454  0.6477 -0.4405
  440MPD2    H7 6567   2.265   3.547  14.459 -1.8932 -0.3103  1.9665
  441TMC3    C1 6568   2.643   3.468  14.923 -0.0883 -0.2437 -0.1203
  441TMC3    C2 6569   2.725   3.570  14.951  0.5998 -0.3683 -0.4070
  441TMC3    C3 6570   2.744   3.602  15.084  0.2503  0.4120  0.2070
  441TMC3    C4 6571   2.580   3.393  15.021  0.0682 -0.8774  0.0683
  441TMC3    C5 6572   2.614   3.412  15.153 -0.6999  0.3791 -0.0918
  441TMC3    C6 6573   2.694   3.520  15.185  0.1235  0.1239  0.1795
  441TMC3     C 6574   2.602   3.454  14.785  0.4185  0.3955 -0.7670
  441TMC3     O 6575   2.611   3.555  14.714 -0.0908 -0.2234 -0.0878
  441TMC3     H 6576   2.771   3.630  14.873  0.3371  1.0367  0.5283
  441TMC3    H1 6577   2.516   3.313  14.985 -2.0156 -0.1593  2.1438
  441TMC3    H2 6578   2.686   3.572  15.280  0.1416 -0.4894  0.5179
  441TMC3    C7 6579   2.497   3.411  15.246 -0.1363 -0.3954 -0.6961
  441TMC3    C8 6580   2.744   3.746  15.106  0.0328  0.1468 -0.0497
  441TMC3    O1 6581   2.521   3.434  15.367  0.4312  0.1948  0.6917
  441TMC3    O2 6582   2.791   3.792  15.209  0.3832  0.6335  0.6543
  442MPD2     C 6583   0.533   3.827  17.075 -0.4844  0.9076 -0.5196
  442MPD2    C1 6584   0.406   3.789  17.086  0.1827 -0.3809 -0.5569
  442MPD2    C2 6585   0.373   3.666  17.026 -0.1879 -0.5402  0.5230
  442MPD2    C3 6586   0.456   3.585  16.961 -0.5582 -0.3905  0.7626
  442MPD2    C4 6587   0.588   3.619  16.955  0.1265 -0.4647 -0.0874
  442MPD2    C5 6588   0.622   3.742  17.014 -0.3647 -0.1188  0.6613
  442MPD2     H 6589   0.266   3.654  17.039 -0.1268 -0.2500  1.2925
  442MPD2    H1 6590   0.664   3.552  16.917  0.8466  0.8320 -0.9363
  442MPD2    H2 6591   0.576   3.913  17.125 -1.1476  1.3851 -0.7730
  442MPD2    H3 6592   0.730   3.755  17.015 -0.4676  0.9320 -1.8744
  442MPD2     N 6593   0.429   3.452  16.917 -0.0051 -0.1866  0.3994
  442MPD2    H5 6594   0.503   3.405  16.865 -0.9403 -3.0120  1.6015
  442MPD2    N1 6595   0.302   3.866  17.132 -0.2743 -0.5157 -0.6457
  442MPD2    H7 6596   0.214   3.817  17.142 -1.3690  1.6372  0.1491
  443TMC3    C1 6597   0.194   4.034  17.231 -0.6297  0.4481 -0.6115
  443TMC3    C2 6598   0.144   4.152  17.181 -0.5237 -0.4137  0.1060
  443TMC3    C3 6599   0.015   4.160  17.137  0.5605 -0.6516  0.1324
  443TMC3    C4 6600   0.107   3.928  17.259 -0.2795 -0.3531  0.2399
  443TMC3    C5 6601   4.703   3.941  17.206 -0.0736 -0.2544 -0.5031
  443TMC3    C6 6602   4.653   4.049  17.146 -0.4438  0.4299 -0.1353
  443TMC3     C 6603   0.318   3.991  17.180  0.7337  0.2549  0.1957
  443TMC3     O 6604   0.399   4.077  17.144  0.4760  0.2316 -0.3357
  443TMC3     H 6605   0.225   4.223  17.169  0.2504 -1.4160 -0.6925
  443TMC3    H1 6606   0.139   3.833  17.301 -1.3037 -1.2371 -0.9911
  443TMC3    H2 6607   4.556   4.039  17.100 -0.5637 -0.7584  0.3580
  443TMC3    C7 6608   4.630   3.821  17.184 -0.2037 -0.0081  0.0510
  443TMC3    C8 6609   4.710   4.232  17.015  0.3363  0.5218  0.2690
  443TMC3    O1 6610   4.685   3.714  17.162 -0.2307 -0.7834 -0.5968
  443TMC3    O2 6611   4.656   4.168  16.926 -0.2562  0.3389  0.0460
  444MPD2     C 6612   0.225   2.795  17.485 -0.3759 -0.0723 -0.3510
  444MPD2    C1 6613   0.172   2.769  17.361 -0.3949  0.2740  0.4294
  444MPD2    C2 6614   0.258   2.708  17.267  0.9007 -0.3966 -0.5772
  444MPD2    C3 6615   0.393   2.693  17.291 -0.3060  0.0574 -0.3790
  444MPD2    C4 6616   0.437   2.709  17.418  0.1925 -0.1676  0.3720
  444MPD2    C5 6617   0.355   2.767  17.512  0.3987  0.4821 -0.0890
  444MPD2     H 6618   0.218   2.677  17.172  0.4518  0.0423 -0.5303
  444MPD2    H1 6619   0.538   2.675  17.437  0.2374  0.4502  1.1918
  444MPD2    H2 6620   0.171   2.839  17.567 -3.1078  0.1389 -2.2647
  444MPD2    H3 6621   0.396   2.783  17.611 -0.7910  0.5227  0.3938
  444MPD2     N 6622   0.477   2.659  17.181  0.4751  0.5314  0.4037
  444MPD2    H5 6623   0.434   2.650  17.090  1.0354 -0.4149  0.2283
  444MPD2    N1 6624   0.039   2.795  17.321 -0.6209  0.0444 -0.2746
  444MPD2    H7 6625   0.010   2.759  17.230  0.3684  0.5965 -0.8116
  445TMC3    C1 6626   0.670   2.624  17.055  0.0345  0.2778 -0.5206
  445TMC3    C2 6627   0.630   2.506  16.996  0.0467  0.9513  0.9230
  445TMC3    C3 6628   0.729   2.431  16.930 -0.2138 -0.7054 -0.3457
  445TMC3    C4 6629   0.797   2.667  17.042  0.2301  0.4782  0.3376
  445TMC3    C5 6630   0.885   2.597  16.962  0.2817 -0.2542 -0.0536
  445TMC3    C6 6631   0.854   2.480  16.905  0.2146  1.0395  0.4613
  445TMC3     C 6632   0.611   2.656  17.185  0.2311  0.1181  0.1715
  445TMC3     O 6633   0.692   2.680  17.278  0.0234  1.0910  0.2098
  445TMC3     H 6634   0.533   2.463  17.017  0.7827 -0.5278  1.2967
  445TMC3    H1 6635   0.814   2.761  17.093 -0.4070  1.0091 -0.4288
  445TMC3    H2 6636   0.921   2.438  16.831 -1.1148  0.7709 -0.5780
  445TMC3    C7 6637   0.993   2.663  16.904 -0.3366  0.0343  0.0150
  445TMC3    C8 6638   0.692   2.310  16.863  0.4581 -0.6035 -0.6827
  445TMC3    O1 6639   1.017   2.639  16.788 -0.2669 -0.4927  0.8863
  445TMC3    O2 6640   0.572   2.283  16.861  0.0323  0.1111 -0.0284
  446MPD2     C 6641   4.710   4.643  11.351 -0.2980  0.0879  0.0167
  446MPD2    C1 6642   0.019   4.629  11.214  0.7953 -0.3377 -0.2529
  446MPD2    C2 6643   0.135   4.687  11.169 -0.5042 -0.0093  0.3989
  446MPD2    C3 6644   0.221   0.031  11.252  0.3848  0.4789  0.1189
  446MPD2    C4 6645   0.189   0.039  11.389 -0.7851 -0.0632 -0.1440
  446MPD2    C5 6646   0.074   4.710  11.431  0.3359  0.6232  1.0253
  446MPD2     H 6647   0.159   4.671  11.064  1.3622 -0.1473  0.8494
  446MPD2    H1 6648   0.252   0.090  11.462 -0.5661 -0.3663 -0.1217
  446MPD2    H2 6649   4.620   4.602  11.394 -0.8995  0.2277 -1.1162
  446MPD2    H3 6650   0.043   4.714  11.535 -1.4183 -1.3260  0.6052
  446MPD2     N 6651   0.344   0.088  11.204  0.2118 -0.3696 -0.1294
  446MPD2    H5 6652   0.362   0.083  11.104 -3.1892 -0.9389 -0.7089
  446MPD2    N1 6653   4.655   4.548  11.129  0.2304 -0.2351 -0.2004
  446MPD2    H7 6654   4.673   4.550  11.029  0.2137  0.3979 -0.1935
  447TMC3    C1 6655   0.556   0.190  11.214 -0.2896 -0.3639 -0.1945
  447TMC3    C2 6656   0.539   0.268  11.100 -0.3844 -0.3506 -0.4513
  447TMC3    C3 6657   0.648   0.349  11.064 -0.1873  0.0127 -0.0310
  447TMC3    C4 6658   0.667   0.192  11.292 -0.3563 -0.2417  0.6357
  447TMC3    C5 6659   0.774   0.270  11.250 -0.0051 -0.1548 -0.6534
  447TMC3    C6 6660   0.764   0.349  11.139  0.3956  0.4310 -0.0584
  447TMC3     C 6661   0.447   0.128  11.282  0.0952  0.5199 -0.2190
  447TMC3     O 6662   0.467   0.077  11.393 -0.3753 -0.2207 -0.2770
  447TMC3     H 6663   0.445   0.268  11.046 -0.4875 -0.5169 -0.2733
  447TMC3    H1 6664   0.680   0.146  11.389  1.4831 -2.3432 -0.5933
  447TMC3    H2 6665   0.847   0.412  11.111  1.4395 -0.3663  1.2454
  447TMC3    C7 6666   0.912   0.256  11.297 -0.0670  0.2539  0.5502
  447TMC3    C8 6667   0.645   0.421  10.935 -0.3055 -0.3345 -0.6873
  447TMC3    O1 6668   1.005   0.293  11.224  0.1099 -0.3715  0.1229
  447TMC3    O2 6669   0.573   0.369  10.851  0.7433  0.0682 -0.0028
  448TMC3    C1 6670   2.732   3.518  17.194  1.1508 -0.8164  0.7269
  448TMC3    C2 6671   2.778   3.446  17.084  0.3406 -0.4248 -0.0355
  448TMC3    C3 6672   2.727   3.319  17.062 -0.1620  0.9398 -0.0057
  448TMC3    C4 6673   2.637   3.467  17.279 -0.7275  1.0589  0.2574
  448TMC3    C5 6674   2.602   3.337  17.264 -0.2985 -0.1672 -0.0118
  448TMC3    C6 6675   2.644   3.258  17.153 -0.5989  0.2543  0.0980
  448TMC3     C 6676   2.807   3.647  17.218 -0.0554  0.1901 -0.6350
  448TMC3     O 6677   2.885   3.679  17.130  0.3647 -0.0543 -0.7671
  448TMC3     H 6678   2.852   3.489  17.017  0.6741 -2.2243 -0.8044
  448TMC3    H1 6679   2.604   3.527  17.363 -0.1216  0.0691  1.2047
  448TMC3    H2 6680   2.617   3.153  17.146 -1.4876  0.4037  1.2008
  448TMC3    C7 6681   2.517   3.265  17.362 -0.7853 -0.1181  0.3900
  448TMC3    C8 6682   2.767   3.258  16.940 -0.2091  0.2525 -0.3903
  448TMC3    O1 6683   2.486   3.149  17.337 -0.7376  0.2290 -0.4233
  448TMC3    O2 6684   2.752   3.135  16.941  0.1015  0.2969  0.5006
  449MPD2     C 6685   0.311   3.106  13.857 -0.3469 -0.3110  1.0127
  449MPD2    C1 6686   0.202   3.027  13.897 -0.6028  0.1394  0.1554
  449MPD2    C2 6687   0.213   2.931  13.992 -0.5930  0.5431 -0.0175
  449MPD2    C3 6688   0.337   2.908  14.043 -0.1493  0.4550 -0.4690
  449MPD2    C4 6689   0.442   2.999  14.025  0.0219 -0.2180 -0.6826
  449MPD2    C5 6690   0.426   3.099  13.933  0.4626  0.6795  1.2301
  449MPD2     H 6691   0.131   2.863  14.013  0.7065 -0.6803  1.0790
  449MPD2    H1 6692   0.535   2.983  14.077 -0.2663 -2.9311 -0.9685
  449MPD2    H2 6693   0.307   3.173  13.773 -0.7404 -1.3698  0.1783
  449MPD2    H3 6694   0.506   3.163  13.897 -0.5199  1.1036 -0.2246
  449MPD2     N 6695   0.348   2.813  14.154  0.3388  0.0247 -0.0294
  449MPD2    H5 6696   0.263   2.758  14.163 -0.2833  1.2000  1.3102
  449MPD2    N1 6697   0.079   3.034  13.831  0.1326 -0.5360  0.4777
  449MPD2    H7 6698   0.002   2.982  13.872  1.7965 -1.6990  2.1352
  450TMC3    C1 6699   4.628   3.038  13.694  1.0144 -0.2944 -0.4609
  450TMC3    C2 6700   4.631   2.952  13.585  0.1353 -0.3780  0.2403
  450TMC3    C3 6701   4.533   2.854  13.605  0.3747 -0.1713  0.2725
  450TMC3    C4 6702   4.552   3.029  13.806 -0.1303 -0.1629 -0.6410
  450TMC3    C5 6703   4.462   2.925  13.820  0.0086 -0.3487  0.0548
  450TMC3    C6 6704   4.456   2.842  13.719  0.4407 -0.6462  0.2115
  450TMC3     C 6705   0.046   3.081  13.713 -0.1995  0.6751 -0.6205
  450TMC3     O 6706   0.105   3.155  13.633  0.0833  0.6605 -0.6037
  450TMC3     H 6707   4.707   2.950  13.508  0.7631  3.7852  0.7131
  450TMC3    H1 6708   4.556   3.109  13.879 -1.6872 -0.2195 -0.4827
  450TMC3    H2 6709   4.376   2.769  13.719  0.2365 -0.4325 -1.3081
  450TMC3    C7 6710   4.507   2.865  13.941 -0.5011 -0.4002  0.4092
  450TMC3    C8 6711   4.530   2.728  13.528  0.0930 -0.2712 -0.0317
  450TMC3    O1 6712   4.609   2.911  13.987  0.2720  0.5249  0.7737
  450TMC3    O2 6713   4.478   2.630  13.580  0.3931  0.1513  0.1241
  451MPD2     C 6714   1.633   1.312   1.730  0.3851 -1.0674 -0.1607
  451MPD2    C1 6715   1.523   1.299   1.646 -0.0254 -0.0068 -0.3904
  451MPD2    C2 6716   1.503   1.173   1.590 -0.1010 -0.3444 -0.3196
  451MPD2    C3 6717   1.574   1.065   1.631 -0.1861 -0.0338 -0.6234
  451MPD2    C4 6718   1.675   1.078   1.725 -0.1535 -0.4208 -0.6574
  451MPD2    C5 6719   1.709   1.204   1.771  0.2500  0.8504  0.1676
  451MPD2     H 6720   1.415   1.161   1.528  2.8040  0.9176 -4.6374
  451MPD2    H1 6721   1.734   0.997   1.765  2.2093  1.0376 -1.2254
  451MPD2    H2 6722   1.663   1.407   1.772 -0.2171 -0.7112 -0.5384
  451MPD2    H3 6723   1.789   1.209   1.844  0.4269  0.2431  0.0075
  451MPD2     N 6724   1.551   0.928   1.587 -0.7745 -0.4245 -0.6618
  451MPD2    H5 6725   1.603   0.855   1.634  0.5787  0.7031 -0.3741
  451MPD2    N1 6726   1.448   1.416   1.624 -0.4419 -0.3421 -0.1306
  451MPD2    H7 6727   1.477   1.501   1.671 -0.6329  0.4052 -1.3679
  452TMC3    C1 6728   1.462   0.748   1.449  0.9423  0.5540 -0.0853
  452TMC3    C2 6729   1.464   0.667   1.558  0.3673 -0.1225 -0.5094
  452TMC3    C3 6730   1.441   0.532   1.524  0.6762  0.7416  0.0097
  452TMC3    C4 6731   1.430   0.711   1.320 -0.3091 -0.1509  0.1701
  452TMC3    C5 6732   1.414   0.584   1.296  0.1740 -0.0311 -0.6417
  452TMC3    C6 6733   1.407   0.486   1.396 -0.6385 -0.5399 -0.0922
  452TMC3     C 6734   1.465   0.894   1.480  0.0560  0.2149 -0.2152
  452TMC3     O 6735   1.404   0.974   1.410  0.2581 -0.1732 -0.0807
  452TMC3     H 6736   1.466   0.702   1.660  0.6657 -3.5493  0.6819
  452TMC3    H1 6737   1.410   0.794   1.253 -3.7729 -0.1538  1.1872
  452TMC3    H2 6738   1.390   0.381   1.376 -1.7262 -0.0377 -1.7176
  452TMC3    C7 6739   1.367   0.546   1.168 -0.7183  0.7311  0.3502
  452TMC3    C8 6740   1.456   0.429   1.623  0.3793 -0.4281  0.5189
  452TMC3    O1 6741   1.417   0.613   1.074  0.0605  0.2233  0.5480
  452TMC3    O2 6742   1.402   0.316   1.606  0.3160  0.2297  0.1629
  453TMC3    C1 6743   2.520   3.658  12.111  0.5100 -0.7140  0.8192
  453TMC3    C2 6744   2.498   3.531  12.148  0.3982 -0.8174  0.1862
  453TMC3    C3 6745   2.456   3.437  12.056  0.2639 -0.0991  0.2522
  453TMC3    C4 6746   2.526   3.689  11.978  0.3856  0.6134  0.2639
  453TMC3    C5 6747   2.486   3.598  11.886  0.2019  0.3853 -0.2039
  453TMC3    C6 6748   2.440   3.481  11.926 -0.7185  0.5156 -0.0863
  453TMC3     C 6749   2.596   3.745  12.201 -0.0532 -0.5311 -0.5049
  453TMC3     O 6750   2.683   3.809  12.148 -0.3868 -0.2632 -0.0111
  453TMC3     H 6751   2.517   3.484  12.245  0.3208 -1.2160  0.0089
  453TMC3    H1 6752   2.555   3.789  11.948 -1.3410  0.4405 -1.9747
  453TMC3    H2 6753   2.403   3.415  11.848  0.0578  1.2941 -1.1096
  453TMC3    C7 6754   2.486   3.638  11.739  0.5017 -0.1453  0.8723
  453TMC3    C8 6755   2.410   3.304  12.096 -0.7518 -0.3070  0.1568
  453TMC3    O1 6756   2.484   3.759  11.725 -0.5592  0.6803  0.3602
  453TMC3    O2 6757   2.463   3.261  12.200  0.2406  0.1268 -0.0178
  454MPD2     C 6758   0.790   3.493  16.110 -0.7437  0.6703 -0.2500
  454MPD2    C1 6759   0.883   3.395  16.079  0.2154 -0.2754  0.2290
  454MPD2    C2 6760   0.946   3.326  16.182 -0.0348 -0.2062 -0.3848
  454MPD2    C3 6761   0.917   3.359  16.308 -0.5430  0.2999 -0.3236
  454MPD2    C4 6762   0.826   3.456  16.338 -0.6153  0.1865  0.2525
  454MPD2    C5 6763   0.754   3.517  16.239 -0.3586 -0.2212 -0.4290
  454MPD2     H 6764   1.009   3.241  16.159  0.9880  0.8150 -1.3168
  454MPD2    H1 6765   0.800   3.494  16.436  1.9740 -1.1331  1.4282
  454MPD2    H2 6766   0.749   3.544  16.023  0.4632  0.7610 -0.7719
  454MPD2    H3 6767   0.688   3.599  16.263  1.1979  0.3963  1.7063
  454MPD2     N 6768   0.989   3.289  16.403  0.0146  0.2567 -0.6199
  454MPD2    H5 6769   1.054   3.219  16.369  0.3415 -0.0567  0.6733
  454MPD2    N1 6770   0.889   3.357  15.946 -0.1304 -0.4243 -0.2167
  454MPD2    H7 6771   0.806   3.373  15.890  1.2647 -1.0732 -2.4850
  455TMC3    C1 6772   1.049   3.175  16.599 -0.0007  0.9465 -0.2133
  455TMC3    C2 6773   1.002   3.163  16.732  0.7071  0.2856 -0.1163
  455TMC3    C3 6774   0.935   3.041  16.760  0.4239  0.4702 -0.4497
  455TMC3    C4 6775   1.056   3.067  16.512  0.4171  0.6171  0.0339
  455TMC3    C5 6776   1.009   2.941  16.558  0.1033  0.0559 -0.5400
  455TMC3    C6 6777   0.934   2.927  16.677 -0.2999  0.4538  0.6042
  455TMC3     C 6778   0.996   3.301  16.540 -0.2154 -0.0539  0.4914
  455TMC3     O 6779   0.908   3.363  16.606  0.0398  0.0419 -0.2987
  455TMC3     H 6780   0.996   3.250  16.796 -0.8579 -0.1703  0.3574
  455TMC3    H1 6781   1.105   3.074  16.415  1.2662 -2.8652  0.2138
  455TMC3    H2 6782   0.901   2.831  16.717  0.5400  0.0896  0.4204
  455TMC3    C7 6783   1.016   2.837  16.460  0.9810  0.2626  0.7199
  455TMC3    C8 6784   0.836   3.045  16.869  0.4270  0.0884 -0.6559
  455TMC3    O1 6785   1.024   2.872  16.342 -0.2230  0.0145  0.4032
  455TMC3    O2 6786   0.839   3.137  16.947  0.1908 -0.1139  0.2034
  456MPD2     C 6787   3.785   2.869  15.966  0.8497  0.1456 -0.4306
  456MPD2    C1 6788   3.793   2.769  16.061 -0.4384 -0.3578 -0.0881
  456MPD2    C2 6789   3.690   2.756  16.154 -0.0473 -0.3978  0.4283
  456MPD2    C3 6790   3.572   2.832  16.137  0.1305 -0.2475  0.1498
  456MPD2    C4 6791   3.564   2.925  16.035 -0.4065 -0.1875  0.0926
  456MPD2    C5 6792   3.671   2.946  15.953 -0.9698  0.4254  0.0907
  456MPD2     H 6793   3.698   2.689  16.238 -1.4007 -2.3923 -1.0389
  456MPD2    H1 6794   3.480   2.988  16.007  0.3543 -0.5683 -3.0735
  456MPD2    H2 6795   3.858   2.904  15.894 -1.8301 -0.5618 -3.5173
  456MPD2    H3 6796   3.661   3.020  15.874  0.7874  0.7709  0.1846
  456MPD2     N 6797   3.465   2.806  16.231  0.2462 -0.0422  0.7445
  456MPD2    H5 6798   3.489   2.739  16.303 -1.6508 -2.9192 -1.3183
  456MPD2    N1 6799   3.913   2.699  16.065 -0.6875  0.2407 -0.1007
  456MPD2    H7 6800   3.994   2.726  16.010  1.2229  0.5939  2.8783
  457TMC3    C1 6801   3.250   2.821  16.332  0.0209 -0.0187 -0.3663
  457TMC3    C2 6802   3.140   2.896  16.369  0.5350 -0.5486  0.3967
  457TMC3    C3 6803   3.077   2.865  16.488 -0.1452  0.0536  0.3174
  457TMC3    C4 6804   3.294   2.721  16.420  0.1485  0.6481  0.4361
  457TMC3    C5 6805   3.235   2.702  16.542 -0.5240  0.2057  0.4512
  457TMC3    C6 6806   3.122   2.771  16.576  0.9756 -0.1985 -0.9177
  457TMC3     C 6807   3.342   2.871  16.236 -0.1130  0.1324 -0.7654
  457TMC3     O 6808   3.300   2.959  16.166 -0.0838 -0.0576  0.0614
  457TMC3     H 6809   3.104   2.966  16.295  0.7851 -1.2375 -0.3732
  457TMC3    H1 6810   3.387   2.666  16.411 -0.7094 -0.6474 -0.4580
  457TMC3    H2 6811   3.059   2.737  16.658 -0.6247  0.3878 -1.8965
  457TMC3    C7 6812   3.332   2.698  16.655 -0.5681 -0.2817  0.1153
  457TMC3    C8 6813   3.011   2.972  16.568  0.5422  0.0628  0.1269
  457TMC3    O1 6814   3.445   2.651  16.637 -0.5576 -0.0742  0.5828
  457TMC3    O2 6815   3.003   2.959  16.691  0.1773 -0.4130  0.1609
  458MPD2     C 6816   1.482   2.898  12.331 -0.1489  0.0418  0.2847
  458MPD2    C1 6817   1.456   2.832  12.447 -0.2528 -0.0487 -0.7352
  458MPD2    C2 6818   1.323   2.813  12.480 -0.4149  0.7316 -0.2156
  458MPD2    C3 6819   1.216   2.871  12.405  0.4817 -0.4619 -0.1331
  458MPD2    C4 6820   1.249   2.952  12.295 -0.3593  0.2882  0.2173
  458MPD2    C5 6821   1.385   2.963  12.262  0.4679  0.4090  0.1418
  458MPD2     H 6822   1.295   2.762  12.572 -0.1910  2.4792  0.8072
  458MPD2    H1 6823   1.171   3.001  12.237 -1.4923 -1.2067  0.4882
  458MPD2    H2 6824   1.585   2.893  12.297  0.2348  1.1937  1.2725
  458MPD2    H3 6825   1.408   3.008  12.166 -0.0512 -0.2273 -0.2796
  458MPD2     N 6826   1.085   2.838  12.444 -0.4678  0.0921 -0.2389
  458MPD2    H5 6827   1.081   2.789  12.533  1.0901 -1.2351 -0.8984
  458MPD2    N1 6828   1.560   2.771  12.516 -0.0728 -0.6765  0.1808
  458MPD2    H7 6829   1.654   2.782  12.479 -0.5047 -2.3598 -1.4208
  459TMC3    C1 6830   1.681   2.673  12.691 -0.0631 -0.6214  0.4565
  459TMC3    C2 6831   1.792   2.735  12.637  0.5979  0.1535  0.2772
  459TMC3    C3 6832   1.906   2.715  12.719  0.2403  0.4240 -0.5092
  459TMC3    C4 6833   1.672   2.602  12.806  0.2476  0.0642  0.2295
  459TMC3    C5 6834   1.789   2.592  12.874  0.4455 -0.1656 -0.0863
  459TMC3    C6 6835   1.905   2.651  12.835 -0.2351  0.1479  0.1273
  459TMC3     C 6836   1.552   2.705  12.637 -0.1979  1.0287 -0.2760
  459TMC3     O 6837   1.453   2.666  12.699  0.4222 -0.3935  0.1317
  459TMC3     H 6838   1.804   2.780  12.538 -0.6340 -0.7843 -0.3004
  459TMC3    H1 6839   1.586   2.543  12.835  0.3794 -0.6007 -0.7627
  459TMC3    H2 6840   1.995   2.617  12.885  0.5395  0.8360 -0.8019
  459TMC3    C7 6841   1.784   2.501  12.988 -0.0980 -0.3950  0.5888
  459TMC3    C8 6842   2.035   2.768  12.690  0.2736 -0.6142  0.2153
  459TMC3    O1 6843   1.849   2.398  12.983 -0.4426 -0.3591 -0.2304
  459TMC3    O2 6844   2.133   2.713  12.737  0.5287  0.2805 -0.7676
  460MPD2     C 6845   0.884   0.684  10.854 -0.5158  0.8123 -0.1464
  460MPD2    C1 6846   0.777   0.602  10.823  0.2177  0.0201 -1.1802
  460MPD2    C2 6847   0.724   0.591  10.694  0.1935  0.1541  0.4218
  460MPD2    C3 6848   0.767   0.683  10.596 -0.6439  0.2050 -1.1067
  460MPD2    C4 6849   0.870   0.762  10.629  0.2610 -0.1096  0.0818
  460MPD2    C5 6850   0.943   0.752  10.747 -0.0953 -0.6032 -0.1118
  460MPD2     H 6851   0.641   0.523  10.682  0.3872 -0.3102  1.6661
  460MPD2    H1 6852   0.911   0.831  10.557  0.2400  0.3344  0.4997
  460MPD2    H2 6853   0.934   0.681  10.950  2.5860  1.7099 -1.7429
  460MPD2    H3 6854   1.040   0.800  10.757 -0.0843 -0.8204  0.7574
  460MPD2     N 6855   0.706   0.696  10.466 -0.0561 -0.1306  0.3775
  460MPD2    H5 6856   0.749   0.765  10.404  0.4926 -2.8141 -2.2125
  460MPD2    N1 6857   0.731   0.524  10.931  0.0869 -0.3450 -0.6806
  460MPD2    H7 6858   0.767   0.543  11.023 -1.6610  0.8294 -0.2437
  461TMC3    C1 6859   0.537   0.663  10.309 -0.2352  0.1369 -0.1990
  461TMC3    C2 6860   0.474   0.570  10.233  0.2666 -0.2320 -0.2591
  461TMC3    C3 6861   0.448   0.602  10.102  0.3177  0.4448 -0.1883
  461TMC3    C4 6862   0.570   0.787  10.257  0.5503 -0.6404  0.3002
  461TMC3    C5 6863   0.533   0.810  10.126 -0.3665 -0.0758 -1.0332
  461TMC3    C6 6864   0.481   0.719  10.042 -0.2862 -0.4634 -0.2943
  461TMC3     C 6865   0.590   0.625  10.436  0.3084  0.2615  0.5691
  461TMC3     O 6866   0.574   0.510  10.465 -0.1757 -0.4748 -0.7087
  461TMC3     H 6867   0.461   0.466  10.259  2.5272 -0.2948  0.6229
  461TMC3    H1 6868   0.600   0.866  10.324  1.3854 -0.9310  0.2725
  461TMC3    H2 6869   0.434   0.742   9.948 -1.8817 -3.6729 -0.3018
  461TMC3    C7 6870   0.519   0.950  10.086  0.2785  0.4334 -0.5026
  461TMC3    C8 6871   0.402   0.507   9.997 -0.5525 -0.4988  0.4096
  461TMC3    O1 6872   0.457   0.965   9.982 -0.4409  0.9444  0.3945
  461TMC3    O2 6873   0.422   0.541   9.884 -0.3808  0.3466 -0.2274
  462TMC3    C1 6874   0.530   0.273   0.439 -0.2043 -0.2293  0.5322
  462TMC3    C2 6875   0.561   0.227   0.317  0.0195 -0.0931 -0.4795
  462TMC3    C3 6876   0.518   0.099   0.293 -0.0102 -0.2628  0.2631
  462TMC3    C4 6877   0.482   0.201   0.540 -0.1561  0.0866  0.0048
  462TMC3    C5 6878   0.435   0.077   0.507 -0.1412  0.2342  0.7961
  462TMC3    C6 6879   0.443   0.026   0.383  0.3224  0.1856 -0.2844
  462TMC3     C 6880   0.558   0.416   0.464 -0.5776 -0.4900 -0.8669
  462TMC3     O 6881   0.579   0.448   0.579 -0.1772  0.9868 -0.0910
  462TMC3     H 6882   0.606   0.289   0.241  1.2431 -0.0340  0.3023
  462TMC3    H1 6883   0.465   0.248   0.636 -4.4485 -1.7810  0.1372
  462TMC3    H2 6884   0.429   4.643   0.356 -1.6835  0.9707 -2.2798
  462TMC3    C7 6885   0.389   4.711   0.606  0.4786  0.6286 -0.2396
  462TMC3    C8 6886   0.509   0.061   0.155  0.8097  0.2617 -0.6513
  462TMC3    O1 6887   0.334   4.606   0.565  0.2141  0.0233  0.2986
  462TMC3    O2 6888   0.433   4.690   0.128  0.7214  0.2421  0.4336
  463MPD2     C 6889   1.007   4.240   2.209 -0.5353  0.6757  0.0792
  463MPD2    C1 6890   0.976   4.230   2.076 -0.8293 -0.1318 -0.0894
  463MPD2    C2 6891   1.052   4.306   1.986  0.2571 -0.4997 -0.4512
  463MPD2    C3 6892   1.160   4.377   2.028 -0.5354 -0.2631  0.0634
  463MPD2    C4 6893   1.191   4.382   2.165  0.5460 -1.0365  0.1106
  463MPD2    C5 6894   1.110   4.314   2.253  0.4951 -0.4071 -0.6531
  463MPD2     H 6895   1.018   4.315   1.884  0.1789 -0.8906 -0.4589
  463MPD2    H1 6896   1.279   4.434   2.200  0.9837 -0.2688 -2.1281
  463MPD2    H2 6897   0.958   4.173   2.279  0.1727 -1.1175 -1.1365
  463MPD2    H3 6898   1.129   4.326   2.359 -1.6202  1.7769 -0.5078
  463MPD2     N 6899   1.250   4.443   1.940 -0.6623  0.3629  0.0025
  463MPD2    H5 6900   1.332   4.484   1.984 -0.2881 -0.3298 -0.0377
  463MPD2    N1 6901   0.881   4.149   2.024  0.0839 -0.1824 -0.6454
  463MPD2    H7 6902   0.885   4.138   1.923 -0.1386 -0.9882 -0.5650
  464TMC3    C1 6903   0.673   4.031   2.005 -0.3565  0.1439  0.3259
  464TMC3    C2 6904   0.700   4.001   1.874 -0.0254 -0.4844 -1.2975
  464TMC3    C3 6905   0.601   3.946   1.795  0.1249  0.1614  0.4377
  464TMC3    C4 6906   0.552   4.003   2.058  0.6886  0.4223 -0.4507
  464TMC3    C5 6907   0.457   3.945   1.985 -0.4023 -0.1180  0.0123
  464TMC3    C6 6908   0.477   3.925   1.849 -0.4164  0.8002 -0.5925
  464TMC3     C 6909   0.765   4.100   2.091 -0.4742 -0.3304 -0.5327
  464TMC3     O 6910   0.739   4.128   2.203 -0.3639  0.6569  0.4915
  464TMC3     H 6911   0.803   4.007   1.843  0.4564  2.3528  0.8368
  464TMC3    H1 6912   0.543   4.014   2.166  0.4015  0.6672 -0.5012
  464TMC3    H2 6913   0.391   3.893   1.792  0.0943 -2.2080  0.3156
  464TMC3    C7 6914   0.333   3.911   2.052 -0.0237 -0.0062 -0.8635
  464TMC3    C8 6915   0.615   3.927   1.652 -0.0901 -0.4572 -0.5046
  464TMC3    O1 6916   0.320   3.947   2.170 -0.0370 -0.0435  0.3862
  464TMC3    O2 6917   0.529   3.856   1.601 -0.0550 -0.0538  0.4941
  465MPD2     C 6918   2.719   2.820  16.507  0.3798  0.1728  0.1707
  465MPD2    C1 6919   2.630   2.918  16.565 -0.1636 -0.1529  0.1284
  465MPD2    C2 6920   2.583   3.019  16.479 -0.6678 -0.1534 -0.3863
  465MPD2    C3 6921   2.626   3.032  16.352  0.2130 -1.0353  0.2351
  465MPD2    C4 6922   2.696   2.932  16.298 -0.7237  0.9264 -0.1208
  465MPD2    C5 6923   2.747   2.826  16.374  0.0846 -0.1927  0.5978
  465MPD2     H 6924   2.522   3.103  16.510 -0.4562 -0.1598  0.0594
  465MPD2    H1 6925   2.722   2.931  16.193  1.4585 -0.6284  0.4405
  465MPD2    H2 6926   2.752   2.738  16.570 -0.6185  1.5664  2.5388
  465MPD2    H3 6927   2.805   2.747  16.326 -0.3156  1.1369 -2.0879
  465MPD2     N 6928   2.585   3.148  16.281  0.5140  0.2592  0.3224
  465MPD2    H5 6929   2.509   3.202  16.320 -0.5725 -0.4643 -0.7763
  465MPD2    N1 6930   2.587   2.923  16.699 -0.0329 -0.0389  0.6371
  465MPD2    H7 6931   2.529   3.001  16.729 -0.2961  0.0006  0.0372
  466TMC3    C1 6932   2.398   3.464  16.105  1.2517  0.3473 -0.2699
  466TMC3    C2 6933   2.480   3.573  16.087  0.5020 -0.1717 -0.0863
  466TMC3    C3 6934   2.620   3.558  16.093  0.6188  0.7223 -0.7351
  466TMC3    C4 6935   2.451   3.340  16.136 -0.2306  0.2686 -0.2546
  466TMC3    C5 6936   2.587   3.321  16.116 -0.0813  0.4526  0.0674
  466TMC3    C6 6937   2.669   3.425  16.099  0.5442 -0.8365 -0.2822
  466TMC3     C 6938   2.254   3.492  16.127 -0.6527 -0.9229  0.6774
  466TMC3     O 6939   2.206   3.591  16.075  0.1451 -0.3271  0.1636
  466TMC3     H 6940   2.442   3.674  16.074  0.9643  0.0358  0.1465
  466TMC3    H1 6941   2.389   3.253  16.156  2.6039 -0.9738  3.1006
  466TMC3    H2 6942   2.776   3.409  16.102  1.2437  3.3908 -2.5989
  466TMC3    C7 6943   2.646   3.199  16.166  0.0443 -0.4589  0.2566
  466TMC3    C8 6944   2.703   3.645  16.180  0.3632 -0.6233 -0.9072
  466TMC3    O1 6945   2.754   3.167  16.114  0.5342 -0.1924 -0.0348
  466TMC3    O2 6946   2.825   3.623  16.181  0.3155  0.2365  0.4333
  467TMC3    C1 6947   3.431   2.202  13.893 -0.2079  0.6752 -0.1433
  467TMC3    C2 6948   3.442   2.261  13.767 -0.3858 -0.2235 -1.2885
  467TMC3    C3 6949   3.415   2.195  13.647 -0.1233 -0.2460  0.5807
  467TMC3    C4 6950   3.369   2.080  13.895  0.3207  0.0977 -0.0912
  467TMC3    C5 6951   3.315   2.024  13.780  0.1718 -0.3126 -0.2694
  467TMC3    C6 6952   3.362   2.071  13.653 -0.2102 -0.0903 -0.3912
  467TMC3     C 6953   3.537   2.235  13.984 -0.2641  0.3670  0.4891
  467TMC3     O 6954   3.576   2.157  14.067  0.7195 -0.0684 -0.5696
  467TMC3     H 6955   3.489   2.357  13.758 -1.1543  0.2149 -0.6621
  467TMC3    H1 6956   3.364   2.034  13.993  0.2143 -2.8437 -1.4689
  467TMC3    H2 6957   3.317   2.026  13.565 -0.4615 -0.4651 -0.0727
  467TMC3    C7 6958   3.249   1.894  13.784  0.9963  0.3434 -0.4446
  467TMC3    C8 6959   3.504   2.225  13.537 -0.4283  0.1804  0.2337
  467TMC3    O1 6960   3.259   1.823  13.685  0.4069  0.0071 -0.4038
  467TMC3    O2 6961   3.529   2.341  13.515  0.4689 -0.2005  0.0455
  468MPD2     C 6962   2.253   0.233  10.499  0.0589 -0.7740  0.3171
  468MPD2    C1 6963   2.387   0.210  10.515  0.0906 -0.2595  0.9910
  468MPD2    C2 6964   2.423   0.081  10.534  0.6738  0.0117  0.8489
  468MPD2    C3 6965   2.331   4.700  10.532  0.3651 -0.4932  0.5964
  468MPD2    C4 6966   2.196   0.006  10.521  0.0287  0.6469 -0.3379
  468MPD2    C5 6967   2.159   0.136  10.515 -0.0237  0.4694 -0.3962
  468MPD2     H 6968   2.529   0.067  10.552  0.9133 -1.7410 -2.0266
  468MPD2    H1 6969   2.126   4.645  10.522  1.3965 -0.4585  3.7905
  468MPD2    H2 6970   2.213   0.333  10.495  0.2161 -0.7169  0.1952
  468MPD2    H3 6971   2.052   0.154  10.520  0.1776  1.2808  0.8919
  468MPD2     N 6972   2.360   4.565  10.550 -0.6769  0.1871  0.5984
  468MPD2    H5 6973   2.290   4.492  10.556 -2.3718  1.7535  0.0648
  468MPD2    N1 6974   2.487   0.314  10.513 -0.1283  0.2980 -0.0968
  468MPD2    H7 6975   2.587   0.294  10.515  0.0038  0.7453 -2.4422
  469TMC3    C1 6976   2.610   0.499  10.529 -0.4410  0.0231 -0.4939
  469TMC3    C2 6977   2.701   0.416  10.590  0.0543 -0.4905 -0.9270
  469TMC3    C3 6978   2.837   0.438  10.569  0.4144  0.6635 -0.2551
  469TMC3    C4 6979   2.647   0.592  10.429  0.5223  0.3957  0.2282
  469TMC3    C5 6980   2.784   0.619  10.425  0.4759  0.7472  0.9783
  469TMC3    C6 6981   2.879   0.542  10.487  0.5848 -0.2827 -0.0357
  469TMC3     C 6982   2.472   0.445  10.533 -0.5998 -0.2380 -0.1318
  469TMC3     O 6983   2.376   0.522  10.516 -0.2064  0.1349 -0.8789
  469TMC3     H 6984   2.671   0.340  10.661 -0.0101 -0.4718 -0.9339
  469TMC3    H1 6985   2.571   0.636  10.365 -1.2342 -3.5500 -0.3817
  469TMC3    H2 6986   2.983   0.570  10.474 -0.2284  1.7679 -2.1393
  469TMC3    C7 6987   2.839   0.715  10.328  0.9640 -0.0057 -0.0289
  469TMC3    C8 6988   2.936   0.409  10.676 -0.1336 -0.1928  1.0455
  469TMC3    O1 6989   2.957   0.698  10.300  0.3073  0.4830  0.2349
  469TMC3    O2 6990   3.052   0.411  10.635 -0.0654 -0.5942  0.5024
  470TMC3    C1 6991   0.226   0.347   1.062  0.0018  0.0396  0.3751
  470TMC3    C2 6992   0.260   0.477   1.036 -0.6951  0.1028  0.3004
  470TMC3    C3 6993   0.380   0.523   1.098  0.2624 -0.4402 -0.4565
  470TMC3    C4 6994   0.304   0.253   1.122  0.9619 -0.0125  0.1736
  470TMC3    C5 6995   0.420   0.302   1.168  0.9255  0.0942 -0.3513
  470TMC3    C6 6996   0.458   0.430   1.158  0.5735 -0.0962 -0.3755
  470TMC3     C 6997   0.092   0.306   1.038 -0.0742  0.0230  0.0992
  470TMC3     O 6998   0.068   0.187   1.050  0.1613 -0.5871  0.1208
  470TMC3     H 6999   0.189   0.538   0.983 -1.2657 -1.3515 -0.6106
  470TMC3    H1 7000   0.274   0.150   1.135 -1.4008  0.6010 -0.3524
  470TMC3    H2 7001   0.548   0.456   1.212  0.2250  0.2575  0.0395
  470TMC3    C7 7002   0.483   0.231   1.275  0.1820  0.3179  0.5044
  470TMC3    C8 7003   0.403   0.662   1.117 -0.6945  0.1110 -0.4554
  470TMC3    O1 7004   0.604   0.220   1.273 -0.9470 -0.2023 -0.0086
  470TMC3    O2 7005   0.296   0.722   1.118 -0.1126  0.6344  0.2466
  471MPD2     C 7006   4.585   1.460  16.532  0.0234  0.3967  0.1951
  471MPD2    C1 7007   4.651   1.364  16.603  0.1880 -0.2504  0.2019
  471MPD2    C2 7008   0.015   1.400  16.703  0.6113  0.4113 -0.6260
  471MPD2    C3 7009   0.049   1.533  16.730  1.3447  0.7448  0.5011
  471MPD2    C4 7010   4.692   1.628  16.666 -0.1887 -0.1374  0.1858
  471MPD2    C5 7011   4.609   1.587  16.564  0.2871  0.6558  0.1101
  471MPD2     H 7012   0.068   1.318  16.749  0.4694  0.5451 -0.2283
  471MPD2    H1 7013   4.707   1.735  16.678 -1.1288  0.2295 -1.8462
  471MPD2    H2 7014   4.514   1.453  16.451  0.3717 -2.6730  0.1528
  471MPD2    H3 7015   4.551   1.663  16.512  1.1947  0.1582 -1.6390
  471MPD2     N 7016   0.148   1.580  16.818 -0.2573 -0.1186  0.2412
  471MPD2    H5 7017   0.167   1.679  16.829  0.1196 -0.3751  1.8809
  471MPD2    N1 7018   4.633   1.225  16.571 -0.5170 -0.1784  0.0836
  471MPD2    H7 7019   4.666   1.153  16.633  1.7364 -0.9783 -2.0377
  472TMC3    C1 7020   4.554   1.037  16.450  0.2348  0.1105 -0.3326
  472TMC3    C2 7021   4.461   0.990  16.367 -0.2724 -0.4107 -0.0529
  472TMC3    C3 7022   4.438   0.858  16.350  0.3475  0.0378  0.1715
  472TMC3    C4 7023   4.607   0.954  16.551 -0.4000 -0.0596 -0.2425
  472TMC3    C5 7024   4.561   0.823  16.557  0.7508 -0.3516 -0.5909
  472TMC3    C6 7025   4.480   0.771  16.454 -0.9570 -0.5317 -0.3316
  472TMC3     C 7026   4.566   1.183  16.460  0.5920  0.4575 -0.5783
  472TMC3     O 7027   4.509   1.240  16.369  0.2546  0.9323 -0.7006
  472TMC3     H 7028   4.407   1.054  16.298 -0.6339 -0.4814  0.1633
  472TMC3    H1 7029   4.687   0.994  16.612 -0.4613 -0.2071 -0.0669
  472TMC3    H2 7030   4.448   0.668  16.441 -1.2073 -0.5791  0.6694
  472TMC3    C7 7031   4.628   0.727  16.647  0.2023 -0.8027  0.0596
  472TMC3    C8 7032   4.342   0.821  16.248  0.2108  0.3326 -0.3196
  472TMC3    O1 7033   4.689   0.767  16.743 -0.3206  0.2130 -0.0437
  472TMC3    O2 7034   4.330   0.904  16.157  0.8938  0.3403 -0.1332
  473MPD2     C 7035   0.072   4.083  13.964  0.0863 -0.3659  0.6728
  473MPD2    C1 7036   0.105   4.173  13.862  0.6818  0.8129  0.1449
  473MPD2    C2 7037   0.151   4.301  13.902 -0.6702  0.2308 -0.7099
  473MPD2    C3 7038   0.156   4.333  14.038  0.0042  0.7025 -0.0209
  473MPD2    C4 7039   0.111   4.250  14.133 -0.1591  0.2325  0.4206
  473MPD2    C5 7040   0.074   4.119  14.095 -0.2418 -0.3601  0.4934
  473MPD2     H 7041   0.183   4.364  13.820 -0.4616  0.5980 -0.3470
  473MPD2    H1 7042   0.119   4.272  14.238  0.3485  0.6776  0.2891
  473MPD2    H2 7043   0.025   3.987  13.945 -1.1271  0.0854  1.4539
  473MPD2    H3 7044   0.043   4.039  14.162 -2.4190  0.7650  0.8397
  473MPD2     N 7045   0.203   4.458  14.084 -0.0716 -0.0313 -0.4576
  473MPD2    H5 7046   0.204   4.463  14.185 -0.6779 -1.0667 -0.4005
  473MPD2    N1 7047   0.097   4.144  13.725  0.3552  0.3093  0.8139
  473MPD2    H7 7048   0.146   4.212  13.668  0.8435  0.1725  1.0745
  474TMC3    C1 7049   0.320   4.656  14.089  0.4982 -0.3963 -0.3268
  474TMC3    C2 7050   0.300   0.068  14.061 -0.2569 -0.3706 -0.7082
  474TMC3    C3 7051   0.356   0.160  14.142  0.7023  0.8474  0.4912
  474TMC3    C4 7052   0.390   4.613  14.200  0.3077  0.1887  0.3358
  474TMC3    C5 7053   0.442   4.719  14.280 -0.0359  0.5344  0.5436
  474TMC3    C6 7054   0.420   0.130  14.257  0.3456 -0.5870  0.1433
  474TMC3     C 7055   0.257   4.557  14.006  0.2605 -0.2198 -0.5150
  474TMC3     O 7056   0.236   4.578  13.887 -0.5602 -0.3159 -0.1120
  474TMC3     H 7057   0.257   0.092  13.965  0.3775 -2.7023 -1.5916
  474TMC3    H1 7058   0.422   4.512  14.223  1.8436  0.6774  0.2962
  474TMC3    H2 7059   0.450   0.208  14.326 -0.7969  0.5110 -0.5893
  474TMC3    C7 7060   0.557   4.694  14.372  0.6929 -0.3632  0.3072
  474TMC3    C8 7061   0.358   0.301  14.099  0.9363 -0.2662  0.2620
  474TMC3    O1 7062   0.652   4.632  14.320 -0.1296 -0.0958 -0.0949
  474TMC3    O2 7063   0.383   0.386  14.180  0.2965 -0.1393 -0.2283
  475MPD2     C 7064   3.679   2.139  10.494 -0.5743 -0.5210  0.3768
  475MPD2    C1 7065   3.647   2.271  10.503 -0.5019 -0.6181 -0.3768
  475MPD2    C2 7066   3.587   2.334  10.398  0.0333 -0.1101 -0.1469
  475MPD2    C3 7067   3.558   2.264  10.282 -0.7729 -0.3617  0.1791
  475MPD2    C4 7068   3.595   2.134  10.266  0.2023  0.7994  0.3355
  475MPD2    C5 7069   3.663   2.078  10.374  0.3566  0.9328 -0.1071
  475MPD2     H 7070   3.564   2.439  10.406  1.5563  0.3452 -1.5993
  475MPD2    H1 7071   3.573   2.078  10.176 -0.7230 -0.4997  1.3626
  475MPD2    H2 7072   3.712   2.084  10.581  2.4738  0.2005 -0.3126
  475MPD2    H3 7073   3.680   1.971  10.384  0.6772  1.0632  0.7629
  475MPD2     N 7074   3.495   2.336  10.181 -0.8759 -0.1371 -0.6331
  475MPD2    H5 7075   3.486   2.437  10.186 -1.6572 -0.2087 -0.6683
  475MPD2    N1 7076   3.676   2.342  10.626  0.4095  0.8573  0.0271
  475MPD2    H7 7077   3.746   2.299  10.685 -1.5205  0.5961  2.1352
  476TMC3    C1 7078   3.683   2.548  10.746 -0.6244  0.0206 -0.1876
  476TMC3    C2 7079   3.771   2.605  10.654  0.8641 -0.1915  0.4053
  476TMC3    C3 7080   3.758   2.745  10.636 -0.1725  0.0470  0.2087
  476TMC3    C4 7081   3.609   2.623  10.828 -0.0506  0.1526  0.8104
  476TMC3    C5 7082   3.619   2.763  10.821  0.3934  0.5770 -0.3007
  476TMC3    C6 7083   3.695   2.823  10.729  0.8882 -0.4363 -0.1235
  476TMC3     C 7084   3.604   2.453  10.671 -0.3901 -0.1055 -0.0952
  476TMC3     O 7085   3.496   2.496  10.628  0.3544  0.9007  0.4754
  476TMC3     H 7086   3.828   2.544  10.584  0.0395 -2.4555  1.7197
  476TMC3    H1 7087   3.526   2.582  10.884 -2.4395 -0.6814 -3.3205
  476TMC3    H2 7088   3.693   2.930  10.708 -1.8083 -0.6973 -1.1550
  476TMC3    C7 7089   3.515   2.840  10.890  0.4356  0.6465  0.4622
  476TMC3    C8 7090   3.769   2.796  10.496 -0.2042 -0.3591  0.7899
  476TMC3    O1 7091   3.426   2.770  10.938  0.1925 -0.1370  0.4651
  476TMC3    O2 7092   3.709   2.900  10.474  0.3098  0.1677  0.0815
  477MPD2     C 7093   1.116   4.104  11.698  0.0292  0.3636 -0.1956
  477MPD2    C1 7094   0.984   4.068  11.710 -0.0600 -0.4729 -0.3573
  477MPD2    C2 7095   0.953   3.948  11.774 -0.0249  0.3403 -0.1416
  477MPD2    C3 7096   1.061   3.867  11.820  0.0881 -0.4470  0.6461
  477MPD2    C4 7097   1.192   3.906  11.803  0.1502 -0.4356  0.0515
  477MPD2    C5 7098   1.219   4.023  11.749 -0.6914  0.1029  0.5357
  477MPD2     H 7099   0.853   3.908  11.787 -0.1255  1.2557  1.8034
  477MPD2    H1 7100   1.271   3.847  11.849  0.6718  0.7206  0.6318
  477MPD2    H2 7101   1.136   4.194  11.640  1.8291 -0.9436 -1.5878
  477MPD2    H3 7102   1.322   4.055  11.738 -0.6362 -0.1008  0.4508
  477MPD2     N 7103   1.033   3.736  11.877 -0.0301 -0.4912 -0.0432
  477MPD2    H5 7104   0.940   3.697  11.863 -0.2606 -0.0162  0.1687
  477MPD2    N1 7105   0.891   4.163  11.659  0.0172  0.7479 -0.7596
  477MPD2    H7 7106   0.930   4.234  11.597 -1.6085  2.2103 -0.1102
  478TMC3    C1 7107   0.692   4.257  11.593 -0.7578  0.7156  0.1235
  478TMC3    C2 7108   0.578   4.315  11.639 -0.1072 -0.2078 -0.2555
  478TMC3    C3 7109   0.540   4.434  11.586 -0.1093  0.6399  0.5204
  478TMC3    C4 7110   0.771   4.312  11.494  0.5442 -0.1557  0.4213
  478TMC3    C5 7111   0.719   4.429  11.442  0.4393  0.0697  0.0891
  478TMC3    C6 7112   0.608   4.500  11.487 -0.1998  0.2333 -0.7972
  478TMC3     C 7113   0.757   4.163  11.688  0.0462  0.1263 -0.3335
  478TMC3     O 7114   0.698   4.102  11.777  0.0538 -0.2527  0.3265
  478TMC3     H 7115   0.522   4.275  11.723 -0.6084  1.6624  0.2935
  478TMC3    H1 7116   0.848   4.258  11.441 -1.3604  0.0750 -2.5686
  478TMC3    H2 7117   0.569   4.594  11.450  0.3882 -0.0624 -2.1720
  478TMC3    C7 7118   0.788   4.501  11.342  0.2716  0.1681 -1.0469
  478TMC3    C8 7119   0.419   4.498  11.640 -0.1935 -0.2476  0.1234
  478TMC3    O1 7120   0.908   4.478  11.331 -0.3392 -0.3348 -0.3512
  478TMC3    O2 7121   0.328   4.420  11.667 -0.0044  0.2294 -0.7273
  479MPD2     C 7122   4.600   1.147  14.735 -0.4979 -0.1895  0.0910
  479MPD2    C1 7123   4.563   1.107  14.859 -0.3288 -0.4715  0.0517
  479MPD2    C2 7124   4.645   1.113  14.974  0.1263  0.0023  0.3779
  479MPD2    C3 7125   0.050   1.163  14.954 -0.5154 -0.2101  0.2338
  479MPD2    C4 7126   0.089   1.196  14.831  0.5341 -0.1252 -1.2308
  479MPD2    C5 7127   0.010   1.194  14.720  0.3814 -0.1559  0.0752
  479MPD2     H 7128   4.613   1.075  15.071  0.3814 -0.9327  0.0902
  479MPD2    H1 7129   0.191   1.226  14.810  0.6179 -0.3397 -1.1319
  479MPD2    H2 7130   4.529   1.141  14.653  0.1453 -1.2233 -0.3973
  479MPD2    H3 7131   0.043   1.253  14.635 -0.3589 -1.6043 -1.2125
  479MPD2     N 7132   0.148   1.152  15.055  0.4225  0.4796  0.1314
  479MPD2    H5 7133   0.243   1.181  15.035  1.3103  0.2697  4.1417
  479MPD2    N1 7134   4.426   1.068  14.867  0.4018  0.3028 -0.1799
  479MPD2    H7 7135   4.381   1.054  14.777 -0.6670  0.4653  0.3198
  480TMC3    C1 7136   4.580   1.127  15.428 -0.4012  0.4610 -0.6594
  480TMC3    C2 7137   4.539   1.254  15.424 -0.7324 -0.6623 -0.7643
  480TMC3    C3 7138   4.606   1.342  15.342 -0.9918 -0.1225  0.2201
  480TMC3    C4 7139   4.679   1.083  15.349 -0.0873  0.2930 -0.7282
  480TMC3    C5 7140   0.016   1.163  15.257  0.0895  0.3464  0.1778
  480TMC3    C6 7141   4.708   1.297  15.256 -0.0063 -0.0810  0.6960
  480TMC3     C 7142   4.494   1.020  15.477 -0.5962  0.5695 -0.3210
  480TMC3     O 7143   4.505   0.914  15.418  0.4592 -0.2216 -0.0066
  480TMC3     H 7144   4.455   1.289  15.482  1.0166  2.3584 -0.0138
  480TMC3    H1 7145   4.709   0.979  15.354 -1.7136 -0.1284  0.1758
  480TMC3    H2 7146   0.043   1.360  15.188 -0.4263 -0.0930  0.3351
  480TMC3    C7 7147   0.119   1.097  15.180  0.4149  0.1838 -0.4214
  480TMC3    C8 7148   4.546   1.465  15.297 -0.1436  0.4234 -0.8469
  480TMC3    O1 7149   0.186   1.027  15.253 -0.4044  0.1389  0.3152
  480TMC3    O2 7150   4.490   1.534  15.374  0.0349  0.2152  0.3010
  481MPD2     C 7151   1.990   1.128  13.981  0.2576 -0.0444  0.1305
  481MPD2    C1 7152   1.855   1.108  14.007 -0.5261  0.5893  0.0897
  481MPD2    C2 7153   1.818   1.078  14.139  0.2939 -0.5139  0.9712
  481MPD2    C3 7154   1.915   1.068  14.240  0.0981  0.2813  0.1128
  481MPD2    C4 7155   2.051   1.089  14.210 -0.1533  0.0384  0.4135
  481MPD2    C5 7156   2.085   1.120  14.083 -0.0462 -0.2835 -0.0722
  481MPD2     H 7157   1.715   1.051  14.162  1.0562 -1.8059  2.8928
  481MPD2    H1 7158   2.124   1.088  14.290  1.6047 -0.3391 -1.2014
  481MPD2    H2 7159   2.025   1.139  13.879  1.1062 -2.1736  0.1881
  481MPD2    H3 7160   2.190   1.132  14.062  0.1128 -1.2879  0.1682
  481MPD2     N 7161   1.879   1.041  14.378 -0.1157 -0.5663 -0.6625
  481MPD2    H5 7162   1.950   1.011  14.445 -1.2105 -0.2199  0.6549
  481MPD2    N1 7163   1.758   1.124  13.899  0.4784  0.4285  0.1309
  481MPD2    H7 7164   1.780   1.163  13.808  0.1703  0.3166  0.0120
  482TMC3    C1 7165   1.552   1.119  13.793  0.0009 -0.0119  0.0997
  482TMC3    C2 7166   1.446   1.035  13.763 -0.2204  0.4762 -1.0899
  482TMC3    C3 7167   1.362   1.087  13.673  1.0276  0.6515  1.0671
  482TMC3    C4 7168   1.577   1.244  13.747  0.8313 -0.7493  0.3441
  482TMC3    C5 7169   1.491   1.289  13.652  0.1892 -0.2025  0.8424
  482TMC3    C6 7170   1.381   1.213  13.616  0.5005 -0.0983  0.1189
  482TMC3     C 7171   1.631   1.073  13.905 -0.2212  0.5244  0.3948
  482TMC3     O 7172   1.569   1.004  13.988 -0.0718  0.1369  0.0643
  482TMC3     H 7173   1.438   0.936  13.807  1.3515  1.4963  1.5395
  482TMC3    H1 7174   1.664   1.304  13.771 -0.0273  2.0200 -3.3275
  482TMC3    H2 7175   1.312   1.239  13.536  2.1493 -2.1057 -1.9572
  482TMC3    C7 7176   1.517   1.426  13.622 -0.0692  0.3363 -0.3318
  482TMC3    C8 7177   1.288   0.993  13.600  0.0657 -0.5799 -0.0043
  482TMC3    O1 7178   1.575   1.491  13.713 -0.9479 -0.3049 -0.4036
  482TMC3    O2 7179   1.314   0.877  13.630  0.2303  0.1100  0.1260
  483TMC3    C1 7180   3.470   4.253   1.145 -0.0287  0.1414  0.3531
  483TMC3    C2 7181   3.566   4.346   1.172 -0.2400  1.1285 -0.0965
  483TMC3    C3 7182   3.627   4.339   1.292  0.3736  0.3206  0.6045
  483TMC3    C4 7183   3.447   4.146   1.225  0.3173  0.4609 -0.1133
  483TMC3    C5 7184   3.507   4.146   1.351  0.3370  0.0959 -0.3611
  483TMC3    C6 7185   3.594   4.245   1.384 -0.1813  0.4546  0.2332
  483TMC3     C 7186   3.448   4.242   1.004 -0.3979  0.4852  0.0914
  483TMC3     O 7187   3.465   4.343   0.941 -0.1542  0.3542  0.4034
  483TMC3     H 7188   3.599   4.422   1.101 -0.7410  2.5631  1.1975
  483TMC3    H1 7189   3.370   4.077   1.193  1.2255 -1.6662  2.3027
  483TMC3    H2 7190   3.614   4.254   1.490 -1.5049 -0.8985  0.6082
  483TMC3    C7 7191   3.536   4.018   1.414 -0.0032 -0.9157  0.5397
  483TMC3    C8 7192   3.774   4.330   1.278 -0.1758 -0.6816 -0.3334
  483TMC3    O1 7193   3.639   4.015   1.477  0.1052 -0.0655  0.3283
  483TMC3    O2 7194   3.828   4.400   1.191 -0.5725 -0.0620  0.3195
  484MPD2     C 7195   2.118   3.030  12.448  1.1048 -0.1266  0.3204
  484MPD2    C1 7196   2.145   2.934  12.542  0.0306  0.3059  0.6301
  484MPD2    C2 7197   2.275   2.919  12.591  0.5987  0.4780  0.1359
  484MPD2    C3 7198   2.376   3.001  12.538  0.0019  0.8369  0.6686
  484MPD2    C4 7199   2.348   3.089  12.437 -0.4979 -0.5334 -0.2687
  484MPD2    C5 7200   2.220   3.107  12.404  0.1016  0.4014 -0.2063
  484MPD2     H 7201   2.292   2.850  12.672  0.6380 -0.3269 -0.5545
  484MPD2    H1 7202   2.420   3.159  12.397 -1.8124  0.2270 -1.2976
  484MPD2    H2 7203   2.019   3.065  12.420  0.9535  0.0130  1.0435
  484MPD2    H3 7204   2.205   3.184  12.329  1.8013  1.9280  1.0328
  484MPD2     N 7205   2.511   2.989  12.566  0.0397  0.1348  0.3092
  484MPD2    H5 7206   2.577   3.041  12.508 -0.2510 -1.2642 -1.2870
  484MPD2    N1 7207   2.032   2.866  12.598  0.1303 -0.1048 -0.5418
  484MPD2    H7 7208   1.942   2.901  12.566 -0.4975 -0.7239  0.5581
  485TMC3    C1 7209   2.699   2.886  12.644  0.0695  0.7889 -0.5272
  485TMC3    C2 7210   2.762   2.839  12.757 -0.0102 -0.0036  0.6513
  485TMC3    C3 7211   2.875   2.765  12.743 -0.2759  0.3422 -0.5690
  485TMC3    C4 7212   2.752   2.873  12.517 -0.5218 -0.2131  0.5825
  485TMC3    C5 7213   2.873   2.808  12.511  0.1932 -0.0121 -0.7454
  485TMC3    C6 7214   2.939   2.760  12.623  0.8617 -0.4943 -0.2176
  485TMC3     C 7215   2.558   2.889  12.658  0.2117  0.2229 -0.2427
  485TMC3     O 7216   2.503   2.814  12.738 -0.4935 -0.7231 -0.5124
  485TMC3     H 7217   2.715   2.839  12.855  0.5235 -0.6279  0.9051
  485TMC3    H1 7218   2.710   2.900  12.421 -0.8995 -0.1927  0.7547
  485TMC3    H2 7219   3.037   2.714  12.618  2.3804  2.7194  0.4972
  485TMC3    C7 7220   2.894   2.718  12.398 -0.2706 -0.6869 -0.0840
  485TMC3    C8 7221   2.875   2.635  12.807 -0.2002  0.7352  0.4766
  485TMC3    O1 7222   2.975   2.633  12.424 -0.3383  0.2303 -0.2073
  485TMC3    O2 7223   2.817   2.622  12.914  0.6532 -0.0932  0.1389
  486MPD2     C 7224   4.393   1.674  12.492  0.3839 -0.5064 -0.5747
  486MPD2    C1 7225   4.314   1.719  12.599  0.2292 -0.0285 -1.1813
  486MPD2    C2 7226   4.201   1.797  12.566 -0.7368  0.1383 -0.0837
  486MPD2    C3 7227   4.174   1.834  12.439 -0.4725  0.0151  0.0542
  486MPD2    C4 7228   4.257   1.804  12.339  0.9674 -0.0592  1.0323
  486MPD2    C5 7229   4.360   1.718  12.367 -1.4062  0.0407  0.2241
  486MPD2     H 7230   4.132   1.830  12.643 -1.5331 -1.1396 -0.2435
  486MPD2    H1 7231   4.246   1.829  12.234 -3.1831 -0.8761  1.2604
  486MPD2    H2 7232   4.477   1.606  12.504  0.2800 -0.3231  1.2131
  486MPD2    H3 7233   4.421   1.689  12.282 -0.3072  2.9917  0.0116
  486MPD2     N 7234   4.049   1.908  12.419 -0.3637 -0.3264 -0.8666
  486MPD2    H5 7235   3.986   1.920  12.498  1.0330 -2.3918  0.5562
  486MPD2    N1 7236   4.341   1.673  12.728 -0.0075 -0.5526  0.2313
  486MPD2    H7 7237   4.407   1.595  12.736 -0.3331 -1.0021 -1.5497
  487TMC3    C1 7238   4.317   1.630  12.958  0.0099  0.2906  0.7446
  487TMC3    C2 7239   4.372   1.505  12.937  0.4326  0.2689  0.7802
  487TMC3    C3 7240   4.407   1.431  13.048 -0.6703 -0.9014  0.1320
  487TMC3    C4 7241   4.290   1.666  13.086  0.4997  0.0902  0.0278
  487TMC3    C5 7242   4.322   1.590  13.194  0.1327  0.2139 -0.1873
  487TMC3    C6 7243   4.386   1.471  13.178 -0.3249  0.1722  0.5748
  487TMC3     C 7244   4.279   1.713  12.843  0.5460 -0.2338 -0.1841
  487TMC3     O 7245   4.226   1.823  12.871  0.1471 -0.2013  0.4687
  487TMC3     H 7246   4.394   1.477  12.835 -0.2915 -1.5933  1.1452
  487TMC3    H1 7247   4.246   1.763  13.107 -1.5718 -1.1358  1.3247
  487TMC3    H2 7248   4.390   1.395  13.256  1.7538 -0.5839 -0.2699
  487TMC3    C7 7249   4.256   1.614  13.319  0.3275  0.4513 -0.0395
  487TMC3    C8 7250   4.402   1.292  13.009 -0.0220 -0.9458 -0.1315
  487TMC3    O1 7251   4.152   1.671  13.314  0.1005 -0.2193  0.3308
  487TMC3    O2 7252   4.463   1.257  12.908  0.1572 -0.8085 -0.2875
  488MPD2     C 7253   4.503   3.639  16.117  0.2217  0.2928 -0.7464
  488MPD2    C1 7254   4.535   3.683  16.243  0.2980 -0.1648  0.3591
  488MPD2    C2 7255   4.502   3.614  16.363  0.2637  0.4979  0.0925
  488MPD2    C3 7256   4.469   3.480  16.343  0.2887 -0.2445 -1.2739
  488MPD2    C4 7257   4.439   3.433  16.212  0.0469  0.7470  0.6709
  488MPD2    C5 7258   4.451   3.513  16.103 -0.3658 -0.0682 -0.6185
  488MPD2     H 7259   4.505   3.660  16.461 -0.3280  1.9271 -0.5785
  488MPD2    H1 7260   4.416   3.329  16.190 -0.1183  1.2536 -1.5061
  488MPD2    H2 7261   4.521   3.698  16.028  0.7140  0.2974 -0.6474
  488MPD2    H3 7262   4.426   3.473  16.005 -1.1696  0.5286 -0.6497
  488MPD2     N 7263   4.461   3.396  16.457 -0.5674 -0.4433  0.1122
  488MPD2    H5 7264   4.470   3.458  16.537 -3.5147  0.7566 -0.4543
  488MPD2    N1 7265   4.590   3.811  16.265 -0.1440 -0.6952 -0.4238
  488MPD2    H7 7266   4.602   3.850  16.358 -4.0420 -2.1726  0.6799
  489TMC3    C1 7267   4.394   3.227  16.600  0.0483 -0.7310  0.1335
  489TMC3    C2 7268   4.455   3.298  16.704 -0.0662  0.2615  0.4173
  489TMC3    C3 7269   4.414   3.279  16.835 -0.9453 -0.4539 -0.3220
  489TMC3    C4 7270   4.306   3.124  16.617  0.0831  0.3191  0.9327
  489TMC3    C5 7271   4.265   3.116  16.753 -0.3764 -0.5171  0.2054
  489TMC3    C6 7272   4.305   3.201  16.855  0.2124 -0.4611  0.2738
  489TMC3     C 7273   4.424   3.265  16.466 -0.3064  0.4786  0.0789
  489TMC3     O 7274   4.410   3.183  16.375 -0.2696 -0.0197  0.4893
  489TMC3     H 7275   4.528   3.374  16.677 -0.3752  0.0358 -1.0960
  489TMC3    H1 7276   4.271   3.064  16.534  2.2959  0.6375 -0.2252
  489TMC3    H2 7277   4.270   3.192  16.957 -0.1572 -4.1282 -0.1865
  489TMC3    C7 7278   4.153   3.033  16.783  0.1529 -0.2552  0.4576
  489TMC3    C8 7279   4.440   3.387  16.931  0.3917  0.3167  0.4969
  489TMC3    O1 7280   4.103   3.045  16.894  0.4509 -0.1788  0.5670
  489TMC3    O2 7281   4.540   3.456  16.904  0.0713  0.6216  0.4054
  490MPD2     C 7282   0.136   2.369  17.531 -0.5851  0.1905  0.4456
  490MPD2    C1 7283   0.226   2.277  17.486  0.8384 -0.2673  0.0786
  490MPD2    C2 7284   0.353   2.279  17.534  0.5638  0.2007  0.0609
  490MPD2    C3 7285   0.391   2.386  17.613 -0.0236 -1.2134 -0.1166
  490MPD2    C4 7286   0.299   2.482  17.650 -0.3234  0.2960 -0.6617
  490MPD2    C5 7287   0.169   2.470  17.616  0.5465  0.0282 -0.5796
  490MPD2     H 7288   0.418   2.197  17.506  2.6488  1.4688  1.1904
  490MPD2    H1 7289   0.333   2.568   0.021  0.5550  1.2101 -2.5023
  490MPD2    H2 7290   0.029   2.363  17.517 -0.0072 -1.2299 -3.5182
  490MPD2    H3 7291   0.096   2.543  17.650  0.8261 -0.0062  0.1101
  490MPD2     N 7292   0.522   2.401  17.673 -0.9584  0.0019  0.1774
  490MPD2    H5 7293   0.516   2.482   0.046  1.3694 -0.6714  1.3073
  490MPD2    N1 7294   0.197   2.158  17.410  0.0991 -0.1291  0.6401
  490MPD2    H7 7295   0.268   2.087  17.400  1.5845  1.2514  1.5688
  491TMC3    C1 7296   0.074   2.001  17.297  0.0279  0.4909 -0.1373
  491TMC3    C2 7297   0.122   1.900  17.372 -0.2049 -0.2692 -0.5940
  491TMC3    C3 7298   0.080   1.769  17.333  0.0056 -0.0068 -0.4123
  491TMC3    C4 7299   4.718   1.982  17.186  0.3336  0.4968 -0.3777
  491TMC3    C5 7300   4.676   1.854  17.155 -0.1483  0.5131  0.4609
  491TMC3    C6 7301   0.004   1.743  17.224 -0.0290 -0.2051  0.5283
  491TMC3     C 7302   0.084   2.133  17.346  0.4839 -0.3651 -0.0228
  491TMC3     O 7303   0.000   2.210  17.307  0.2171 -0.2484 -0.6365
  491TMC3     H 7304   0.182   1.922  17.459  0.4481 -1.0076 -0.8599
  491TMC3    H1 7305   4.675   2.068  17.138 -1.5521 -0.4762 -0.4180
  491TMC3    H2 7306   4.681   1.646  17.205  3.1911 -1.0846 -2.6379
  491TMC3    C7 7307   4.579   1.830  17.043 -0.4264 -0.4125 -0.3877
  491TMC3    C8 7308   0.111   1.672  17.435  0.3077  0.5576  0.6027
  491TMC3    O1 7309   4.545   1.713  17.025  0.1971 -0.6575 -0.5917
  491TMC3    O2 7310   0.111   1.552  17.398 -0.5574 -0.1098 -0.2642
  492MPD2     C 7311   0.900   3.020  11.289 -0.2152  0.0682  0.2212
  492MPD2    C1 7312   0.810   2.988  11.187 -0.2361  0.0092  0.2484
  492MPD2    C2 7313   0.673   2.976  11.214  0.0833 -0.4673 -0.4385
  492MPD2    C3 7314   0.631   2.962  11.344 -0.2784  0.4844 -0.0373
  492MPD2    C4 7315   0.728   2.980  11.446 -0.4517 -0.3970  0.3649
  492MPD2    C5 7316   0.860   3.005  11.419  0.3905 -0.2402  0.6030
  492MPD2     H 7317   0.607   2.956  11.131  1.3768 -0.5923 -1.4282
  492MPD2    H1 7318   0.709   2.960  11.551  1.5501  1.3535  1.0623
  492MPD2    H2 7319   1.005   3.034  11.265  0.1657  0.1443  1.9431
  492MPD2    H3 7320   0.927   3.010  11.504  1.0212 -0.0003  0.0956
  492MPD2     N 7321   0.491   2.945  11.380 -0.4950 -0.4152 -0.2115
  492MPD2    H5 7322   0.473   2.950  11.480  4.1888  2.9043  0.4226
  492MPD2    N1 7323   0.855   3.000  11.056 -1.0587 -0.3084  0.2314
  492MPD2    H7 7324   0.942   3.052  11.044 -0.7958 -0.9091 -0.4637
  493TMC3    C1 7325   0.840   3.011  10.822 -0.4998 -0.0563  0.2437
  493TMC3    C2 7326   0.865   3.150  10.837  0.8404  0.7719 -0.3305
  493TMC3    C3 7327   0.830   3.234  10.730 -0.5680  0.2482 -0.1543
  493TMC3    C4 7328   0.778   2.965  10.706  0.0198  0.1576 -0.4583
  493TMC3    C5 7329   0.739   3.054  10.609  0.4990 -0.1817  0.1728
  493TMC3    C6 7330   0.769   3.188  10.622 -0.3499 -0.7302 -0.6737
  493TMC3     C 7331   0.794   2.954  10.943 -0.1268 -0.3361  0.3376
  493TMC3     O 7332   0.710   2.870  10.947 -0.6190  0.2325  0.3874
  493TMC3     H 7333   0.913   3.191  10.925  1.5016 -3.1739  1.1665
  493TMC3    H1 7334   0.754   2.859  10.699  3.0323 -0.6759  1.6934
  493TMC3    H2 7335   0.731   3.253  10.544 -1.4205  0.2290  0.6352
  493TMC3    C7 7336   0.627   3.001  10.528 -0.3136  0.2384 -0.7188
  493TMC3    C8 7337   0.808   3.371  10.773 -0.1588 -0.3914  0.5289
  493TMC3    O1 7338   0.534   3.082  10.504 -0.3231  0.1167 -0.8805
  493TMC3    O2 7339   0.780   3.393  10.889  0.1808 -0.2989 -0.7671
  494TMC3    C1 7340   0.809   3.729   0.003 -0.2390  0.6167 -0.3561
  494TMC3    C2 7341   0.871   3.607   0.015  0.4375  0.3335  0.3492
  494TMC3    C3 7342   1.004   3.604  17.657 -0.2925 -0.4631 -0.2033
  494TMC3    C4 7343   0.854   3.838  17.632  0.2033  0.1805  1.2476
  494TMC3    C5 7344   0.987   3.831  17.592  0.6085  0.4290  0.6032
  494TMC3    C6 7345   1.064   3.716  17.605  0.4713 -0.2380 -0.2828
  494TMC3     C 7346   0.683   3.742   0.080 -0.5289 -0.3941 -0.3773
  494TMC3     O 7347   0.665   3.838   0.152  0.2249  0.3240 -0.3309
  494TMC3     H 7348   0.826   3.526   0.071 -1.3775 -0.1255 -1.7575
  494TMC3    H1 7349   0.790   3.925  17.621 -0.5992 -0.4655  0.7953
  494TMC3    H2 7350   1.161   3.727  17.559  0.9773  0.1529  0.8907
  494TMC3    C7 7351   1.054   3.947  17.538  0.9680 -0.3796  0.1645
  494TMC3    C8 7352   1.095   3.505   0.008  0.3608 -0.6386  0.0270
  494TMC3    O1 7353   1.169   3.942  17.505  0.3020  0.5325 -0.1722
  494TMC3    O2 7354   1.199   3.513  17.629  0.0819 -0.4779  0.0825
  495TMC3    C1 7355   4.599   1.452  14.334 -1.3608  0.3989 -0.2804
  495TMC3    C2 7356   4.523   1.540  14.258  0.5869  0.2725 -0.0073
  495TMC3    C3 7357   4.492   1.659  14.304  0.0399  0.8413 -0.4974
  495TMC3    C4 7358   4.654   1.490  14.448  0.5819  0.0948 -0.3219
  495TMC3    C5 7359   4.619   1.607  14.502 -0.9617 -0.1991 -0.4300
  495TMC3    C6 7360   4.538   1.693  14.430 -0.3422  0.5714 -0.0103
  495TMC3     C 7361   4.612   1.308  14.298 -0.5701  0.3970 -0.6914
  495TMC3     O 7362   4.517   1.273  14.231  0.9101 -0.4646 -0.1053
  495TMC3     H 7363   4.485   1.503  14.164  1.2945 -1.6439  0.4560
  495TMC3    H1 7364   0.006   1.427  14.498 -0.8035  0.5873  2.2901
  495TMC3    H2 7365   4.509   1.785  14.481 -1.4200 -1.0689  2.3421
  495TMC3    C7 7366   4.636   1.596  14.648 -0.6407  0.3171 -0.6974
  495TMC3    C8 7367   4.397   1.736  14.239 -0.0610  0.2970  0.7184
  495TMC3    O1 7368   4.718   1.517  14.690  0.1568  0.6238 -0.3477
  495TMC3    O2 7369   4.309   1.785  14.316  0.2541 -0.1045 -0.5217
  496MPD2     C 7370   1.659   1.925  15.038  0.7394 -0.1611 -0.1413
  496MPD2    C1 7371   1.688   1.880  15.162  0.4012  0.6067 -0.0092
  496MPD2    C2 7372   1.616   1.924  15.269  0.3374  0.1065 -0.1126
  496MPD2    C3 7373   1.527   2.024  15.248 -0.1206  0.3565 -0.0331
  496MPD2    C4 7374   1.489   2.064  15.125  0.5426 -0.3158  1.9912
  496MPD2    C5 7375   1.560   2.017  15.018  0.2677  0.5719 -0.0783
  496MPD2     H 7376   1.638   1.886  15.368 -0.6362 -0.7615 -0.2317
  496MPD2    H1 7377   1.406   2.133  15.114  1.2222  0.4466  1.7129
  496MPD2    H2 7378   1.709   1.884  14.951  1.1271  1.3696 -0.6472
  496MPD2    H3 7379   1.533   2.044  14.916  1.8305 -2.3963 -1.2795
  496MPD2     N 7380   1.456   2.076  15.354  0.0308 -0.3732  0.3263
  496MPD2    H5 7381   1.381   2.140  15.331 -0.7526 -0.6699  2.0684
  496MPD2    N1 7382   1.791   1.787  15.168 -0.7641 -0.2319  0.7558
  496MPD2    H7 7383   1.850   1.778  15.086  1.0862  1.5026  1.8685
  497TMC3    C1 7384   1.356   2.096  15.567 -0.1303  0.8420 -0.5255
  497TMC3    C2 7385   1.235   2.109  15.500 -0.5101  0.4122  0.5959
  497TMC3    C3 7386   1.117   2.146  15.565  0.6174  0.2443 -0.5895
  497TMC3    C4 7387   1.364   2.102  15.702  0.3411 -1.0942  0.6519
  497TMC3    C5 7388   1.246   2.134  15.766  0.0425 -0.1646  0.7292
  497TMC3    C6 7389   1.130   2.165  15.696  0.1267  0.2612  0.0710
  497TMC3     C 7390   1.467   2.046  15.488 -0.5969  0.1321 -0.1492
  497TMC3     O 7391   1.559   1.996  15.550  0.4551  0.2108  0.2901
  497TMC3     H 7392   1.219   2.088  15.395  1.1094  2.2504 -0.0222
  497TMC3    H1 7393   1.460   2.083  15.748 -0.4518 -0.8467  2.4119
  497TMC3    H2 7394   1.047   2.209  15.750 -0.3307  1.4746 -1.6065
  497TMC3    C7 7395   1.253   2.180  15.903  0.1129 -0.1201 -0.1903
  497TMC3    C8 7396   1.030   2.238  15.488 -0.2134 -0.2462  0.0644
  497TMC3    O1 7397   1.158   2.248  15.947 -0.4989  0.2108 -0.3053
  497TMC3    O2 7398   1.088   2.292  15.395  0.2396  0.5361 -0.1593
  498MPD2     C 7399   4.160   2.731  10.207  0.0263 -0.4208 -0.3417
  498MPD2    C1 7400   4.125   2.796  10.089 -0.3008 -0.5094  0.9672
  498MPD2    C2 7401   4.125   2.727   9.970  0.0428  0.3910 -0.5003
  498MPD2    C3 7402   4.155   2.594   9.966 -0.2940  0.5552  0.6030
  498MPD2    C4 7403   4.179   2.527  10.091 -0.2203  0.5701 -0.4291
  498MPD2    C5 7404   4.190   2.602  10.206 -0.2665 -0.1498  0.1989
  498MPD2     H 7405   4.082   2.776   9.883  1.6213  3.0495  0.2104
  498MPD2    H1 7406   4.181   2.419  10.102  0.8632  0.8447  1.9582
  498MPD2    H2 7407   4.161   2.787  10.300 -2.8588  1.7934 -1.6588
  498MPD2    H3 7408   4.214   2.550  10.298  2.8954 -0.3256 -0.7105
  498MPD2     N 7409   4.152   2.530   9.839  0.1798 -0.2047  0.0205
  498MPD2    H5 7410   4.115   2.588   9.764 -0.9044  0.1963  0.8576
  498MPD2    N1 7411   4.084   2.931  10.075  0.7901  0.3439 -0.0995
  498MPD2    H7 7412   4.087   2.965   9.980  1.1326  1.3786  0.2829
  499TMC3    C1 7413   4.038   3.152  10.132 -0.4360  0.1409  0.6185
  499TMC3    C2 7414   4.050   3.254  10.227  0.2508  0.7483  0.0777
  499TMC3    C3 7415   4.029   3.379  10.192  0.1909  0.9091 -0.2014
  499TMC3    C4 7416   4.013   3.181   9.997 -0.1168  0.0291 -0.1010
  499TMC3    C5 7417   3.992   3.311   9.976 -0.2286  0.5245  0.5092
  499TMC3    C6 7418   3.995   3.413  10.066  0.6479  0.5672 -0.3118
  499TMC3     C 7419   4.055   3.016  10.176  0.3964 -0.7571 -0.8322
  499TMC3     O 7420   4.058   2.999  10.296 -0.0308  0.1406 -0.5016
  499TMC3     H 7421   4.091   3.228  10.324  0.3976  2.8075  0.5676
  499TMC3    H1 7422   4.008   3.112   9.914  0.4351 -0.0576 -0.0572
  499TMC3    H2 7423   3.971   3.515  10.042  0.5288  0.6662  0.2144
  499TMC3    C7 7424   3.985   3.349   9.839  0.0189 -0.4125  0.1024
  499TMC3    C8 7425   4.009   3.484  10.291 -0.1006  0.5888 -1.0181
  499TMC3    O1 7426   3.935   3.453   9.810  0.1272  0.2303  0.2635
  499TMC3    O2 7427   3.952   3.585  10.250 -0.1303 -0.6129  0.3094
  500MPD2     C 7428   4.428   3.957  10.814  0.2839 -0.5427  0.2430
  500MPD2    C1 7429   4.495   4.041  10.732 -0.9466 -0.1792 -0.6433
  500MPD2    C2 7430   4.434   4.068  10.611 -0.2845 -0.2119 -0.5531
  500MPD2    C3 7431   4.308   4.016  10.582  0.6233 -0.4542  0.2448
  500MPD2    C4 7432   4.236   3.940  10.674  0.4595 -0.2534 -0.5712
  500MPD2    C5 7433   4.299   3.913  10.793  0.0593  0.0521 -0.1665
  500MPD2     H 7434   4.501   4.118  10.542  0.4512 -0.1916  0.1733
  500MPD2    H1 7435   4.132   3.910  10.662  0.4044 -0.7022  1.0087
  500MPD2    H2 7436   4.471   3.912  10.902  0.4205 -1.1062 -0.1119
  500MPD2    H3 7437   4.259   3.849  10.871  0.1622  2.8054  2.1423
  500MPD2     N 7438   4.245   4.034  10.454  0.3782 -0.0585 -0.1284
  500MPD2    H5 7439   4.148   4.006  10.446  0.8237 -1.5002 -0.4590
  500MPD2    N1 7440   4.627   4.089  10.753  0.6471 -0.1808  0.0374
  500MPD2    H7 7441   4.642   4.160  10.681 -0.9455 -0.3819 -0.4831
  501TMC3    C1 7442   0.123   4.101  10.846  0.0333  0.0984 -0.1228
  501TMC3    C2 7443   0.142   4.191  10.747  0.4749 -0.6304 -0.4483
  501TMC3    C3 7444   0.273   4.234  10.725 -0.1989  0.6455  0.6412
  501TMC3    C4 7445   0.218   4.046  10.922 -0.1396 -0.1598 -0.1617
  501TMC3    C5 7446   0.350   4.094  10.897  0.3622  0.4012  0.2531
  501TMC3    C6 7447   0.379   4.181  10.796 -0.2168  0.0196 -0.1827
  501TMC3     C 7448   4.717   4.038  10.845 -0.9067  0.2492  0.5568
  501TMC3     O 7449   4.702   3.942  10.923 -0.3045  0.2406 -0.1490
  501TMC3     H 7450   0.068   4.258  10.705  0.4009  0.1318  0.8961
  501TMC3    H1 7451   0.195   3.980  11.005  2.4243 -1.6370 -0.6430
  501TMC3    H2 7452   0.480   4.210  10.769 -0.0024 -0.8265 -0.2808
  501TMC3    C7 7453   0.456   4.045  10.988  0.1556 -0.1124  0.1582
  501TMC3    C8 7454   0.308   4.332  10.626  0.2178  0.1594  0.2144
  501TMC3    O1 7455   0.449   3.938  11.047  0.3747  0.0535 -0.1632
  501TMC3    O2 7456   0.408   4.398  10.642  0.3291 -0.3586 -0.0700
  502TMC3    C1 7457   3.700   2.062  14.719 -0.0598 -0.5060  0.1457
  502TMC3    C2 7458   3.775   2.165  14.768  0.7319 -0.7464  0.1499
  502TMC3    C3 7459   3.724   2.235  14.875 -0.2676 -0.1329 -0.6118
  502TMC3    C4 7460   3.581   2.032  14.769 -0.7045 -0.0853  0.2013
  502TMC3    C5 7461   3.528   2.116  14.868 -0.1470  0.3218  0.2717
  502TMC3    C6 7462   3.604   2.209  14.926 -0.1732 -0.4123 -0.7217
  502TMC3     C 7463   3.777   1.945  14.724 -0.0873  0.2124 -0.4644
  502TMC3     O 7464   3.882   1.934  14.662  0.2007  0.0645 -0.4886
  502TMC3     H 7465   3.880   2.166  14.743  0.5225 -1.7767 -0.7626
  502TMC3    H1 7466   3.515   1.968  14.711 -1.2628  0.8125 -0.1589
  502TMC3    H2 7467   3.564   2.255  15.015  1.2886 -0.9553  0.2071
  502TMC3    C7 7468   3.443   2.046  14.956 -0.1291 -0.2144 -0.4412
  502TMC3    C8 7469   3.817   2.329  14.945  0.0920  0.2451  0.8263
  502TMC3    O1 7470   3.453   1.924  14.945 -0.1761  0.1127 -0.0109
  502TMC3    O2 7471   3.898   2.378  14.869 -0.0594  0.1629 -0.6112
  503MPD2     C 7472   1.622   3.518  16.677 -0.7781  0.2647 -0.8251
  503MPD2    C1 7473   1.600   3.525  16.809 -0.2464  0.5258  0.2207
  503MPD2    C2 7474   1.613   3.408  16.887 -0.5887  0.1643  0.1932
  503MPD2    C3 7475   1.647   3.286  16.824 -0.6206  0.2075  0.1056
  503MPD2    C4 7476   1.669   3.283  16.687  0.0064  0.0461  0.3097
  503MPD2    C5 7477   1.653   3.398  16.616 -0.2653  1.2271 -0.5959
  503MPD2     H 7478   1.588   3.398  16.992 -0.6445  0.2145  0.1844
  503MPD2    H1 7479   1.699   3.194  16.633 -0.6153 -0.4717  0.8238
  503MPD2    H2 7480   1.610   3.607  16.617 -0.3281 -1.6249 -3.7379
  503MPD2    H3 7481   1.658   3.394  16.508 -1.7932  1.2560 -0.6737
  503MPD2     N 7482   1.662   3.167  16.890  0.0137  0.0207 -0.3998
  503MPD2    H5 7483   1.690   3.094  16.826  0.5649  0.6917 -0.9273
  503MPD2    N1 7484   1.575   3.642  16.877  0.1843 -0.8139 -1.3860
  503MPD2    H7 7485   1.580   3.632  16.977  0.7410 -0.6802 -1.4010
  504TMC3    C1 7486   1.652   3.001  17.053 -0.0108  0.0192  0.2526
  504TMC3    C2 7487   1.569   2.936  17.150 -0.2478  0.1877  0.2075
  504TMC3    C3 7488   1.608   2.819  17.207  0.2493  0.5906  0.5274
  504TMC3    C4 7489   1.767   2.946  17.016 -0.1729 -0.2653  0.0554
  504TMC3    C5 7490   1.799   2.829  17.068  0.0770  0.0629  0.2109
  504TMC3    C6 7491   1.727   2.759  17.166 -0.1174 -0.2825 -0.0933
  504TMC3     C 7492   1.634   3.139  17.022 -0.5371  0.3059  0.2322
  504TMC3     O 7493   1.573   3.205  17.106  0.4777 -0.1428  0.2979
  504TMC3     H 7494   1.478   2.989  17.176 -0.1219  0.5466 -0.0783
  504TMC3    H1 7495   1.842   3.002  16.961  0.1448  0.4209  1.1707
  504TMC3    H2 7496   1.764   2.667  17.208  0.4982 -0.7379 -1.6295
  504TMC3    C7 7497   1.925   2.773  17.035 -1.1679 -0.8441 -0.3931
  504TMC3    C8 7498   1.532   2.772  17.324  0.3019  0.2549  0.8633
  504TMC3    O1 7499   1.971   2.812  16.926  0.0266  0.1120 -0.2735
  504TMC3    O2 7500   1.417   2.815  17.339 -0.1329 -0.2157  0.0394
  505MPD2     C 7501   4.394   2.110   8.492 -0.2652 -0.1003  0.5881
  505MPD2    C1 7502   4.260   2.090   8.487 -0.4982  0.1271 -0.3182
  505MPD2    C2 7503   4.177   2.199   8.499  0.1455  0.0330 -0.2191
  505MPD2    C3 7504   4.226   2.325   8.502  0.0109  0.1917  0.1181
  505MPD2    C4 7505   4.366   2.344   8.506 -0.4976  0.2393  0.5905
  505MPD2    C5 7506   4.447   2.233   8.504  1.2768 -0.3511  0.0088
  505MPD2     H 7507   4.070   2.180   8.508 -0.2534  3.3374  2.0135
  505MPD2    H1 7508   4.416   2.440   8.512 -0.2050  0.1833 -0.9370
  505MPD2    H2 7509   4.457   2.026   8.463  3.3389  3.0222 -0.6516
  505MPD2    H3 7510   4.554   2.241   8.519  1.4217 -2.1699 -0.1075
  505MPD2     N 7511   4.141   2.437   8.521  0.1165 -0.5076 -0.1419
  505MPD2    H5 7512   4.041   2.417   8.526  0.3675 -1.5052  0.8926
  505MPD2    N1 7513   4.210   1.961   8.488  0.2749  0.2497 -0.1019
  505MPD2    H7 7514   4.278   1.885   8.490 -2.2444 -1.9912 -0.0092
  506TMC3    C1 7515   4.044   1.787   8.504 -0.0510  0.0116  0.1016
  506TMC3    C2 7516   4.113   1.739   8.614  0.0652  0.4987  0.0659
  506TMC3    C3 7517   4.048   1.695   8.724  0.4980  1.0156 -0.1310
  506TMC3    C4 7518   3.907   1.773   8.491 -0.2066 -0.3507  0.0474
  506TMC3    C5 7519   3.836   1.718   8.600 -0.0037  0.0514  0.4658
  506TMC3    C6 7520   3.907   1.695   8.717 -0.3245 -0.0550 -0.1046
  506TMC3     C 7521   4.078   1.925   8.481  0.0387 -0.3044 -0.0143
  506TMC3     O 7522   3.980   1.997   8.474 -0.5552  0.0533 -0.0851
  506TMC3     H 7523   4.221   1.750   8.614  0.4423 -3.1180 -0.0860
  506TMC3    H1 7524   3.858   1.816   8.404 -1.5249  1.6141  1.7455
  506TMC3    H2 7525   3.849   1.667   8.805  1.9114 -1.6104  0.8926
  506TMC3    C7 7526   3.712   1.798   8.626  0.0230  0.0906 -0.7116
  506TMC3    C8 7527   4.120   1.694   8.845 -0.2640 -0.3103  0.1883
  506TMC3    O1 7528   3.629   1.756   8.706 -0.2133 -0.2271  0.3744
  506TMC3    O2 7529   4.238   1.664   8.836 -0.0127 -0.9141  0.4894
  507TMC3    C1 7530   2.880   3.015  14.928 -0.2766  0.5423 -0.2091
  507TMC3    C2 7531   2.897   2.881  14.931  0.4655  0.0764 -0.2467
  507TMC3    C3 7532   2.931   2.817  14.817  0.4611 -0.3442 -0.2881
  507TMC3    C4 7533   2.916   3.091  14.822  0.0817 -0.5330  0.4551
  507TMC3    C5 7534   2.947   3.026  14.707  0.3802  0.1043 -0.2832
  507TMC3    C6 7535   2.962   2.892  14.707 -0.0982  0.6624  0.1435
  507TMC3     C 7536   2.747   3.047  14.962 -0.1170 -0.6113 -0.4656
  507TMC3     O 7537   2.675   3.081  14.869  0.0587  0.1801  0.6303
  507TMC3     H 7538   2.863   2.834  15.023 -0.8390  0.1163 -0.7078
  507TMC3    H1 7539   2.911   3.200  14.827 -0.2560 -0.5359  0.1658
  507TMC3    H2 7540   3.003   2.842  14.620 -2.5337 -1.7349  0.3478
  507TMC3    C7 7541   2.895   3.073  14.581 -0.7391  0.4853 -0.6689
  507TMC3    C8 7542   2.831   2.719  14.772 -0.4996  0.2921  0.4678
  507TMC3    O1 7543   2.871   2.984  14.499 -0.0959 -0.5530 -0.0072
  507TMC3    O2 7544   2.788   2.646  14.856  0.5282  0.0434  0.2674
  508MPD2     C 7545   3.298   0.043  15.634 -0.0557  0.3946  0.2706
  508MPD2    C1 7546   3.224   0.103  15.731 -0.0845  0.2558  0.3587
  508MPD2    C2 7547   3.155   0.224  15.702 -0.3356 -0.3161 -0.1172
  508MPD2    C3 7548   3.162   0.274  15.576  0.3486 -0.0600  0.4139
  508MPD2    C4 7549   3.237   0.204  15.481 -0.3177 -0.5187 -0.0646
  508MPD2    C5 7550   3.297   0.089  15.508 -0.2158 -0.4279  1.1534
  508MPD2     H 7551   3.107   0.280  15.782  3.0296  0.1931  1.5498
  508MPD2    H1 7552   3.244   0.232  15.376 -1.2254 -0.0724 -0.0103
  508MPD2    H2 7553   3.359   4.678  15.659 -0.9890 -0.5472 -0.7333
  508MPD2    H3 7554   3.342   0.029  15.429 -1.2966  2.3017 -1.5766
  508MPD2     N 7555   3.099   0.402  15.550  0.2956 -0.3243 -0.1358
  508MPD2    H5 7556   3.051   0.454  15.623 -1.0467  0.4176 -1.5425
  508MPD2    N1 7557   3.237   0.054  15.858  0.3134  0.2840  0.1740
  508MPD2    H7 7558   3.287   4.689  15.875  1.1943  0.2907 -2.5167
  509TMC3    C1 7559   2.816   0.642  15.278 -0.0545 -0.4049 -0.2049
  509TMC3    C2 7560   2.716   0.634  15.366  0.3187  0.5109  0.0318
  509TMC3    C3 7561   2.752   0.580  15.490 -0.4363 -0.1076  0.1182
  509TMC3    C4 7562   2.948   0.606  15.299  0.2454 -0.3246  0.7287
  509TMC3    C5 7563   2.983   0.559  15.424  0.6676  0.4070 -0.2669
  509TMC3    C6 7564   2.880   0.544  15.519 -0.4163  0.6186  0.4835
  509TMC3     C 7565   2.802   0.747  15.170  0.7424 -0.6897  0.0605
  509TMC3     O 7566   2.906   0.795  15.126  0.6826  0.0152 -0.2619
  509TMC3     H 7567   2.619   0.679  15.350 -0.2736 -0.3935  1.0958
  509TMC3    H1 7568   3.014   0.612  15.213 -1.2429 -1.2220 -0.4770
  509TMC3    H2 7569   2.887   0.478  15.604  2.3133  0.4410  0.1035
  509TMC3    C7 7570   3.090   0.460  15.426  1.0119  0.5079  0.0269
  509TMC3    C8 7571   2.683   0.650  15.599 -0.0834 -0.0565 -0.3139
  509TMC3    O1 7572   3.142   0.424  15.321  0.1757  0.0341 -0.1704
  509TMC3    O2 7573   2.569   0.694  15.569 -0.2278 -0.6104 -0.2959
  510MPD2     C 7574   1.773   2.542  14.488 -0.3973  0.3431 -0.2318
  510MPD2    C1 7575   1.754   2.411  14.523 -0.5364  0.4665  0.8719
  510MPD2    C2 7576   1.839   2.318  14.465  0.6114  0.0573  0.0532
  510MPD2    C3 7577   1.952   2.352  14.390  0.0197  0.5368 -0.1426
  510MPD2    C4 7578   1.968   2.487  14.362  0.5248 -0.4757  0.2057
  510MPD2    C5 7579   1.878   2.581  14.415  0.1394  0.0021  0.6644
  510MPD2     H 7580   1.831   2.211  14.478 -1.7777  0.3169  0.7832
  510MPD2    H1 7581   2.049   2.530  14.304 -1.3320 -1.3753 -3.0788
  510MPD2    H2 7582   1.715   2.620  14.536 -1.1800 -1.5860  1.9755
  510MPD2    H3 7583   1.885   2.686  14.388  1.7650 -0.2475  0.1068
  510MPD2     N 7584   2.038   2.246  14.348  0.0271 -0.4128 -0.0754
  510MPD2    H5 7585   2.017   2.149  14.368 -1.3884 -0.0601  0.1605
  510MPD2    N1 7586   1.644   2.383  14.618  0.3560 -0.6424 -0.0822
  510MPD2    H7 7587   1.586   2.462  14.645  0.2140 -0.8048  0.0876
  511TMC3    C1 7588   1.458   2.268  14.701  0.1238 -0.5894 -0.1480
  511TMC3    C2 7589   1.441   2.352  14.807  0.1874 -0.0910 -0.0225
  511TMC3    C3 7590   1.327   2.346  14.880 -0.4550  0.0652 -0.3230
  511TMC3    C4 7591   1.366   2.172  14.674  0.5974  0.2942  0.5321
  511TMC3    C5 7592   1.259   2.158  14.756  0.2029  0.1586 -0.1718
  511TMC3    C6 7593   1.236   2.244  14.862  0.2045 -0.2135 -0.2315
  511TMC3     C 7594   1.595   2.256  14.644  0.5043 -0.9717  0.1573
  511TMC3     O 7595   1.633   2.152  14.590 -0.0189  0.0083 -0.1284
  511TMC3     H 7596   1.525   2.412  14.839 -1.8718  1.8807  1.6942
  511TMC3    H1 7597   1.380   2.097  14.597 -1.7704 -0.7159  1.0944
  511TMC3    H2 7598   1.148   2.237  14.925 -0.2068 -0.9674 -0.8986
  511TMC3    C7 7599   1.183   2.038  14.744 -0.1113  0.1547  0.9807
  511TMC3    C8 7600   1.324   2.400  15.016 -0.3991 -0.1154 -0.2966
  511TMC3    O1 7601   1.167   1.984  14.635  0.1100 -0.7648 -0.2161
  511TMC3    O2 7602   1.222   2.450  15.057 -0.4396 -0.3538 -0.6481
  512TMC3    C1 7603   0.012   1.716  13.569 -0.1523 -0.1638 -0.2896
  512TMC3    C2 7604   0.105   1.679  13.669  0.0536 -0.5050 -0.4579
  512TMC3    C3 7605   0.156   1.555  13.668  0.0630 -0.8040 -0.1146
  512TMC3    C4 7606   4.706   1.620  13.472 -0.0770 -1.0045 -0.6213
  512TMC3    C5 7607   0.038   1.496  13.493 -0.4985  0.1483 -0.1746
  512TMC3    C6 7608   0.132   1.462  13.575 -0.2136  0.6970  0.1998
  512TMC3     C 7609   4.654   1.841  13.579  0.5558  0.3380  1.1391
  512TMC3     O 7610   4.667   1.897  13.688 -0.2692  0.2415 -0.6776
  512TMC3     H 7611   0.131   1.749  13.748  1.9177  2.2422 -3.5621
  512TMC3    H1 7612   4.637   1.638  13.390  0.9291  1.6395 -0.8796
  512TMC3    H2 7613   0.156   1.360  13.602 -0.2339  1.0837  1.6738
  512TMC3    C7 7614   4.699   1.392  13.418  0.0870  0.6150 -0.1195
  512TMC3    C8 7615   0.282   1.520  13.734  0.1190 -0.4686  0.2732
  512TMC3    O1 7616   4.580   1.404  13.404  0.3412 -0.4179 -0.2867
  512TMC3    O2 7617   0.317   1.402  13.744  0.0152  0.3398 -0.3244
  513MPD2     C 7618   2.077   1.396  13.647 -0.4845 -0.0985 -0.0860
  513MPD2    C1 7619   2.101   1.293  13.564  0.7455  0.3077  0.9413
  513MPD2    C2 7620   2.230   1.246  13.559 -0.1580 -0.7347  0.2777
  513MPD2    C3 7621   2.332   1.298  13.638 -0.0807 -0.0707  0.2457
  513MPD2    C4 7622   2.307   1.403  13.723  0.2292 -0.0818 -0.4389
  513MPD2    C5 7623   2.180   1.456  13.722  0.1505  0.2637  0.3060
  513MPD2     H 7624   2.256   1.162  13.495 -1.2767 -0.1759 -0.9071
  513MPD2    H1 7625   2.393   1.447  13.773  0.1278  0.1763 -0.4906
  513MPD2    H2 7626   1.978   1.441  13.647 -1.8493 -3.1125 -1.9584
  513MPD2    H3 7627   2.176   1.546  13.782  1.4375  0.4598  0.0981
  513MPD2     N 7628   2.458   1.241  13.611  0.2873  0.4395  0.7124
  513MPD2    H5 7629   2.449   1.168  13.541 -2.7344 -1.1488  2.7807
  513MPD2    N1 7630   2.006   1.227  13.485  0.2245  0.5559 -0.1756
  513MPD2    H7 7631   2.038   1.140  13.443 -2.3206 -1.3828  1.9436
  514TMC3    C1 7632   1.821   1.212  13.332 -1.0747  0.4005  0.3808
  514TMC3    C2 7633   1.760   1.299  13.243  0.0661 -0.2380  0.2504
  514TMC3    C3 7634   1.746   1.252  13.109 -0.0278 -0.0780  0.7238
  514TMC3    C4 7635   1.865   1.087  13.289  0.1271  0.2087  0.1851
  514TMC3    C5 7636   1.838   1.038  13.161 -0.1991 -0.4343 -0.4555
  514TMC3    C6 7637   1.786   1.130  13.070 -0.6472 -0.6276  0.4310
  514TMC3     C 7638   1.883   1.271  13.453  0.4190 -0.4354 -0.7262
  514TMC3     O 7639   1.820   1.369  13.497  0.1250 -0.5149 -0.5737
  514TMC3     H 7640   1.734   1.399  13.273  2.3797 -0.8143  4.1973
  514TMC3    H1 7641   1.928   1.023  13.349 -1.4670  0.4902  2.1686
  514TMC3    H2 7642   1.775   1.101  12.966 -1.3865  3.8206 -0.6987
  514TMC3    C7 7643   1.938   0.952  13.109 -0.4826  0.4919 -0.2769
  514TMC3    C8 7644   1.719   1.359  13.008 -0.2458  0.6876 -0.2741
  514TMC3    O1 7645   1.909   0.865  13.030  0.6054  0.0189  0.4213
  514TMC3    O2 7646   1.667   1.463  13.045 -0.3617  0.5290  0.3390
  515MPD2     C 7647   4.578   2.806  15.567  0.7933 -0.2392 -0.4000
  515MPD2    C1 7648   4.623   2.765  15.446  0.2650  0.3407 -0.7222
  515MPD2    C2 7649   0.000   2.844  15.384 -0.4076  0.2927  0.1774
  515MPD2    C3 7650   0.049   2.958  15.436 -0.3979  0.9303  0.0982
  515MPD2    C4 7651   4.696   3.019  15.531  0.1703 -0.0033 -0.0033
  515MPD2    C5 7652   4.611   2.936  15.604  0.3940 -0.3344  0.2865
  515MPD2     H 7653   0.047   2.794  15.299  0.2513 -1.1538  1.3969
  515MPD2    H1 7654   4.715   3.119  15.566  0.1491  0.8601 -2.4917
  515MPD2    H2 7655   4.511   2.747  15.628  0.9114 -0.1505 -0.1847
  515MPD2    H3 7656   4.590   2.979  15.701 -1.1509 -0.3443 -0.0331
  515MPD2     N 7657   0.159   3.025  15.377  0.1245 -0.6143 -0.5544
  515MPD2    H5 7658   0.177   3.123  15.398  0.9307 -0.8236 -0.2933
  515MPD2    N1 7659   4.566   2.658  15.365  0.4235  0.5883  0.0397
  515MPD2    H7 7660   4.619   2.634  15.281  0.9874  0.1335  0.5295
  516TMC3    C1 7661   4.416   2.480  15.302 -0.1143 -0.2250  0.1610
  516TMC3    C2 7662   4.437   2.521  15.168 -0.1714  0.3332 -0.4470
  516TMC3    C3 7663   4.379   2.451  15.072 -0.8167  0.6051 -0.4768
  516TMC3    C4 7664   4.335   2.372  15.333 -0.3126 -0.5284 -0.0405
  516TMC3    C5 7665   4.271   2.306  15.235 -0.5349  0.4945 -0.1361
  516TMC3    C6 7666   4.295   2.349  15.106  0.0774  0.6044 -0.3657
  516TMC3     C 7667   4.473   2.562  15.410  0.3698  0.2800 -0.6729
  516TMC3     O 7668   4.425   2.554  15.522  0.1223  0.1774 -0.3048
  516TMC3     H 7669   4.497   2.610  15.150  2.2685 -1.2873 -0.2944
  516TMC3    H1 7670   4.328   2.348  15.439 -0.0718  1.4602  0.4336
  516TMC3    H2 7671   4.246   2.311  15.017  2.6303  0.4712 -1.7105
  516TMC3    C7 7672   4.235   2.164  15.259  0.3536  0.2482  0.6509
  516TMC3    C8 7673   4.372   2.510  14.937  0.1930  0.4071  0.6259
  516TMC3    O1 7674   4.275   2.126  15.363  0.3114 -0.7626 -0.2888
  516TMC3    O2 7675   4.260   2.507  14.884  0.2875  0.0717  0.0596
  517MPD2     C 7676   4.163   4.241   0.366  0.3442  0.2273 -1.0423
  517MPD2    C1 7677   4.290   4.195   0.380  0.0296 -0.7703  0.0644
  517MPD2    C2 7678   4.368   4.219   0.491 -0.2466  0.1120 -0.5806
  517MPD2    C3 7679   4.305   4.281   0.602 -0.0625  0.0245 -0.2573
  517MPD2    C4 7680   4.175   4.323   0.587 -0.0607 -0.0182  0.5169
  517MPD2    C5 7681   4.109   4.314   0.470 -0.6407  0.0194  0.2195
  517MPD2     H 7682   4.472   4.188   0.492 -0.5437 -0.8441  1.2373
  517MPD2    H1 7683   4.118   4.368   0.668  0.1321  0.9900  0.1038
  517MPD2    H2 7684   4.102   4.232   0.277 -1.8020  0.1436  0.4526
  517MPD2    H3 7685   4.013   4.361   0.455 -0.0779  1.1601  0.1971
  517MPD2     N 7686   4.359   4.286   0.731  0.5224  0.0265 -0.1223
  517MPD2    H5 7687   4.295   4.333   0.795  0.5420  0.0254 -0.1018
  517MPD2    N1 7688   4.356   4.111   0.277  0.0549  0.4132  0.4422
  517MPD2    H7 7689   4.448   4.076   0.301  0.3850  0.2647 -1.0371
  518TMC3    C1 7690   4.377   3.980   0.076  0.0063 -0.0249 -0.3039
  518TMC3    C2 7691   4.317   3.876   0.018 -0.1858  0.4386  0.5059
  518TMC3    C3 7692   4.381   3.817  17.604  0.2765  0.3784 -0.2470
  518TMC3    C4 7693   4.501   4.020   0.051 -0.2880 -0.4960  0.1470
  518TMC3    C5 7694   4.562   3.960  17.640 -0.9268  0.0040  0.1850
  518TMC3    C6 7695   4.500   3.862  17.563  0.1769 -0.3386 -0.1465
  518TMC3     C 7696   4.290   4.052   0.163  0.1077 -0.6187  0.1720
  518TMC3     O 7697   4.168   4.047   0.137 -0.2504  0.1565 -0.0363
  518TMC3     H 7698   4.235   3.825   0.068 -0.0026  2.3164  2.7101
  518TMC3    H1 7699   4.541   4.109   0.098  0.5088 -0.5986 -0.3295
  518TMC3    H2 7700   4.548   3.811  17.481  4.5281  0.5134  1.8557
  518TMC3    C7 7701   4.705   3.967  17.633  0.1108  0.1399  0.1025
  518TMC3    C8 7702   4.361   3.675  17.575 -0.4074  0.0822  0.9109
  518TMC3    O1 7703   0.048   4.063  17.675  0.2391  0.4095 -0.4738
  518TMC3    O2 7704   4.450   3.610  17.526  0.1499 -0.4218 -0.1124
  519MPD2     C 7705   1.168   3.152  14.305  0.1939 -0.4799 -0.6812
  519MPD2    C1 7706   1.202   3.202  14.182  0.6748  0.3103 -0.5670
  519MPD2    C2 7707   1.291   3.131  14.108  0.1793  1.5081 -0.6388
  519MPD2    C3 7708   1.358   3.026  14.163  0.2086 -0.0857  0.6649
  519MPD2    C4 7709   1.328   2.976  14.287 -0.4428 -0.2317  0.3226
  519MPD2    C5 7710   1.229   3.035  14.357 -0.4887  0.4163 -0.3608
  519MPD2     H 7711   1.331   3.159  14.011  1.9045  0.1837 -0.3132
  519MPD2    H1 7712   1.365   2.884  14.331  2.8551  0.6971 -0.5644
  519MPD2    H2 7713   1.099   3.208  14.367  0.9283  1.1117 -1.2909
  519MPD2    H3 7714   1.205   2.997  14.456 -0.0549  0.7144 -0.1413
  519MPD2     N 7715   1.459   2.966  14.081 -0.1000  0.8461 -0.0158
  519MPD2    H5 7716   1.480   3.009  13.992 -0.4651 -0.4948 -0.7437
  519MPD2    N1 7717   1.132   3.312  14.128  0.1412 -0.6148 -0.0754
  519MPD2    H7 7718   1.082   3.364  14.199  1.2507  2.0582 -1.2518
  520TMC3    C1 7719   1.607   2.796  14.004 -0.0935  0.2432 -0.7113
  520TMC3    C2 7720   1.562   2.832  13.878  0.5716 -0.4098 -0.3508
  520TMC3    C3 7721   1.644   2.791  13.773 -0.1245  0.0250 -0.3435
  520TMC3    C4 7722   1.728   2.742  14.019  0.6434 -0.9174 -0.1798
  520TMC3    C5 7723   1.808   2.712  13.919  0.5363 -0.3008 -0.2200
  520TMC3    C6 7724   1.767   2.733  13.791  0.4507  0.0914  0.2597
  520TMC3     C 7725   1.533   2.853  14.115 -0.3149  0.0787 -0.4998
  520TMC3     O 7726   1.542   2.790  14.218  0.1328 -0.1477 -0.7705
  520TMC3     H 7727   1.464   2.876  13.861  1.0123  1.1432  1.1639
  520TMC3    H1 7728   1.757   2.707  14.118  0.2536 -0.1041  0.2221
  520TMC3    H2 7729   1.826   2.711  13.702 -1.2680 -0.2310 -0.7928
  520TMC3    C7 7730   1.941   2.656  13.954  0.5187  0.0894  0.7646
  520TMC3    C8 7731   1.593   2.802  13.642 -0.0111 -0.5020  0.4148
  520TMC3    O1 7732   1.950   2.582  14.051  0.3243  0.5207  0.0618
  520TMC3    O2 7733   1.661   2.777  13.539 -0.3871  0.8768 -0.2527
  521MPD2     C 7734   2.483   0.728   0.017  0.5408 -0.2016 -0.4422
  521MPD2    C1 7735   2.417   0.713  17.584 -0.0743 -0.0394 -0.5540
  521MPD2    C2 7736   2.492   0.691  17.469  0.1855  0.5403 -0.1873
  521MPD2    C3 7737   2.628   0.695  17.477 -0.0793  0.0685 -0.2104
  521MPD2    C4 7738   2.699   0.711  17.595  0.1603  0.8732  0.3872
  521MPD2    C5 7739   2.622   0.730   0.020 -0.4506 -0.6889  0.1771
  521MPD2     H 7740   2.448   0.663  17.374 -2.4506  0.8380  0.9483
  521MPD2    H1 7741   2.807   0.705  17.609  0.2574  1.9042  0.1168
  521MPD2    H2 7742   2.420   0.735   0.105 -0.4659  0.9915 -1.2623
  521MPD2    H3 7743   2.667   0.729   0.119  1.6335 -3.0789 -0.8175
  521MPD2     N 7744   2.687   0.658  17.355  0.3421 -0.2699  0.6744
  521MPD2    H5 7745   2.619   0.647  17.281 -0.0897 -0.9397  1.1710
  521MPD2    N1 7746   2.277   0.675  17.587  0.0084 -0.3450  0.0952
  521MPD2    H7 7747   2.228   0.670  17.676 -2.2761  1.4152 -1.0725
  522TMC3    C1 7748   2.858   0.595  17.199  0.5553 -0.3061 -0.4762
  522TMC3    C2 7749   2.965   0.509  17.184  0.2783 -0.0806  0.4243
  522TMC3    C3 7750   3.003   0.472  17.057  0.2536  0.7626 -0.4027
  522TMC3    C4 7751   2.782   0.646  17.089 -0.4403 -0.5355 -0.5143
  522TMC3    C5 7752   2.821   0.592  16.965 -0.0748  0.0508 -0.6316
  522TMC3    C6 7753   2.930   0.512  16.952  0.4653  0.1169 -0.4349
  522TMC3     C 7754   2.823   0.634  17.338  0.0468  0.4323  0.0671
  522TMC3     O 7755   2.900   0.598  17.426  0.6499 -0.1865 -0.5358
  522TMC3     H 7756   3.014   0.477  17.275  3.0155 -0.6406 -1.2504
  522TMC3    H1 7757   2.699   0.716  17.090 -2.4537 -2.8989 -0.9794
  522TMC3    H2 7758   2.964   0.502  16.849 -0.4932 -2.7236 -0.4651
  522TMC3    C7 7759   2.740   0.591  16.845 -0.5439  0.0749  0.3060
  522TMC3    C8 7760   3.115   0.377  17.045 -0.4703  0.0872 -0.0362
  522TMC3    O1 7761   2.772   0.514  16.755  0.1121  0.8914 -0.0717
  522TMC3    O2 7762   3.178   0.345  17.146 -0.0889 -0.1095  0.3842
  523MPD2     C 7763   0.638   1.265  10.250  0.1146  0.1836  0.7319
  523MPD2    C1 7764   0.569   1.190  10.156 -0.9897  0.2957 -0.3666
  523MPD2    C2 7765   0.477   1.243  10.065 -0.0084 -0.7326 -0.4442
  523MPD2    C3 7766   0.462   1.379  10.068  0.0854  0.3491  0.5271
  523MPD2    C4 7767   0.536   1.452  10.155  0.3847 -0.0946 -0.1745
  523MPD2    C5 7768   0.624   1.397  10.245  0.0490  0.0258 -0.6536
  523MPD2     H 7769   0.421   1.180   9.996 -2.2001  1.6292 -0.8370
  523MPD2    H1 7770   0.541   1.560  10.147 -0.8115  0.0920  1.5447
  523MPD2    H2 7771   0.715   1.225  10.315  2.0361 -0.0826 -1.6934
  523MPD2    H3 7772   0.692   1.465  10.294 -1.7382  1.4209 -0.0939
  523MPD2     N 7773   0.377   1.446   9.977 -0.1315  0.3767 -0.4365
  523MPD2    H5 7774   0.372   1.547   9.988  1.9788  0.2807  1.3457
  523MPD2    N1 7775   0.591   1.041  10.164 -0.1168 -0.2128  0.0033
  523MPD2    H7 7776   0.662   1.010  10.231 -0.7054  0.3763  0.8955
  524TMC3    C1 7777   0.227   1.479   9.805 -0.0643 -0.0062 -0.1446
  524TMC3    C2 7778   0.204   1.452   9.676  0.4132  0.2958  0.1379
  524TMC3    C3 7779   0.171   1.556   9.590 -0.5167  0.4837  0.0984
  524TMC3    C4 7780   0.187   1.607   9.850  0.3675 -0.3092 -0.3189
  524TMC3    C5 7781   0.135   1.698   9.772 -0.0746  0.0273 -0.0301
  524TMC3    C6 7782   0.132   1.679   9.639 -1.1653  0.4404  0.0302
  524TMC3     C 7783   0.287   1.381   9.895 -0.4566  0.1047 -0.2747
  524TMC3     O 7784   0.266   1.262   9.866 -0.3950  0.5709  0.1053
  524TMC3     H 7785   0.259   1.363   9.647  0.5304  0.9981 -1.7671
  524TMC3    H1 7786   0.196   1.630   9.956 -1.0970 -1.0819 -0.0278
  524TMC3    H2 7787   0.079   1.743   9.570 -0.5644  0.4191 -0.4461
  524TMC3    C7 7788   0.050   1.804   9.833 -0.4637 -0.1243  0.0384
  524TMC3    C8 7789   0.161   1.531   9.450 -0.3982 -0.5328 -0.4263
  524TMC3    O1 7790   0.011   1.784   9.948  0.0832  0.0139  0.2767
  524TMC3    O2 7791   0.162   1.630   9.374 -0.3198 -0.2743  0.0758
  525MPD2     C 7792   2.908   2.456  14.478 -0.2411 -0.2884 -0.3093
  525MPD2    C1 7793   3.017   2.409  14.550 -0.4888  0.4049 -0.8769
  525MPD2    C2 7794   3.131   2.487  14.556 -0.0076  0.2231 -0.5017
  525MPD2    C3 7795   3.133   2.612  14.491 -0.6607 -0.2181  0.5322
  525MPD2    C4 7796   3.026   2.662  14.415  0.0836 -0.3081 -0.2742
  525MPD2    C5 7797   2.919   2.577  14.408 -0.0638 -0.1582  0.0160
  525MPD2     H 7798   3.215   2.458  14.618  0.6911  1.4245 -0.8993
  525MPD2    H1 7799   3.029   2.754  14.357  1.1133 -1.1651 -1.5803
  525MPD2    H2 7800   2.815   2.401  14.479 -0.6398  0.3566 -1.7198
  525MPD2    H3 7801   2.833   2.599  14.346 -0.1787 -1.5284 -0.3195
  525MPD2     N 7802   3.240   2.696  14.520 -0.3517  0.0267  0.1023
  525MPD2    H5 7803   3.234   2.794  14.494 -1.5408 -0.5646 -1.8407
  525MPD2    N1 7804   3.004   2.291  14.627  0.6879  0.2778 -0.3216
  525MPD2    H7 7805   3.086   2.254  14.674  1.3709  1.8280 -0.3205
  526TMC3    C1 7806   2.897   2.124  14.748 -0.1471 -1.0733 -0.3409
  526TMC3    C2 7807   2.812   2.101  14.853 -0.2024 -0.4562  0.2230
  526TMC3    C3 7808   2.825   1.976  14.916  0.7289 -0.1862 -0.1412
  526TMC3    C4 7809   2.982   2.025  14.711  0.0086  0.3570  0.3670
  526TMC3    C5 7810   2.995   1.906  14.774 -0.1685 -0.0849  0.0026
  526TMC3    C6 7811   2.914   1.879  14.880 -0.6659 -0.7209  0.8946
  526TMC3     C 7812   2.886   2.242  14.675 -0.1194 -0.2173 -0.2286
  526TMC3     O 7813   2.773   2.292  14.671  0.0314 -0.3160 -0.1059
  526TMC3     H 7814   2.730   2.166  14.881 -1.2626 -2.0490  0.7809
  526TMC3    H1 7815   3.026   2.033  14.612 -1.0663  0.0753 -0.1370
  526TMC3    H2 7816   2.925   1.786  14.936  2.3216 -1.5861 -1.1205
  526TMC3    C7 7817   3.113   1.825  14.751 -0.3449 -0.0117 -0.1526
  526TMC3    C8 7818   2.768   1.961  15.046 -0.3389 -0.2698  0.0896
  526TMC3    O1 7819   3.123   1.732  14.829  0.2267 -0.1185 -0.0031
  526TMC3    O2 7820   2.733   2.062  15.106  0.0529 -0.3167 -0.3264
  527MPD2     C 7821   1.043   4.495   0.727  0.3709  0.1255 -0.3521
  527MPD2    C1 7822   1.076   4.459   0.855  0.2555  0.9072  0.6417
  527MPD2    C2 7823   1.211   4.455   0.893 -0.0169  0.4300 -0.1468
  527MPD2    C3 7824   1.313   4.463   0.799  0.2533  0.7721  0.5295
  527MPD2    C4 7825   1.273   4.490   0.668 -0.5489 -0.2760 -0.4400
  527MPD2    C5 7826   1.138   4.497   0.629 -0.0099 -0.2886  0.1288
  527MPD2     H 7827   1.245   4.441   0.995  1.6618 -1.1339 -0.9066
  527MPD2    H1 7828   1.342   4.492   0.585  0.6688  1.3430  0.6235
  527MPD2    H2 7829   0.939   4.508   0.698  1.1140  1.0430 -2.6708
  527MPD2    H3 7830   1.103   4.523   0.530  1.2775 -2.3800 -0.8541
  527MPD2     N 7831   1.444   4.472   0.840 -0.8545 -0.6559  0.7006
  527MPD2    H5 7832   1.453   4.450   0.939  3.1192  2.1915  0.9802
  527MPD2    N1 7833   0.977   4.442   0.959  0.4829 -0.3800 -0.1370
  527MPD2    H7 7834   1.011   4.445   1.054 -1.6720  0.2458  0.6295
  528TMC3    C1 7835   0.770   4.372   1.052  0.0645 -0.0752 -0.0820
  528TMC3    C2 7836   0.787   4.427   1.175 -0.3110  0.5095 -0.1005
  528TMC3    C3 7837   0.677   4.405   1.258 -0.1543 -0.3602 -0.2444
  528TMC3    C4 7838   0.657   4.306   1.016  0.0171  0.3143  0.2705
  528TMC3    C5 7839   0.561   4.282   1.114  0.0087  0.6273  0.3873
  528TMC3    C6 7840   0.577   4.317   1.235  0.2031 -0.2007 -0.0125
  528TMC3     C 7841   0.850   4.412   0.934 -0.1336 -0.0350  0.0239
  528TMC3     O 7842   0.781   4.412   0.830 -0.8037  0.4062 -0.4999
  528TMC3     H 7843   0.857   4.507   1.193 -0.6595  1.0348 -1.0534
  528TMC3    H1 7844   0.659   4.236   0.934 -2.0859  4.0238 -2.9676
  528TMC3    H2 7845   0.492   4.315   1.302 -0.1794 -1.3198 -0.5358
  528TMC3    C7 7846   0.452   4.186   1.099  0.0628  0.5098 -0.1623
  528TMC3    C8 7847   0.717   4.424   1.395 -0.1424  0.2350  0.0374
  528TMC3    O1 7848   0.395   4.157   1.200  0.1886  0.1245 -0.1910
  528TMC3    O2 7849   0.835   4.451   1.417  0.0675  0.6953 -0.8763
  529MPD2     C 7850   3.255   3.427   0.386  0.8314 -0.0512  0.0407
  529MPD2    C1 7851   3.167   3.345   0.465 -0.6667  0.5291 -0.1641
  529MPD2    C2 7852   3.054   3.403   0.513 -0.1097 -0.7307  0.2087
  529MPD2    C3 7853   3.014   3.523   0.467  0.5142  0.5008  0.0256
  529MPD2    C4 7854   3.098   3.602   0.396  0.7928  0.8834 -0.5994
  529MPD2    C5 7855   3.222   3.554   0.355 -0.9741  0.8357  0.2006
  529MPD2     H 7856   2.997   3.338   0.578  2.3965 -0.4146  2.7288
  529MPD2    H1 7857   3.075   3.708   0.382  0.8544  1.2589  2.1892
  529MPD2    H2 7858   3.351   3.388   0.352  1.4893  0.9433  0.7792
  529MPD2    H3 7859   3.297   3.610   0.302 -1.6767  1.9173  0.3592
  529MPD2     N 7860   2.885   3.579   0.495 -0.1446  0.0032  0.3808
  529MPD2    H5 7861   2.857   3.661   0.441  0.1952  0.7737  1.3792
  529MPD2    N1 7862   3.204   3.215   0.512  0.3896 -0.3163 -0.2322
  529MPD2    H7 7863   3.129   3.159   0.551 -1.2166  1.2278 -1.0857
  530TMC3    C1 7864   3.324   3.031   0.553 -0.2529 -1.1923  0.8763
  530TMC3    C2 7865   3.300   3.023   0.687  0.3714  0.1979  0.7078
  530TMC3    C3 7866   3.354   2.919   0.759 -0.1139  0.4935  1.0081
  530TMC3    C4 7867   3.375   2.919   0.490 -0.1298 -0.3678  0.0901
  530TMC3    C5 7868   3.401   2.809   0.564  0.1591  0.3971  0.0098
  530TMC3    C6 7869   3.409   2.809   0.703 -0.0354 -0.1686 -0.3158
  530TMC3     C 7870   3.320   3.150   0.479  0.3928 -0.0599  0.0010
  530TMC3     O 7871   3.400   3.171   0.392 -0.4649  0.1821  0.2258
  530TMC3     H 7872   3.262   3.106   0.746 -1.6002 -0.3984  0.2869
  530TMC3    H1 7873   3.386   2.939   0.384  2.3562  0.3057  0.4677
  530TMC3    H2 7874   3.435   2.721   0.760 -0.4178  0.7983  1.3328
  530TMC3    C7 7875   3.404   2.684   0.486  0.5985  0.2822  0.4660
  530TMC3    C8 7876   3.294   2.908   0.893  0.0134  0.6015 -0.4772
  530TMC3    O1 7877   3.397   2.692   0.366 -0.4135 -0.3082 -0.4593
  530TMC3    O2 7878   3.207   2.986   0.927  0.0859  0.1396  0.7798
  531MPD2     C 7879   2.447   0.867  13.129  0.3873  0.3473 -0.0483
  531MPD2    C1 7880   2.415   0.958  13.223  0.0809 -0.5830 -0.5534
  531MPD2    C2 7881   2.291   1.009  13.225 -0.0103 -0.6279 -0.1042
  531MPD2    C3 7882   2.194   0.957  13.140 -0.3363  0.3562  0.0196
  531MPD2    C4 7883   2.225   0.850  13.054  0.4427 -0.0155  0.2786
  531MPD2    C5 7884   2.353   0.806  13.052 -0.4472  0.2713  1.0539
  531MPD2     H 7885   2.263   1.089  13.291  2.4100 -0.2886  0.5323
  531MPD2    H1 7886   2.168   0.798  12.977  1.3500 -1.7485  0.7816
  531MPD2    H2 7887   2.548   0.828  13.117  0.0851 -0.3299 -0.3636
  531MPD2    H3 7888   2.391   0.728  12.988 -0.2637  1.7214 -0.5958
  531MPD2     N 7889   2.061   1.002  13.158 -0.6097 -0.2004  0.1585
  531MPD2    H5 7890   2.044   1.081  13.219  2.2485  0.6734 -0.1467
  531MPD2    N1 7891   2.508   1.019  13.311 -0.1485 -0.1917  0.2618
  531MPD2    H7 7892   2.476   1.104  13.356 -1.8706 -0.9125  0.3896
  532TMC3    C1 7893   2.688   1.025  13.463  0.2358  0.0100  0.2991
  532TMC3    C2 7894   2.652   1.152  13.492 -0.0553  0.1874  0.3297
  532TMC3    C3 7895   2.688   1.205  13.610 -0.4413 -0.7480 -0.3192
  532TMC3    C4 7896   2.767   0.951  13.545 -0.0033 -0.4740 -0.3692
  532TMC3    C5 7897   2.815   1.016  13.656 -0.2313  0.1413  0.4880
  532TMC3    C6 7898   2.783   1.148  13.689 -0.2998  0.0151  0.5480
  532TMC3     C 7899   2.630   0.962  13.346 -0.1691  0.2205  0.2083
  532TMC3     O 7900   2.686   0.870  13.295  0.2742  0.8069 -0.0891
  532TMC3     H 7901   2.599   1.217  13.423 -0.7291 -1.6000 -0.8305
  532TMC3    H1 7902   2.783   0.850  13.511 -0.4248  0.2472 -2.7222
  532TMC3    H2 7903   2.820   1.194  13.780 -1.3920  0.2536  0.8694
  532TMC3    C7 7904   2.927   0.953  13.735  0.0738  0.1187  0.6051
  532TMC3    C8 7905   2.575   1.269  13.670 -0.7089  0.0246 -0.2210
  532TMC3    O1 7906   2.984   1.015  13.829 -0.1803  0.0815  0.0259
  532TMC3    O2 7907   2.594   1.333  13.769 -0.1541 -0.6602  0.3271
  533TMC3    C1 7908   3.382   2.803  14.663  0.5841 -0.0613 -0.0376
  533TMC3    C2 7909   3.513   2.847  14.670 -0.4635 -0.7691 -0.2310
  533TMC3    C3 7910   3.538   2.924  14.781 -0.3210  0.9243  0.0606
  533TMC3    C4 7911   3.293   2.825  14.765  1.0717  0.1010  0.8311
  533TMC3    C5 7912   3.323   2.893  14.877 -0.3344  0.6893  0.5100
  533TMC3    C6 7913   3.454   2.944  14.883  0.0434  0.3947 -0.5113
  533TMC3     C 7914   3.355   2.679  14.596  0.6483 -0.0165 -0.4004
  533TMC3     O 7915   3.404   2.579  14.642 -0.3024 -0.0321  0.0067
  533TMC3     H 7916   3.586   2.818  14.595  0.3234  1.6662 -0.3808
  533TMC3    H1 7917   3.199   2.772  14.774  1.3386 -0.2955  1.2646
  533TMC3    H2 7918   3.490   2.988  14.975  1.7749 -1.7652 -0.1512
  533TMC3    C7 7919   3.249   2.877  14.993 -0.8325 -0.1355 -0.3725
  533TMC3    C8 7920   3.679   2.962  14.804  0.3381 -0.3236 -0.5524
  533TMC3    O1 7921   3.194   2.766  14.992  0.0923 -0.1893 -0.1589
  533TMC3    O2 7922   3.722   2.943  14.916  0.1997 -0.2870 -0.4441
  534MPD2     C 7923   0.070   3.794   2.105 -0.5079  0.0435 -0.0401
  534MPD2    C1 7924   0.161   3.734   2.020 -0.1781 -0.1526 -0.1698
  534MPD2    C2 7925   0.131   3.612   1.962 -0.7592  0.8512  0.8487
  534MPD2    C3 7926   0.013   3.547   2.002 -0.5921  0.0798  0.1631
  534MPD2    C4 7927   4.644   3.608   2.093 -0.1124  0.1301  0.2582
  534MPD2    C5 7928   4.678   3.731   2.145 -0.3889 -0.0405 -0.5650
  534MPD2     H 7929   0.198   3.576   1.884 -1.1132  1.7697  0.1242
  534MPD2    H1 7930   4.547   3.572   2.126  0.2604 -0.8001  0.3385
  534MPD2    H2 7931   0.092   3.890   2.151 -0.1712  0.7979 -1.7750
  534MPD2    H3 7932   4.612   3.780   2.215  0.1666 -1.2613  0.8204
  534MPD2     N 7933   4.698   3.432   1.937  0.4543 -0.5061 -0.2049
  534MPD2    H5 7934   4.605   3.401   1.966  1.3952 -1.1173  2.1620
  534MPD2    N1 7935   0.284   3.797   1.987 -0.0833  0.0115 -0.3186
  534MPD2    H7 7936   0.331   3.753   1.909 -1.1514  0.8579 -1.4436
  535TMC3    C1 7937   4.686   3.250   1.779 -0.4038  0.5557 -0.3352
  535TMC3    C2 7938   4.560   3.237   1.820 -0.1298  0.3008  0.0001
  535TMC3    C3 7939   4.481   3.157   1.743 -0.3739 -0.0551 -0.3335
  535TMC3    C4 7940   0.020   3.192   1.669  0.3294  0.9475 -0.0034
  535TMC3    C5 7941   4.659   3.121   1.588  0.0548  0.1826  0.2209
  535TMC3    C6 7942   4.531   3.107   1.620 -0.1857 -0.6819 -0.5066
  535TMC3     C 7943   0.047   3.357   1.845 -0.8094  0.0387 -0.6091
  535TMC3     O 7944   0.147   3.384   1.784 -0.0741  0.7757 -0.6770
  535TMC3     H 7945   4.531   3.257   1.922 -0.4050  0.2052 -0.0581
  535TMC3    H1 7946   0.125   3.208   1.649  1.2113 -1.5399  2.5281
  535TMC3    H2 7947   4.483   3.017   1.583 -0.6341  0.2416 -2.1683
  535TMC3    C7 7948   4.692   3.104   1.446  0.7081 -0.3577 -0.1058
  535TMC3    C8 7949   4.349   3.109   1.785 -0.2618  0.2755 -0.8028
  535TMC3    O1 7950   0.089   3.091   1.424 -0.2064  0.3575 -1.0063
  535TMC3    O2 7951   4.290   3.038   1.705  0.1469  0.4731 -0.3797
  536MPD2     C 7952   3.945   1.847  16.087  0.2041  0.6191 -0.6060
  536MPD2    C1 7953   3.948   1.706  16.084  0.4771  0.4360 -0.4550
  536MPD2    C2 7954   3.895   1.648  15.973  0.4095  0.7486 -0.9948
  536MPD2    C3 7955   3.834   1.726  15.874 -0.0053  0.2487  0.3392
  536MPD2    C4 7956   3.827   1.866  15.885 -0.9083 -0.6658 -1.2692
  536MPD2    C5 7957   3.886   1.925  15.990 -0.4730 -0.1184 -0.0793
  536MPD2     H 7958   3.892   1.540  15.963 -1.9995  0.7620 -0.3945
  536MPD2    H1 7959   3.769   1.926  15.815 -0.4807 -0.8110 -1.7436
  536MPD2    H2 7960   4.002   1.892  16.167 -1.1478  0.9590  0.1594
  536MPD2    H3 7961   3.896   2.031  16.013 -3.0532  0.0601  0.2585
  536MPD2     N 7962   3.774   1.666  15.764 -0.3880  0.2390 -0.8159
  536MPD2    H5 7963   3.732   1.734  15.701 -0.5583  0.8739 -0.0031
  536MPD2    N1 7964   4.017   1.642  16.190  0.2518 -0.1560 -0.6634
  536MPD2    H7 7965   4.058   1.704  16.259 -0.5651 -1.7704  1.2731
  537TMC3    C1 7966   4.108   1.467  16.326 -0.3113  0.2936 -1.0361
  537TMC3    C2 7967   4.174   1.563  16.402 -0.5858 -0.0610  0.7311
  537TMC3    C3 7968   4.244   1.522  16.511 -1.2401  1.1572 -0.7185
  537TMC3    C4 7969   4.100   1.341  16.370 -0.7949  0.0304  0.0098
  537TMC3    C5 7970   4.163   1.304  16.486 -0.8690  0.6896 -0.4918
  537TMC3    C6 7971   4.232   1.394  16.557  0.2242 -0.4194 -0.3040
  537TMC3     C 7972   4.019   1.508  16.213  0.1844 -0.0565  0.5906
  537TMC3     O 7973   3.950   1.423  16.161  0.3763 -0.3677 -0.3862
  537TMC3     H 7974   4.196   1.660  16.357  1.3583 -0.1907  1.3812
  537TMC3    H1 7975   4.050   1.270  16.306 -1.0387 -0.6044  0.9029
  537TMC3    H2 7976   4.285   1.369  16.648 -1.6148 -3.1016  0.0156
  537TMC3    C7 7977   4.131   1.167  16.523 -0.1125 -0.0101  0.3765
  537TMC3    C8 7978   4.288   1.611  16.615 -0.2499 -0.0178  0.2558
  537TMC3    O1 7979   4.048   1.108  16.455  0.0216 -0.0993 -0.1547
  537TMC3    O2 7980   4.293   1.566  16.723 -0.8879 -0.0634  0.4178
  538TMC3    C1 7981   1.100   0.926  11.049  0.1480  0.6815 -0.0859
  538TMC3    C2 7982   1.215   0.971  10.983  0.6270 -0.1984  0.3800
  538TMC3    C3 7983   1.194   1.067  10.891 -0.3948 -0.3988  0.3142
  538TMC3    C4 7984   0.979   0.982  11.021  0.2521  0.3577  0.4641
  538TMC3    C5 7985   0.966   1.078  10.928 -0.0655 -0.1428 -0.2312
  538TMC3    C6 7986   1.076   1.130  10.864 -0.2774 -0.5391 -0.2806
  538TMC3     C 7987   1.095   0.824  11.155  0.3908  0.3307 -0.0473
  538TMC3     O 7988   0.990   0.815  11.221  0.1440  0.0287  0.3445
  538TMC3     H 7989   1.313   0.930  11.005  0.3464 -0.7988  0.5001
  538TMC3    H1 7990   0.890   0.936  11.064 -0.0728 -0.7217 -1.3807
  538TMC3    H2 7991   1.064   1.219  10.804 -1.8524 -0.9927 -0.6199
  538TMC3    C7 7992   0.837   1.127  10.899  0.0450 -0.1771 -0.2783
  538TMC3    C8 7993   1.313   1.127  10.833 -0.1830  0.3352 -0.1540
  538TMC3    O1 7994   0.748   1.070  10.963  0.2576 -0.0605 -0.3234
  538TMC3    O2 7995   1.415   1.119  10.902 -0.2350  0.1878  0.0118
  539MPD2     C 7996   0.206   4.661  11.771 -0.1400  0.4576 -0.9444
  539MPD2    C1 7997   0.308   4.714  11.697  0.3928  0.9571  0.1410
  539MPD2    C2 7998   0.322   0.128  11.685 -0.2822  0.0386  0.1804
  539MPD2    C3 7999   0.232   0.218  11.737 -0.5760  0.4857 -0.2382
  539MPD2    C4 8000   0.122   0.160  11.806  0.0727  0.6174 -0.1630
  539MPD2    C5 8001   0.112   0.027  11.824 -0.1630  0.3075  0.0201
  539MPD2     H 8002   0.403   0.164  11.622 -0.8391 -0.6334 -0.9156
  539MPD2    H1 8003   0.047   0.225  11.849 -1.5345 -0.6589 -1.0243
  539MPD2    H2 8004   0.200   4.555  11.794  1.0883  0.3932 -0.9008
  539MPD2    H3 8005   0.029   4.710  11.881  2.3119 -2.4519  1.7792
  539MPD2     N 8006   0.237   0.361  11.720 -0.1025  0.4044 -0.5418
  539MPD2    H5 8007   0.162   0.413  11.765 -1.9567 -3.3672  0.7238
  539MPD2    N1 8008   0.409   4.638  11.631  0.8815  0.2115  0.1022
  539MPD2    H7 8009   0.485   4.695  11.595  0.9536  0.6724  0.9949
  540TMC3    C1 8010   0.303   0.563  11.615  0.0931 -0.4245  0.2046
  540TMC3    C2 8011   0.336   0.606  11.486 -0.3678  0.4866 -0.7362
  540TMC3    C3 8012   0.328   0.739  11.465  0.6767  0.0701  0.5338
  540TMC3    C4 8013   0.257   0.644  11.712 -0.6732 -0.2247 -0.8600
  540TMC3    C5 8014   0.269   0.781  11.680  0.6101  0.4227 -0.1564
  540TMC3    C6 8015   0.302   0.832  11.557 -0.0843  0.3079  0.3319
  540TMC3     C 8016   0.326   0.425  11.637 -0.3902 -0.1943  0.3940
  540TMC3     O 8017   0.397   0.378  11.547  0.3151 -0.0287 -0.8881
  540TMC3     H 8018   0.370   0.540  11.407  0.5845  1.4218 -1.1135
  540TMC3    H1 8019   0.245   0.614  11.816 -1.8966  0.4741 -0.7938
  540TMC3    H2 8020   0.310   0.934  11.524  3.4079  0.2218  0.9917
  540TMC3    C7 8021   0.200   0.878  11.768  0.4819 -0.1679  0.3603
  540TMC3    C8 8022   0.341   0.788  11.327  0.3066 -0.4831  0.2812
  540TMC3    O1 8023   0.230   0.996  11.747  0.3106 -0.1327 -0.8549
  540TMC3    O2 8024   0.372   0.905  11.322  0.0587  0.0229 -0.2565
  541MPD2     C 8025   3.368   1.126  13.280  0.3571  0.0031  0.0762
  541MPD2    C1 8026   3.504   1.132  13.241  0.8453  0.2848  0.2104
  541MPD2    C2 8027   3.544   1.244  13.170 -0.2000  0.2324 -0.0395
  541MPD2    C3 8028   3.461   1.355  13.154  0.2538  0.0381  0.8762
  541MPD2    C4 8029   3.331   1.341  13.200  0.3757 -0.2285 -0.7329
  541MPD2    C5 8030   3.283   1.228  13.260 -0.1569  0.1190  0.3183
  541MPD2     H 8031   3.642   1.259  13.125 -0.5571 -0.7048 -1.1034
  541MPD2    H1 8032   3.260   1.422  13.190  1.7200  0.9176 -1.0492
  541MPD2    H2 8033   3.326   1.037  13.325  0.8882 -0.8522 -1.1324
  541MPD2    H3 8034   3.185   1.218  13.307  0.9593  0.3759  2.7222
  541MPD2     N 8035   3.496   1.471  13.078 -0.2357  0.1374 -0.2904
  541MPD2    H5 8036   3.416   1.529  13.053 -1.8791 -2.4809 -1.0607
  541MPD2    N1 8037   3.579   1.017  13.268  0.4734 -0.0981 -0.1950
  541MPD2    H7 8038   3.666   1.015  13.217  0.5646 -2.2716  0.0353
  542TMC3    C1 8039   3.614   1.617  12.928 -0.1220  0.0138 -0.3511
  542TMC3    C2 8040   3.702   1.624  12.819 -0.3147 -0.4527  0.3438
  542TMC3    C3 8041   3.697   1.729  12.734  0.0007 -0.2353  0.7224
  542TMC3    C4 8042   3.540   1.722  12.959 -1.0617 -0.3039 -0.0470
  542TMC3    C5 8043   3.539   1.831  12.872  0.3049  0.2944  0.6756
  542TMC3    C6 8044   3.609   1.832  12.752  0.2976  0.0702  0.6887
  542TMC3     C 8045   3.610   1.496  13.010  0.1392  0.1476 -0.6329
  542TMC3     O 8046   3.712   1.429  13.009 -0.6318  0.4022 -0.0472
  542TMC3     H 8047   3.754   1.531  12.799 -1.3044 -0.8563 -0.4106
  542TMC3    H1 8048   3.487   1.725  13.053 -1.8880  0.4142 -0.5227
  542TMC3    H2 8049   3.604   1.913  12.681 -1.5991 -0.6962 -0.0562
  542TMC3    C7 8050   3.440   1.932  12.873  0.4998  0.6884  0.1167
  542TMC3    C8 8051   3.763   1.708  12.604 -0.0521 -0.0553  0.2636
  542TMC3    O1 8052   3.326   1.891  12.903  0.3567 -0.4423 -0.1549
  542TMC3    O2 8053   3.726   1.770  12.507  0.0953  0.0518  0.4619
  543TMC3    C1 8054   3.390   2.091  16.881 -0.6289  0.2194 -0.1260
  543TMC3    C2 8055   3.385   1.968  16.942  0.4909 -0.0328 -0.0147
  543TMC3    C3 8056   3.393   1.960  17.077  0.0129  0.3243  0.3547
  543TMC3    C4 8057   3.411   2.209  16.948  0.1707 -0.6422  0.4486
  543TMC3    C5 8058   3.408   2.202  17.085  0.8149 -0.3278 -0.1853
  543TMC3    C6 8059   3.399   2.081  17.147  0.4539  0.5737 -0.2368
  543TMC3     C 8060   3.386   2.087  16.742  0.6221  0.8828 -0.3911
  543TMC3     O 8061   3.421   1.985  16.680 -1.4729 -0.0687 -0.2140
  543TMC3     H 8062   3.367   1.886  16.874 -1.9710  1.6701 -1.4407
  543TMC3    H1 8063   3.428   2.297  16.887 -0.7222  0.3230  1.6047
  543TMC3    H2 8064   3.381   2.077  17.254  1.3311  0.9180 -0.0744
  543TMC3    C7 8065   3.434   2.326  17.153 -0.3019  0.4863  0.0538
  543TMC3    C8 8066   3.375   1.831  17.143 -0.0385 -0.4176  0.3842
  543TMC3    O1 8067   3.419   2.421  17.077  0.9996 -0.1401  0.3699
  543TMC3    O2 8068   3.360   1.740  17.062 -0.2983  0.2899 -0.2554
  544MPD2     C 8069   3.469   1.510  17.539 -0.0859 -0.0035  0.4980
  544MPD2    C1 8070   3.417   1.483  17.413 -0.4127  0.2557 -0.7580
  544MPD2    C2 8071   3.405   1.589  17.320  0.4103  0.1361 -0.1313
  544MPD2    C3 8072   3.435   1.721  17.357 -0.7207 -0.7183  0.0962
  544MPD2    C4 8073   3.487   1.743  17.487  0.1313 -0.1833  0.7873
  544MPD2    C5 8074   3.504   1.638  17.568 -0.3555  0.2030  0.7249
  544MPD2     H 8075   3.373   1.567  17.219  2.9988 -1.2530 -0.6384
  544MPD2    H1 8076   3.521   1.843  17.511 -0.2975  0.4007 -1.0697
  544MPD2    H2 8077   3.480   1.442  17.623 -0.1446  2.6806  2.6700
  544MPD2    H3 8078   3.546   1.657  17.666  3.2482 -2.8903 -0.2029
  544MPD2     N 8079   3.419   1.835  17.272  0.6065 -0.1075 -0.2979
  544MPD2    H5 8080   3.439   1.927  17.310 -1.3861 -0.1153  0.8082
  544MPD2    N1 8081   3.372   1.348  17.396 -0.4347  0.0192  0.2211
  544MPD2    H7 8082   3.382   1.279  17.469 -0.0838 -1.8151 -1.5421
  545TMC3    C1 8083   3.247   1.172  17.295  0.0985 -0.3662 -0.0835
  545TMC3    C2 8084   3.114   1.151  17.260 -0.0415  0.4077 -0.7657
  545TMC3    C3 8085   3.042   1.062  17.330 -0.8672 -0.3807 -0.1386
  545TMC3    C4 8086   3.308   1.089  17.381 -0.0311  0.4087  0.3345
  545TMC3    C5 8087   3.232   0.992  17.444  0.4713  0.4747  0.6558
  545TMC3    C6 8088   3.101   0.977  17.417 -0.8523 -1.0521 -0.2971
  545TMC3     C 8089   3.300   1.309  17.285 -0.3228 -0.1151 -0.1371
  545TMC3     O 8090   3.248   1.386  17.205 -0.1369 -0.4080 -0.6421
  545TMC3     H 8091   3.064   1.231  17.206  0.1979  0.8192 -0.3790
  545TMC3    H1 8092   3.415   1.090  17.403 -0.3041  3.5147  1.5857
  545TMC3    H2 8093   3.046   0.889  17.450  0.9310 -1.8464  0.5208
  545TMC3    C7 8094   3.285   0.887  17.534  0.2385 -0.2953 -0.6583
  545TMC3    C8 8095   2.897   1.036  17.306 -0.6287 -0.8208 -0.3942
  545TMC3    O1 8096   3.227   0.783  17.525  0.4333 -0.2913 -0.2885
  545TMC3    O2 8097   2.838   0.958  17.383  0.9243  0.0320  0.8559
  546MPD2     C 8098   4.014   2.437  16.847  0.2911  0.0445  0.0310
  546MPD2    C1 8099   4.092   2.364  16.933 -0.7276  0.4959  0.1221
  546MPD2    C2 8100   4.158   2.435  17.037  0.2616 -0.8373 -0.0795
  546MPD2    C3 8101   4.139   2.575  17.049 -0.8935  0.1869  0.5586
  546MPD2    C4 8102   4.056   2.644  16.967 -0.1112 -0.1533  0.1276
  546MPD2    C5 8103   3.994   2.572  16.862  0.1084 -0.4350  0.0601
  546MPD2     H 8104   4.197   2.376  17.120  2.1483 -0.0489 -0.4141
  546MPD2    H1 8105   4.032   2.748  16.986  1.2952  0.4626 -1.4401
  546MPD2    H2 8106   3.960   2.394  16.764 -1.4506 -1.3874  1.9178
  546MPD2    H3 8107   3.917   2.623  16.805  1.8827  1.6362 -0.4847
  546MPD2     N 8108   4.195   2.653  17.159  0.6747  0.1450  0.2247
  546MPD2    H5 8109   4.167   2.749  17.177  0.0123 -0.2184  1.1079
  546MPD2    N1 8110   4.098   2.221  16.908 -0.3244  0.0704 -0.4331
  546MPD2    H7 8111   4.040   2.178  16.836 -0.9582 -1.6790  1.1220
  547TMC3    C1 8112   4.138   1.995  16.958 -0.0459 -0.6989  0.5819
  547TMC3    C2 8113   4.060   1.962  16.843  0.2332  0.5949 -0.5786
  547TMC3    C3 8114   4.039   1.831  16.823  1.2514  0.1373  0.0158
  547TMC3    C4 8115   4.184   1.899  17.051 -0.6382  0.0833 -0.2238
  547TMC3    C5 8116   4.164   1.763  17.020  0.6369  0.3412 -0.0522
  547TMC3    C6 8117   4.082   1.734  16.913 -0.3364  0.1674 -0.4979
  547TMC3     C 8118   4.151   2.130  16.998 -0.9140 -0.2639  0.5173
  547TMC3     O 8119   4.188   2.147  17.113 -0.1058  0.3471  0.0980
  547TMC3     H 8120   4.024   2.030  16.767 -1.8730  1.0775  0.8549
  547TMC3    H1 8121   4.231   1.929  17.144 -0.4490  0.6698 -0.5119
  547TMC3    H2 8122   4.038   1.636  16.923  0.1362  0.1743  1.6751
  547TMC3    C7 8123   4.207   1.654  17.112  0.8941  0.0879  0.1509
  547TMC3    C8 8124   3.961   1.799  16.703  0.2717 -0.1730 -0.4285
  547TMC3    O1 8125   4.251   1.683  17.220  0.2385 -0.3529 -0.9395
  547TMC3    O2 8126   3.919   1.894  16.629  0.0135  0.1905  0.0076
  548MPD2     C 8127   3.764   3.395  12.102 -0.5545  0.6558 -0.5179
  548MPD2    C1 8128   3.827   3.297  12.180 -0.2428 -0.2691 -0.7234
  548MPD2    C2 8129   3.965   3.278  12.164  0.3483 -0.5665  0.3725
  548MPD2    C3 8130   4.036   3.365  12.077  0.6076 -0.0060  0.5338
  548MPD2    C4 8131   3.965   3.453  11.995  0.0782 -0.1356  0.1057
  548MPD2    C5 8132   3.833   3.462  12.007 -0.0510  0.3711 -0.1508
  548MPD2     H 8133   4.024   3.214  12.229  1.3405  0.2829  0.3083
  548MPD2    H1 8134   4.009   3.537  11.942 -2.3076  0.4250 -1.0086
  548MPD2    H2 8135   3.657   3.408  12.106 -0.5454  0.7143 -0.4757
  548MPD2    H3 8136   3.778   3.540  11.956 -1.2837 -1.0758 -1.0206
  548MPD2     N 8137   4.180   3.366  12.089 -0.1662 -0.4918  0.0913
  548MPD2    H5 8138   4.217   3.313  12.167 -2.7894 -1.0846  0.9342
  548MPD2    N1 8139   3.754   3.222  12.269  0.0497 -0.0732 -0.1225
  548MPD2    H7 8140   3.662   3.263  12.281 -1.2728 -2.4859 -1.9424
  549TMC3    C1 8141   3.714   3.074  12.447 -0.6082  0.2516 -0.4116
  549TMC3    C2 8142   3.672   3.187  12.512  0.2812  0.3061 -0.0586
  549TMC3    C3 8143   3.542   3.189  12.560  0.0531  0.2838  0.2175
  549TMC3    C4 8144   3.634   2.960  12.432 -0.1569  0.1987 -0.0228
  549TMC3    C5 8145   3.509   2.964  12.490  0.5557  0.7962  0.2466
  549TMC3    C6 8146   3.465   3.077  12.551  0.2334 -0.2328 -0.3342
  549TMC3     C 8147   3.791   3.103  12.329  0.2187 -0.1821 -0.0136
  549TMC3     O 8148   3.881   3.029  12.298 -0.1307  0.1158  0.1121
  549TMC3     H 8149   3.730   3.278  12.506  0.1076  0.4158 -0.0712
  549TMC3    H1 8150   3.662   2.886  12.359 -0.0777  0.7055 -0.5087
  549TMC3    H2 8151   3.360   3.087  12.574  0.4926 -2.0955  1.7378
  549TMC3    C7 8152   3.425   2.845  12.481  0.0703  0.2064 -0.1986
  549TMC3    C8 8153   3.482   3.307  12.616 -0.2332  0.7085 -0.3905
  549TMC3    O1 8154   3.307   2.866  12.500 -0.5917  0.5438 -0.4311
  549TMC3    O2 8155   3.367   3.339  12.593  0.2158 -0.9136  0.3704
  550TMC3    C1 8156   2.867   0.891  13.012  0.3684 -0.0482  0.2066
  550TMC3    C2 8157   2.878   0.997  13.099  0.4101  0.1965  0.6403
  550TMC3    C3 8158   2.803   1.108  13.074 -0.9211  0.6588  0.0631
  550TMC3    C4 8159   2.772   0.886  12.915 -0.3350 -0.0988 -0.3949
  550TMC3    C5 8160   2.697   0.998  12.898  0.4413  0.5545  0.2172
  550TMC3    C6 8161   2.716   1.113  12.970  0.4933 -0.9095 -0.3534
  550TMC3     C 8162   2.974   0.786  13.018  0.2602 -0.7270 -0.3779
  550TMC3     O 8163   3.024   0.750  13.127 -0.5681  0.1306 -0.1265
  550TMC3     H 8164   2.969   1.001  13.157 -0.3731 -0.0479  1.8868
  550TMC3    H1 8165   2.763   0.802  12.847  0.1499  0.1232 -0.7263
  550TMC3    H2 8166   2.667   1.204  12.939  0.8933 -0.8362 -0.7646
  550TMC3    C7 8167   2.630   1.029  12.772  0.1310  0.0795  0.5833
  550TMC3    C8 8168   2.812   1.227  13.152 -0.4835 -0.7147 -0.7333
  550TMC3    O1 8169   2.534   1.103  12.779  0.3499  0.3953  0.1778
  550TMC3    O2 8170   2.727   1.310  13.128  0.2023 -0.5215  0.1596
  551TMC3    C1 8171   0.296   3.909  13.245 -0.0194  0.2781  0.2208
  551TMC3    C2 8172   0.342   3.983  13.143  0.3443 -0.1250  0.6155
  551TMC3    C3 8173   0.414   4.099  13.165  0.2156  0.1134  0.1087
  551TMC3    C4 8174   0.318   3.952  13.373  0.1736 -0.1925 -1.1302
  551TMC3    C5 8175   0.394   4.063  13.395 -0.2028 -0.2059  0.2643
  551TMC3    C6 8176   0.439   4.141  13.293  0.1215  0.1729 -0.1075
  551TMC3     C 8177   0.214   3.792  13.215  0.1633  0.1942 -0.2189
  551TMC3     O 8178   0.189   3.783  13.095  0.4850 -0.2762  0.0957
  551TMC3     H 8179   0.322   3.964  13.039 -0.7393  0.6404  0.6797
  551TMC3    H1 8180   0.279   3.902  13.461 -1.3750  3.2945  0.1448
  551TMC3    H2 8181   0.507   4.226  13.297  0.1457  0.2019 -1.3352
  551TMC3    C7 8182   0.417   4.099  13.532  0.0584  0.2873 -0.0367
  551TMC3    C8 8183   0.348   4.200  13.081 -0.5659  0.0910 -0.0039
  551TMC3    O1 8184   0.384   4.020  13.619 -0.2101 -0.4552 -0.5728
  551TMC3    O2 8185   0.238   4.169  13.042 -0.0687  0.0675  0.5329
  552MPD2     C 8186   2.379   1.049  13.899  0.1075  0.6927  0.0785
  552MPD2    C1 8187   2.452   0.929  13.895 -0.2253 -0.7459 -0.6711
  552MPD2    C2 8188   2.572   0.931  13.964 -0.2719 -0.6355 -0.0151
  552MPD2    C3 8189   2.623   1.041  14.027 -1.0204 -0.4376 -0.0827
  552MPD2    C4 8190   2.560   1.159  14.022  0.0465  0.0497 -0.0186
  552MPD2    C5 8191   2.435   1.158  13.960  0.3355  0.4073 -0.8624
  552MPD2     H 8192   2.625   0.836  13.965  2.2092  0.7309 -1.4217
  552MPD2    H1 8193   2.600   1.253  14.059  1.1477 -0.4697  0.0854
  552MPD2    H2 8194   2.279   1.066  13.859  0.1034 -1.4301 -0.8352
  552MPD2    H3 8195   2.377   1.250  13.965  1.2031  0.9667 -1.1144
  552MPD2     N 8196   2.748   1.036  14.096 -0.0190  0.1165 -0.0211
  552MPD2    H5 8197   2.798   1.121  14.117  0.1130  0.1353 -0.3977
  552MPD2    N1 8198   2.410   0.812  13.821 -0.0183 -0.1400  0.2065
  552MPD2    H7 8199   2.464   0.728  13.837 -0.1993 -0.4095 -0.5923
  553TMC3    C1 8200   2.315   0.700  13.639  0.0911  0.5175 -0.2571
  553TMC3    C2 8201   2.378   0.697  13.512 -0.2021 -0.2144  0.2536
  553TMC3    C3 8202   2.446   0.582  13.471 -0.4206  0.7409 -0.3643
  553TMC3    C4 8203   2.320   0.584  13.714  0.2772 -0.0986  0.3522
  553TMC3    C5 8204   2.375   0.470  13.655 -0.4878  0.2388 -0.6699
  553TMC3    C6 8205   2.444   0.469  13.543 -0.3029 -0.0633  0.0763
  553TMC3     C 8206   2.323   0.820  13.713  0.0887 -0.2219 -0.8919
  553TMC3     O 8207   2.299   0.915  13.638 -0.2115  0.5851  0.1776
  553TMC3     H 8208   2.397   0.791  13.460  2.3922  0.6783  2.8382
  553TMC3    H1 8209   2.289   0.579  13.818 -0.9070  0.4214  0.0300
  553TMC3    H2 8210   2.498   0.379  13.517 -1.7439 -0.6282 -0.9555
  553TMC3    C7 8211   2.395   0.361  13.749  0.0512 -0.5101 -0.4405
  553TMC3    C8 8212   2.572   0.603  13.410 -0.5441  0.2740 -0.0426
  553TMC3    O1 8213   2.300   0.333  13.819 -0.0406 -0.0607 -0.1952
  553TMC3    O2 8214   2.663   0.598  13.491 -0.0949 -0.5809  0.1213
  554TMC3    C1 8215   4.451   0.198  11.583  0.2558  0.1190  0.2547
  554TMC3    C2 8216   4.404   0.121  11.476  0.3420  0.3136 -0.0096
  554TMC3    C3 8217   4.474   0.132  11.361 -0.0229  0.2523  0.2068
  554TMC3    C4 8218   4.541   0.296  11.573  0.1326 -0.5283  0.3170
  554TMC3    C5 8219   4.589   0.319  11.449  0.0641  0.3004 -0.0479
  554TMC3    C6 8220   4.574   0.226  11.343 -0.5052  0.3488 -0.2506
  554TMC3     C 8221   4.461   0.143  11.723  0.3003  0.0709  0.0622
  554TMC3     O 8222   4.509   0.215  11.807  0.0098  0.7931 -0.5544
  554TMC3     H 8223   4.339   0.036  11.497  0.2536  0.4318  0.1929
  554TMC3    H1 8224   4.574   0.360  11.654  1.6095  1.6775 -2.0277
  554TMC3    H2 8225   4.612   0.257  11.247  2.9730  0.0583  1.0461
  554TMC3    C7 8226   4.666   0.436  11.408 -0.1576  0.0507  0.5613
  554TMC3    C8 8227   4.388   0.117  11.241 -0.3466  0.0320  0.2921
  554TMC3    O1 8228   0.009   0.431  11.306  0.1008  0.1437  0.1035
  554TMC3    O2 8229   4.402   0.217  11.166 -0.2083  0.1218 -0.2680
  555TMC3    C1 8230   3.421   3.922  14.880  0.0777  0.0142  0.6515
  555TMC3    C2 8231   3.364   4.032  14.952  0.6385 -0.3822 -0.6200
  555TMC3    C3 8232   3.363   4.030  15.090 -0.0950 -0.2580  0.4470
  555TMC3    C4 8233   3.470   3.810  14.950 -0.8209 -0.0510 -0.6387
  555TMC3    C5 8234   3.477   3.821  15.092 -0.1138 -0.2215  0.3983
  555TMC3    C6 8235   3.412   3.924  15.155  0.2192  0.4771  0.3343
  555TMC3     C 8236   3.408   3.913  14.735  0.6040 -0.6411  0.2238
  555TMC3     O 8237   3.457   3.815  14.679 -0.2629  0.3640  0.1051
  555TMC3     H 8238   3.364   4.128  14.903 -1.2022 -0.2527 -0.3515
  555TMC3    H1 8239   3.519   3.728  14.898  1.0850  2.2313 -2.3932
  555TMC3    H2 8240   3.388   3.914  15.260 -0.6369  0.2070  0.1103
  555TMC3    C7 8241   3.471   3.705  15.171 -0.4700  0.2473  0.2665
  555TMC3    C8 8242   3.339   4.157  15.153 -0.1881  0.0685  0.4821
  555TMC3    O1 8243   3.390   3.705  15.262  0.4877 -0.4966  0.0062
  555TMC3    O2 8244   3.303   4.255  15.082  0.4690 -0.0209  0.0378
  556MPD2     C 8245   1.330   2.234  10.389  0.0486  0.0450  0.3037
  556MPD2    C1 8246   1.380   2.122  10.448  0.3479 -0.2054  0.2171
  556MPD2    C2 8247   1.378   1.998  10.376 -0.4493  0.1709 -0.4943
  556MPD2    C3 8248   1.318   1.988  10.251 -0.3601 -0.3142 -0.2992
  556MPD2    C4 8249   1.265   2.103  10.201  0.1214  0.4144 -0.1637
  556MPD2    C5 8250   1.271   2.226  10.261  0.3421 -0.4853  0.2877
  556MPD2     H 8251   1.405   1.907  10.428 -2.9082 -0.1778  0.1547
  556MPD2    H1 8252   1.233   2.100  10.097 -0.4903 -1.1574  0.0796
  556MPD2    H2 8253   1.321   2.332  10.432 -1.5560 -0.3002  0.7644
  556MPD2    H3 8254   1.218   2.309  10.217  1.7393 -0.3130 -1.0585
  556MPD2     N 8255   1.307   1.863  10.190  0.1418  0.5630  0.2905
  556MPD2    H5 8256   1.356   1.784  10.230  1.6723  0.9541 -0.7724
  556MPD2    N1 8257   1.419   2.125  10.578 -0.1631  0.3038  0.9367
  556MPD2    H7 8258   1.449   2.037  10.620  0.1456  0.1952  0.4860
  557TMC3    C1 8259   1.239   1.681  10.051 -0.3629 -0.1563  0.3788
  557TMC3    C2 8260   1.201   1.635   9.922 -0.0497  0.3445  0.0598
  557TMC3    C3 8261   1.200   1.502   9.902  0.5153 -0.0178 -0.0216
  557TMC3    C4 8262   1.276   1.591  10.152 -0.1111 -0.0222  0.2600
  557TMC3    C5 8263   1.276   1.459  10.119  0.6842 -0.0446 -0.0282
  557TMC3    C6 8264   1.235   1.409  10.000  0.5206  0.6387  0.5638
  557TMC3     C 8265   1.234   1.825  10.072 -0.2039  0.7853  0.2073
  557TMC3     O 8266   1.169   1.898   9.998 -0.3009  0.1930  0.2977
  557TMC3     H 8267   1.174   1.703   9.841 -0.1857  1.6863  1.2315
  557TMC3    H1 8268   1.283   1.623  10.256  0.3878 -0.9241  0.5072
  557TMC3    H2 8269   1.216   1.302   9.990  0.5936  0.4364  2.5583
  557TMC3    C7 8270   1.309   1.373  10.227  0.2578 -0.7847  0.4706
  557TMC3    C8 8271   1.156   1.467   9.765  0.4253  0.3774  0.0980
  557TMC3    O1 8272   1.244   1.269  10.240 -0.3136 -0.2942  0.5939
  557TMC3    O2 8273   1.104   1.555   9.699  0.6539 -1.0288 -0.3391
  558TMC3    C1 8274   4.187   4.103  10.242 -0.0011  0.6055  0.4679
  558TMC3    C2 8275   4.065   4.029  10.263 -0.2861 -0.2388 -0.2955
  558TMC3    C3 8276   3.973   4.024  10.156 -0.3778  0.1170 -0.4870
  558TMC3    C4 8277   4.219   4.174  10.132 -0.0533 -0.8768 -0.5983
  558TMC3    C5 8278   4.121   4.164  10.035  0.4477 -0.1961  0.0943
  558TMC3    C6 8279   4.002   4.091  10.042 -1.0335 -0.7915  0.4222
  558TMC3     C 8280   4.289   4.105  10.344  0.0868 -0.8809  0.4232
  558TMC3     O 8281   4.391   4.170  10.326 -0.1023  0.0420 -0.7486
  558TMC3     H 8282   4.049   3.959  10.344  0.3207  2.6595  2.2950
  558TMC3    H1 8283   4.300   4.243  10.113  0.6436 -1.5065  0.0376
  558TMC3    H2 8284   3.932   4.087   9.959 -1.0513  0.7734  0.3525
  558TMC3    C7 8285   4.141   4.227   9.910 -0.5303  0.1777 -0.7708
  558TMC3    C8 8286   3.842   3.962  10.169  0.0615 -0.0384 -0.3997
  558TMC3    O1 8287   4.195   4.334   9.909  0.2285 -0.6304 -0.1072
  558TMC3    O2 8288   3.784   3.955  10.060  0.1651  0.2343 -0.7155
  559MPD2     C 8289   4.215   4.561  10.274 -0.6456 -0.2878 -0.4122
  559MPD2    C1 8290   4.117   4.479  10.328  0.5355  0.1762  0.7269
  559MPD2    C2 8291   4.152   4.401  10.437 -0.7380 -0.4460  0.1042
  559MPD2    C3 8292   4.280   4.421  10.499 -0.4513 -0.1645 -0.1439
  559MPD2    C4 8293   4.379   4.480  10.423  0.0889  0.1349  0.5494
  559MPD2    C5 8294   4.341   4.566  10.322  0.3622  0.7171 -0.5070
  559MPD2     H 8295   4.075   4.343  10.488 -0.3604 -1.0440 -0.0128
  559MPD2    H1 8296   4.484   4.468  10.446  0.2117  0.3496  0.0944
  559MPD2    H2 8297   4.180   4.628  10.196  0.0400  1.3788  0.6973
  559MPD2    H3 8298   4.411   4.624  10.263  0.7817  0.6073 -0.1153
  559MPD2     N 8299   4.298   4.373  10.630 -0.1091 -0.1547  0.7763
  559MPD2    H5 8300   4.217   4.338  10.681  0.1209  1.8073  2.4992
  559MPD2    N1 8301   3.986   4.495  10.279 -0.4904  0.0821 -0.0957
  559MPD2    H7 8302   3.976   4.587  10.236  0.1558 -0.2359 -0.9400
  560TMC3    C1 8303   4.401   4.370  10.838 -0.2646 -0.2259  0.8829
  560TMC3    C2 8304   4.317   4.263  10.874 -0.6446 -0.1355 -0.3719
  560TMC3    C3 8305   4.310   4.236  11.010 -0.1860  0.1743 -0.2016
  560TMC3    C4 8306   4.481   4.436  10.925 -0.2525 -0.3565 -0.0937
  560TMC3    C5 8307   4.485   4.398  11.055 -0.1589 -0.8336 -0.3586
  560TMC3    C6 8308   4.396   4.300  11.099 -0.3035  0.3053  0.0280
  560TMC3     C 8309   4.416   4.390  10.693 -0.6949 -0.3774  0.1666
  560TMC3     O 8310   4.528   4.434  10.668  0.0756 -0.6089 -0.3708
  560TMC3     H 8311   4.261   4.197  10.809  0.5722 -0.0111 -1.5578
  560TMC3    H1 8312   4.551   4.504  10.876  2.0760 -1.0831  2.1998
  560TMC3    H2 8313   4.399   4.269  11.202 -0.0923 -0.7240 -0.2875
  560TMC3    C7 8314   4.557   4.462  11.171 -0.6259  0.3701  0.6824
  560TMC3    C8 8315   4.201   4.155  11.048  0.2718 -0.0414 -0.2007
  560TMC3    O1 8316   4.530   4.417  11.281 -0.1249  0.0221 -0.0531
  560TMC3    O2 8317   4.100   4.168  10.984 -0.0867  0.7882 -0.1433
  561TMC3    C1 8318   1.831   3.611  11.252  0.3679  0.1339 -0.2013
  561TMC3    C2 8319   1.820   3.513  11.341  0.7065  0.5493 -0.0359
  561TMC3    C3 8320   1.935   3.480  11.410 -0.5517  0.6305  0.3306
  561TMC3    C4 8321   1.954   3.671  11.220 -0.5610  0.5012 -0.7551
  561TMC3    C5 8322   2.067   3.632  11.290 -0.5813 -0.2940 -0.1770
  561TMC3    C6 8323   2.056   3.539  11.393  0.1752  0.4816  0.6755
  561TMC3     C 8324   1.717   3.621  11.165  0.6606 -0.5982 -0.6088
  561TMC3     O 8325   1.606   3.611  11.216 -0.4725 -0.1161  0.3514
  561TMC3     H 8326   1.728   3.457  11.347  0.9691  0.2830  1.5641
  561TMC3    H1 8327   1.966   3.747  11.144  0.0804  0.2450 -0.9178
  561TMC3    H2 8328   2.134   3.510  11.462  1.4631  2.2657 -0.0323
  561TMC3    C7 8329   2.159   3.747  11.310 -0.4096  0.4265  0.3541
  561TMC3    C8 8330   1.913   3.397  11.531  0.4440  0.3964 -0.0779
  561TMC3    O1 8331   2.168   3.783  11.427  0.3058  0.2075 -0.3233
  561TMC3    O2 8332   2.001   3.324  11.573 -0.3737  0.0354 -0.0275
  562TMC3    C1 8333   2.885   4.521  15.922 -1.3019 -0.1121  0.9981
  562TMC3    C2 8334   2.867   4.643  15.852  0.2474  0.6665 -0.2834
  562TMC3    C3 8335   2.871   4.637  15.714  0.3406  0.8726 -0.3320
  562TMC3    C4 8336   2.899   4.406  15.851  0.6236  0.0368 -0.3971
  562TMC3    C5 8337   2.899   4.401  15.716 -0.6540  0.3162 -1.0554
  562TMC3    C6 8338   2.894   4.523  15.648  0.0278  0.3690 -0.5583
  562TMC3     C 8339   2.971   4.532  16.036  0.0948 -0.1622  0.1775
  562TMC3     O 8340   3.066   4.454  16.043  0.4749  0.5561 -0.7344
  562TMC3     H 8341   2.848   0.016  15.900  1.2293  0.3212  0.7815
  562TMC3    H1 8342   2.897   4.319  15.915 -0.3910 -0.1261 -0.6533
  562TMC3    H2 8343   2.888   4.513  15.540 -2.0284 -2.6397 -0.1786
  562TMC3    C7 8344   2.911   4.275  15.636  0.5093 -0.4044  0.0892
  562TMC3    C8 8345   2.837   0.035  15.636  0.0853 -0.0355  0.5217
  562TMC3    O1 8346   2.890   4.281  15.516  0.5865 -0.0215  0.2454
  562TMC3    O2 8347   2.772   0.117  15.703  0.0328  0.4711  0.4866
  563MPD2     C 8348   0.698   1.166  15.990 -0.0801  0.3305 -0.2209
  563MPD2    C1 8349   0.667   1.277  16.067  0.5593  0.3032 -0.7921
  563MPD2    C2 8350   0.772   1.351  16.107 -0.2148 -0.0593 -0.2081
  563MPD2    C3 8351   0.904   1.314  16.089 -0.2533  0.2715  0.2584
  563MPD2    C4 8352   0.932   1.192  16.024  0.2752 -0.0668  0.9973
  563MPD2    C5 8353   0.826   1.131  15.965 -0.0070 -0.8295  1.2285
  563MPD2     H 8354   0.753   1.450  16.147 -0.4778 -0.6025  0.9848
  563MPD2    H1 8355   1.031   1.149  16.018  1.6276  3.1233  1.0266
  563MPD2    H2 8356   0.619   1.109  15.943 -2.1443  3.9385 -1.1165
  563MPD2    H3 8357   0.857   1.046  15.905  0.4719  1.2474 -1.4612
  563MPD2     N 8358   1.007   1.406  16.127 -0.1036 -0.1199 -0.2723
  563MPD2    H5 8359   0.977   1.485  16.183 -1.2348 -0.5742 -0.2363
  563MPD2    N1 8360   0.527   1.327  16.089 -0.0060  0.3885 -0.0742
  563MPD2    H7 8361   0.456   1.262  16.059  1.5598 -1.5206  0.3077
  564TMC3    C1 8362   0.343   1.452  16.156 -0.5185 -0.5502 -0.4575
  564TMC3    C2 8363   0.283   1.332  16.173  0.0978 -0.5644  0.4449
  564TMC3    C3 8364   0.203   1.318  16.282 -0.0196 -0.8011 -0.2748
  564TMC3    C4 8365   0.311   1.556  16.239  0.8266  0.2543  0.4756
  564TMC3    C5 8366   0.246   1.536  16.357  0.1051  0.1569  0.1766
  564TMC3    C6 8367   0.214   1.406  16.389 -0.1146 -0.2666 -0.2300
  564TMC3     C 8368   0.487   1.446  16.133 -0.8166 -0.4848 -0.4867
  564TMC3     O 8369   0.547   1.537  16.197  0.3201 -1.0846  0.3256
  564TMC3     H 8370   0.306   1.248  16.109  0.9672  0.0905 -0.0949
  564TMC3    H1 8371   0.350   1.655  16.218  0.4590  0.0808 -1.0017
  564TMC3    H2 8372   0.178   1.370  16.485  0.6369 -0.5976 -0.0752
  564TMC3    C7 8373   0.308   1.620  16.455  0.1503 -0.1785 -0.1660
  564TMC3    C8 8374   0.153   1.177  16.304 -0.4912  0.4724 -0.8273
  564TMC3    O1 8375   0.325   1.741  16.428 -0.1702  0.6765  0.3702
  564TMC3    O2 8376   0.161   1.144  16.422 -0.5695  0.2136 -0.1127
  565TMC3    C1 8377   1.361   3.202  10.153  0.7871 -0.4121 -0.8023
  565TMC3    C2 8378   1.437   3.160  10.260 -0.0847  0.1656 -0.3669
  565TMC3    C3 8379   1.400   3.049  10.321  0.4522  0.0588  0.2052
  565TMC3    C4 8380   1.260   3.123  10.106  0.0283  0.0015  0.8285
  565TMC3    C5 8381   1.230   3.005  10.164 -0.9165  0.3604  0.2236
  565TMC3    C6 8382   1.296   2.971  10.275 -0.2049 -0.0853  0.6175
  565TMC3     C 8383   1.384   3.331  10.095 -0.1963 -0.0010  0.3182
  565TMC3     O 8384   1.373   3.345   9.975  0.2179  0.1748 -0.6164
  565TMC3     H 8385   1.521   3.221  10.290 -1.1696  1.9073 -0.8715
  565TMC3    H1 8386   1.191   3.163  10.032  0.6827  0.1690  0.3062
  565TMC3    H2 8387   1.290   2.867  10.304 -0.6044 -0.2948 -0.2065
  565TMC3    C7 8388   1.109   2.939  10.133 -0.3927 -0.4090 -0.4561
  565TMC3    C8 8389   1.472   2.998  10.439  0.2031 -0.6719  0.2349
  565TMC3    O1 8390   1.044   2.899  10.230 -0.5562  0.3615  0.6055
  565TMC3    O2 8391   1.409   2.926  10.516  0.3458 -0.0211  1.2333
  566MPD2     C 8392   2.798   3.573  14.052  0.0470  0.4408 -1.2409
  566MPD2    C1 8393   2.906   3.657  14.079  0.0616 -0.4182  0.4891
  566MPD2    C2 8394   2.883   3.793  14.051  0.1208  0.6633  0.4420
  566MPD2    C3 8395   2.768   3.843  13.996  0.5200 -0.7203 -0.7863
  566MPD2    C4 8396   2.669   3.749  13.965 -0.4229 -0.4401 -0.4524
  566MPD2    C5 8397   2.685   3.613  13.996 -0.3226  0.2792 -0.2686
  566MPD2     H 8398   2.966   3.861  14.066  0.8720 -0.3758  1.0375
  566MPD2    H1 8399   2.575   3.782  13.924 -0.2287  1.3334  0.5303
  566MPD2    H2 8400   2.802   3.466  14.071 -1.8115  0.7560  0.9219
  566MPD2    H3 8401   2.608   3.541  13.971  0.5006 -0.7792  0.2479
  566MPD2     N 8402   2.753   3.969  13.952 -0.7851  0.5051 -0.2720
  566MPD2    H5 8403   2.679   3.981  13.883 -1.5360 -1.2685  0.2285
  566MPD2    N1 8404   3.026   3.610  14.132  0.0570 -0.2322 -0.0386
  566MPD2    H7 8405   3.033   3.515  14.164 -0.4604  0.7229  2.8737
  567TMC3    C1 8406   3.230   3.602  14.235 -0.4987 -0.1448  0.6863
  567TMC3    C2 8407   3.357   3.648  14.214  0.5755  0.1111 -0.0043
  567TMC3    C3 8408   3.439   3.646  14.325 -0.4031 -0.0657 -0.1705
  567TMC3    C4 8409   3.187   3.559  14.356  0.8763 -0.3660  0.4406
  567TMC3    C5 8410   3.277   3.550  14.458  0.2288  0.6230 -0.1476
  567TMC3    C6 8411   3.402   3.596  14.447 -0.6333  0.5982  0.3173
  567TMC3     C 8412   3.140   3.678  14.150 -0.2929  0.9486 -0.4687
  567TMC3     O 8413   3.165   3.790  14.104 -0.1173 -0.2765 -0.5615
  567TMC3     H 8414   3.390   3.672  14.113  2.8478  0.0831  0.7275
  567TMC3    H1 8415   3.082   3.541  14.379  1.3508 -1.1039  1.9987
  567TMC3    H2 8416   3.466   3.604  14.534  2.4880  0.1920 -1.9476
  567TMC3    C7 8417   3.220   3.578  14.594 -1.2607  0.4827  0.5913
  567TMC3    C8 8418   3.571   3.716  14.312  0.2952  0.1005  0.8683
  567TMC3    O1 8419   3.274   3.513  14.681 -0.1163 -0.1033  0.4434
  567TMC3    O2 8420   3.570   3.789  14.215 -0.4137  0.7040 -0.6103
  568MPD2     C 8421   0.657   4.535  16.854  0.3402  0.2226  0.7093
  568MPD2    C1 8422   0.562   4.578  16.944 -0.6993 -0.6265 -0.5115
  568MPD2    C2 8423   0.479   4.682  16.915 -0.3279 -0.4204  1.1099
  568MPD2    C3 8424   0.484   0.012  16.785 -0.2877 -0.2776  0.6982
  568MPD2    C4 8425   0.588   4.695  16.697  0.3721  0.3093 -0.4280
  568MPD2    C5 8426   0.669   4.593  16.732 -0.4776 -0.1255  0.2779
  568MPD2     H 8427   0.395   4.714  16.975 -0.5005  0.0345  0.6208
  568MPD2    H1 8428   0.605   0.014  16.598  0.8034  1.9890  0.3287
  568MPD2    H2 8429   0.721   4.451  16.880  0.3772 -0.5237 -1.8368
  568MPD2    H3 8430   0.736   4.549  16.658 -2.1467 -2.3211  0.0667
  568MPD2     N 8431   0.414   0.131  16.762  0.0232  0.3157 -0.1700
  568MPD2    H5 8432   0.363   0.179  16.835  1.2878  3.3287 -1.2487
  568MPD2    N1 8433   0.553   4.498  17.062 -0.4814 -0.1885  0.1795
  568MPD2    H7 8434   0.620   4.422  17.074 -0.1842 -0.1081 -0.9740
  569TMC3    C1 8435   0.330   0.328  16.652 -0.0241 -0.6955  0.7897
  569TMC3    C2 8436   0.336   0.403  16.766 -0.2485 -0.1647  0.3756
  569TMC3    C3 8437   0.288   0.536  16.755  0.9806 -0.1711 -0.6775
  569TMC3    C4 8438   0.274   0.372  16.537  0.3599 -0.4245 -0.1391
  569TMC3    C5 8439   0.236   0.502  16.525  0.1572  0.5738 -0.3201
  569TMC3    C6 8440   0.240   0.585  16.637 -0.2173 -0.2291  0.2364
  569TMC3     C 8441   0.411   0.209  16.644 -0.0375  0.1491  0.8287
  569TMC3     O 8442   0.456   0.186  16.530  0.4668  0.0883  0.1365
  569TMC3     H 8443   0.379   0.367  16.859  1.8420 -0.4247 -0.6843
  569TMC3    H1 8444   0.268   0.311  16.448  0.6259  0.0559 -0.4912
  569TMC3    H2 8445   0.195   0.682  16.655 -1.4688 -0.7012 -0.3283
  569TMC3    C7 8446   0.174   0.541  16.404  0.2036 -0.3016  0.6576
  569TMC3    C8 8447   0.318   0.619  16.869 -0.1308 -0.6117  0.1055
  569TMC3    O1 8448   0.134   0.453  16.329 -0.0512  0.0833  0.2314
  569TMC3    O2 8449   0.418   0.590  16.929  0.8921 -0.0783 -0.7090
  570TMC3    C1 8450   0.018   4.005  16.202 -0.0243  0.5867 -0.2523
  570TMC3    C2 8451   0.124   4.043  16.120  0.1388 -0.5715 -0.3652
  570TMC3    C3 8452   0.210   4.138  16.159  0.2414  0.1886  0.6419
  570TMC3    C4 8453   4.721   4.059  16.324  0.2296 -0.2361  0.1982
  570TMC3    C5 8454   0.084   4.155  16.360 -0.1555  0.0454 -0.5536
  570TMC3    C6 8455   0.191   4.199  16.279 -0.2039  0.2636  0.1224
  570TMC3     C 8456   4.670   3.879  16.169  0.2167  0.3373  0.4263
  570TMC3     O 8457   4.704   3.830  16.063 -0.7640  0.1445 -0.1824
  570TMC3     H 8458   0.151   3.971  16.044  1.8289  1.1891 -1.4155
  570TMC3    H1 8459   4.643   4.024  16.391 -0.8795  2.7157  0.4372
  570TMC3    H2 8460   0.269   4.259  16.323  1.4039 -0.9560 -1.0720
  570TMC3    C7 8461   0.081   4.193  16.500  0.0208 -0.3228  0.1356
  570TMC3    C8 8462   0.333   4.177  16.094  0.4816 -1.0463  1.0819
  570TMC3    O1 8463   4.716   4.137  16.571 -0.4109 -0.0067  0.0420
  570TMC3    O2 8464   0.390   4.281  16.133  0.0340  0.4897  0.4613
  571MPD2     C 8465   3.058   0.295   1.160 -1.0849  0.1998  0.6872
  571MPD2    C1 8466   3.129   0.320   1.041 -0.7118  0.4115  0.3416
  571MPD2    C2 8467   3.077   0.410   0.947  0.9786 -0.6989 -0.7636
  571MPD2    C3 8468   2.965   0.480   0.977  0.1237  0.3793 -0.0450
  571MPD2    C4 8469   2.900   0.457   1.100  0.0174  0.0275 -0.2943
  571MPD2    C5 8470   2.947   0.368   1.189 -0.3434  0.3541 -0.2237
  571MPD2     H 8471   3.134   0.440   0.860  2.2664  2.2381  1.0802
  571MPD2    H1 8472   2.814   0.515   1.133  0.5677  0.2656  0.7314
  571MPD2    H2 8473   3.094   0.233   1.240  0.2708  0.4491  0.2723
  571MPD2    H3 8474   2.895   0.357   1.284  0.7996  1.6725  0.5461
  571MPD2     N 8475   2.905   0.583   0.894  0.2933  0.1607  0.2555
  571MPD2    H5 8476   2.817   0.623   0.925  0.6700  1.0319  0.1853
  571MPD2    N1 8477   3.239   0.234   1.021  0.2974  0.0169  0.0210
  571MPD2    H7 8478   3.264   0.171   1.096 -0.1005  0.7259  0.7520
  572TMC3    C1 8479   2.878   0.747   0.745 -0.1812 -0.2045 -0.0772
  572TMC3    C2 8480   2.761   0.705   0.692 -0.2399  0.1827 -0.5305
  572TMC3    C3 8481   2.689   0.778   0.602 -0.5480 -0.1185 -0.6173
  572TMC3    C4 8482   2.938   0.860   0.691  0.6451  0.3083 -0.0870
  572TMC3    C5 8483   2.870   0.930   0.595 -0.0692  0.0095 -0.0746
  572TMC3    C6 8484   2.743   0.892   0.553  0.1507  0.1792 -0.7509
  572TMC3     C 8485   2.961   0.640   0.785  0.2550 -0.1073 -0.0128
  572TMC3     O 8486   3.065   0.621   0.721  0.1053 -0.3041  0.1312
  572TMC3     H 8487   2.717   0.606   0.696  0.1061  0.0079 -1.0419
  572TMC3    H1 8488   3.020   0.904   0.747  1.0074  0.9901 -1.1487
  572TMC3    H2 8489   2.693   0.950   0.476  1.3790  0.4307 -1.3629
  572TMC3    C7 8490   2.927   1.048   0.548 -0.0043 -0.5305  0.1675
  572TMC3    C8 8491   2.603   0.711   0.504  0.2458 -0.8868  0.0542
  572TMC3    O1 8492   2.853   1.133   0.511  0.2821 -0.6780 -0.4243
  572TMC3    O2 8493   2.629   0.732   0.385 -0.5537 -0.5847 -0.1484
  573MPD2     C 8494   4.209   0.937   1.279  0.6370 -1.0355  0.2421
  573MPD2    C1 8495   4.084   0.976   1.253  0.5292  0.6756  0.3389
  573MPD2    C2 8496   4.042   0.965   1.125 -0.2470 -0.4983  0.6621
  573MPD2    C3 8497   4.124   0.905   1.023 -0.2157 -0.0127  0.7189
  573MPD2    C4 8498   4.247   0.863   1.054  1.2368  0.2041 -0.2989
  573MPD2    C5 8499   4.293   0.888   1.178 -0.0258  0.5294  0.7505
  573MPD2     H 8500   3.950   1.012   1.093  2.1744  1.9579 -2.6285
  573MPD2    H1 8501   4.307   0.808   0.983  0.0474  0.0317 -1.1669
  573MPD2    H2 8502   4.247   0.935   1.381  1.5033  0.2369 -0.0605
  573MPD2    H3 8503   4.395   0.859   1.201 -0.0372 -0.7490 -0.8712
  573MPD2     N 8504   4.080   0.896   0.891  0.0427  0.2049 -0.4784
  573MPD2    H5 8505   4.150   0.866   0.823  0.4276 -0.2593  0.1176
  573MPD2    N1 8506   4.009   1.036   1.359  0.1150  0.3238 -0.2585
  573MPD2    H7 8507   4.054   1.052   1.448  2.1560 -0.5032 -1.1329
  574TMC3    C1 8508   3.944   0.947   0.699  0.7636 -0.9892  0.1538
  574TMC3    C2 8509   3.813   0.948   0.647 -0.2330  0.5143 -0.0582
  574TMC3    C3 8510   3.795   0.967   0.515 -0.7905 -0.4837 -0.7967
  574TMC3    C4 8511   4.051   0.988   0.621  0.5246 -1.1161  0.3757
  574TMC3    C5 8512   4.021   1.014   0.494  0.2084 -0.3151 -0.4361
  574TMC3    C6 8513   3.902   0.991   0.431 -0.2593  0.7313  0.5930
  574TMC3     C 8514   3.957   0.935   0.848 -0.3230 -0.2314  0.2571
  574TMC3     O 8515   3.853   0.928   0.911  0.2433 -0.8069 -0.0995
  574TMC3     H 8516   3.733   0.928   0.716  0.2888 -1.6052 -0.0602
  574TMC3    H1 8517   4.147   1.003   0.670  0.9814  0.2390 -0.9395
  574TMC3    H2 8518   3.891   1.008   0.325  2.2731  0.1849  0.2344
  574TMC3    C7 8519   4.127   1.010   0.397  0.4195  0.5531  0.0737
  574TMC3    C8 8520   3.684   0.889   0.464 -0.3946  0.0198  0.3704
  574TMC3    O1 8521   4.102   1.042   0.280 -0.2089  0.1756 -0.4228
  574TMC3    O2 8522   3.619   0.825   0.541 -0.2263  0.1026  0.0574
  575TMC3    C1 8523   1.777   2.869  11.282 -0.8088  0.2512  0.4656
  575TMC3    C2 8524   1.659   2.827  11.339 -0.1698  0.1521 -0.0262
  575TMC3    C3 8525   1.539   2.836  11.276 -1.0500 -0.1231  0.0552
  575TMC3    C4 8526   1.771   2.916  11.155  0.1292  0.4188 -0.0759
  575TMC3    C5 8527   1.652   2.913  11.088  0.6534 -0.2160  0.5956
  575TMC3    C6 8528   1.533   2.874  11.146 -0.8471 -0.5489  1.2486
  575TMC3     C 8529   1.901   2.872  11.361  0.8030 -0.3530  0.0294
  575TMC3     O 8530   1.894   2.828  11.474 -0.4914  0.2803 -0.1052
  575TMC3     H 8531   1.652   2.817  11.447 -0.3253  1.6569  0.1012
  575TMC3    H1 8532   1.859   2.963  11.112  0.2830  0.1831 -0.0171
  575TMC3    H2 8533   1.433   2.884  11.105 -0.4774 -0.2469  0.4299
  575TMC3    C7 8534   1.645   2.936  10.948 -0.0624 -0.4814  1.4927
  575TMC3    C8 8535   1.419   2.848  11.348  0.0087 -0.8171  0.3707
  575TMC3    O1 8536   1.532   2.959  10.905  0.2291  0.8230 -0.4102
  575TMC3    O2 8537   1.331   2.912  11.299 -1.4991  0.5982 -0.5856
  576MPD2     C 8538   1.122   3.410  12.609  0.2774  0.0859 -0.2703
  576MPD2    C1 8539   1.028   3.492  12.543  0.1505 -0.6368 -0.3094
  576MPD2    C2 8540   0.959   3.583  12.623  0.9585 -0.2979 -0.9014
  576MPD2    C3 8541   0.982   3.590  12.762  0.1423 -0.4743  0.5533
  576MPD2    C4 8542   1.062   3.494  12.825  0.5553  0.0180  0.2652
  576MPD2    C5 8543   1.134   3.417  12.740  0.0541  0.0630  0.4257
  576MPD2     H 8544   0.899   3.657  12.573  0.5660 -0.2456 -0.3608
  576MPD2    H1 8545   1.097   3.498  12.927 -1.1171  1.1872  0.7860
  576MPD2    H2 8546   1.187   3.343  12.553 -1.1383 -1.1313 -0.4257
  576MPD2    H3 8547   1.214   3.361  12.785 -0.3142 -0.1692  0.7953
  576MPD2     N 8548   0.929   3.706  12.820 -0.0647 -0.0684 -0.4749
  576MPD2    H5 8549   0.868   3.765  12.765 -1.0790 -0.0797  0.6364
  576MPD2    N1 8550   1.007   3.483  12.405 -0.2870  0.0762  0.1340
  576MPD2    H7 8551   0.969   3.562  12.354 -1.5197 -1.2215 -0.9995
  577TMC3    C1 8552   1.073   3.405  12.184  0.4166  0.6823 -0.2151
  577TMC3    C2 8553   1.154   3.316  12.110 -0.3769 -0.3129  0.5598
  577TMC3    C3 8554   1.186   3.356  11.985 -0.1053  0.2996 -0.3687
  577TMC3    C4 8555   1.033   3.523  12.130 -0.2683 -1.2243 -0.0314
  577TMC3    C5 8556   1.067   3.545  11.996  0.1652 -0.2534  0.0922
  577TMC3    C6 8557   1.139   3.463  11.923 -0.1806  0.4763 -0.1078
  577TMC3     C 8558   1.062   3.379  12.325 -0.0404 -0.7151 -0.0201
  577TMC3     O 8559   1.085   3.267  12.364 -0.7235 -0.1869  0.0555
  577TMC3     H 8560   1.188   3.224  12.157 -0.3090 -0.2977  0.5401
  577TMC3    H1 8561   0.980   3.594  12.193  0.0604 -1.9016  1.0054
  577TMC3    H2 8562   1.179   3.504  11.831  0.5511 -0.5258 -0.2471
  577TMC3    C7 8563   1.121   3.675  11.967  0.9260  0.6372  0.5191
  577TMC3    C8 8564   1.321   3.303  11.956  0.1749 -0.5916  0.2925
  577TMC3    O1 8565   1.225   3.700  12.029  0.2221 -0.6008  0.4144
  577TMC3    O2 8566   1.364   3.225  12.040 -0.4469  0.5790  0.4357
  578MPD2     C 8567   3.196   3.352   0.986  0.0329  0.2296 -0.6585
  578MPD2    C1 8568   3.321   3.320   0.948  0.2871 -0.2570 -0.2439
  578MPD2    C2 8569   3.399   3.245   1.040 -0.3430  0.3683  1.0696
  578MPD2    C3 8570   3.361   3.213   1.167 -0.2655  0.5391  0.6464
  578MPD2    C4 8571   3.241   3.262   1.207 -0.3478 -0.1513 -0.5770
  578MPD2    C5 8572   3.159   3.321   1.110  0.6225  0.3880 -0.2109
  578MPD2     H 8573   3.496   3.210   1.005  0.4948  2.0621  1.6973
  578MPD2    H1 8574   3.202   3.271   1.308  1.7751 -0.2251  0.2490
  578MPD2    H2 8575   3.125   3.395   0.916 -2.6676 -0.1427  1.8498
  578MPD2    H3 8576   3.058   3.346   1.140  0.8240 -2.4351  2.8083
  578MPD2     N 8577   3.435   3.130   1.257  0.0225  0.1719  0.4095
  578MPD2    H5 8578   3.509   3.082   1.208  1.2795  0.7956  1.6805
  578MPD2    N1 8579   3.365   3.359   0.814 -0.6116 -0.5642  0.7098
  578MPD2    H7 8580   3.304   3.404   0.747 -0.1570 -0.6301  0.2512
  579TMC3    C1 8581   3.517   3.040   1.464 -0.4539  0.5324 -0.5736
  579TMC3    C2 8582   3.534   3.060   1.596  0.0282 -0.1524  0.4637
  579TMC3    C3 8583   3.629   2.996   1.666 -0.0510  0.6155  0.3150
  579TMC3    C4 8584   3.600   2.947   1.402  0.0309  0.5015  0.9814
  579TMC3    C5 8585   3.696   2.886   1.470  0.3695  0.4179  0.0050
  579TMC3    C6 8586   3.711   2.908   1.603  0.4316  0.2171  0.1101
  579TMC3     C 8587   3.419   3.128   1.398  1.0062 -0.2703 -0.6454
  579TMC3     O 8588   3.335   3.176   1.473 -0.3223  0.4112  0.2413
  579TMC3     H 8589   3.467   3.126   1.650  0.1323  1.1350 -0.9709
  579TMC3    H1 8590   3.581   2.926   1.297  1.7838  3.1958  0.1327
  579TMC3    H2 8591   3.789   2.854   1.657 -0.8396 -1.2786  0.4428
  579TMC3    C7 8592   3.803   2.821   1.398 -0.1122  0.3212 -0.1944
  579TMC3    C8 8593   3.695   3.071   1.775 -0.5644  0.2577 -0.1637
  579TMC3    O1 8594   3.901   2.801   1.463 -0.0795 -0.1089 -0.1920
  579TMC3    O2 8595   3.624   3.162   1.823 -0.1318  0.2694 -0.0371
  580TMC3    C1 8596   3.191   2.975  12.180  1.2315  0.5377 -0.0282
  580TMC3    C2 8597   3.287   3.064  12.148  0.4951  0.6979  0.5491
  580TMC3    C3 8598   3.414   3.015  12.123 -0.5859  0.5875 -0.1189
  580TMC3    C4 8599   3.220   2.838  12.180 -0.6625 -0.9967  0.4853
  580TMC3    C5 8600   3.346   2.798  12.143 -0.1128 -0.1002 -0.0232
  580TMC3    C6 8601   3.443   2.883  12.110  0.0462 -0.0396  0.2024
  580TMC3     C 8602   3.060   3.021  12.152  0.3152 -0.4478 -0.0295
  580TMC3     O 8603   3.003   2.960  12.060  0.3555 -0.1432 -1.1520
  580TMC3     H 8604   3.256   3.167  12.165 -0.9989 -0.4187  4.5428
  580TMC3    H1 8605   3.143   2.769  12.212 -0.2062 -1.8985 -0.3663
  580TMC3    H2 8606   3.534   2.840  12.072  1.4008  0.9825  2.3063
  580TMC3    C7 8607   3.383   2.660  12.134 -0.5016  0.0087  0.3181
  580TMC3    C8 8608   3.505   3.089  12.034 -0.3992 -0.0697  0.1890
  580TMC3    O1 8609   3.502   2.640  12.159  0.4573  0.1498 -0.3078
  580TMC3    O2 8610   3.618   3.040  12.033  0.7424 -0.2194  0.0017
  581MPD2     C 8611   1.846   2.956  14.785 -0.1161  0.1437 -0.1896
  581MPD2    C1 8612   1.806   2.990  14.916  0.5003  0.1804 -0.5086
  581MPD2    C2 8613   1.666   2.986  14.922 -0.4052  0.0537  0.1395
  581MPD2    C3 8614   1.577   2.960  14.816 -0.0901  0.2859  0.1707
  581MPD2    C4 8615   1.622   2.952  14.684 -0.0865 -0.4880 -0.1032
  581MPD2    C5 8616   1.761   2.946  14.677 -0.1844  0.2422 -0.1598
  581MPD2     H 8617   1.614   2.995  15.017 -1.7203 -0.6071 -0.5251
  581MPD2    H1 8618   1.553   2.937  14.602 -0.4851  2.2253 -0.2837
  581MPD2    H2 8619   1.952   2.945  14.765  0.0042  0.4107  0.2928
  581MPD2    H3 8620   1.807   2.929  14.581 -0.6894 -2.1165  0.0238
  581MPD2     N 8621   1.438   2.957  14.844 -0.3428  0.0284  0.4190
  581MPD2    H5 8622   1.414   2.990  14.937 -1.4959 -1.2658  0.5812
  581MPD2    N1 8623   1.903   3.013  15.020  0.3569  0.3776 -0.1362
  581MPD2    H7 8624   2.001   2.999  14.998 -0.1347 -0.4308 -1.8314
  582TMC3    C1 8625   1.977   2.976  15.238  0.5062 -0.4089 -0.4779
  582TMC3    C2 8626   1.954   2.991  15.373  0.5754 -0.1597 -0.3115
  582TMC3    C3 8627   2.025   2.904  15.457  0.6118 -0.2035  0.1448
  582TMC3    C4 8628   2.072   2.894  15.196 -0.2530 -0.5964 -0.8475
  582TMC3    C5 8629   2.124   2.797  15.273  0.1351 -0.1133  0.2327
  582TMC3    C6 8630   2.117   2.807  15.412  0.3318  0.1108  0.4293
  582TMC3     C 8631   1.875   3.030  15.148  0.0257  0.2427  0.3959
  582TMC3     O 8632   1.778   3.083  15.204 -0.6921  0.5964 -0.0227
  582TMC3     H 8633   1.891   3.066  15.419  1.1285  0.1835 -0.1115
  582TMC3    H1 8634   2.076   2.875  15.089  0.3977 -0.5116 -0.8403
  582TMC3    H2 8635   2.148   2.723  15.473  0.0993 -0.5893 -0.4131
  582TMC3    C7 8636   2.227   2.712  15.222  0.1112  0.0256  0.1916
  582TMC3    C8 8637   2.000   2.906  15.604  0.1093 -0.7567 -0.8091
  582TMC3    O1 8638   2.324   2.707  15.297  0.7298  0.0313  0.1895
  582TMC3    O2 8639   1.965   3.010  15.659  0.0449  0.0603  0.3893
  583MPD2     C 8640   1.956   4.119  16.767 -0.8213 -0.3962 -0.4312
  583MPD2    C1 8641   1.889   4.202  16.674  0.4910 -0.5373 -0.6384
  583MPD2    C2 8642   1.787   4.291  16.723  0.1061  0.6291 -0.1288
  583MPD2    C3 8643   1.755   4.289  16.860  0.3347  0.0376 -0.9100
  583MPD2    C4 8644   1.835   4.209  16.945 -0.0555  0.2938 -0.8039
  583MPD2    C5 8645   1.923   4.114  16.896  0.0908  0.1689  0.1873
  583MPD2     H 8646   1.737   4.354  16.651  3.4698  3.0171 -0.3593
  583MPD2    H1 8647   1.837   4.215  17.053 -1.3965  3.7830 -0.9893
  583MPD2    H2 8648   2.043   4.062  16.739 -0.1929 -1.9524  4.6387
  583MPD2    H3 8649   1.985   4.058  16.965 -0.7802 -1.4008 -0.3014
  583MPD2     N 8650   1.653   4.372  16.910 -0.0935  0.1741 -0.2060
  583MPD2    H5 8651   1.594   4.416  16.839  2.6094  1.2937 -1.7472
  583MPD2    N1 8652   1.922   4.199  16.532  0.0034  0.0224  0.1869
  583MPD2    H7 8653   1.888   4.270  16.468 -1.9979 -2.0596 -1.0476
  584TMC3    C1 8654   1.493   4.483  17.053 -0.4775  0.4686  0.4788
  584TMC3    C2 8655   1.494   4.604  16.981 -0.0123 -1.0098  0.1689
  584TMC3    C3 8656   1.375   4.664  16.958  0.0152 -0.2879 -0.5583
  584TMC3    C4 8657   1.378   4.431  17.108 -0.0038 -1.4028 -0.3392
  584TMC3    C5 8658   1.263   4.505  17.090  0.6915 -0.1936  0.3695
  584TMC3    C6 8659   1.261   4.618  17.016  0.3805  0.3455 -0.3854
  584TMC3     C 8660   1.603   4.385  17.040 -0.0868 -0.4478 -0.4449
  584TMC3     O 8661   1.637   4.327  17.141 -0.1981 -0.3736 -0.1531
  584TMC3     H 8662   1.589   4.630  16.936  0.0222  1.1645  1.4590
  584TMC3    H1 8663   1.390   4.341  17.168  2.2528 -1.2136 -0.4979
  584TMC3    H2 8664   1.180   4.688  17.033 -1.1612 -2.0924  2.2697
  584TMC3    C7 8665   1.155   4.483  17.186 -0.1044  0.1527 -0.3281
  584TMC3    C8 8666   1.383   0.085  16.939  0.5468 -0.2976  0.4819
  584TMC3    O1 8667   1.064   4.562  17.184  0.3037 -0.2513  0.1500
  584TMC3    O2 8668   1.289   0.137  16.884 -0.0171 -0.2307 -0.0691
  585MPD2     C 8669   0.372   2.479   0.790  0.0173 -0.5922 -0.6998
  585MPD2    C1 8670   0.465   2.575   0.753 -0.1087 -0.5222  0.5631
  585MPD2    C2 8671   0.557   2.538   0.650 -0.4382 -0.6327  0.0660
  585MPD2    C3 8672   0.544   2.417   0.581  0.2285  0.6498  0.3863
  585MPD2    C4 8673   0.437   2.333   0.604  0.0123 -0.2714 -0.0790
  585MPD2    C5 8674   0.362   2.361   0.719  0.2481 -0.2574  0.1889
  585MPD2     H 8675   0.628   2.613   0.615  0.8075 -1.6735  0.3816
  585MPD2    H1 8676   0.403   2.248   0.547 -1.1290 -0.5045  0.9508
  585MPD2    H2 8677   0.313   2.495   0.880 -1.2583 -0.9562 -1.4760
  585MPD2    H3 8678   0.296   2.281   0.751  2.0616 -1.8578  0.0026
  585MPD2     N 8679   0.626   2.381   0.475  0.1000  0.0311 -0.2094
  585MPD2    H5 8680   0.594   2.305   0.415  0.9031 -0.6513  0.2249
  585MPD2    N1 8681   0.453   2.703   0.817  0.8750 -0.4510 -0.1909
  585MPD2    H7 8682   0.360   2.730   0.846  0.3740  0.7465 -2.9493
  586TMC3    C1 8683   0.785   2.419   0.305 -0.0664  0.6760  0.2561
  586TMC3    C2 8684   0.916   2.400   0.282  0.0628 -0.1785 -0.4436
  586TMC3    C3 8685   0.958   2.346   0.163  0.0841 -0.1243  0.8695
  586TMC3    C4 8686   0.692   2.393   0.212  0.2829  0.1405 -0.2524
  586TMC3    C5 8687   0.730   2.333   0.095 -0.5269  0.0779 -0.7466
  586TMC3    C6 8688   0.862   2.308   0.072 -0.2097 -0.3060 -0.3476
  586TMC3     C 8689   0.748   2.438   0.445 -0.1636  0.1743 -0.0980
  586TMC3     O 8690   0.831   2.487   0.516  0.2345 -0.1452  0.1866
  586TMC3     H 8691   0.986   2.420   0.362  0.8420 -0.7108 -0.9936
  586TMC3    H1 8692   0.588   2.419   0.223  0.4353  0.9323 -0.6176
  586TMC3    H2 8693   0.889   2.257  17.668  0.1318 -2.3945  0.9152
  586TMC3    C7 8694   0.630   2.312  17.678 -0.5097  0.2410  0.5752
  586TMC3    C8 8695   1.097   2.287   0.159  0.2386 -0.0990 -0.4525
  586TMC3    O1 8696   0.650   2.220  17.597 -0.1908  0.1581  0.4088
  586TMC3    O2 8697   1.155   2.267   0.265  0.0422  0.1039 -0.2565
  587TMC3    C1 8698   2.874   1.556  16.372 -0.4461 -1.0032 -1.1111
  587TMC3    C2 8699   2.885   1.658  16.460  0.0324  1.1485  0.0090
  587TMC3    C3 8700   2.961   1.639  16.574 -0.3139 -1.0651  0.0178
  587TMC3    C4 8701   2.897   1.426  16.407  0.1420 -0.3601  0.3840
  587TMC3    C5 8702   2.967   1.418  16.524  0.4133 -0.7031 -0.6894
  587TMC3    C6 8703   2.998   1.517  16.608  0.0302 -0.3611  0.0334
  587TMC3     C 8704   2.764   1.580  16.278  0.2197 -0.2337  0.7248
  587TMC3     O 8705   2.754   1.497  16.190 -0.6185 -0.0887 -0.5748
  587TMC3     H 8706   2.862   1.756  16.420  0.8139  0.6607 -1.6371
  587TMC3    H1 8707   2.879   1.342  16.341  4.2735 -0.2114 -0.9464
  587TMC3    H2 8708   3.050   1.495  16.701 -2.3278 -1.2260  1.1401
  587TMC3    C7 8709   3.043   1.289  16.538  0.5557 -0.8531  0.0445
  587TMC3    C8 8710   3.010   1.747  16.657 -0.3252 -0.5555  0.7070
  587TMC3    O1 8711   3.002   1.196  16.470  0.1253 -0.3569 -0.3181
  587TMC3    O2 8712   3.103   1.718  16.734  0.2293  0.0988 -0.4502
  588TMC3    C1 8713   0.526   0.349   9.613 -0.4221 -0.1996 -0.1893
  588TMC3    C2 8714   0.535   0.226   9.565 -0.6358  0.5349 -0.0839
  588TMC3    C3 8715   0.658   0.165   9.595  0.7014 -0.1003 -0.1048
  588TMC3    C4 8716   0.632   0.421   9.668  0.7660 -0.0546 -0.2788
  588TMC3    C5 8717   0.749   0.354   9.694 -0.4117 -0.7540  0.2772
  588TMC3    C6 8718   0.761   0.221   9.674  0.0527 -0.0229 -0.3037
  588TMC3     C 8719   0.421   0.428   9.547 -0.6232  0.8223 -0.5150
  588TMC3     O 8720   0.378   0.394   9.439  0.4156 -0.0883  0.2700
  588TMC3     H 8721   0.443   0.173   9.543  0.2128 -1.3615  0.9188
  588TMC3    H1 8722   0.624   0.525   9.699  0.9326 -0.1209 -0.0071
  588TMC3    H2 8723   0.858   0.175   9.684 -1.5019 -3.3124 -0.5250
  588TMC3    C7 8724   0.852   0.421   9.772  0.7123  0.4882  0.3034
  588TMC3    C8 8725   0.648   0.020   9.582  0.0037 -0.0770  0.7092
  588TMC3    O1 8726   0.930   0.354   9.836 -0.1042 -0.3071  0.4307
  588TMC3    O2 8727   0.567   4.697   9.498 -0.2382 -0.5017  0.2204
  589TMC3    C1 8728   0.062   1.450   1.081  0.1459 -0.3374 -0.2541
  589TMC3    C2 8729   0.114   1.538   1.167  0.1018 -0.0184  0.0327
  589TMC3    C3 8730   0.245   1.517   1.211  0.2962  0.1193  0.3876
  589TMC3    C4 8731   0.132   1.339   1.043 -0.4084  0.1516 -0.2600
  589TMC3    C5 8732   0.255   1.315   1.100 -0.6945  0.2467 -0.5109
  589TMC3    C6 8733   0.322   1.402   1.181 -0.2714  0.2563 -0.3570
  589TMC3     C 8734   4.653   1.469   1.019 -0.1166 -0.3080 -0.3922
  589TMC3     O 8735   4.637   1.399   0.918  0.2998 -0.4941  0.3777
  589TMC3     H 8736   0.076   1.639   1.173  1.9868  0.6257  1.0824
  589TMC3    H1 8737   0.100   1.266   0.969 -1.0595 -0.0265  0.2008
  589TMC3    H2 8738   0.427   1.392   1.207 -1.1101 -0.5550  2.6613
  589TMC3    C7 8739   0.311   1.183   1.064 -0.2286  0.0340 -0.2159
  589TMC3    C8 8740   0.299   1.638   1.276  0.1227 -0.7219 -0.3723
  589TMC3    O1 8741   0.230   1.095   1.029  0.3675 -0.0561 -0.4795
  589TMC3    O2 8742   0.224   1.727   1.314 -0.5532  0.3224 -0.4905
  590MPD2     C 8743   3.882   4.569  16.160 -0.1198  0.2991  0.1313
  590MPD2    C1 8744   3.810   4.662  16.087 -0.5688  0.0354 -0.3727
  590MPD2    C2 8745   3.870   0.012  15.987  0.4817  0.3009 -0.0556
  590MPD2    C3 8746   3.999   4.718  15.954 -0.2840  0.3972 -0.2049
  590MPD2    C4 8747   4.072   4.624  16.030  0.1762  0.3790 -0.7842
  590MPD2    C5 8748   4.016   4.561  16.136 -0.4288  0.3359 -0.5717
  590MPD2     H 8749   3.807   0.082  15.934 -1.0230 -1.5130 -0.6576
  590MPD2    H1 8750   4.176   4.602  16.009  0.3999  0.6907 -0.0092
  590MPD2    H2 8751   3.845   4.503  16.237  1.2657  0.9572  1.3436
  590MPD2    H3 8752   4.063   4.478  16.187 -0.2048  0.6936 -0.2011
  590MPD2     N 8753   4.047   0.073  15.844  0.0975  0.2400  0.6796
  590MPD2    H5 8754   3.980   0.137  15.803  0.0725 -1.6804 -2.2535
  590MPD2    N1 8755   3.670   4.689  16.101 -0.6122  0.5289 -0.1854
  590MPD2    H7 8756   3.630   0.042  16.045 -0.5624 -1.3644 -2.7439
  591TMC3    C1 8757   4.200   0.171  15.693  0.2189  0.0782  0.2491
  591TMC3    C2 8758   4.321   0.155  15.623 -0.0082 -0.0751  0.3077
  591TMC3    C3 8759   4.379   0.271  15.571 -0.3934 -0.2839  0.5154
  591TMC3    C4 8760   4.134   0.287  15.698 -0.2191 -0.2553 -0.4376
  591TMC3    C5 8761   4.190   0.396  15.644  0.1841  0.1425 -0.2182
  591TMC3    C6 8762   4.316   0.397  15.584  0.5114 -0.5305 -0.0534
  591TMC3     C 8763   4.175   0.069  15.794 -0.2026  0.3962  0.2048
  591TMC3     O 8764   4.263   4.703  15.812 -0.4452  0.8636 -0.1939
  591TMC3     H 8765   4.370   0.059  15.620 -0.0097  0.0100 -2.1773
  591TMC3    H1 8766   4.048   0.296  15.764  0.3153 -0.5518  0.3091
  591TMC3    H2 8767   4.371   0.488  15.560  1.1453 -1.3113 -1.5875
  591TMC3    C7 8768   4.126   0.521  15.670  0.4005 -0.0917  0.1734
  591TMC3    C8 8769   4.509   0.253  15.515 -0.1235 -0.0157  0.2176
  591TMC3    O1 8770   4.039   0.527  15.752  0.2100  0.1667  0.3808
  591TMC3    O2 8771   4.558   0.141  15.525  0.7788 -0.3437  0.6474
  592MPD2     C 8772   4.439   2.842  11.169  0.1549  0.0589 -0.0678
  592MPD2    C1 8773   4.426   2.896  11.298 -0.2781 -0.9813  0.1263
  592MPD2    C2 8774   4.381   2.807  11.398  0.0310 -0.6546 -0.3421
  592MPD2    C3 8775   4.352   2.679  11.370 -0.8176 -0.0355  0.7569
  592MPD2    C4 8776   4.372   2.629  11.242  0.1928  0.4200  0.0681
  592MPD2    C5 8777   4.417   2.713  11.144 -0.0014  0.0486  0.2098
  592MPD2     H 8778   4.384   2.844  11.500 -0.0400 -1.9430  0.1269
  592MPD2    H1 8779   4.346   2.528  11.213  2.4239 -1.0276  3.1003
  592MPD2    H2 8780   4.473   2.901  11.084 -1.2378 -0.3873 -0.9469
  592MPD2    H3 8781   4.429   2.673  11.044 -0.2110 -2.5091  1.2128
  592MPD2     N 8782   4.308   2.597  11.475 -0.6957  0.9270  0.1958
  592MPD2    H5 8783   4.308   2.631  11.571  0.7726 -0.5173  0.6955
  592MPD2    N1 8784   4.484   3.021  11.325  0.3209  0.1163 -0.6649
  592MPD2    H7 8785   4.530   3.067  11.248  0.0753 -0.8670 -1.3998
  593TMC3    C1 8786   4.568   3.196  11.455 -0.2237 -0.6190  0.3950
  593TMC3    C2 8787   4.539   3.268  11.568 -0.4055  0.3782 -0.2649
  593TMC3    C3 8788   4.628   3.371  11.595  0.2839 -0.1009 -0.3137
  593TMC3    C4 8789   4.673   3.211  11.375  1.0594 -0.3695 -0.0088
  593TMC3    C5 8790   0.047   3.308  11.411 -0.1079  0.2002  0.1908
  593TMC3    C6 8791   0.030   3.370  11.529  0.4925  0.0902  0.6667
  593TMC3     C 8792   4.486   3.073  11.454  0.4362 -0.5155 -1.0479
  593TMC3     O 8793   4.418   3.047  11.550 -0.1088  0.4239  0.0936
  593TMC3     H 8794   4.453   3.253  11.633 -0.0342 -0.5895 -0.0065
  593TMC3    H1 8795   4.698   3.130  11.308 -1.4637 -0.6950 -0.5321
  593TMC3    H2 8796   0.092   3.458  11.543  0.5794  0.4709 -2.1452
  593TMC3    C7 8797   0.165   3.330  11.337 -0.1972  0.3138  0.4999
  593TMC3    C8 8798   4.635   3.427  11.721  0.3209 -0.6121 -0.0042
  593TMC3    O1 8799   0.250   3.400  11.394 -0.0123  0.0886 -0.4282
  593TMC3    O2 8800   4.524   3.452  11.775 -0.3629  0.1655 -0.2631
  594MPD2     C 8801   3.264   1.229  13.694 -0.1617 -0.0025  0.2370
  594MPD2    C1 8802   3.275   1.248  13.831 -0.5602 -1.0583 -0.6520
  594MPD2    C2 8803   3.356   1.350  13.882  0.3786 -0.2095  0.4543
  594MPD2    C3 8804   3.423   1.442  13.803 -0.2205 -0.7118 -0.2720
  594MPD2    C4 8805   3.417   1.423  13.666 -0.0180 -0.4258 -0.0076
  594MPD2    C5 8806   3.347   1.314  13.612 -0.0795 -0.9444  0.2264
  594MPD2     H 8807   3.359   1.365  13.989  0.3721  2.4649  0.0907
  594MPD2    H1 8808   3.471   1.489  13.599  1.8651 -0.7645  1.1630
  594MPD2    H2 8809   3.196   1.159  13.648  0.9270 -0.3261 -0.9094
  594MPD2    H3 8810   3.343   1.302  13.505 -0.1846 -2.3902  0.3953
  594MPD2     N 8811   3.494   1.545  13.864  0.0118  0.3755  0.0958
  594MPD2    H5 8812   3.509   1.547  13.964  0.3620  0.7613  0.0369
  594MPD2    N1 8813   3.203   1.163  13.924  0.6956 -0.7543 -0.0910
  594MPD2    H7 8814   3.134   1.097  13.889 -0.2998  0.6284 -0.7500
  595TMC3    C1 8815   3.764   1.869  13.994 -0.0119  0.0864  0.9341
  595TMC3    C2 8816   3.720   1.793  13.889 -0.5470 -0.0650  0.4934
  595TMC3    C3 8817   3.591   1.746  13.896 -0.0505  0.6437 -0.1216
  595TMC3    C4 8818   3.694   1.872  14.111  0.5571  0.4466  0.4352
  595TMC3    C5 8819   3.569   1.828  14.112 -0.0244 -0.1690 -0.1134
  595TMC3    C6 8820   3.509   1.764  14.009 -0.4634  0.1757  0.1399
  595TMC3     C 8821   3.907   1.877  14.014 -0.0854 -0.4138  0.1904
  595TMC3     O 8822   3.946   1.873  14.129  0.3614  0.0120 -0.7641
  595TMC3     H 8823   3.774   1.774  13.797  0.0146 -0.1631  0.8390
  595TMC3    H1 8824   3.729   1.941  14.186 -1.0818  1.2072  0.5119
  595TMC3    H2 8825   3.414   1.714  14.028 -1.6077  2.1475 -0.3538
  595TMC3    C7 8826   3.491   1.855  14.226  0.6095  0.0340 -0.3805
  595TMC3    C8 8827   3.551   1.652  13.801 -0.3064  0.1887 -0.3730
  595TMC3    O1 8828   3.373   1.879  14.218  0.5766 -0.6254 -0.5449
  595TMC3    O2 8829   3.586   1.675  13.684 -0.9955 -0.7578  0.4641
  596MPD2     C 8830   2.746   4.403  16.459  0.1328  0.2338  0.4391
  596MPD2    C1 8831   2.650   4.465  16.386 -0.2168 -0.1670  0.1582
  596MPD2    C2 8832   2.605   4.411  16.263  1.0001 -0.2306 -0.0796
  596MPD2    C3 8833   2.671   4.292  16.220  0.6542 -0.0462  0.0762
  596MPD2    C4 8834   2.764   4.232  16.300  0.3858 -0.3031 -0.1544
  596MPD2    C5 8835   2.805   4.289  16.416 -0.2480  0.5018 -0.2775
  596MPD2     H 8836   2.522   4.454  16.209  0.7478 -1.3864 -0.6319
  596MPD2    H1 8837   2.819   4.145  16.265  0.1385 -0.3043 -0.5355
  596MPD2    H2 8838   2.784   4.437  16.554  0.1711 -0.2859  0.6083
  596MPD2    H3 8839   2.893   4.268  16.475  0.0220  0.8981 -0.5473
  596MPD2     N 8840   2.623   4.226  16.111  0.3733  0.0660  0.1140
  596MPD2    H5 8841   2.619   4.124  16.118  2.6629 -0.1356 -1.4276
  596MPD2    N1 8842   2.573   4.567  16.456  0.3038  0.2058  0.1786
  596MPD2    H7 8843   2.619   4.605  16.539  1.3037  1.2980 -0.8675
  597TMC3    C1 8844   2.407   0.015  16.492 -0.1329  0.3098  0.0862
  597TMC3    C2 8845   2.326   0.111  16.428 -0.0683  0.0417  0.8218
  597TMC3    C3 8846   2.260   0.206  16.505  0.1859  0.1296 -0.4386
  597TMC3    C4 8847   2.405   0.004  16.627 -0.7185  0.0806 -0.0389
  597TMC3    C5 8848   2.333   0.098  16.698 -0.7860 -0.2033  0.1975
  597TMC3    C6 8849   2.267   0.201  16.646 -0.2201  0.5220  0.1588
  597TMC3     C 8850   2.463   4.636  16.402  0.0222 -0.2350 -0.4531
  597TMC3     O 8851   2.426   4.638  16.289  0.3957 -0.1241 -0.4057
  597TMC3     H 8852   2.316   0.119  16.321  0.2112  0.0195  0.7937
  597TMC3    H1 8853   2.451   4.642  16.679  0.1796  0.4791 -0.1960
  597TMC3    H2 8854   2.204   0.264  16.708 -1.7283  0.6242 -1.4704
  597TMC3    C7 8855   2.333   0.089  16.846 -0.4231 -0.2030 -0.0789
  597TMC3    C8 8856   2.138   0.266  16.459  0.5443  0.0178  0.9512
  597TMC3    O1 8857   2.333   4.700  16.898 -0.2085  0.2008  1.0812
  597TMC3    O2 8858   2.043   0.271  16.533  0.3554  0.4643 -0.0125
  598TMC3    C1 8859   0.943   1.630  15.599  0.6666 -0.3619  0.4095
  598TMC3    C2 8860   0.901   1.511  15.642  0.0082 -0.3604  0.0853
  598TMC3    C3 8861   0.872   1.411  15.554 -0.4087  0.8116  0.2079
  598TMC3    C4 8862   0.944   1.666  15.467 -0.2329 -0.6135 -0.0900
  598TMC3    C5 8863   0.899   1.566  15.381  0.0088 -0.2500 -0.4082
  598TMC3    C6 8864   0.859   1.441  15.421  0.2053 -0.1782  0.7186
  598TMC3     C 8865   0.968   1.728  15.698  0.1490  0.6579  0.6818
  598TMC3     O 8866   1.010   1.840  15.668  0.1455 -0.0004  0.9864
  598TMC3     H 8867   0.910   1.480  15.746  1.4391  0.7344  0.2892
  598TMC3    H1 8868   0.973   1.767  15.440 -0.0379 -1.0594 -1.5310
  598TMC3    H2 8869   0.827   1.365  15.350 -2.3251  1.8516 -0.3170
  598TMC3    C7 8870   0.875   1.600  15.247  1.1534  1.0340 -0.0310
  598TMC3    C8 8871   0.805   1.294  15.602 -0.5386 -0.4609 -0.8414
  598TMC3    O1 8872   0.795   1.526  15.191  0.4096  0.3314  0.4523
  598TMC3    O2 8873   0.726   1.308  15.691 -0.0475 -0.2659  0.1261
  599MPD2     C 8874   0.556   2.707  16.272  0.9753  0.6067  0.3689
  599MPD2    C1 8875   0.566   2.845  16.244 -1.0657  0.8038 -0.0073
  599MPD2    C2 8876   0.487   2.926  16.319  0.1648 -0.3129  0.1654
  599MPD2    C3 8877   0.405   2.876  16.423  0.0708  0.2809  0.0403
  599MPD2    C4 8878   0.389   2.743  16.444 -0.5023 -0.2276 -0.1895
  599MPD2    C5 8879   0.465   2.659  16.365  0.1074  0.4390 -0.6777
  599MPD2     H 8880   0.503   3.033  16.314 -0.5622 -0.1382  1.4499
  599MPD2    H1 8881   0.343   2.704  16.535 -0.3580  3.3234  1.4027
  599MPD2    H2 8882   0.621   2.633  16.225  0.0426 -1.2085  1.9281
  599MPD2    H3 8883   0.473   2.555  16.395 -0.4624  0.7007  0.3724
  599MPD2     N 8884   0.346   2.957  16.519 -0.0363 -0.0701 -0.2788
  599MPD2    H5 8885   0.281   2.914  16.584 -2.5683 -0.5054 -3.1344
  599MPD2    N1 8886   0.677   2.881  16.166 -1.1465  0.5179  0.3595
  599MPD2    H7 8887   0.729   2.804  16.126 -1.6056  1.7456 -2.5801
  600TMC3    C1 8888   0.290   3.134  16.650 -0.4206  0.5173  0.2254
  600TMC3    C2 8889   0.172   3.074  16.679  0.4942  0.0264  0.5494
  600TMC3    C3 8890   0.101   3.120  16.787 -0.1361 -0.6216  0.7206
  600TMC3    C4 8891   0.344   3.234  16.733 -0.8176  0.2726 -0.2030
  600TMC3    C5 8892   0.279   3.268  16.848 -0.1283  0.3491  0.3390
  600TMC3    C6 8893   0.161   3.204  16.877  0.2936 -0.2978  0.1802
  600TMC3     C 8894   0.360   3.092  16.536  0.4583  0.1236 -0.5334
  600TMC3     O 8895   0.447   3.169  16.496  0.1583 -0.3966  0.5184
  600TMC3     H 8896   0.121   3.009  16.610 -0.4909  0.8064  0.5388
  600TMC3    H1 8897   0.448   3.262  16.720 -0.4503 -0.8041  0.4554
  600TMC3    H2 8898   0.102   3.233  16.963  1.4720 -1.2815  1.3267
  600TMC3    C7 8899   0.303   3.403  16.916 -0.0313  0.9530 -0.4053
  600TMC3    C8 8900   4.702   3.054  16.815 -0.1316 -0.2105 -0.0203
  600TMC3    O1 8901   0.217   3.434  16.997  0.0912  0.4193  0.0884
  600TMC3    O2 8902   4.660   3.070  16.929 -0.0598 -0.2783  0.3426
  601MPD2     C 8903   3.329   1.289   0.341  0.0604 -0.4667  0.2232
  601MPD2    C1 8904   3.197   1.327   0.344  0.3150 -0.3953  0.1194
  601MPD2    C2 8905   3.112   1.244   0.419  0.6194 -0.6952 -0.0356
  601MPD2    C3 8906   3.155   1.127   0.479 -0.7634 -0.4366  0.6914
  601MPD2    C4 8907   3.284   1.093   0.469  0.2856  0.2689 -0.2292
  601MPD2    C5 8908   3.374   1.179   0.405 -0.6592 -0.4345 -0.4722
  601MPD2     H 8909   3.012   1.285   0.414  1.8848  2.2101 -1.6727
  601MPD2    H1 8910   3.324   1.000   0.508 -1.2111 -0.9551 -1.6127
  601MPD2    H2 8911   3.394   1.357   0.287  1.0767 -1.0061  0.7670
  601MPD2    H3 8912   3.477   1.148   0.393 -0.8325 -1.3004  0.2970
  601MPD2     N 8913   3.063   1.037   0.544  0.3205  0.3167  0.7431
  601MPD2    H5 8914   3.098   0.951   0.585 -0.3975  0.2366  1.1953
  601MPD2    N1 8915   3.146   1.441   0.280 -0.2157 -0.2755  0.2825
  601MPD2    H7 8916   3.046   1.458   0.286 -0.2671 -0.9303  1.3076
  602TMC3    C1 8917   3.135   1.612   0.114  0.6369  0.1204  0.2076
  602TMC3    C2 8918   3.199   1.705   0.028 -0.0488 -0.1588  0.1691
  602TMC3    C3 8919   3.118   1.776  17.638  0.1602 -0.0605 -0.1680
  602TMC3    C4 8920   3.001   1.593   0.119  0.1059  0.5324  0.0616
  602TMC3    C5 8921   2.927   1.682   0.044  0.1102  0.1639 -0.0255
  602TMC3    C6 8922   2.983   1.777  17.655  0.5157  0.3574  0.1226
  602TMC3     C 8923   3.221   1.531   0.201 -0.3884  0.1301  0.2291
  602TMC3     O 8924   3.339   1.532   0.178 -0.1422  0.1813 -0.2671
  602TMC3     H 8925   3.304   1.728   0.038 -0.0034  0.8712 -2.6927
  602TMC3    H1 8926   2.955   1.502   0.154 -0.1122  0.5308 -0.2262
  602TMC3    H2 8927   2.928   1.860  17.612 -1.7529 -2.1371 -1.7817
  602TMC3    C7 8928   2.788   1.636   0.010 -0.7787  0.2691 -0.3691
  602TMC3    C8 8929   3.170   1.892  17.557 -0.8122 -0.4301 -0.2759
  602TMC3    O1 8930   2.728   1.570   0.091 -0.2659 -0.3960  0.2629
  602TMC3    O2 8931   3.265   1.962  17.588 -0.1675  0.4998 -0.7904
  603TMC3    C1 8932   1.106   2.076  10.708  0.3912 -0.0337  0.7165
  603TMC3    C2 8933   1.124   2.126  10.838 -0.0360  0.4491  0.7115
  603TMC3    C3 8934   1.101   2.255  10.856 -0.8712  0.5580  0.1749
  603TMC3    C4 8935   1.073   2.153  10.602  0.3814  0.0535 -0.1224
  603TMC3    C5 8936   1.061   2.286  10.629 -0.3012  0.3273 -0.6166
  603TMC3    C6 8937   1.074   2.341  10.753 -0.4633  0.1421  0.5187
  603TMC3     C 8938   1.129   1.934  10.677 -0.3125  0.0733 -0.2434
  603TMC3     O 8939   1.197   1.870  10.758 -0.0053 -0.3460  0.4021
  603TMC3     H 8940   1.168   2.074  10.923  0.2228 -0.5683 -0.0564
  603TMC3    H1 8941   1.071   2.129  10.496 -0.3288  0.8402 -0.2933
  603TMC3    H2 8942   1.082   2.449  10.765  1.1560  0.0798  0.0235
  603TMC3    C7 8943   1.036   2.371  10.509 -0.6530 -0.2368  0.0791
  603TMC3    C8 8944   1.120   2.320  10.991  0.4272  0.1917  0.3269
  603TMC3    O1 8945   1.103   2.470  10.510 -0.2555  0.7426 -0.4463
  603TMC3    O2 8946   1.159   2.251  11.080 -0.2023 -0.6436 -0.2581
  604MPD2     C 8947   0.943   0.751  16.077 -0.5337  0.2549 -0.3012
  604MPD2    C1 8948   1.036   0.853  16.095  0.3933  0.2678  0.0021
  604MPD2    C2 8949   1.118   0.887  15.990  0.3256  0.7257 -0.1195
  604MPD2    C3 8950   1.124   0.806  15.877  0.1243  0.1178  0.3954
  604MPD2    C4 8951   1.048   0.689  15.870  0.5973  0.0345  0.1783
  604MPD2    C5 8952   0.945   0.677  15.967  0.4048 -0.3874 -1.0513
  604MPD2     H 8953   1.189   0.970  15.991  1.6571 -0.3957 -1.6170
  604MPD2    H1 8954   1.053   0.616  15.789 -1.0533  0.2727 -0.1376
  604MPD2    H2 8955   0.876   0.719  16.156  1.1283 -2.3565  0.0356
  604MPD2    H3 8956   0.872   0.597  15.962 -1.3118  1.0065  1.5954
  604MPD2     N 8957   1.212   0.855  15.775  0.3263 -0.0942 -0.3259
  604MPD2    H5 8958   1.263   0.941  15.793 -1.3629  0.8979 -0.2331
  604MPD2    N1 8959   1.041   0.918  16.222  0.5350 -0.0400 -0.7111
  604MPD2    H7 8960   0.978   0.889  16.296  0.8263  1.5333  0.1487
  605TMC3    C1 8961   1.103   1.067  16.381  0.8708  0.0128 -0.1011
  605TMC3    C2 8962   1.214   1.107  16.447 -0.1425 -0.3043  0.5748
  605TMC3    C3 8963   1.199   1.189  16.558 -0.7446  0.4871 -0.2348
  605TMC3    C4 8964   0.977   1.120  16.413  0.1698 -0.2800 -1.1118
  605TMC3    C5 8965   0.969   1.216  16.506 -0.1209  0.3788 -0.6431
  605TMC3    C6 8966   1.080   1.243  16.587  0.4182 -0.2447 -0.5533
  605TMC3     C 8967   1.121   1.024  16.251  0.3642  0.3783  0.2094
  605TMC3     O 8968   1.224   1.056  16.199  0.4105 -1.0313  0.2239
  605TMC3     H 8969   1.315   1.073  16.427  0.7373  1.9701  1.1313
  605TMC3    H1 8970   0.898   1.115  16.339 -0.3184 -0.4814 -0.5686
  605TMC3    H2 8971   1.068   1.296  16.681  0.3186  0.0146 -0.7100
  605TMC3    C7 8972   0.842   1.286  16.508  0.1588 -0.4695  0.6295
  605TMC3    C8 8973   1.315   1.217  16.640  0.5299  0.4666  0.4812
  605TMC3    O1 8974   0.752   1.240  16.439  0.3366  0.1234  0.2960
  605TMC3    O2 8975   1.418   1.163  16.599 -0.1984 -0.8551 -0.7406
  606TMC3    C1 8976   2.614   4.431  17.312  0.0217  0.4593 -0.1210
  606TMC3    C2 8977   2.544   4.399  17.420 -0.3137 -0.4192  0.5295
  606TMC3    C3 8978   2.535   4.266  17.452  0.6627 -0.0316  0.0099
  606TMC3    C4 8979   2.652   4.347  17.206 -0.1659 -0.6502 -0.6537
  606TMC3    C5 8980   2.638   4.215  17.241 -0.4799  0.1404  0.4275
  606TMC3    C6 8981   2.592   4.172  17.366 -0.3737  0.6121 -0.0274
  606TMC3     C 8982   2.620   4.573  17.286  0.3912  0.7455 -0.0337
  606TMC3     O 8983   2.523   4.637  17.324 -0.0560  0.0698  0.5053
  606TMC3     H 8984   2.505   4.472  17.489 -0.9294 -0.5894  0.3643
  606TMC3    H1 8985   2.705   4.381  17.118 -0.7903 -0.6807 -1.0339
  606TMC3    H2 8986   2.595   4.069  17.398 -1.0704 -0.6419 -4.0508
  606TMC3    C7 8987   2.676   4.111  17.142 -0.0823  0.0290  0.3568
  606TMC3    C8 8988   2.515   4.208  17.586  0.7757 -0.0843 -0.1271
  606TMC3    O1 8989   2.736   4.143  17.040 -0.4863  0.1789  0.0415
  606TMC3    O2 8990   2.482   4.091  17.599 -0.7030  0.0166 -0.1170
  607MPD2     C 8991   4.634   2.429  11.451 -0.0990 -0.6410  0.4725
  607MPD2    C1 8992   4.646   2.532  11.542 -0.4275  0.1607  0.0223
  607MPD2    C2 8993   4.611   2.501  11.672 -0.0619  0.0810  0.0070
  607MPD2    C3 8994   4.588   2.376  11.713 -0.1522  0.0631 -0.1067
  607MPD2    C4 8995   4.569   2.275  11.620 -0.2482  0.0914  0.6678
  607MPD2    C5 8996   4.587   2.306  11.491  0.0101 -0.3278 -0.0321
  607MPD2     H 8997   4.613   2.576  11.750  0.2073  0.5541 -0.4495
  607MPD2    H1 8998   4.537   2.178  11.654 -1.7980  0.8588  1.4059
  607MPD2    H2 8999   4.649   2.445  11.345 -0.3730  1.0033  0.6924
  607MPD2    H3 9000   4.564   2.246  11.404  1.5964  2.3505 -2.3002
  607MPD2     N 9001   4.582   2.356  11.851  0.2034 -0.4306 -0.0343
  607MPD2    H5 9002   4.590   2.444  11.902 -1.7434 -1.2925  1.7294
  607MPD2    N1 9003   4.689   2.663  11.516 -0.0132  0.2950 -0.0163
  607MPD2    H7 9004   4.693   2.726  11.596  1.9257  0.1406 -0.0072
  608TMC3    C1 9005   0.062   2.851  11.403 -0.2667 -0.7970  0.2906
  608TMC3    C2 9006   0.060   2.908  11.530  0.2425 -0.0063 -0.3007
  608TMC3    C3 9007   0.165   2.992  11.562 -0.8137  0.0758 -0.7603
  608TMC3    C4 9008   0.166   2.869  11.316  0.3780  0.1748 -0.1786
  608TMC3    C5 9009   0.263   2.954  11.357  0.2979 -0.5390  0.2548
  608TMC3    C6 9010   0.263   3.017  11.473 -0.1238  1.4200 -0.2541
  608TMC3     C 9011   0.004   2.713  11.391  0.4014  0.1260  0.0065
  608TMC3     O 9012   4.717   2.656  11.285  0.2335 -0.1769  0.6110
  608TMC3     H 9013   4.700   2.897  11.600 -0.0249  2.6836 -0.1813
  608TMC3    H1 9014   0.177   2.812  11.224 -0.7448 -1.0809  0.4434
  608TMC3    H2 9015   0.341   3.090  11.487  0.8417  0.8423 -2.6395
  608TMC3    C7 9016   0.388   2.938  11.286  0.5763 -0.3467 -0.2179
  608TMC3    C8 9017   0.173   3.040  11.701  0.0394 -0.0428  0.0406
  608TMC3    O1 9018   0.383   2.886  11.176 -0.2183 -1.0497 -0.2550
  608TMC3    O2 9019   0.182   3.162  11.708  0.2050  0.0493 -0.2609
  609TMC3    C1 9020   4.229   0.919   9.451  0.3854  0.1047 -0.7684
  609TMC3    C2 9021   4.206   0.903   9.315 -0.1349  0.4028 -0.5067
  609TMC3    C3 9022   4.240   0.789   9.255 -0.6025 -0.1276  0.0251
  609TMC3    C4 9023   4.278   0.818   9.519 -0.1562  0.0641  0.0273
  609TMC3    C5 9024   4.306   0.697   9.457 -0.5381 -0.4884 -0.6686
  609TMC3    C6 9025   4.290   0.680   9.321  0.1512  0.0302 -0.7168
  609TMC3     C 9026   4.179   1.047   9.516 -0.4206  0.1755  0.3043
  609TMC3     O 9027   4.092   1.112   9.455  1.4408 -0.0825 -0.3080
  609TMC3     H 9028   4.173   0.985   9.252  0.4853  1.3276  0.3560
  609TMC3    H1 9029   4.299   0.826   9.625 -1.0664 -0.6257  0.2604
  609TMC3    H2 9030   4.301   0.583   9.273 -0.0952  0.4167 -1.5588
  609TMC3    C7 9031   4.375   0.595   9.542  0.1333 -0.9809  0.1960
  609TMC3    C8 9032   4.235   0.773   9.116 -1.0520 -0.0637  0.4279
  609TMC3    O1 9033   4.415   0.642   9.649 -0.6327 -0.6661 -0.3143
  609TMC3    O2 9034   4.312   0.687   9.074 -0.1854 -0.0323 -0.1664
  610TMC3    C1 9035   0.198   2.285  12.553 -0.1253 -0.8180 -0.6856
  610TMC3    C2 9036   0.238   2.398  12.493  0.2056  0.2480  0.2128
  610TMC3    C3 9037   0.369   2.426  12.481  0.1485 -0.5516  0.5047
  610TMC3    C4 9038   0.289   2.194  12.604  0.0465  0.0536 -0.4949
  610TMC3    C5 9039   0.424   2.228  12.590  0.3893  0.1494  0.1968
  610TMC3    C6 9040   0.464   2.340  12.524  0.6162 -0.7677 -0.2560
  610TMC3     C 9041   0.064   2.238  12.533  0.4128 -0.1772  0.5431
  610TMC3     O 9042   0.055   2.125  12.489  0.7216 -0.2284 -0.0949
  610TMC3     H 9043   0.160   2.455  12.443 -0.0722 -0.5276 -0.2335
  610TMC3    H1 9044   0.264   2.091  12.625  1.4694 -0.6836 -2.4565
  610TMC3    H2 9045   0.570   2.360  12.513  0.5371 -1.1241 -1.6676
  610TMC3    C7 9046   0.523   2.124  12.617  0.3082 -0.0437  0.5962
  610TMC3    C8 9047   0.398   2.550  12.422 -0.9316  0.4469  0.5011
  610TMC3    O1 9048   0.637   2.159  12.650 -0.4300 -0.4746 -0.1217
  610TMC3    O2 9049   0.307   2.631  12.431  0.5335  0.8872  0.2771
  611MPD2     C 9050   4.491   2.416  10.342  0.3674 -0.3019 -0.4077
  611MPD2    C1 9051   4.578   2.321  10.374  0.2398  0.7112  0.3244
  611MPD2    C2 9052   4.686   2.297  10.289  0.3457 -0.2167 -0.3722
  611MPD2    C3 9053   4.700   2.381  10.178 -0.6437 -0.0801  0.5430
  611MPD2    C4 9054   4.613   2.479  10.155  0.5329 -0.0740 -0.2697
  611MPD2    C5 9055   4.507   2.499  10.238  0.1433 -0.3736 -0.3763
  611MPD2     H 9056   0.037   2.217  10.299  0.2122 -0.2389  0.4616
  611MPD2    H1 9057   4.640   2.557  10.084  2.5595  0.3404  0.9534
  611MPD2    H2 9058   4.419   2.448  10.417  0.9559  0.2454 -0.0696
  611MPD2    H3 9059   4.434   2.577  10.218 -1.4005 -1.2766  1.7157
  611MPD2     N 9060   0.081   2.366  10.081 -0.1274 -0.2384  0.0132
  611MPD2    H5 9061   0.088   2.439  10.011 -1.6532 -0.6983 -0.6388
  611MPD2    N1 9062   4.536   2.239  10.481 -0.3360 -0.4622 -0.3848
  611MPD2    H7 9063   4.445   2.251  10.525  0.1617 -0.1821  0.5773
  612TMC3    C1 9064   0.268   2.318   9.968 -0.3644 -0.4756  0.8842
  612TMC3    C2 9065   0.405   2.311   9.997  0.0881  0.4074  0.1069
  612TMC3    C3 9066   0.488   2.332   9.890 -0.4173  0.6786  0.8773
  612TMC3    C4 9067   0.214   2.362   9.846  0.1593 -0.4066 -0.3879
  612TMC3    C5 9068   0.296   2.385   9.748 -0.2049  0.6293 -0.5615
  612TMC3    C6 9069   0.429   2.370   9.768  0.3431  0.1473  0.1422
  612TMC3     C 9070   0.179   2.278  10.076 -0.6001  0.0797 -0.2566
  612TMC3     O 9071   0.208   2.183  10.146  0.7629 -0.1401 -0.1261
  612TMC3     H 9072   0.438   2.283  10.097 -0.2555  0.2812  0.1854
  612TMC3    H1 9073   0.109   2.342   9.827 -0.1071  1.1112 -0.5279
  612TMC3    H2 9074   0.494   2.376   9.681 -0.2157 -3.3965 -0.5200
  612TMC3    C7 9075   0.249   2.452   9.629  0.1332 -0.3916 -0.8959
  612TMC3    C8 9076   0.617   2.385   9.921 -0.1203  1.2269  0.3772
  612TMC3    O1 9077   0.313   2.446   9.527 -0.0989 -0.1571 -0.3615
  612TMC3    O2 9078   0.664   2.458   9.835 -0.0245 -0.0926  0.2980
  613MPD2     C 9079   3.393   4.100  16.581 -0.8297  0.0571 -0.4305
  613MPD2    C1 9080   3.381   4.094  16.449  0.3251 -0.0321  0.3930
  613MPD2    C2 9081   3.347   3.978  16.390  0.7263 -0.0968 -0.1470
  613MPD2    C3 9082   3.320   3.860  16.456  0.1889 -0.5511  0.2296
  613MPD2    C4 9083   3.344   3.856  16.590 -0.4469 -0.4207 -0.2830
  613MPD2    C5 9084   3.379   3.981  16.650 -0.3847  0.7759  0.1523
  613MPD2     H 9085   3.335   3.984  16.282  0.8521  0.9755 -0.1010
  613MPD2    H1 9086   3.323   3.770  16.652 -0.9075  0.7589  1.2048
  613MPD2    H2 9087   3.403   4.195  16.633  0.3534 -0.9141  1.0993
  613MPD2    H3 9088   3.394   3.980  16.758  0.1598 -2.2068  0.0489
  613MPD2     N 9089   3.283   3.746  16.388 -0.4449  0.0812  0.0835
  613MPD2    H5 9090   3.300   3.657  16.434  0.6739  0.2080 -0.0816
  613MPD2    N1 9091   3.417   4.218  16.373 -0.8340 -0.1801 -0.5992
  613MPD2    H7 9092   3.465   4.288  16.427  0.0609 -0.0341 -1.5925
  614TMC3    C1 9093   3.465   4.337  16.177 -0.8161 -0.2329 -0.0622
  614TMC3    C2 9094   3.589   4.285  16.156 -0.7840 -0.9262  0.0122
  614TMC3    C3 9095   3.639   4.255  16.032  0.0088 -0.0476  0.1244
  614TMC3    C4 9096   3.397   4.375  16.068 -0.3042  0.4060 -0.5316
  614TMC3    C5 9097   3.445   4.339  15.945  0.2897 -0.0783  0.5244
  614TMC3    C6 9098   3.571   4.297  15.916  0.2640 -0.7776 -0.2403
  614TMC3     C 9099   3.383   4.239  16.239 -0.0367  0.4730 -0.0875
  614TMC3     O 9100   3.318   4.169  16.165 -0.1964 -1.2725 -0.2420
  614TMC3     H 9101   3.631   4.253  16.251  0.0945  3.2833  1.0432
  614TMC3    H1 9102   3.291   4.395  16.076  0.0718  2.8022 -1.4957
  614TMC3    H2 9103   3.598   4.266  15.816 -1.5108 -1.2095 -0.5781
  614TMC3    C7 9104   3.364   4.391  15.831  0.0153  0.9551  0.3576
  614TMC3    C8 9105   3.718   4.138  16.038  0.1255  0.0654 -0.9544
  614TMC3    O1 9106   3.299   4.491  15.851 -0.0133  0.2800 -0.1057
  614TMC3    O2 9107   3.743   4.082  16.144  0.2738 -0.5309 -0.3089
  615MPD2     C 9108   2.814   0.497  16.045 -0.1772  0.0102  0.2452
  615MPD2    C1 9109   2.708   0.578  16.076  0.2747 -0.3787 -0.0848
  615MPD2    C2 9110   2.587   0.565  16.009  0.4443  0.1828 -0.0238
  615MPD2    C3 9111   2.580   0.472  15.903  0.6229  0.1124  0.2353
  615MPD2    C4 9112   2.687   0.392  15.873 -0.8460 -0.2190  0.4661
  615MPD2    C5 9113   2.801   0.409  15.944  0.1217 -0.0849  0.8085
  615MPD2     H 9114   2.508   0.632  16.041  1.5016  1.2744  0.3376
  615MPD2    H1 9115   2.690   0.315  15.797  0.7612 -0.9677  1.2834
  615MPD2    H2 9116   2.899   0.481  16.110 -0.7832 -0.9950  0.7952
  615MPD2    H3 9117   2.877   0.333  15.943  0.1543 -0.0481  0.0925
  615MPD2     N 9118   2.459   0.446  15.830 -0.3100  0.5307 -0.5978
  615MPD2    H5 9119   2.468   0.374  15.758  2.3126  2.6208 -2.3608
  615MPD2    N1 9120   2.711   0.679  16.171  0.3900  0.2077 -0.9535
  615MPD2    H7 9121   2.634   0.744  16.178 -0.2782 -0.4254 -2.4603
  616TMC3    C1 9122   2.794   0.805  16.363  0.2855  0.0209  0.4779
  616TMC3    C2 9123   2.830   0.780  16.497 -0.2176  0.5869  0.3935
  616TMC3    C3 9124   2.817   0.881  16.591  0.5020  0.0369  0.2036
  616TMC3    C4 9125   2.739   0.925  16.334  0.2521  0.3225  0.2522
  616TMC3    C5 9126   2.715   1.017  16.435  0.3744 -0.0292 -1.0009
  616TMC3    C6 9127   2.752   1.001  16.565  0.1979 -0.2852 -0.5228
  616TMC3     C 9128   2.814   0.701  16.260  0.0736  0.0839 -0.0072
  616TMC3     O 9129   2.920   0.638  16.279 -0.1315  0.2534 -0.5502
  616TMC3     H 9130   2.880   0.687  16.522 -0.2312  0.0758 -1.4463
  616TMC3    H1 9131   2.691   0.942  16.238  0.6098 -0.8132 -0.1351
  616TMC3    H2 9132   2.736   1.085  16.632  0.4416 -0.9462  0.3544
  616TMC3    C7 9133   2.624   1.135  16.416 -0.0695  1.2683  0.1209
  616TMC3    C8 9134   2.899   0.882  16.710 -0.5602 -0.1844  0.2006
  616TMC3    O1 9135   2.547   1.172  16.504 -0.2115 -0.0535 -0.5338
  616TMC3    O2 9136   2.857   0.946  16.804 -0.1366  0.2061  0.1017
  617MPD2     C 9137   1.085   4.247  13.853  0.3123 -0.3154  0.4682
  617MPD2    C1 9138   1.141   4.130  13.895 -0.2009 -0.7128  0.4386
  617MPD2    C2 9139   1.058   4.024  13.930 -0.3486 -0.7637  0.2791
  617MPD2    C3 9140   0.922   4.038  13.923  0.0348  0.1195 -0.4052
  617MPD2    C4 9141   0.867   4.156  13.868 -0.0497  0.4550 -0.2425
  617MPD2    C5 9142   0.950   4.258  13.838  0.1001  0.1054 -0.0422
  617MPD2     H 9143   1.106   3.933  13.963 -0.6413 -1.2554 -0.6483
  617MPD2    H1 9144   0.763   4.157  13.840 -0.0774 -1.2770 -0.1447
  617MPD2    H2 9145   1.145   4.330  13.817 -0.8812  0.2908 -0.1348
  617MPD2    H3 9146   0.906   4.348  13.796  1.2874  1.0176  0.6818
  617MPD2     N 9147   0.829   3.936  13.944  0.8276  0.0158  0.0322
  617MPD2    H5 9148   0.732   3.958  13.929  0.1818 -1.1788  2.3755
  617MPD2    N1 9149   1.278   4.105  13.887  0.4098 -0.0102 -0.5292
  617MPD2    H7 9150   1.313   4.011  13.900  0.8026  0.4132  1.3948
  618TMC3    C1 9151   1.504   4.147  13.820  0.3504 -0.8363 -0.1124
  618TMC3    C2 9152   1.522   4.012  13.795  0.0567  0.2504 -0.0282
  618TMC3    C3 9153   1.648   3.968  13.786  0.4827 -0.6298  0.9031
  618TMC3    C4 9154   1.609   4.242  13.815 -0.0613 -0.9615  0.1728
  618TMC3    C5 9155   1.733   4.192  13.794  0.4258  0.1948 -0.1464
  618TMC3    C6 9156   1.751   4.058  13.790  0.3398 -0.5659  0.0550
  618TMC3     C 9157   1.373   4.202  13.855 -0.5301 -0.4161 -0.2831
  618TMC3     O 9158   1.364   4.327  13.857 -0.0707 -0.1384  0.1078
  618TMC3     H 9159   1.449   3.934  13.807  1.1521 -0.7993 -0.1949
  618TMC3    H1 9160   1.591   4.345  13.842  1.4870  0.1319 -3.0002
  618TMC3    H2 9161   1.848   4.024  13.753  0.0253  0.1943 -1.4759
  618TMC3    C7 9162   1.809   4.261  13.695  0.0445 -0.4051  0.0265
  618TMC3    C8 9163   1.659   3.851  13.697 -0.3449 -0.6836 -0.1591
  618TMC3    O1 9164   1.894   4.331  13.742  0.1563  0.7580 -0.4228
  618TMC3    O2 9165   1.558   3.819  13.633 -0.0125  0.2559 -0.2949
  619MPD2     C 9166   2.716   4.461  13.614 -0.1781 -0.5337 -0.0085
  619MPD2    C1 9167   2.700   4.586  13.556  0.1255 -0.1879 -0.0746
  619MPD2    C2 9168   2.568   4.637  13.553  0.2562  0.7024 -0.0551
  619MPD2    C3 9169   2.455   4.565  13.590 -0.4556  0.4854 -0.0186
  619MPD2    C4 9170   2.482   4.438  13.653 -0.4066  0.5572  0.1483
  619MPD2    C5 9171   2.609   4.384  13.659  0.0283  0.9674  0.3109
  619MPD2     H 9172   2.556   0.007  13.496 -2.4205  0.1746 -0.3347
  619MPD2    H1 9173   2.405   4.376  13.696 -0.0158  1.2859  1.9283
  619MPD2    H2 9174   2.812   4.411  13.609  0.2249  0.6902 -4.5718
  619MPD2    H3 9175   2.627   4.281  13.687 -0.0902  1.6708  2.9811
  619MPD2     N 9176   2.324   4.614  13.587  0.9426 -0.0929 -0.1338
  619MPD2    H5 9177   2.255   4.555  13.632  1.3925  0.0352  0.7216
  619MPD2    N1 9178   2.813   4.658  13.496  0.1698 -0.0160  0.6281
  619MPD2    H7 9179   2.795   0.021  13.442 -0.5760 -1.0634 -0.7671
  620TMC3    C1 9180   3.033   0.014  13.472 -0.0748 -0.1291 -0.0918
  620TMC3    C2 9181   3.043   0.032  13.335  0.5036  0.4832  0.0947
  620TMC3    C3 9182   3.101   0.152  13.300  0.0195 -0.1859  0.3682
  620TMC3    C4 9183   3.076   0.100  13.565 -0.2650  0.2782  0.2577
  620TMC3    C5 9184   3.143   0.221  13.526  0.0415 -0.4651  0.1776
  620TMC3    C6 9185   3.163   0.235  13.391 -0.0567 -0.5742  0.2870
  620TMC3     C 9186   2.943   4.625  13.518  0.1772  0.2949 -0.5398
  620TMC3     O 9187   2.998   4.540  13.587 -0.1067  0.2672 -0.4271
  620TMC3     H 9188   3.002   4.687  13.260  1.4583 -1.1838  1.0400
  620TMC3    H1 9189   3.066   0.076  13.671 -3.4298 -1.5979 -0.5068
  620TMC3    H2 9190   3.196   0.333  13.357 -2.8803  0.2653 -0.0740
  620TMC3    C7 9191   3.089   0.340  13.582 -0.0139  0.0976 -0.7903
  620TMC3    C8 9192   3.044   0.221  13.189 -0.4667  0.5074  0.4912
  620TMC3    O1 9193   3.005   0.392  13.508  0.5378 -0.0870  0.2827
  620TMC3    O2 9194   3.033   0.162  13.084 -0.1751 -0.1315 -0.5183
  621MPD2     C 9195   3.013   0.486   9.785 -0.2832 -0.4512 -0.2539
  621MPD2    C1 9196   2.996   0.593   9.867  0.1334 -0.2468  0.0759
  621MPD2    C2 9197   3.102   0.682   9.883  0.4503  0.6001  0.0461
  621MPD2    C3 9198   3.221   0.673   9.821  0.1532  0.3197 -0.0939
  621MPD2    C4 9199   3.238   0.560   9.743 -0.2285  0.3994 -0.4147
  621MPD2    C5 9200   3.134   0.468   9.725 -0.4931  0.0800  0.4200
  621MPD2     H 9201   3.092   0.764   9.952  1.7845  1.8279 -1.2043
  621MPD2    H1 9202   3.334   0.530   9.704 -0.0911 -0.0317  0.2534
  621MPD2    H2 9203   2.940   0.410   9.759  1.0162 -1.4688 -0.9163
  621MPD2    H3 9204   3.155   0.368   9.690  0.2040  0.7268 -1.0142
  621MPD2     N 9205   3.323   0.768   9.859  0.4360 -0.6640  0.3475
  621MPD2    H5 9206   3.295   0.852   9.908 -0.0246  0.8510 -2.4948
  621MPD2    N1 9207   2.876   0.623   9.943 -1.0111  0.0187  0.0199
  621MPD2    H7 9208   2.876   0.718   9.978 -0.8565 -0.1052  0.3568
  622TMC3    C1 9209   2.656   0.586  10.020  0.0287  0.8639 -0.3181
  622TMC3    C2 9210   2.605   0.706   9.993 -0.1203 -0.2157 -0.4386
  622TMC3    C3 9211   2.476   0.727  10.022  0.2871 -0.1210  0.0311
  622TMC3    C4 9212   2.583   0.486  10.074 -0.2187 -0.2772 -0.2890
  622TMC3    C5 9213   2.452   0.507  10.109 -0.3841  0.2929  0.0148
  622TMC3    C6 9214   2.396   0.628  10.077 -0.4742 -0.1890  0.0736
  622TMC3     C 9215   2.772   0.533   9.952  0.3592 -0.0970 -0.8590
  622TMC3     O 9216   2.763   0.425   9.899 -0.4291  0.5784  0.2525
  622TMC3     H 9217   2.669   0.781   9.948  0.6318 -0.4506  0.2390
  622TMC3    H1 9218   2.640   0.394  10.083  1.3075  0.5398 -1.6752
  622TMC3    H2 9219   2.294   0.645  10.107 -0.4349  2.7364 -1.4005
  622TMC3    C7 9220   2.362   0.394  10.131 -0.1347 -0.0634 -0.4116
  622TMC3    C8 9221   2.399   0.838   9.968  0.7132  0.4015  0.2757
  622TMC3    O1 9222   2.244   0.425  10.115  0.4243  0.2596  0.3241
  622TMC3    O2 9223   2.280   0.850  10.001  0.5953  0.1292 -0.0921
  623MPD2     C 9224   1.820   1.682  16.196  0.1478 -0.2923 -0.5644
  623MPD2    C1 9225   1.726   1.620  16.284  0.2823 -0.1884 -0.1424
  623MPD2    C2 9226   1.777   1.552  16.395 -0.0202  0.1189  0.1539
  623MPD2    C3 9227   1.914   1.537  16.404  0.2993  0.0096  0.0263
  623MPD2    C4 9228   2.002   1.585  16.317  0.1781  0.1238  0.6884
  623MPD2    C5 9229   1.954   1.653  16.206 -0.3843 -0.2101 -0.2216
  623MPD2     H 9230   1.726   1.505  16.478  0.3964  0.2572  0.4859
  623MPD2    H1 9231   2.109   1.570  16.323  0.3731  0.8677 -0.7723
  623MPD2    H2 9232   1.779   1.731  16.108  0.3330 -0.9314 -1.0022
  623MPD2    H3 9233   2.023   1.678  16.127 -2.5148 -0.2053 -2.0745
  623MPD2     N 9234   1.956   1.468  16.525  0.2199  0.5737 -0.0293
  623MPD2    H5 9235   1.885   1.449  16.595 -1.8063 -3.0384 -3.0837
  623MPD2    N1 9236   1.585   1.624  16.280 -0.1684 -0.0792 -0.3717
  623MPD2    H7 9237   1.534   1.580  16.355  0.5933  1.7000  1.2072
  624TMC3    C1 9238   2.129   1.118  16.755  0.3098 -0.3825  0.4133
  624TMC3    C2 9239   2.017   1.113  16.836 -0.3764  0.4670 -0.4255
  624TMC3    C3 9240   1.942   1.226  16.838  0.4578  1.2234  0.2174
  624TMC3    C4 9241   2.167   1.224  16.678  0.4920 -0.1536  0.1283
  624TMC3    C5 9242   2.075   1.321  16.666 -0.1224  0.5599  0.1621
  624TMC3    C6 9243   1.964   1.326  16.753 -1.0595  0.1878 -0.2782
  624TMC3     C 9244   2.219   1.014  16.781  0.1225  0.0750  1.1399
  624TMC3     O 9245   2.206   0.963  16.895 -0.3177  0.0868 -0.0310
  624TMC3     H 9246   1.968   1.026  16.877  1.8223 -0.6924 -0.2909
  624TMC3    H1 9247   2.248   1.223  16.606 -2.9782 -0.3405 -3.7217
  624TMC3    H2 9248   1.897   1.410  16.763  1.4196  2.0695  0.3822
  624TMC3    C7 9249   2.076   1.411  16.548  0.3391 -0.2447  0.2329
  624TMC3    C8 9250   1.803   1.203  16.868 -0.4475  0.0971  0.0575
  624TMC3    O1 9251   2.175   1.422  16.479  0.6060  0.3204 -0.2256
  624TMC3    O2 9252   1.756   1.097  16.832  0.0290  0.5152 -0.0665
  625MPD2     C 9253   1.815   1.624   0.424  0.5106  0.7766 -0.6206
  625MPD2    C1 9254   1.925   1.703   0.447 -0.7184 -0.1869  0.2734
  625MPD2    C2 9255   2.010   1.670   0.549  0.2748  0.2003 -0.7089
  625MPD2    C3 9256   1.991   1.556   0.629 -0.3886 -0.2482 -0.4727
  625MPD2    C4 9257   1.872   1.486   0.616 -0.0560 -0.2819 -0.6159
  625MPD2    C5 9258   1.790   1.519   0.511  0.7392  0.7642 -0.5074
  625MPD2     H 9259   2.088   1.743   0.570  0.6062 -1.0358  2.2360
  625MPD2    H1 9260   1.841   1.398   0.671 -0.2162 -0.8732 -1.6485
  625MPD2    H2 9261   1.755   1.635   0.335  0.8270  2.0753 -0.6736
  625MPD2    H3 9262   1.701   1.458   0.500  1.7060 -0.9827  1.3612
  625MPD2     N 9263   2.080   1.527   0.727 -1.0430  0.8334 -0.2668
  625MPD2    H5 9264   2.158   1.591   0.729  0.4335 -1.0279  1.9607
  625MPD2    N1 9265   1.944   1.827   0.384  0.1458  0.3143 -0.4320
  625MPD2    H7 9266   2.037   1.868   0.390  0.1514  0.5024 -1.7270
  626TMC3    C1 9267   1.916   2.022   0.240 -0.9374  0.5030  0.2071
  626TMC3    C2 9268   1.854   2.088   0.137 -0.3465 -0.0191  0.1748
  626TMC3    C3 9269   1.893   2.221   0.108  0.0087 -0.2026  0.1416
  626TMC3    C4 9270   2.020   2.080   0.310  0.3847 -0.3183 -0.2528
  626TMC3    C5 9271   2.062   2.207   0.275 -0.4077  0.7013 -0.1126
  626TMC3    C6 9272   2.008   2.276   0.169 -0.3699 -0.5670 -0.1386
  626TMC3     C 9273   1.860   1.894   0.290  0.9112 -0.1703 -0.3385
  626TMC3     O 9274   1.749   1.854   0.252 -0.0653  0.5606  0.1584
  626TMC3     H 9275   1.775   2.043   0.078 -0.0058 -0.5327  0.1093
  626TMC3    H1 9276   2.045   2.057   0.413 -0.7351 -0.3960 -0.0005
  626TMC3    H2 9277   2.036   2.380   0.156 -2.9464  0.3051  1.2404
  626TMC3    C7 9278   2.156   2.268   0.364  0.2948  0.7533  0.2933
  626TMC3    C8 9279   1.828   2.310   0.008  0.2300 -0.1783  0.5813
  626TMC3    O1 9280   2.238   2.195   0.420 -0.6434 -0.3082  0.3444
  626TMC3    O2 9281   1.901   2.364  17.619 -0.5145 -0.9935  0.4094
  627MPD2     C 9282   0.796   2.646  14.432  0.5887  1.1629  0.1240
  627MPD2    C1 9283   0.768   2.624  14.565 -0.1836 -0.6552 -0.7893
  627MPD2    C2 9284   0.694   2.509  14.600  0.7043 -0.4569 -0.1483
  627MPD2    C3 9285   0.640   2.429  14.507 -0.3979  0.2525 -0.1743
  627MPD2    C4 9286   0.652   2.464  14.370  0.7426 -0.8450  0.4843
  627MPD2    C5 9287   0.742   2.567  14.337  0.1427 -0.0357  0.3406
  627MPD2     H 9288   0.667   2.498  14.705 -2.0907 -0.9958 -0.9274
  627MPD2    H1 9289   0.605   2.406  14.292  1.5816  0.3780 -0.9347
  627MPD2    H2 9290   0.868   2.716  14.391  0.6710 -0.1390 -1.9989
  627MPD2    H3 9291   0.762   2.587  14.232  1.0604 -2.3228  0.0874
  627MPD2     N 9292   0.540   2.337  14.551 -0.2407  0.2994 -0.0244
  627MPD2    H5 9293   0.513   2.332  14.648 -0.8289  2.0249 -0.1063
  627MPD2    N1 9294   0.846   2.692  14.662  0.6133 -0.2088 -0.4683
  627MPD2    H7 9295   0.843   2.656  14.757 -0.0496 -1.3938 -0.9408
  628TMC3    C1 9296   0.977   2.869  14.746  1.2055  0.8714 -0.4729
  628TMC3    C2 9297   1.103   2.828  14.761  0.1327  0.0014 -0.1097
  628TMC3    C3 9298   1.199   2.923  14.802 -0.1733 -0.3839 -0.4542
  628TMC3    C4 9299   0.937   2.993  14.784  0.1290  0.0338  0.5890
  628TMC3    C5 9300   1.034   3.085  14.811  0.2153  0.8262 -0.0836
  628TMC3    C6 9301   1.161   3.046  14.837  0.1309 -0.1497 -0.2225
  628TMC3     C 9302   0.895   2.818  14.639 -0.1579 -0.0200  0.5271
  628TMC3     O 9303   0.892   2.885  14.533  0.0375 -0.3031 -0.1924
  628TMC3     H 9304   1.130   2.724  14.744  0.3162 -0.3471  2.4206
  628TMC3    H1 9305   0.835   3.032  14.783 -0.0624 -0.5099 -0.2824
  628TMC3    H2 9306   1.231   3.129  14.844 -1.2464  1.0782 -1.0620
  628TMC3    C7 9307   0.989   3.224  14.826  0.3262  0.1141  0.9429
  628TMC3    C8 9308   1.341   2.903  14.763 -0.5868 -0.2659 -0.3177
  628TMC3    O1 9309   1.052   3.279  14.918  0.1452 -0.4939 -0.1942
  628TMC3    O2 9310   1.363   2.832  14.667  0.1821 -0.1768  0.3619
  629MPD2     C 9311   3.287   0.705  17.007  0.0423  0.4972 -0.5171
  629MPD2    C1 9312   3.306   0.667  16.883 -0.7477 -0.7332 -0.5647
  629MPD2    C2 9313   3.217   0.701  16.781  0.0765 -0.1811 -0.1777
  629MPD2    C3 9314   3.101   0.770  16.806 -0.8924 -0.2407 -0.8113
  629MPD2    C4 9315   3.075   0.798  16.935 -0.8445 -1.0968  0.7515
  629MPD2    C5 9316   3.171   0.772  17.034 -0.3650 -0.5110 -0.8127
  629MPD2     H 9317   3.229   0.673  16.677 -0.3383  0.8309 -0.5016
  629MPD2    H1 9318   2.990   0.853  16.972 -0.8947  0.6511 -2.0530
  629MPD2    H2 9319   3.356   0.681  17.088 -2.4273 -1.8669  0.8644
  629MPD2    H3 9320   3.156   0.800  17.137  1.7762 -0.9286 -0.3923
  629MPD2     N 9321   3.005   0.799  16.700  0.2401 -0.0893  0.3143
  629MPD2    H5 9322   3.025   0.757  16.609  0.3529 -3.1694  1.7363
  629MPD2    N1 9323   3.428   0.601  16.862  0.4162 -0.2520 -0.3136
  629MPD2    H7 9324   3.481   0.579  16.945 -1.7351 -1.3354  0.7665
  630TMC3    C1 9325   3.595   0.462  16.744 -0.6185 -0.8016 -0.2382
  630TMC3    C2 9326   3.655   0.438  16.621 -0.2845  1.0285  0.3993
  630TMC3    C3 9327   3.784   0.392  16.628 -0.8281  0.7191  0.4287
  630TMC3    C4 9328   3.663   0.428  16.859  0.3248  0.0969  0.4671
  630TMC3    C5 9329   3.782   0.362  16.853  0.0942 -0.3639  0.4076
  630TMC3    C6 9330   3.840   0.330  16.732 -0.4611  1.1113  0.5499
  630TMC3     C 9331   3.459   0.533  16.743  0.1817 -0.2263 -0.3536
  630TMC3     O 9332   3.403   0.540  16.634 -0.0784 -0.7958 -0.7330
  630TMC3     H 9333   3.608   0.465  16.527  0.3666  1.7132  0.2734
  630TMC3    H1 9334   3.618   0.443  16.957 -0.4484  2.9494 -0.3320
  630TMC3    H2 9335   3.937   0.283  16.724 -0.2891  1.7225 -0.9321
  630TMC3    C7 9336   3.862   0.388  16.973  0.2147 -0.7205 -0.3956
  630TMC3    C8 9337   3.880   0.437  16.532 -0.3178 -0.2182  0.2704
  630TMC3    O1 9338   3.841   0.495  17.032 -0.2526  0.1324  0.4275
  630TMC3    O2 9339   3.996   0.410  16.564  0.3011 -0.0737 -0.2810
  631MPD2     C 9340   1.704   1.088  15.548  0.0003 -0.3025 -0.2547
  631MPD2    C1 9341   1.809   1.085  15.460  0.1216 -0.2689  0.2525
  631MPD2    C2 9342   1.877   0.972  15.445 -0.2744 -0.4300 -0.0535
  631MPD2    C3 9343   1.849   0.862  15.518 -0.4676  0.0348  0.9399
  631MPD2    C4 9344   1.746   0.868  15.611 -0.4306  0.0675  0.0570
  631MPD2    C5 9345   1.681   0.977  15.618 -0.1748  0.1414  0.4830
  631MPD2     H 9346   1.966   0.973  15.383  1.3216 -1.7870  2.2064
  631MPD2    H1 9347   1.707   0.785  15.669  1.1143 -0.3563  0.4753
  631MPD2    H2 9348   1.640   1.173  15.572 -1.8527 -1.8241  0.1424
  631MPD2    H3 9349   1.597   0.990  15.685  0.2546  0.6175  0.9254
  631MPD2     N 9350   1.940   0.754  15.511  0.1333  0.7063  0.1401
  631MPD2    H5 9351   2.003   0.754  15.431  0.0328  0.8674  0.0611
  631MPD2    N1 9352   1.841   1.211  15.398  0.5076 -0.1888  0.2675
  631MPD2    H7 9353   1.778   1.288  15.417 -0.1971 -0.3618 -1.3662
  632TMC3    C1 9354   1.962   1.372  15.269 -0.5677 -0.2258 -1.0767
  632TMC3    C2 9355   1.874   1.471  15.308 -0.0290  0.4550  0.3977
  632TMC3    C3 9356   1.901   1.596  15.250 -0.1611 -0.4731  0.4730
  632TMC3    C4 9357   2.071   1.402  15.189  0.4073  0.6262 -0.2083
  632TMC3    C5 9358   2.089   1.527  15.132  0.2147 -0.4211 -0.2818
  632TMC3    C6 9359   2.016   1.632  15.183 -0.1284  0.3982  0.4421
  632TMC3     C 9360   1.945   1.235  15.314 -0.4413 -0.6153  0.2530
  632TMC3     O 9361   2.014   1.147  15.261 -0.0986  0.2609 -0.0136
  632TMC3     H 9362   1.793   1.454  15.377  0.5185 -2.6538  0.2984
  632TMC3    H1 9363   2.138   1.321  15.160 -1.3902 -1.0458  0.2995
  632TMC3    H2 9364   2.035   1.738  15.169  1.2448 -0.0220 -0.8714
  632TMC3    C7 9365   2.195   1.548  15.039  0.0780  0.3104 -0.8724
  632TMC3    C8 9366   1.803   1.696  15.275 -0.1731  0.5894  0.4001
  632TMC3    O1 9367   2.238   1.458  14.967  0.0726  0.4186  0.2049
  632TMC3    O2 9368   1.716   1.662  15.355  0.3789 -0.0922  0.0924
  633MPD2     C 9369   2.296   4.101  17.223 -0.6762 -0.2896  0.3319
  633MPD2    C1 9370   2.270   4.054  17.095  0.0627  0.7438 -0.4183
  633MPD2    C2 9371   2.208   3.931  17.079 -0.5732  0.3827 -0.4411
  633MPD2    C3 9372   2.168   3.853  17.187 -0.3264 -0.1970 -0.5116
  633MPD2    C4 9373   2.195   3.899  17.314  0.2554 -0.3259 -0.8308
  633MPD2    C5 9374   2.261   4.018  17.332  0.1748  0.2104 -0.1503
  633MPD2     H 9375   2.192   3.892  16.979 -0.6260 -0.9314  0.0751
  633MPD2    H1 9376   2.177   3.842  17.404 -0.6713 -0.6950 -1.2501
  633MPD2    H2 9377   2.347   4.192  17.254  0.0450 -0.2521 -0.9485
  633MPD2    H3 9378   2.273   4.054  17.434  1.0759  1.2752 -0.6266
  633MPD2     N 9379   2.110   3.728  17.171 -0.9896  0.2674 -0.6017
  633MPD2    H5 9380   2.099   3.668  17.252  1.4509  0.1177 -0.4018
  633MPD2    N1 9381   2.297   4.128  16.981  0.0115  0.4802 -0.0481
  633MPD2    H7 9382   2.299   4.075  16.894  1.0707  1.0062 -0.3417
  634TMC3    C1 9383   2.337   4.296  16.835  0.3423 -0.1251  0.3701
  634TMC3    C2 9384   2.405   4.210  16.754 -0.3404 -0.4944  0.4718
  634TMC3    C3 9385   2.386   4.235  16.620  0.0371  0.0419  0.4721
  634TMC3    C4 9386   2.252   4.394  16.796  0.3972  0.2333 -0.6845
  634TMC3    C5 9387   2.229   4.402  16.658 -0.2357  0.6418 -0.4115
  634TMC3    C6 9388   2.297   4.322  16.568 -0.5100  1.0157  0.1741
  634TMC3     C 9389   2.324   4.260  16.974 -0.0501 -0.5470  0.6573
  634TMC3     O 9390   2.298   4.348  17.055  0.0740 -0.3075  0.5072
  634TMC3     H 9391   2.453   4.124  16.799 -1.4403 -1.8261 -0.9024
  634TMC3    H1 9392   2.213   4.463  16.870  0.6686 -1.2406  0.8354
  634TMC3    H2 9393   2.297   4.319  16.459 -1.8194  1.3003  0.1648
  634TMC3    C7 9394   2.124   4.474  16.601  0.8208  0.1541 -0.2957
  634TMC3    C8 9395   2.446   4.137  16.528 -0.8396 -0.3804 -0.0843
  634TMC3    O1 9396   2.101   4.468  16.479  0.3406 -0.2558 -0.6403
  634TMC3    O2 9397   2.383   4.099  16.431 -0.5728 -0.0529  0.4740
  635TMC3    C1 9398   3.452   0.170   0.933 -0.1399 -0.0934 -0.1877
  635TMC3    C2 9399   3.508   0.145   1.056 -0.0765 -0.1551  0.1467
  635TMC3    C3 9400   3.639   0.108   1.072 -0.3803  0.4963  0.1190
  635TMC3    C4 9401   3.536   0.168   0.828 -0.3232 -0.0023  0.8627
  635TMC3    C5 9402   3.665   0.127   0.842  0.2282  0.3257  0.0922
  635TMC3    C6 9403   3.725   0.096   0.961  0.1412 -0.2002  0.4571
  635TMC3     C 9404   3.324   0.237   0.913 -0.5039  0.3334  0.2119
  635TMC3     O 9405   3.305   0.294   0.805  0.7273  0.5163  0.2202
  635TMC3     H 9406   3.439   0.140   1.139  0.1805 -1.8705  0.2498
  635TMC3    H1 9407   3.506   0.206   0.732  1.0402 -1.4337 -0.1358
  635TMC3    H2 9408   3.830   0.073   0.973  1.0457  3.1999 -0.9333
  635TMC3    C7 9409   3.747   0.186   0.736  0.6294  0.0393  0.0967
  635TMC3    C8 9410   3.682   0.046   1.198 -0.4008 -0.3690 -0.1851
  635TMC3    O1 9411   3.695   0.226   0.636  0.0398 -0.0349 -0.8388
  635TMC3    O2 9412   3.797   0.009   1.207 -0.6370 -0.1573 -0.2714
  636MPD2     C 9413   2.909   3.983  15.569 -0.3425 -0.0172 -0.4356
  636MPD2    C1 9414   2.978   4.039  15.681 -0.4677  0.3230  0.4367
  636MPD2    C2 9415   3.057   3.960  15.763 -0.3570  0.5709  0.2887
  636MPD2    C3 9416   3.055   3.822  15.744  0.3788  0.1206  0.1173
  636MPD2    C4 9417   2.986   3.765  15.641  0.4200  0.0423  0.9860
  636MPD2    C5 9418   2.922   3.848  15.547 -0.8488  0.0592 -0.0582
  636MPD2     H 9419   3.120   4.000  15.842  1.8668 -0.0786 -1.1585
  636MPD2    H1 9420   2.997   3.661  15.610 -2.5959 -0.3684  1.3496
  636MPD2    H2 9421   2.864   4.048  15.495 -1.4348  1.3949  1.4740
  636MPD2    H3 9422   2.888   3.804  15.454 -2.8089 -0.9967  1.1693
  636MPD2     N 9423   3.145   3.745  15.820  0.1946  0.2736  0.5523
  636MPD2    H5 9424   3.212   3.798  15.876 -0.6187  1.1989  0.6618
  636MPD2    N1 9425   2.971   4.178  15.708  0.3651  0.4391  0.6720
  636MPD2    H7 9426   3.004   4.208  15.799  1.6702  1.0006  0.0056
  637TMC3    C1 9427   3.217   3.581  15.975  0.0278  0.1972  0.2192
  637TMC3    C2 9428   3.156   3.618  16.089  0.8628 -0.1246  0.7197
  637TMC3    C3 9429   3.227   3.622  16.206 -0.2881 -0.2621 -0.5705
  637TMC3    C4 9430   3.347   3.553  15.961  0.1702 -0.1619  0.2887
  637TMC3    C5 9431   3.421   3.554  16.076  0.0348  0.1867 -0.2691
  637TMC3    C6 9432   3.357   3.587  16.193  0.3579 -0.6041  0.0174
  637TMC3     C 9433   3.131   3.615  15.860 -0.0364 -0.8128 -0.0256
  637TMC3     O 9434   3.041   3.540  15.827  0.0047  0.3076 -0.1202
  637TMC3     H 9435   3.049   3.636  16.088  0.5390 -2.0313  1.0270
  637TMC3    H1 9436   3.386   3.546  15.860  0.4930  0.6141  0.3640
  637TMC3    H2 9437   3.418   3.574  16.282 -1.7765  0.5856  1.6621
  637TMC3    C7 9438   3.543   3.637  16.064  0.3536  0.4923 -0.1561
  637TMC3    C8 9439   3.225   3.749  16.263  0.5526 -0.1746 -1.1426
  637TMC3    O1 9440   3.581   3.697  16.166  0.1191  0.5455  0.0058
  637TMC3    O2 9441   3.174   3.840  16.192  0.2033  0.0054 -0.3061
  638MPD2     C 9442   3.095   3.119  15.224  0.7555  0.3864 -0.5895
  638MPD2    C1 9443   3.139   2.999  15.178  0.2792 -0.3860 -0.2035
  638MPD2    C2 9444   3.088   2.893  15.243 -0.3256  0.5975  0.1386
  638MPD2    C3 9445   2.992   2.900  15.345 -0.2696 -0.0568 -0.0252
  638MPD2    C4 9446   2.956   3.023  15.389  0.3668 -0.3696 -0.2019
  638MPD2    C5 9447   3.013   3.134  15.330 -0.6027 -0.5322 -0.8543
  638MPD2     H 9448   3.117   2.793  15.213  1.7265  1.2374 -0.0369
  638MPD2    H1 9449   2.889   3.036  15.473  0.3830  0.5224 -0.3297
  638MPD2    H2 9450   3.133   3.209  15.177  0.4104  0.5558 -0.5458
  638MPD2    H3 9451   2.994   3.235  15.363 -2.3134 -1.0572 -0.2658
  638MPD2     N 9452   2.941   2.778  15.392  0.2185 -0.0122  0.2128
  638MPD2    H5 9453   2.983   2.701  15.343  0.1647 -0.2090  0.4736
  638MPD2    N1 9454   3.230   2.992  15.065  0.1470  0.0154 -0.2747
  638MPD2    H7 9455   3.276   3.080  15.043  0.0480  0.4558  1.2830
  639TMC3    C1 9456   2.810   2.601  15.466 -0.0783 -0.4660 -0.3248
  639TMC3    C2 9457   2.691   2.565  15.403  0.1876  0.1978  0.0339
  639TMC3    C3 9458   2.682   2.454  15.329  0.0005 -0.1364  0.0805
  639TMC3    C4 9459   2.919   2.521  15.456 -1.0178  0.0604 -0.5667
  639TMC3    C5 9460   2.906   2.404  15.391  0.1547 -1.1515 -0.3734
  639TMC3    C6 9461   2.783   2.362  15.336  0.1645 -0.1389 -0.3983
  639TMC3     C 9462   2.842   2.745  15.485 -0.1832 -0.2032  0.2906
  639TMC3     O 9463   2.756   2.817  15.533  0.0366  0.1040 -0.8315
  639TMC3     H 9464   2.608   2.633  15.418 -1.1884 -1.8179  1.4952
  639TMC3    H1 9465   3.013   2.544  15.506  0.3396 -0.6004 -2.8292
  639TMC3    H2 9466   2.770   2.285  15.260 -1.3291 -0.7603  0.4828
  639TMC3    C7 9467   3.024   2.333  15.360  0.5956 -0.1511 -0.2185
  639TMC3    C8 9468   2.565   2.442  15.244  0.9120  0.8686  0.1106
  639TMC3    O1 9469   3.132   2.387  15.371  0.0861  0.4257  0.4831
  639TMC3    O2 9470   2.460   2.464  15.299 -0.2648  0.3315  0.4870
  640MPD2     C 9471   4.453   1.936  10.190  0.6999  0.0228 -0.1929
  640MPD2    C1 9472   4.381   1.842  10.126 -0.2709 -0.2940 -0.1720
  640MPD2    C2 9473   4.253   1.877  10.082  0.1733  0.3004 -0.7779
  640MPD2    C3 9474   4.191   1.997  10.118  0.5056 -0.2513  0.2814
  640MPD2    C4 9475   4.261   2.090  10.190 -0.4311 -0.1079  0.5300
  640MPD2    C5 9476   4.393   2.058  10.221  0.2652 -0.3445 -0.6486
  640MPD2     H 9477   4.199   1.806  10.021  2.0553 -0.8152 -1.1392
  640MPD2    H1 9478   4.222   2.185  10.225  0.3816  0.5399 -0.3447
  640MPD2    H2 9479   4.556   1.922  10.223  1.3379  0.1036 -2.1257
  640MPD2    H3 9480   4.452   2.127  10.281 -1.5331 -0.6727  1.4651
  640MPD2     N 9481   4.068   2.035  10.070 -0.5454 -0.0072  0.5456
  640MPD2    H5 9482   4.018   2.113  10.110  0.4806  0.9563 -0.0621
  640MPD2    N1 9483   4.448   1.721  10.091 -0.2194  0.0269  0.0838
  640MPD2    H7 9484   4.533   1.690  10.136 -0.7754 -1.8237 -0.1134
  641TMC3    C1 9485   4.498   1.518   9.965 -0.3952  0.2758  0.4992
  641TMC3    C2 9486   4.585   1.465  10.058  0.9951 -0.1126 -0.6321
  641TMC3    C3 9487   4.664   1.361  10.010 -0.1850  0.0583  0.2814
  641TMC3    C4 9488   4.487   1.474   9.840  0.2128  0.2126 -0.4043
  641TMC3    C5 9489   4.563   1.366   9.800 -0.1729  0.1572 -0.0118
  641TMC3    C6 9490   4.651   1.305   9.885 -0.3584  0.2144 -0.4263
  641TMC3     C 9491   4.398   1.623  10.003  0.3534 -0.3233  0.3149
  641TMC3     O 9492   4.301   1.630   9.927  0.0139  0.0802  0.1686
  641TMC3     H 9493   4.606   1.508  10.155 -0.1926  0.5281 -0.6539
  641TMC3    H1 9494   4.433   1.535   9.768 -2.4661 -1.9573 -0.2273
  641TMC3    H2 9495   4.716   1.225   9.852 -1.7727 -1.0130 -0.2129
  641TMC3    C7 9496   4.563   1.322   9.658 -0.8786 -0.6104 -0.3069
  641TMC3    C8 9497   0.038   1.303  10.106 -0.2668 -0.2035  0.5014
  641TMC3    O1 9498   4.661   1.264   9.605 -0.2685 -0.0278 -0.5886
  641TMC3    O2 9499   0.089   1.362  10.200 -0.2042 -0.2056 -0.5339
  642TMC3    C1 9500   4.398   3.412  12.052  0.5519  0.9300  0.3517
  642TMC3    C2 9501   4.443   3.451  12.174 -1.1411 -0.0214  0.1601
  642TMC3    C3 9502   4.515   3.366  12.246 -0.3701  0.6499  0.5618
  642TMC3    C4 9503   4.421   3.285  12.000  0.4359  0.5511  0.1035
  642TMC3    C5 9504   4.488   3.196  12.078 -0.0207 -0.6176 -0.9909
  642TMC3    C6 9505   4.534   3.234  12.205  0.2741  0.2656 -0.4404
  642TMC3     C 9506   4.265   3.450  12.019  0.4746 -0.0820  0.7735
  642TMC3     O 9507   4.244   3.502  11.909  0.1894  0.2975 -0.0391
  642TMC3     H 9508   4.425   3.555  12.200 -3.1033 -0.6903  1.4964
  642TMC3    H1 9509   4.380   3.250  11.906 -0.5498  0.9311  0.3919
  642TMC3    H2 9510   4.579   3.159  12.269  1.9591  0.5276 -1.3226
  642TMC3    C7 9511   4.454   3.055  12.055  0.2892  0.5697  0.0486
  642TMC3    C8 9512   4.563   3.407  12.375 -0.3940  0.0097  0.1036
  642TMC3    O1 9513   4.451   3.030  11.933 -0.5975 -0.3980 -0.0602
  642TMC3    O2 9514   4.634   3.331  12.440 -0.0613 -0.0546  0.0717
  643TMC3    C1 9515   3.974   1.590  17.647  0.9800 -0.0642 -0.5455
  643TMC3    C2 9516   3.876   1.597  17.552  0.0028  0.3701 -0.5737
  643TMC3    C3 9517   3.862   1.501  17.460  0.6542  0.0471  0.6527
  643TMC3    C4 9518   4.071   1.491  17.633  0.6416  0.3985  0.2141
  643TMC3    C5 9519   4.057   1.394  17.537 -0.1532  0.1760 -0.2877
  643TMC3    C6 9520   3.943   1.392  17.456 -0.0877 -0.2476  0.6176
  643TMC3     C 9521   3.988   1.699   0.052  0.2476 -0.0642 -0.2372
  643TMC3     O 9522   3.934   1.801   0.020 -0.8682  0.1609  0.0067
  643TMC3     H 9523   3.804   1.677  17.565 -2.1211 -1.4118 -1.4531
  643TMC3    H1 9524   4.163   1.487   0.003  2.2350  2.7262 -2.1160
  643TMC3    H2 9525   3.938   1.312  17.383  0.6288 -0.5417  0.8910
  643TMC3    C7 9526   4.153   1.283  17.537 -0.3305 -0.5315 -0.7943
  643TMC3    C8 9527   3.816   1.546  17.327 -0.1343 -0.2472  0.3710
  643TMC3    O1 9528   4.182   1.252  17.654 -0.0492  0.1279  0.0691
  643TMC3    O2 9529   3.826   1.465  17.235  0.4511 -0.1615 -0.5245
  644MPD2     C 9530   4.285   2.899   8.926  0.1264  0.6811 -0.5236
  644MPD2    C1 9531   4.308   2.898   9.066 -0.5727 -0.2860 -0.7704
  644MPD2    C2 9532   4.337   3.017   9.125  0.5666 -0.2456  0.4621
  644MPD2    C3 9533   4.324   3.132   9.047 -0.7322  0.0291  0.2678
  644MPD2    C4 9534   4.287   3.135   8.916 -0.5175 -0.4635  0.0431
  644MPD2    C5 9535   4.284   3.015   8.856 -0.1609 -0.6683 -0.1880
  644MPD2     H 9536   4.364   3.022   9.230  1.1773 -0.1009  0.2961
  644MPD2    H1 9537   4.271   3.223   8.855 -1.1305 -1.5830 -1.4254
  644MPD2    H2 9538   4.259   2.811   8.868  0.1797  0.6477 -0.4975
  644MPD2    H3 9539   4.257   3.005   8.751  0.2202  0.3612 -0.3777
  644MPD2     N 9540   4.342   3.255   9.113 -0.5005  0.1970  0.3336
  644MPD2    H5 9541   4.365   3.260   9.212 -1.5482 -0.3808  0.5990
  644MPD2    N1 9542   4.311   2.769   9.123 -0.1699 -0.0532 -0.8935
  644MPD2    H7 9543   4.282   2.692   9.064  0.5647 -1.2028  0.2424
  645TMC3    C1 9544   4.363   3.483   9.168 -0.0125  1.3462  0.8853
  645TMC3    C2 9545   4.338   3.469   9.303  0.0323 -0.0180  0.9575
  645TMC3    C3 9546   4.346   3.578   9.380  0.2759 -0.4373 -0.1472
  645TMC3    C4 9547   4.363   3.609   9.115 -0.0809  0.2662 -0.3766
  645TMC3    C5 9548   4.339   3.713   9.199 -0.1706  0.1725  0.4924
  645TMC3    C6 9549   4.342   3.703   9.336 -0.1401  0.5374 -0.8055
  645TMC3     C 9550   4.353   3.380   9.063  0.2781 -0.8962 -0.6389
  645TMC3     O 9551   4.352   3.419   8.947 -0.0762  0.5998 -0.1946
  645TMC3     H 9552   4.324   3.375   9.355  0.9689 -0.8266 -0.2609
  645TMC3    H1 9553   4.382   3.627   9.010  0.2166  1.8312 -0.0579
  645TMC3    H2 9554   4.315   3.791   9.392 -0.7141  0.3815 -0.8348
  645TMC3    C7 9555   4.351   3.847   9.142  0.2934 -0.7049 -0.5157
  645TMC3    C8 9556   4.385   3.560   9.519 -0.2801  0.1475 -0.2588
  645TMC3    O1 9557   4.300   3.870   9.035 -0.5952 -0.1435 -0.6221
  645TMC3    O2 9558   4.340   3.463   9.581  0.2761 -0.2489 -0.7172
  646MPD2     C 9559   3.060   1.683  14.315  0.0051  0.0239  0.8381
  646MPD2    C1 9560   2.979   1.685  14.423 -0.1755  0.3132  0.0549
  646MPD2    C2 9561   2.899   1.796  14.444  0.2014  0.0476  0.6017
  646MPD2    C3 9562   2.901   1.914  14.367 -0.4639  0.1367  0.7159
  646MPD2    C4 9563   2.988   1.912  14.260  0.1352  0.1012  0.1465
  646MPD2    C5 9564   3.057   1.793  14.234 -0.4068  0.5190  0.9060
  646MPD2     H 9565   2.833   1.788  14.530  2.1479 -1.5295  1.9479
  646MPD2    H1 9566   2.996   1.981  14.177 -0.0469  0.1713  0.1848
  646MPD2    H2 9567   3.123   1.599  14.287 -2.7240 -0.8788 -2.6835
  646MPD2    H3 9568   3.117   1.792  14.143  0.6123  1.6325  1.5544
  646MPD2     N 9569   2.810   2.015  14.390 -0.6548 -0.5282 -0.1183
  646MPD2    H5 9570   2.732   2.001  14.453 -0.3891  1.0934  0.5743
  646MPD2    N1 9571   2.997   1.576  14.508  0.7689  0.3836 -0.1846
  646MPD2    H7 9572   3.079   1.523  14.481 -0.3071 -0.5919 -1.5266
  647TMC3    C1 9573   2.989   1.442  14.707 -1.6203 -0.5734  0.4894
  647TMC3    C2 9574   2.908   1.379  14.794 -0.3130 -0.1841 -0.0551
  647TMC3    C3 9575   2.960   1.283  14.876  0.8194 -0.1157 -0.8473
  647TMC3    C4 9576   3.123   1.421  14.702 -0.0639 -0.0680 -0.0284
  647TMC3    C5 9577   3.171   1.329  14.786  0.5888  0.0989  0.1530
  647TMC3    C6 9578   3.093   1.258  14.879 -0.2548  0.0786  0.5356
  647TMC3     C 9579   2.927   1.550  14.627  0.4328 -0.6436  0.0863
  647TMC3     O 9580   2.819   1.596  14.668 -0.6528 -0.0154  0.1900
  647TMC3     H 9581   2.801   1.395  14.787  0.1305  2.4449 -0.9367
  647TMC3    H1 9582   3.186   1.493  14.652  0.3314  0.6407  1.4761
  647TMC3    H2 9583   3.132   1.165  14.918  0.5576  0.2581  0.1459
  647TMC3    C7 9584   3.309   1.286  14.772  0.0347  0.1950 -0.6880
  647TMC3    C8 9585   2.882   1.197  14.961 -0.4367  0.2902  0.1786
  647TMC3    O1 9586   3.345   1.220  14.868  0.0301  0.1555  1.2346
  647TMC3    O2 9587   2.946   1.119  15.035  0.2337  0.2614  0.4973
  648TMC3    C1 9588   2.515   4.217  15.895 -0.3891 -0.1343 -0.2604
  648TMC3    C2 9589   2.554   4.089  15.873 -0.2812  0.1084  0.3155
  648TMC3    C3 9590   2.510   4.030  15.760 -0.0505 -0.3234 -0.0842
  648TMC3    C4 9591   2.426   4.279  15.812  0.3636 -0.3320 -0.4006
  648TMC3    C5 9592   2.388   4.220  15.693  0.2301  0.4485  0.2491
  648TMC3    C6 9593   2.433   4.095  15.673 -0.2587  0.4798  0.0792
  648TMC3     C 9594   2.576   4.298  16.004 -0.2081 -0.3772  0.1968
  648TMC3     O 9595   2.584   4.421  15.988  0.8069  0.3348  0.0148
  648TMC3     H 9596   2.620   4.032  15.938  1.1348  1.1133 -0.2300
  648TMC3    H1 9597   2.390   4.378  15.836 -2.1381 -1.8862  2.1687
  648TMC3    H2 9598   2.397   4.043  15.584  1.4570  0.6243 -0.7063
  648TMC3    C7 9599   2.262   4.269  15.629  0.5195 -0.2567 -0.2419
  648TMC3    C8 9600   2.483   3.888  15.756 -0.0834  0.2828  0.3501
  648TMC3    O1 9601   2.249   4.246  15.506  0.5128  0.1408  0.9479
  648TMC3    O2 9602   2.384   3.854  15.693 -0.7463 -1.1033  0.0288
  649TMC3    C1 9603   1.624   0.592  12.748 -0.7166  0.1129  0.0251
  649TMC3    C2 9604   1.756   0.619  12.767  0.2803  0.2587  0.2023
  649TMC3    C3 9605   1.823   0.554  12.867 -0.0755  0.0599 -0.1220
  649TMC3    C4 9606   1.559   0.511  12.836 -0.6580  0.3950 -0.4156
  649TMC3    C5 9607   1.623   0.455  12.947 -0.5038  0.3033 -0.9779
  649TMC3    C6 9608   1.758   0.481  12.962 -0.6367  0.1353  0.0141
  649TMC3     C 9609   1.543   0.672  12.661  0.4654 -0.2823  0.3525
  649TMC3     O 9610   1.572   0.792  12.640  0.3086 -0.1130  0.2992
  649TMC3     H 9611   1.807   0.695  12.708  0.5898  1.2401  1.7482
  649TMC3    H1 9612   1.451   0.500  12.832 -0.3177 -3.4335  0.1978
  649TMC3    H2 9613   1.809   0.435  13.046  3.3561  1.5725 -1.6213
  649TMC3    C7 9614   1.558   0.353  13.016 -0.3932  0.2277  0.2255
  649TMC3    C8 9615   1.969   0.550  12.879 -0.5617 -0.4156  0.4940
  649TMC3    O1 9616   1.569   0.338  13.140 -0.2031  0.4230  0.1765
  649TMC3    O2 9617   2.007   0.477  12.970 -0.2457 -0.4882 -0.6537
  650TMC3    C1 9618   3.871   2.001  12.303 -0.0628 -0.4048  0.1881
  650TMC3    C2 9619   3.836   2.067  12.416  0.3523  0.1058  0.1633
  650TMC3    C3 9620   3.699   2.093  12.436 -0.0570  0.4597  0.5663
  650TMC3    C4 9621   3.785   1.983  12.197 -0.6922  0.0993  0.0475
  650TMC3    C5 9622   3.650   2.005  12.220  0.7319  0.1626 -0.7264
  650TMC3    C6 9623   3.607   2.049  12.340  0.3192 -0.5609 -0.6358
  650TMC3     C 9624   4.004   1.942  12.295 -0.0007 -0.6193  0.8399
  650TMC3     O 9625   4.045   1.921  12.180 -0.1263  0.7524 -0.4334
  650TMC3     H 9626   3.908   2.106  12.487 -0.0487  0.4318  0.3883
  650TMC3    H1 9627   3.822   1.945  12.102  0.8876 -3.9921  2.3520
  650TMC3    H2 9628   3.504   2.037  12.371 -0.2209 -2.0649 -3.0981
  650TMC3    C7 9629   3.560   2.055  12.115 -0.0531 -0.3146 -0.1690
  650TMC3    C8 9630   3.669   2.218  12.495  0.1116 -0.5516 -0.6830
  650TMC3    O1 9631   3.561   1.999  12.007  0.0168 -0.2092  0.8445
  650TMC3    O2 9632   3.761   2.294  12.526  0.3715  0.5472  0.0475
  651MPD2     C 9633   2.958   4.038  10.324  0.2763  0.1950  0.9258
  651MPD2    C1 9634   2.957   4.155  10.390 -0.1929  0.5174  0.5658
  651MPD2    C2 9635   3.062   4.245  10.394 -0.3382  0.5091  0.2725
  651MPD2    C3 9636   3.184   4.212  10.338  0.0296  0.0462  0.0156
  651MPD2    C4 9637   3.188   4.087  10.272 -0.8891  0.3126 -0.3484
  651MPD2    C5 9638   3.079   4.003  10.260 -0.2444 -0.2783  0.2989
  651MPD2     H 9639   3.048   4.338  10.448  0.1262  0.7922 -0.1012
  651MPD2    H1 9640   3.272   4.048  10.216 -1.4125 -1.4386  0.0848
  651MPD2    H2 9641   2.881   3.962  10.319  1.5404 -1.1228  1.4767
  651MPD2    H3 9642   3.091   3.912  10.203 -3.9713  0.6348 -1.9168
  651MPD2     N 9643   3.291   4.307  10.340 -0.2377  1.0627 -0.4784
  651MPD2    H5 9644   3.276   4.385  10.403 -0.6807  0.9717 -0.4744
  651MPD2    N1 9645   2.841   4.196  10.464  0.4882 -0.3924 -0.3546
  651MPD2    H7 9646   2.850   4.288  10.506  1.6716  0.1553 -1.7837
  652TMC3    C1 9647   3.746   4.466  10.292  0.3475  0.7119  0.1314
  652TMC3    C2 9648   3.649   4.366  10.277 -0.6979 -0.0882 -0.7707
  652TMC3    C3 9649   3.515   4.384  10.328  0.4459 -0.3698 -0.5036
  652TMC3    C4 9650   3.717   4.565  10.378  0.0645 -0.2973 -0.2407
  652TMC3    C5 9651   3.590   4.582  10.428  0.2977 -0.1697  0.7034
  652TMC3    C6 9652   3.485   4.499  10.399 -0.3032 -0.2590 -0.6718
  652TMC3     C 9653   3.879   4.416  10.316  0.0207 -0.4229  0.6967
  652TMC3     O 9654   3.877   4.309  10.366 -0.1485 -0.3817 -0.8293
  652TMC3     H 9655   3.674   4.275  10.224  0.6513  0.9469 -1.9146
  652TMC3    H1 9656   3.797   4.620  10.425  0.2748  0.3026 -1.3153
  652TMC3    H2 9657   3.388   4.524  10.439  0.9562  0.3887  1.9243
  652TMC3    C7 9658   3.570   4.659  10.551 -0.8903  0.5047 -0.4361
  652TMC3    C8 9659   3.413   4.288  10.286  0.2045  0.7758  0.3188
  652TMC3    O1 9660   3.489   4.617  10.632  0.0564 -0.2282 -0.0833
  652TMC3    O2 9661   3.437   4.200  10.203 -0.0931 -0.1653 -0.1993
  653MPD2     C 9662   2.009   4.117  17.566 -0.5243  0.1939 -1.3743
  653MPD2    C1 9663   1.973   4.222  17.489 -0.3266  0.4544  0.6923
  653MPD2    C2 9664   1.880   4.210  17.393  0.0650  0.4289  0.5620
  653MPD2    C3 9665   1.823   4.088  17.368  0.5716  0.0094 -0.6468
  653MPD2    C4 9666   1.847   3.985  17.448  0.3495  0.0491 -0.5013
  653MPD2    C5 9667   1.940   4.002  17.548 -0.6197  0.0423 -0.5091
  653MPD2     H 9668   1.851   4.294  17.331 -0.5715 -0.6824 -0.6510
  653MPD2    H1 9669   1.796   3.892  17.427  0.0229  0.0479  0.2742
  653MPD2    H2 9670   2.085   4.130  17.642 -1.8989 -0.1485  0.0379
  653MPD2    H3 9671   1.948   3.917  17.616 -0.0080  1.0827  0.7188
  653MPD2     N 9672   1.736   4.081  17.253  0.4589  0.2018 -0.0908
  653MPD2    H5 9673   1.698   4.165  17.212  1.0960 -0.0120 -1.1381
  653MPD2    N1 9674   2.025   4.357  17.506  0.3039 -0.2371 -0.1082
  653MPD2    H7 9675   1.979   4.436  17.462 -1.5509 -2.0697 -1.4580
  654TMC3    C1 9676   1.620   3.992  17.077 -0.4543  0.2121  0.7836
  654TMC3    C2 9677   1.505   4.066  17.110 -0.0729  0.0205 -0.8326
  654TMC3    C3 9678   1.396   4.025  17.031 -0.2323  0.5895 -0.2510
  654TMC3    C4 9679   1.639   3.896  16.977  0.3453  0.4539  0.5030
  654TMC3    C5 9680   1.520   3.863  16.916 -0.8255 -0.2173  0.5181
  654TMC3    C6 9681   1.404   3.934  16.929  0.6809 -0.0491 -1.3483
  654TMC3     C 9682   1.712   3.963  17.186  0.3576  0.4049  0.4894
  654TMC3     O 9683   1.773   3.855  17.198  0.1045 -0.2532 -0.3563
  654TMC3     H 9684   1.500   4.116  17.205  0.1485 -0.4887 -0.5533
  654TMC3    H1 9685   1.723   3.828  16.977  0.8356  1.0586 -0.7435
  654TMC3    H2 9686   1.311   3.906  16.881  0.3183 -0.0289 -0.6622
  654TMC3    C7 9687   1.518   3.753  16.825  0.4127  0.3395 -0.4009
  654TMC3    C8 9688   1.261   4.051  17.077  0.5592  0.1409  0.3460
  654TMC3    O1 9689   1.473   3.779  16.715  0.0548  0.1486 -0.7779
  654TMC3    O2 9690   1.231   4.162  17.111  0.1183  0.2891 -0.4649
  655MPD2     C 9691   2.686   4.608  15.301  0.1484 -0.2107 -0.3302
  655MPD2    C1 9692   2.571   4.628  15.222 -0.5302 -0.3900  0.1055
  655MPD2    C2 9693   2.581   4.590  15.085 -0.0356  0.0671 -0.3384
  655MPD2    C3 9694   2.698   4.531  15.036 -0.2638  0.3002  0.4317
  655MPD2    C4 9695   2.804   4.513  15.119  0.6089 -0.2723  0.2777
  655MPD2    C5 9696   2.796   4.554  15.249 -0.6015 -0.0002 -0.4509
  655MPD2     H 9697   2.503   4.618  15.015  0.0739  1.7915  0.2421
  655MPD2    H1 9698   2.902   4.494  15.077  1.7101  1.7238  1.9294
  655MPD2    H2 9699   2.681   4.644  15.403  0.0230  0.3966 -0.5529
  655MPD2    H3 9700   2.880   4.535  15.315 -0.5653 -0.6350 -0.6774
  655MPD2     N 9701   2.710   4.485  14.901 -0.8308 -0.2139 -0.4581
  655MPD2    H5 9702   2.805   4.467  14.870 -0.0041  1.2302  1.1982
  655MPD2    N1 9703   2.445   4.680  15.266 -0.7015  0.1803  0.3014
  655MPD2    H7 9704   2.358   4.673  15.215 -2.8936  0.4100  4.0113
  656TMC3    C1 9705   2.273   0.010  15.428  0.4166  0.6529 -0.3223
  656TMC3    C2 9706   2.247   0.021  15.558  0.1271 -0.0732 -0.4371
  656TMC3    C3 9707   2.140   0.102  15.590 -0.7334  0.0526 -0.2891
  656TMC3    C4 9708   2.193   0.068  15.330  0.1959  0.2974 -0.1793
  656TMC3    C5 9709   2.078   0.141  15.369  0.6398  0.2512 -0.8939
  656TMC3    C6 9710   2.052   0.156  15.504  1.2068  0.6491  0.2861
  656TMC3     C 9711   2.418   4.718  15.393  0.5773 -0.3569  0.2746
  656TMC3     O 9712   2.498   0.002  15.482 -0.3620  0.2780 -0.4124
  656TMC3     H 9713   2.317   4.710  15.634 -0.3703  1.0531  0.4924
  656TMC3    H1 9714   2.227   0.079  15.228 -0.2769 -2.2980 -0.6089
  656TMC3    H2 9715   1.970   0.213  15.545  1.8819  2.1432 -0.4343
  656TMC3    C7 9716   2.031   0.235  15.269 -0.1117 -0.0714  0.3761
  656TMC3    C8 9717   2.121   0.141  15.729 -0.5418  0.7665 -0.5103
  656TMC3    O1 9718   2.105   0.263  15.177 -0.1087 -0.0405 -0.4624
  656TMC3    O2 9719   2.064   0.245  15.758 -0.0187  0.5278 -0.3159
  657TMC3    C1 9720   2.070   3.548  14.322 -0.9813 -0.3231  0.2338
  657TMC3    C2 9721   2.057   3.616  14.443  0.3531 -0.0826  0.4418
  657TMC3    C3 9722   1.946   3.702  14.453 -0.2514  0.8911  0.6074
  657TMC3    C4 9723   1.988   3.557  14.218 -0.1573 -0.0156  0.3603
  657TMC3    C5 9724   1.895   3.655  14.226 -0.0638 -0.4964  0.7371
  657TMC3    C6 9725   1.863   3.719  14.343 -0.2860 -1.0112 -0.0752
  657TMC3     C 9726   2.153   3.432  14.327  0.3303  0.0695  0.8838
  657TMC3     O 9727   2.133   3.340  14.249 -0.0513  0.1307 -0.1455
  657TMC3     H 9728   2.112   3.596  14.535  1.1190 -1.5421 -0.3340
  657TMC3    H1 9729   2.013   3.518  14.120  2.5538 -1.4127  1.5988
  657TMC3    H2 9730   1.784   3.793  14.350 -1.1152 -2.0710  1.9022
  657TMC3    C7 9731   1.790   3.655  14.120  0.3794 -0.1073  0.3016
  657TMC3    C8 9732   1.922   3.783  14.571  0.4251  0.6652 -0.0596
  657TMC3    O1 9733   1.832   3.629  14.009 -0.1064 -0.1321  0.0529
  657TMC3    O2 9734   1.830   3.863  14.562 -0.4057  0.5463  0.3906
  658MPD2     C 9735   2.988   3.895  14.945  0.8589 -0.1626 -0.1668
  658MPD2    C1 9736   2.953   3.931  14.814 -1.2151 -0.2678  0.2503
  658MPD2    C2 9737   3.000   3.857  14.708 -0.3912  1.1824 -0.8589
  658MPD2    C3 9738   3.078   3.745  14.720  0.4195 -0.2712 -0.5633
  658MPD2    C4 9739   3.113   3.703  14.850  1.0095 -0.5437 -0.5162
  658MPD2    C5 9740   3.068   3.774  14.957 -0.4960  1.1016  0.3281
  658MPD2     H 9741   2.996   3.900  14.609 -0.2336  1.3144 -0.8094
  658MPD2    H1 9742   3.173   3.615  14.868  1.4512  0.1120  1.2498
  658MPD2    H2 9743   2.957   3.952  15.031 -0.3824 -0.9893 -0.0606
  658MPD2    H3 9744   3.103   3.743  15.055 -0.9336  0.7525  0.3730
  658MPD2     N 9745   3.128   3.681  14.602 -1.1626 -0.0864 -0.1806
  658MPD2    H5 9746   3.107   3.730  14.516  0.9419 -1.1205 -1.2825
  658MPD2    N1 9747   2.866   4.045  14.792  0.5980  0.2404  0.6414
  658MPD2    H7 9748   2.848   4.105  14.871 -2.2824  2.8774 -1.9894
  659TMC3    C1 9749   2.702   4.167  14.663  0.6566  0.1759 -0.2469
  659TMC3    C2 9750   2.727   4.281  14.732  0.1786  0.7013 -0.8143
  659TMC3    C3 9751   2.643   4.381  14.704 -0.5520  0.8259  0.1579
  659TMC3    C4 9752   2.606   4.151  14.566  0.1139 -0.3114  0.2255
  659TMC3    C5 9753   2.534   4.269  14.532 -0.3013 -0.6803  0.4723
  659TMC3    C6 9754   2.552   4.376  14.605 -0.5021 -0.5296 -0.0379
  659TMC3     C 9755   2.793   4.056  14.673 -0.0470  0.4728 -0.0494
  659TMC3     O 9756   2.801   3.982  14.577 -0.1407 -0.1071  0.0893
  659TMC3     H 9757   2.816   4.285  14.795  0.2415  1.5037 -0.9616
  659TMC3    H1 9758   2.593   4.059  14.511  0.0821  0.3016 -0.7884
  659TMC3    H2 9759   2.485   4.460  14.591  0.8253  0.5818  0.3288
  659TMC3    C7 9760   2.412   4.264  14.457 -0.1934  0.1437  0.0867
  659TMC3    C8 9761   2.602   4.462  14.817  0.3625 -0.4502 -1.0117
  659TMC3    O1 9762   2.331   4.355  14.467 -0.2423 -0.4422 -0.1994
  659TMC3    O2 9763   2.484   4.495  14.827 -0.2420 -0.3655  0.0986
  660MPD2     C 9764   1.070   3.094  12.651  0.4213  0.1544  1.1121
  660MPD2    C1 9765   0.935   3.109  12.650 -0.4049  0.3266 -0.4650
  660MPD2    C2 9766   0.859   3.032  12.738 -0.2675  0.3526  0.0483
  660MPD2    C3 9767   0.911   2.950  12.831  0.6385  0.0325  0.5679
  660MPD2    C4 9768   1.049   2.945  12.844 -0.0438 -0.1300 -0.7078
  660MPD2    C5 9769   1.124   2.999  12.743  0.0674 -0.2070  0.6252
  660MPD2     H 9770   0.752   3.042  12.722  0.0373  1.2116 -1.4700
  660MPD2    H1 9771   1.102   2.883  12.915 -0.1955  0.6270  0.0803
  660MPD2    H2 9772   1.139   3.142  12.583 -1.9285 -0.8689 -2.0159
  660MPD2    H3 9773   1.231   2.986  12.746  0.0784 -0.4953 -0.9733
  660MPD2     N 9774   0.835   2.874  12.924  0.2702 -0.4602  0.1080
  660MPD2    H5 9775   0.892   2.817  12.985 -1.0437 -0.3876  1.3985
  660MPD2    N1 9776   0.879   3.182  12.547  0.1996 -0.0029 -0.2478
  660MPD2    H7 9777   0.955   3.220  12.491  0.3626  0.7018  0.4443
  661TMC3    C1 9778   0.729   3.271  12.402  0.0884 -0.4211 -0.1357
  661TMC3    C2 9779   0.795   3.224  12.288 -0.3783 -0.6292  0.7774
  661TMC3    C3 9780   0.747   3.256  12.161 -0.1160  0.6336 -0.3934
  661TMC3    C4 9781   0.613   3.345  12.391 -0.7518  0.5016  1.3062
  661TMC3    C5 9782   0.571   3.371  12.262 -0.3094  0.0196 -0.1846
  661TMC3    C6 9783   0.634   3.332  12.151 -0.2155  0.0421 -0.3562
  661TMC3     C 9784   0.749   3.225  12.535  0.9037  0.4345 -0.2981
  661TMC3     O 9785   0.661   3.249  12.618 -0.4738 -0.4749 -0.9043
  661TMC3     H 9786   0.882   3.159  12.293  0.5415  0.7277  2.6497
  661TMC3    H1 9787   0.547   3.374  12.472 -2.8874  1.4120 -0.7451
  661TMC3    H2 9788   0.598   3.373  12.057 -1.0718 -0.8817 -0.4361
  661TMC3    C7 9789   0.441   3.433  12.241  0.2503 -0.5696  0.5125
  661TMC3    C8 9790   0.811   3.224  12.036  0.5638 -0.4975 -0.4572
  661TMC3    O1 9791   0.410   3.517  12.328  0.1450  0.1885 -0.1368
  661TMC3    O2 9792   0.775   3.282  11.935 -0.1423 -0.0030 -0.1195
  662MPD2     C 9793   1.452   2.030  17.592 -0.6403  0.3080 -0.5891
  662MPD2    C1 9794   1.398   2.012   0.031 -0.0147  0.5296  0.3744
  662MPD2    C2 9795   1.290   2.091   0.073 -0.2936 -0.3906  1.0406
  662MPD2    C3 9796   1.238   2.181  17.677 -0.0302  0.4817 -0.0099
  662MPD2    C4 9797   1.285   2.198  17.550 -0.0525  0.4516  0.1143
  662MPD2    C5 9798   1.394   2.121  17.509  0.0212 -0.2529  0.0932
  662MPD2     H 9799   1.241   2.072   0.168 -1.0127 -0.5874  0.6280
  662MPD2    H1 9800   1.235   2.271  17.488  1.0422  1.0636 -0.0478
  662MPD2    H2 9801   1.528   1.974  17.538 -0.2189  1.6312 -1.3675
  662MPD2    H3 9802   1.436   2.141  17.412 -1.5569  0.2194 -0.4831
  662MPD2     N 9803   1.127   2.255   0.031  0.0926 -0.0969  0.0198
  662MPD2    H5 9804   1.089   2.320  17.651 -1.3297  0.7726  1.6453
  662MPD2    N1 9805   1.433   1.894   0.103  0.0871  0.2805 -0.3460
  662MPD2    H7 9806   1.503   1.828   0.070  2.1663  2.7233 -0.9170
  663TMC3    C1 9807   1.442   1.735   0.283  0.1328  0.4690 -0.1443
  663TMC3    C2 9808   1.402   1.722   0.414 -0.5344  0.6980 -0.2384
  663TMC3    C3 9809   1.380   1.598   0.466 -0.6853 -0.1110 -0.7872
  663TMC3    C4 9810   1.455   1.629   0.196  0.3291  0.1567  0.0663
  663TMC3    C5 9811   1.448   1.506   0.259 -0.5899 -0.4091  0.8194
  663TMC3    C6 9812   1.399   1.494   0.384  0.0466 -0.4274  0.4633
  663TMC3     C 9813   1.391   1.859   0.228 -0.2248  0.6847  0.3525
  663TMC3     O 9814   1.335   1.930   0.305 -0.0489  0.6108  0.2087
  663TMC3     H 9815   1.434   1.789   0.492 -0.4390  0.1369  0.2065
  663TMC3    H1 9816   1.493   1.638   0.095  0.8508 -1.6971  0.0950
  663TMC3    H2 9817   1.395   1.399   0.437 -0.9590 -0.7423 -0.1699
  663TMC3    C7 9818   1.491   1.388   0.192  0.2116  0.9012 -0.2008
  663TMC3    C8 9819   1.264   1.597   0.548  0.1669 -0.3483 -0.1876
  663TMC3    O1 9820   1.542   1.412   0.083  0.3441 -0.5487 -0.0960
  663TMC3    O2 9821   1.252   1.505   0.627  0.2593  0.0144  0.1644
  664MPD2     C 9822   4.144   0.895  17.597  0.2759  0.1961  0.3402
  664MPD2    C1 9823   4.255   0.814  17.636 -0.2097 -0.7492  0.2268
  664MPD2    C2 9824   4.243   0.726   0.057 -0.3771  0.9860  0.3843
  664MPD2    C3 9825   4.128   0.722   0.133 -0.1565 -0.4448  0.2137
  664MPD2    C4 9826   4.016   0.796   0.087  0.1094  0.0296 -0.7067
  664MPD2    C5 9827   4.024   0.873  17.661  0.4933 -0.0767  0.5524
  664MPD2     H 9828   4.329   0.662   0.073 -1.9143 -1.1032  0.3439
  664MPD2    H1 9829   3.922   0.793   0.141  0.8964  1.1791  0.7192
  664MPD2    H2 9830   4.150   0.963  17.513  0.0525  1.2935  1.2161
  664MPD2    H3 9831   3.938   0.924  17.619  0.9660  0.7998  0.6330
  664MPD2     N 9832   4.133   0.651   0.253 -0.7657 -0.0091 -0.1022
  664MPD2    H5 9833   4.226   0.629   0.287 -1.4430 -0.0505  1.7628
  664MPD2    N1 9834   4.375   0.813  17.558  0.0594  0.7969 -0.1948
  664MPD2    H7 9835   4.449   0.753  17.593 -0.9208  0.0158  0.5178
  665TMC3    C1 9836   4.081   0.593   0.475  1.2262 -0.0681  0.7062
  665TMC3    C2 9837   3.978   0.584   0.569 -0.1772 -0.6868 -0.6064
  665TMC3    C3 9838   4.026   0.577   0.703  0.3838 -0.1773 -0.3313
  665TMC3    C4 9839   4.213   0.597   0.508 -0.1615  0.0406  0.1904
  665TMC3    C5 9840   4.252   0.600   0.639  0.0723  0.2155 -0.1454
  665TMC3    C6 9841   4.157   0.596   0.734  0.7327 -0.6174 -0.3520
  665TMC3     C 9842   4.030   0.630   0.341 -0.0842 -0.1602  0.1708
  665TMC3     O 9843   3.911   0.627   0.321 -0.0216 -0.2356  0.4256
  665TMC3     H 9844   3.875   0.583   0.536  0.0950 -1.4752 -1.4360
  665TMC3    H1 9845   4.295   0.602   0.437  0.2151 -0.3127  0.6061
  665TMC3    H2 9846   4.194   0.623   0.832 -1.6893 -2.9910  1.2152
  665TMC3    C7 9847   4.346   0.705   0.666 -0.2275 -0.0341  0.5851
  665TMC3    C8 9848   3.943   0.536   0.819  0.3741  0.1773 -0.7834
  665TMC3    O1 9849   4.300   0.819   0.689 -0.1039  0.6755 -0.3724
  665TMC3    O2 9850   3.997   0.530   0.928 -0.1528 -0.2456 -0.0826
  666TMC3    C1 9851   3.531   0.868   9.883 -0.2149 -0.1554 -0.0002
  666TMC3    C2 9852   3.632   0.832   9.969  0.1061  0.5618  0.6881
  666TMC3    C3 9853   3.678   0.936  10.043 -0.0127  0.1615 -0.1125
  666TMC3    C4 9854   3.461   0.984   9.892 -0.2048  0.6567 -0.1321
  666TMC3    C5 9855   3.513   1.082   9.979  0.0928 -0.3644 -0.7746
  666TMC3    C6 9856   3.621   1.061  10.059 -0.1156 -0.0061 -0.4139
  666TMC3     C 9857   3.462   0.752   9.829  0.7116  0.4136 -0.4066
  666TMC3     O 9858   3.524   0.652   9.808  0.2307  0.2208  0.2557
  666TMC3     H 9859   3.664   0.729   9.978 -1.0553 -0.0879 -2.8607
  666TMC3    H1 9860   3.377   1.007   9.827 -0.5660  4.0501  1.5521
  666TMC3    H2 9861   3.654   1.130  10.136  1.5310  0.9804 -2.0115
  666TMC3    C7 9862   3.420   1.178  10.024 -0.1081 -0.3399 -0.3007
  666TMC3    C8 9863   3.803   0.909  10.117 -0.1361  1.0546 -0.4859
  666TMC3    O1 9864   3.422   1.214  10.138  0.2194 -0.2065  0.1163
  666TMC3    O2 9865   3.817   0.792  10.152  0.1283 -0.3326  0.2650
  667MPD2     C 9866   0.538   1.110  14.946  0.1986  0.0570 -0.4424
  667MPD2    C1 9867   0.462   1.038  15.039 -0.5304  0.6344 -0.6575
  667MPD2    C2 9868   0.391   0.924  14.994  0.2465  0.2853  0.2272
  667MPD2    C3 9869   0.391   0.887  14.857 -0.0652  1.0263  0.8182
  667MPD2    C4 9870   0.467   0.962  14.772 -0.1921 -0.1034 -1.1463
  667MPD2    C5 9871   0.535   1.068  14.814 -0.0144  0.2881 -0.7132
  667MPD2     H 9872   0.338   0.865  15.067  0.6236  1.6150  1.5752
  667MPD2    H1 9873   0.465   0.933  14.668  0.1434 -0.8401 -0.9508
  667MPD2    H2 9874   0.568   1.214  14.961  2.7011 -1.4231  4.9764
  667MPD2    H3 9875   0.569   1.138  14.740 -1.8818  0.5353 -1.3288
  667MPD2     N 9876   0.321   0.780  14.799  0.4456  0.1483 -0.4018
  667MPD2    H5 9877   0.329   0.766  14.698  0.3675 -0.6164 -0.2979
  667MPD2    N1 9878   0.448   1.086  15.170 -0.9233 -0.9288 -0.5520
  667MPD2    H7 9879   0.364   1.053  15.215  0.9007 -2.3468  1.7941
  668TMC3    C1 9880   0.466   1.244  15.344  0.1821 -0.3233 -0.3343
  668TMC3    C2 9881   0.525   1.367  15.375 -0.2662  0.1127  0.1891
  668TMC3    C3 9882   0.482   1.427  15.490  1.0337 -0.2001  0.5013
  668TMC3    C4 9883   0.394   1.169  15.440 -0.2667  0.4038  0.5121
  668TMC3    C5 9884   0.361   1.239  15.554  0.5455  0.1386 -0.5023
  668TMC3    C6 9885   0.397   1.368  15.573 -0.1492 -0.2573  0.0250
  668TMC3     C 9886   0.531   1.175  15.233 -0.6496  0.2761  0.0282
  668TMC3     O 9887   0.641   1.220  15.204  0.3430  0.5146  0.2272
  668TMC3     H 9888   0.603   1.406  15.311 -0.6521  1.8660  0.7908
  668TMC3    H1 9889   0.334   1.085  15.407 -2.1717  1.7530  0.5308
  668TMC3    H2 9890   0.361   1.430  15.655  1.7481  0.8673  0.0121
  668TMC3    C7 9891   0.258   1.179  15.637 -0.8093  0.2702  0.3565
  668TMC3    C8 9892   0.510   1.566  15.513  0.4938 -0.1341 -0.0220
  668TMC3    O1 9893   0.183   1.258  15.694  0.0978 -0.5368 -0.3070
  668TMC3    O2 9894   0.490   1.605  15.625  0.3763  0.3187  0.5092
  669TMC3    C1 9895   3.141   0.848  14.248  1.0335  0.1210 -0.1449
  669TMC3    C2 9896   3.006   0.859  14.251 -0.5816 -0.3284  0.2309
  669TMC3    C3 9897   2.944   0.965  14.186 -0.1066  0.1145 -0.1246
  669TMC3    C4 9898   3.209   0.955  14.196  0.4484 -0.2214  0.3426
  669TMC3    C5 9899   3.143   1.052  14.127  0.1602  0.1373  0.0652
  669TMC3    C6 9900   3.012   1.050  14.103 -0.0058  0.0472 -0.4552
  669TMC3     C 9901   3.198   0.744  14.330 -0.1701  0.3959 -0.6485
  669TMC3     O 9902   3.122   0.681  14.395  0.1665 -0.3868  0.4231
  669TMC3     H 9903   2.952   0.774  14.290 -1.0451  0.1705  0.6796
  669TMC3    H1 9904   3.316   0.963  14.205  0.5785 -0.1645 -1.3693
  669TMC3    H2 9905   2.958   1.123  14.043  0.3548  1.2777  0.7229
  669TMC3    C7 9906   3.225   1.148  14.058  0.3594  0.2309  0.5332
  669TMC3    C8 9907   2.820   0.926  14.124  0.0230 -0.3448  0.6966
  669TMC3    O1 9908   3.331   1.179  14.117 -0.2090 -0.2717  0.5487
  669TMC3    O2 9909   2.792   0.807  14.121 -0.1026 -0.7717 -0.0979
  670MPD2     C 9910   1.387   3.275  13.266 -0.5602  0.0444  0.4125
  670MPD2    C1 9911   1.427   3.396  13.314  0.4824  0.6828 -0.3747
  670MPD2    C2 9912   1.339   3.464  13.403 -0.1531  0.4335  0.3505
  670MPD2    C3 9913   1.224   3.408  13.450 -0.9792  1.2810  0.0527
  670MPD2    C4 9914   1.184   3.287  13.392  0.4453 -0.2778  0.1079
  670MPD2    C5 9915   1.265   3.232  13.296 -0.8404 -0.0803 -0.3270
  670MPD2     H 9916   1.376   3.553  13.453 -0.2437 -1.2607  3.3995
  670MPD2    H1 9917   1.097   3.227  13.413 -0.5684  1.0266 -0.3716
  670MPD2    H2 9918   1.441   3.217  13.191  2.0427  1.6761  1.0514
  670MPD2    H3 9919   1.235   3.136  13.254 -1.7232 -0.1774  0.5403
  670MPD2     N 9920   1.161   3.462  13.564  0.2236  0.5657 -0.4005
  670MPD2    H5 9921   1.217   3.526  13.620 -1.0298  0.6314  0.7818
  670MPD2    N1 9922   1.545   3.451  13.269 -0.2413 -0.5040 -0.0604
  670MPD2    H7 9923   1.565   3.545  13.302 -0.3310 -1.2942  2.2430
  671TMC3    C1 9924   0.983   3.475  13.740 -0.2071 -0.2385  0.6616
  671TMC3    C2 9925   1.076   3.492  13.833 -0.3011 -0.1297 -0.3949
  671TMC3    C3 9926   1.042   3.439  13.959 -1.2439 -0.7770  0.5153
  671TMC3    C4 9927   0.855   3.435  13.766  0.8168  0.4396  0.4359
  671TMC3    C5 9928   0.826   3.374  13.879  0.0506 -0.4613  0.2618
  671TMC3    C6 9929   0.917   3.385  13.981 -0.7377  0.1178 -0.3052
  671TMC3     C 9930   1.032   3.435  13.606 -0.5296 -0.3006 -0.4060
  671TMC3     O 9931   0.949   3.372  13.539  0.1927 -0.1802 -0.4426
  671TMC3     H 9932   1.178   3.518  13.807 -0.1490 -0.5551 -0.2262
  671TMC3    H1 9933   0.787   3.418  13.683  2.1192  0.7356 -0.6974
  671TMC3    H2 9934   0.894   3.351  14.081  0.5321 -0.5792 -0.2530
  671TMC3    C7 9935   0.762   3.246  13.871 -0.9366 -0.4006  0.4793
  671TMC3    C8 9936   1.148   3.356  13.997 -0.1251 -0.4422  1.0323
  671TMC3    O1 9937   0.698   3.213  13.770  0.2478  0.1477 -0.3208
  671TMC3    O2 9938   1.215   3.313  13.907 -0.4197 -0.6714 -0.2836
  672MPD2     C 9939   1.987   3.683   0.294  0.0149  0.4793 -0.0122
  672MPD2    C1 9940   2.000   3.577   0.382  0.6437  0.3496 -0.1157
  672MPD2    C2 9941   2.064   3.590   0.504  0.3285 -0.1907  0.1340
  672MPD2    C3 9942   2.113   3.715   0.547  0.2305  0.1131  0.1187
  672MPD2    C4 9943   2.102   3.816   0.456  0.4800 -1.1763  0.5027
  672MPD2    C5 9944   2.046   3.803   0.331 -0.2919  0.1874 -0.3759
  672MPD2     H 9945   2.060   3.510   0.578  3.0425 -0.9001 -0.5047
  672MPD2    H1 9946   2.151   3.912   0.469 -1.0813 -0.3321  0.1897
  672MPD2    H2 9947   1.950   3.673   0.193 -0.7187  1.3094  0.1773
  672MPD2    H3 9948   2.047   3.889   0.265  1.5749 -0.1577 -0.8037
  672MPD2     N 9949   2.177   3.741   0.673 -0.0827 -0.0306 -0.4271
  672MPD2    H5 9950   2.210   3.836   0.685  0.5787 -0.4080  0.7607
  672MPD2    N1 9951   1.959   3.450   0.348  0.9622 -0.3258 -0.1431
  672MPD2    H7 9952   1.961   3.381   0.422 -0.4111 -2.4066 -2.0534
  673TMC3    C1 9953   1.851   3.272   0.242  0.5755 -0.3228  0.4251
  673TMC3    C2 9954   1.946   3.174   0.271 -0.5278 -0.1257  0.2490
  673TMC3    C3 9955   1.897   3.051   0.292 -0.2424 -0.1211  0.9110
  673TMC3    C4 9956   1.718   3.252   0.213 -0.1620 -0.2923  0.9009
  673TMC3    C5 9957   1.678   3.130   0.236 -0.7743 -0.6723  0.8118
  673TMC3    C6 9958   1.760   3.025   0.272  0.3354 -0.6888 -0.8566
  673TMC3     C 9959   1.881   3.420   0.241  0.3159 -0.4105  0.3067
  673TMC3     O 9960   1.845   3.488   0.141 -0.4497 -0.5825 -0.2426
  673TMC3     H 9961   2.052   3.197   0.260  0.0998 -2.6860  0.9657
  673TMC3    H1 9962   1.658   3.341   0.200  0.1712 -0.0609  0.9404
  673TMC3    H2 9963   1.713   2.930   0.296  0.6950 -0.4138  0.8717
  673TMC3    C7 9964   1.544   3.116   0.277 -0.2347  0.3644  0.0985
  673TMC3    C8 9965   1.987   2.939   0.289  0.2618  0.0070 -0.2490
  673TMC3    O1 9966   1.528   3.026   0.360  0.0771 -0.0662  0.6307
  673TMC3    O2 9967   1.938   2.833   0.257 -0.2003  0.1852  0.7397
  674MPD2     C 9968   0.792   3.160   0.075 -0.4146  0.1075  0.0273
  674MPD2    C1 9969   0.807   3.040   0.148  1.0847  0.0462  0.5839
  674MPD2    C2 9970   0.748   3.034   0.272  0.8159 -0.5011 -0.9240
  674MPD2    C3 9971   0.669   3.133   0.325 -0.0422  0.1736  0.6641
  674MPD2    C4 9972   0.655   3.254   0.252  0.7057  0.7195  0.2184
  674MPD2    C5 9973   0.717   3.259   0.129  0.1028 -0.4103  0.4377
  674MPD2     H 9974   0.763   2.951   0.341 -1.3592 -1.2052 -1.3177
  674MPD2    H1 9975   0.598   3.336   0.294  0.7250  1.1106 -0.5058
  674MPD2    H2 9976   0.831   3.175  17.663  2.3995  1.1182  1.2537
  674MPD2    H3 9977   0.704   3.349   0.070 -2.3756 -0.6476  0.6484
  674MPD2     N 9978   0.615   3.113   0.452  0.5550 -0.7883 -0.4717
  674MPD2    H5 9979   0.640   3.031   0.506  0.2690 -1.0686 -0.7671
  674MPD2    N1 9980   0.888   2.936   0.096 -0.1594  0.6291  0.6316
  674MPD2    H7 9981   0.955   2.964   0.026  0.2783 -1.2022  0.3080
  675TMC3    C1 9982   1.039   2.771   0.150  0.4067 -0.4353 -0.5702
  675TMC3    C2 9983   1.086   2.729   0.274  0.5113  0.4464 -0.1713
  675TMC3    C3 9984   1.205   2.766   0.321  0.1117  1.0360 -0.0087
  675TMC3    C4 9985   1.123   2.848   0.072  0.0092  0.0023 -0.6236
  675TMC3    C5 9986   1.257   2.871   0.112  0.5637  0.2043  0.5509
  675TMC3    C6 9987   1.297   2.827   0.235  0.2209 -0.0840 -0.0989
  675TMC3     C 9988   0.904   2.819   0.161  0.0139 -0.3970 -0.3205
  675TMC3     O 9989   0.831   2.767   0.245  0.3431  0.0250 -0.2524
  675TMC3     H 9990   1.022   2.671   0.339  0.8636  0.6792  0.3800
  675TMC3    H1 9991   1.096   2.859  17.655 -0.7064 -0.0754 -0.4445
  675TMC3    H2 9992   1.391   2.872   0.265  1.8182 -1.6934 -2.6633
  675TMC3    C7 9993   1.346   2.940   0.019 -0.1708  0.3122 -0.0486
  675TMC3    C8 9994   1.226   2.766   0.466  0.5302 -0.2742  0.0502
  675TMC3    O1 9995   1.296   3.022  17.636 -0.2272 -0.2321  0.2223
  675TMC3    O2 9996   1.123   2.734   0.526  0.6188  0.0817  0.0815
  676MPD2     C 9997   4.315   1.863  10.947  0.2153 -0.4217 -0.6956
  676MPD2    C1 9998   4.219   1.825  11.039  0.0608  0.2004  0.9199
  676MPD2    C2 9999   4.217   1.693  11.082 -0.3096 -0.1109 -0.6434
  676MPD2    C310000   4.282   1.598  11.011  0.5669  0.2903 -1.0461
  676MPD2    C410001   4.358   1.640  10.904  0.2417 -0.5502  0.1066
  676MPD2    C510002   4.387   1.768  10.884  0.6824  0.4949  0.3596
  676MPD2     H10003   4.156   1.664  11.167 -0.8665 -0.9915 -1.3380
  676MPD2    H110004   4.413   1.567  10.844  0.6776  0.7231 -1.0451
  676MPD2    H210005   4.322   1.962  10.905  0.2340  0.2156  0.7993
  676MPD2    H310006   4.448   1.791  10.797  0.4336  1.9029  0.5585
  676MPD2     N10007   4.262   1.460  11.031 -0.1099  0.6452  0.2585
  676MPD2    H510008   4.321   1.400  10.974 -0.3350  1.3817 -0.7427
  676MPD2    N110009   4.138   1.923  11.108 -0.3796 -0.1372  0.4267
  676MPD2    H710010   4.072   1.890  11.178 -1.7754  2.2100  0.2270
  677TMC3    C110011   4.017   2.109  11.148 -0.6219  0.0443  0.1016
  677TMC3    C210012   3.905   2.029  11.176 -0.1286 -0.1775  0.6113
  677TMC3    C310013   3.800   2.079  11.246  0.2290 -0.0722 -0.1859
  677TMC3    C410014   4.032   2.232  11.208  0.1674  0.3969  0.3006
  677TMC3    C510015   3.915   2.285  11.261  0.6942 -0.2471  0.2392
  677TMC3    C610016   3.794   2.214  11.280 -0.2636  0.8840 -0.1846
  677TMC3     C10017   4.124   2.051  11.074 -0.1280  0.7780  0.0610
  677TMC3     O10018   4.198   2.124  11.008  0.1110  0.0682 -0.2240
  677TMC3     H10019   3.891   1.934  11.126  1.6412 -0.1368  0.0505
  677TMC3    H110020   4.126   2.286  11.214  0.3417 -0.0138  1.1859
  677TMC3    H210021   3.716   2.259  11.341  0.8079 -0.1797  1.9666
  677TMC3    C710022   3.927   2.415  11.311  0.2217  0.1512 -0.0021
  677TMC3    C810023   3.687   2.000  11.279 -0.4415 -0.3026 -0.3276
  677TMC3    O110024   4.002   2.489  11.248  0.0278 -0.0624 -0.4234
  677TMC3    O210025   3.672   1.892  11.217  0.1592  0.5179 -0.1004
  678MPD2     C10026   0.673   1.899   1.507  0.0277 -0.3775 -0.3990
  678MPD2    C110027   0.714   1.773   1.478 -0.8390 -0.2933 -0.8404
  678MPD2    C210028   0.632   1.682   1.419  0.8214 -0.2155  0.0401
  678MPD2    C310029   0.504   1.722   1.388 -0.7129  0.3755  0.6375
  678MPD2    C410030   0.461   1.846   1.418  0.1874  0.3532  0.3779
  678MPD2    C510031   0.549   1.938   1.460  0.1709  0.3992  0.5161
  678MPD2     H10032   0.667   1.584   1.390 -1.7843 -1.0546 -0.2176
  678MPD2    H110033   0.372   1.888   1.373 -1.4453 -1.6629  1.7428
  678MPD2    H210034   0.735   1.978   1.548 -3.6305  0.9352  2.6533
  678MPD2    H310035   0.522   2.042   1.469  0.2295  0.4555  0.0237
  678MPD2     N10036   0.430   1.631   1.313  0.0268 -0.0638  0.1291
  678MPD2    H510037   0.477   1.549   1.273  3.7075  1.1259  2.0254
  678MPD2    N110038   0.853   1.753   1.495  0.1939 -0.2536 -1.0048
  678MPD2    H710039   0.908   1.831   1.530 -0.7859 -1.0569  2.3060
  679TMC3    C110040   1.254   1.538   1.561  0.2583  0.7081 -0.1312
  679TMC3    C210041   1.121   1.528   1.545 -0.2824  0.5540  0.1727
  679TMC3    C310042   1.059   1.646   1.513  0.5372  0.6250  0.1251
  679TMC3    C410043   1.327   1.651   1.538 -0.4991  0.5858  0.0344
  679TMC3    C510044   1.264   1.762   1.490  0.0222 -0.2900 -0.7278
  679TMC3    C610045   1.124   1.767   1.483  0.2913  0.1414 -0.1045
  679TMC3     C10046   1.329   1.415   1.556 -0.3326  0.2909  0.6723
  679TMC3     O10047   1.273   1.326   1.493 -0.1772  0.4792  0.0095
  679TMC3     H10048   1.063   1.436   1.544 -2.7731  2.1186 -1.2592
  679TMC3    H110049   1.435   1.649   1.534 -0.4398  0.8073  1.5922
  679TMC3    H210050   1.064   1.848   1.443  1.5948  0.3225 -1.6578
  679TMC3    C710051   1.350   1.854   1.416  0.1306 -0.7953 -0.5304
  679TMC3    C810052   0.920   1.634   1.478  0.0921 -0.3854 -0.2563
  679TMC3    O110053   1.474   1.845   1.421  0.1006  0.2349 -0.2917
  679TMC3    O210054   0.874   1.525   1.481  0.3095  0.5128  0.0857
  680MPD2     C10055   0.836   0.856  13.376  0.0015  0.3271 -0.2464
  680MPD2    C110056   0.932   0.782  13.437 -0.7792  0.4684  0.0900
  680MPD2    C210057   1.053   0.838  13.486  0.3817  0.2851  0.5152
  680MPD2    C310058   1.065   0.973  13.475  0.0787  0.7063  0.0411
  680MPD2    C410059   0.970   1.052  13.407 -0.3472  0.0185  0.3103
  680MPD2    C510060   0.869   0.989  13.356 -0.3292  0.0753  0.7528
  680MPD2     H10061   1.140   0.783  13.521 -0.2868 -1.2626 -0.2486
  680MPD2    H110062   0.972   1.161  13.406  2.9057 -0.0302 -0.2597
  680MPD2    H210063   0.764   0.809  13.310  1.4616 -0.7118 -1.0966
  680MPD2    H310064   0.794   1.046  13.302 -0.4535 -0.0875  0.7524
  680MPD2     N10065   1.175   1.043  13.534 -0.2162 -0.3895 -0.2855
  680MPD2    H510066   1.165   1.144  13.532  2.4549 -0.1303 -1.0631
  680MPD2    N110067   0.916   0.642  13.447  0.7533  0.3584 -0.5618
  680MPD2    H710068   0.998   0.598  13.488 -0.2108  0.3030  1.3355
  681TMC3    C110069   0.836   0.428  13.455  0.5140  0.1989 -0.0256
  681TMC3    C210070   0.731   0.353  13.517  0.6875  0.3841  0.0853
  681TMC3    C310071   0.748   0.220  13.534  0.1461 -0.5960 -0.1929
  681TMC3    C410072   0.936   0.360  13.386  0.1173 -0.0446  0.2527
  681TMC3    C510073   0.946   0.223  13.405  0.4740 -0.1616  0.1240
  681TMC3    C610074   0.847   0.153  13.469 -0.4193 -0.0805 -0.0635
  681TMC3     C10075   0.808   0.563  13.416 -0.0690 -0.1745 -0.1646
  681TMC3     O10076   0.698   0.581  13.373 -0.1160  0.5954  0.3542
  681TMC3     H10077   0.643   0.398  13.561 -0.6334 -0.2521 -1.9072
  681TMC3    H110078   1.001   0.416  13.319 -1.7008  0.1515 -1.3585
  681TMC3    H210079   0.855   0.046  13.484  0.3438 -0.2761 -1.7764
  681TMC3    C710080   1.001   0.141  13.301  0.0618 -0.0035  0.0566
  681TMC3    C810081   0.730   0.175  13.675  0.2864 -0.7417 -0.0690
  681TMC3    O110082   0.947   0.031  13.275 -0.0335 -0.1433  0.4515
  681TMC3    O210083   0.753   0.058  13.687  0.2535 -0.6095 -0.2811
  682MPD2     C10084   2.396   1.675  10.767  0.1422 -0.3165 -0.2963
  682MPD2    C110085   2.471   1.558  10.779  0.1154  0.2239  0.4103
  682MPD2    C210086   2.480   1.490  10.898  0.5749  0.0406 -0.3273
  682MPD2    C310087   2.430   1.549  11.014  0.0466  0.3373 -0.0049
  682MPD2    C410088   2.365   1.673  11.001  0.0147 -0.2538  0.1385
  682MPD2    C510089   2.347   1.731  10.875 -0.3503 -0.9265 -0.1978
  682MPD2     H10090   2.538   1.399  10.909 -2.0298 -1.5552  0.2087
  682MPD2    H110091   2.316   1.729  11.079 -0.0923 -1.3189  0.8305
  682MPD2    H210092   2.360   1.728  10.679  3.2381  1.4355 -0.5087
  682MPD2    H310093   2.288   1.821  10.866  1.7637  0.3495 -1.1540
  682MPD2     N10094   2.436   1.490  11.140  0.5945 -0.0504  0.5219
  682MPD2    H510095   2.397   1.546  11.216  0.6253 -0.2687  0.6981
  682MPD2    N110096   2.531   1.505  10.664 -0.8267 -0.1546  0.1886
  682MPD2    H710097   2.587   1.421  10.681  1.4726  1.5710  1.2210
  683TMC3    C110098   2.623   1.391  11.505  0.2077 -0.3339 -0.3759
  683TMC3    C210099   2.647   1.260  11.538 -0.3460  0.0166  0.5640
  683TMC3    C310100   2.620   1.171  11.442 -0.2176 -0.3208 -0.8545
  683TMC3    C410101   2.552   1.424  11.388  0.3789  0.1265  0.4866
  683TMC3    C510102   2.498   1.328  11.306 -0.2128  0.0879  0.0409
  683TMC3    C610103   2.550   1.203  11.325  0.3801 -0.4020  0.5325
  683TMC3     C10104   2.613   1.488  11.608 -0.8890 -0.5699  0.7436
  683TMC3     O10105   2.614   1.608  11.583 -0.2692 -0.0933  0.0463
  683TMC3     H10106   2.728   1.246  11.609  0.6760 -0.3202 -0.6729
  683TMC3    H110107   2.540   1.529  11.366 -0.8318 -0.3905 -1.2770
  683TMC3    H210108   2.537   1.124  11.252  1.5335 -0.3130  0.2337
  683TMC3    C710109   2.473   1.356  11.167  0.0153 -0.2715  0.1289
  683TMC3    C810110   2.663   1.034  11.449  0.5083  0.1034  0.2961
  683TMC3    O110111   2.489   1.264  11.081 -0.0841 -0.0352 -0.3508
  683TMC3    O210112   2.656   0.955  11.353 -0.3152 -0.3936  0.9971
  684MPD2     C10113   1.214   1.726  16.792  0.1064  0.0835 -0.1808
  684MPD2    C110114   1.233   1.802  16.682  0.2485 -0.0692 -0.0537
  684MPD2    C210115   1.267   1.932  16.693  0.2205  0.5463 -0.3956
  684MPD2    C310116   1.285   1.986  16.820 -0.4963  0.1732 -0.6363
  684MPD2    C410117   1.300   1.907  16.933  0.0132 -0.6295  0.2551
  684MPD2    C510118   1.264   1.776  16.914 -0.5302  0.4244 -0.0333
  684MPD2     H10119   1.294   1.981  16.601 -1.5150  0.0254 -1.1750
  684MPD2    H110120   1.318   1.939  17.035  1.9384  2.0316 -0.9108
  684MPD2    H210121   1.176   1.625  16.787  2.4596 -0.9860  3.0075
  684MPD2    H310122   1.251   1.722  17.007  3.5154  2.2343  1.6107
  684MPD2     N10123   1.324   2.122  16.830 -0.2118 -0.4449 -0.1907
  684MPD2    H510124   1.384   2.152  16.906  0.3929 -1.5461 -0.2365
  684MPD2    N110125   1.215   1.756  16.555  0.0753  0.2285  0.1988
  684MPD2    H710126   1.243   1.816  16.478  0.5540 -0.1051  0.1127
  685TMC3    C110127   1.225   1.607  16.392  0.4659  0.3223  0.4809
  685TMC3    C210128   1.167   1.511  16.315  0.1262 -0.0777 -0.4624
  685TMC3    C310129   1.220   1.490  16.188  0.3599  0.0388  0.3055
  685TMC3    C410130   1.333   1.676  16.340  0.1311  0.2602  0.0798
  685TMC3    C510131   1.370   1.647  16.213  0.5932 -1.4621 -0.0254
  685TMC3    C610132   1.324   1.554  16.129 -0.5727  0.2845 -0.4788
  685TMC3     C10133   1.177   1.632  16.517  0.7961  0.0783  0.3130
  685TMC3     O10134   1.096   1.551  16.564  0.1285 -0.2796 -0.3779
  685TMC3     H10135   1.082   1.459  16.356 -1.3336  1.6453 -1.3018
  685TMC3    H110136   1.381   1.760  16.389  0.4888 -0.3026  0.6909
  685TMC3    H210137   1.375   1.531  16.036  1.4317  0.5957  0.5493
  685TMC3    C710138   1.508   1.684  16.187  1.2512 -0.4710 -0.3370
  685TMC3    C810139   1.139   1.404  16.099 -0.1587  0.3044  0.1673
  685TMC3    O110140   1.540   1.726  16.076 -0.2760  0.0515  0.3943
  685TMC3    O210141   1.198   1.334  16.018  0.3703 -0.4067 -0.2373
  686MPD2     C10142   2.250   0.969  15.227 -0.2804  0.6184 -0.0615
  686MPD2    C110143   2.265   0.906  15.354  0.7857  0.4641  0.7439
  686MPD2    C210144   2.298   0.773  15.358 -0.1303 -0.2959 -0.3162
  686MPD2    C310145   2.299   0.693  15.247  0.6362 -0.3418 -0.1601
  686MPD2    C410146   2.287   0.754  15.128 -0.6245 -0.2619 -0.8161
  686MPD2    C510147   2.255   0.889  15.121  0.2323 -0.0754 -0.1025
  686MPD2     H10148   2.317   0.729  15.456  1.2401 -2.1066 -1.4027
  686MPD2    H110149   2.278   0.693  15.038  2.2692  0.2338 -1.4349
  686MPD2    H210150   2.223   1.073  15.212  0.4610  0.9214  0.7529
  686MPD2    H310151   2.240   0.941  15.027  0.6136 -0.8459 -0.5970
  686MPD2     N10152   2.332   0.554  15.248 -0.2453 -0.1572  0.1721
  686MPD2    H510153   2.350   0.511  15.158  0.2562 -0.1894  0.2894
  686MPD2    N110154   2.230   0.980  15.468  0.4377  0.8277  0.0645
  686MPD2    H710155   2.209   1.078  15.452  1.4778  0.6936 -2.1310
  687TMC3    C110156   2.252   0.503  15.477 -0.3043  0.3352  0.4941
  687TMC3    C210157   2.124   0.547  15.477  0.9736  0.6520  0.1831
  687TMC3    C310158   2.063   0.569  15.601  0.0508  0.0742  0.1566
  687TMC3    C410159   2.319   0.473  15.592 -0.5799 -0.1968  0.9172
  687TMC3    C510160   2.255   0.495  15.710 -0.0210 -0.5930 -0.5877
  687TMC3    C610161   2.132   0.554  15.717  0.2853 -0.2589 -0.6152
  687TMC3     C10162   2.320   0.469  15.355 -0.2283 -0.2476 -0.3325
  687TMC3     O10163   2.379   0.361  15.352  0.3410 -0.1057 -0.1827
  687TMC3     H10164   2.076   0.560  15.380  0.5946 -2.3775 -0.0296
  687TMC3    H110165   2.419   0.433  15.585 -0.4383 -0.0004  1.7885
  687TMC3    H210166   2.090   0.575  15.814  1.3284  2.7095 -0.7935
  687TMC3    C710167   2.335   0.506  15.830  0.3845 -0.6565  0.1556
  687TMC3    C810168   1.959   0.666  15.616  0.2420 -0.2830  0.4201
  687TMC3    O110169   2.293   0.583  15.917  0.3787 -0.2653  0.0785
  687TMC3    O210170   1.910   0.679  15.726 -0.7575 -0.3064 -0.0212
  688MPD2     C10171   2.262   0.349  17.286 -0.1894 -0.3000 -0.3193
  688MPD2    C110172   2.256   0.216  17.261 -0.3255  0.3157 -0.2995
  688MPD2    C210173   2.290   0.167  17.136  0.3041 -0.8915  0.1079
  688MPD2    C310174   2.326   0.250  17.035  0.3106  0.0729  0.4466
  688MPD2    C410175   2.336   0.385  17.063  0.7934 -0.4350  0.1987
  688MPD2    C510176   2.309   0.436  17.189 -0.3235 -0.7289 -0.5812
  688MPD2     H10177   2.300   0.061  17.119 -0.2761 -0.7306 -1.2377
  688MPD2    H110178   2.358   0.458  16.986  1.0711  0.6996  1.3397
  688MPD2    H210179   2.245   0.389  17.385  1.3296 -0.8973  0.1762
  688MPD2    H310180   2.332   0.540  17.212  3.6009 -1.5037 -0.9263
  688MPD2     N10181   2.338   0.218  16.900 -0.0097 -0.1664  0.6289
  688MPD2    H510182   2.340   0.294  16.832 -2.4574 -0.7161 -0.0495
  688MPD2    N110183   2.223   0.120  17.359  0.8826 -0.7328  0.7932
  688MPD2    H710184   2.209   0.024  17.332  0.1129 -0.4780  0.2880
  689TMC3    C110185   2.167   0.030  17.585  0.2528  0.6052 -0.8064
  689TMC3    C210186   2.198   0.059   0.030  0.7651 -0.1385  0.5286
  689TMC3    C310187   2.184   4.673   0.113 -0.6980  0.2341  0.0121
  689TMC3    C410188   2.144   4.625  17.537  0.3089 -0.0197  0.2770
  689TMC3    C510189   2.126   4.525  17.629  0.7339 -0.5327 -0.4434
  689TMC3    C610190   2.139   4.547   0.078  0.1259  0.2074 -0.6221
  689TMC3     C10191   2.191   0.147  17.496  0.5319  0.5816  1.1266
  689TMC3     O10192   2.179   0.257  17.549  0.5805 -0.7630  0.2019
  689TMC3     H10193   2.203   0.163   0.058  1.2239  0.3188 -1.2550
  689TMC3    H110194   2.128   4.608  17.431 -0.8297  0.7061  0.3369
  689TMC3    H210195   2.122   4.461   0.143  1.5266  1.0575  0.8510
  689TMC3    C710196   2.126   4.392  17.598 -0.2119 -0.3224  0.4688
  689TMC3    C810197   2.177   4.692   0.256 -0.2805 -0.1100 -0.4367
  689TMC3    O110198   2.202   4.317  17.660  0.1796  0.4970  0.5068
  689TMC3    O210199   2.147   4.595   0.320 -0.1753  0.4602  0.0109
  690MPD2     C10200   3.621   0.857  15.914 -0.1255  0.3812 -0.6772
  690MPD2    C110201   3.625   0.983  15.974  0.6444 -0.1649  0.7467
  690MPD2    C210202   3.717   1.073  15.920 -0.1308 -0.3822  0.0847
  690MPD2    C310203   3.778   1.054  15.800 -0.0517 -0.3131  0.0201
  690MPD2    C410204   3.759   0.931  15.733 -0.3913 -0.4678  0.8650
  690MPD2    C510205   3.690   0.831  15.801 -0.1887  0.8077  0.3573
  690MPD2     H10206   3.723   1.168  15.973 -0.7500  0.0986 -0.7209
  690MPD2    H110207   3.805   0.912  15.636 -0.3963  3.3205  0.1054
  690MPD2    H210208   3.553   0.780  15.948  0.2284  1.2072  1.9752
  690MPD2    H310209   3.683   0.736  15.750 -0.3945 -0.3438  2.5185
  690MPD2     N10210   3.848   1.163  15.741 -0.2315 -1.0062 -0.2062
  690MPD2    H510211   3.862   1.244  15.800  0.3806 -0.0412 -1.6763
  690MPD2    N110212   3.532   1.026  16.074  0.1127 -1.1637 -0.6157
  690MPD2    H710213   3.518   1.127  16.082 -0.4924 -1.1622 -1.6244
  691TMC3    C110214   3.341   1.028  16.210 -0.1909 -0.1742 -0.8180
  691TMC3    C210215   3.372   1.160  16.252  0.7984  0.3022  0.3708
  691TMC3    C310216   3.273   1.252  16.256 -0.0369  0.5423  0.3827
  691TMC3    C410217   3.216   0.987  16.184 -0.0671 -0.0455 -0.0269
  691TMC3    C510218   3.113   1.083  16.190  1.0293  0.4058  0.7207
  691TMC3    C610219   3.147   1.211  16.214  0.3339 -0.3029  0.0669
  691TMC3     C10220   3.442   0.952  16.141  0.1103  0.1876  0.5059
  691TMC3     O10221   3.421   0.832  16.136 -0.2068  0.3158 -0.0515
  691TMC3     H10222   3.476   1.181  16.276  0.7656  1.7534 -0.7682
  691TMC3    H110223   3.200   0.887  16.147  0.9246 -0.6196  1.1041
  691TMC3    H210224   3.061   1.274  16.238  0.2440 -0.3540 -0.1249
  691TMC3    C710225   2.975   1.054  16.146 -0.8221  0.5222 -0.4791
  691TMC3    C810226   3.296   1.385  16.292  0.0444 -0.1845 -0.3726
  691TMC3    O110227   2.893   1.140  16.177  0.3221 -0.6935  0.1419
  691TMC3    O210228   3.404   1.396  16.342  0.2021  0.5500 -0.3220
  692TMC3    C110229   0.819   3.016  16.034 -0.0935 -0.6389  0.0127
  692TMC3    C210230   0.815   3.110  15.934 -0.3487 -0.4574  1.0269
  692TMC3    C310231   0.930   3.142  15.868  0.6511  0.1033  0.3389
  692TMC3    C410232   0.936   2.941  16.051 -0.1609  0.2645 -0.2521
  692TMC3    C510233   1.033   2.943  15.952  0.3499  0.0521 -0.1934
  692TMC3    C610234   1.030   3.040  15.860  0.7207 -0.0604  0.7337
  692TMC3     C10235   0.700   3.011  16.121 -0.3287 -0.7480 -0.1530
  692TMC3     O10236   0.626   3.109  16.113  0.5533  0.8164 -0.0841
  692TMC3     H10237   0.731   3.178  15.931  0.6669  0.6785 -1.2521
  692TMC3    H110238   0.938   2.865  16.128  0.7377  1.1956  0.6419
  692TMC3    H210239   1.117   3.070  15.802  0.0236 -2.3228 -1.4896
  692TMC3    C710240   1.150   2.865  15.953 -0.3510 -0.2901 -0.9904
  692TMC3    C810241   0.982   3.265  15.908  0.1580 -0.1512 -0.1308
  692TMC3    O110242   1.203   2.853  15.845  0.0793  0.4551 -0.1078
  692TMC3    O210243   1.100   3.258  15.943 -0.5413  0.6047  0.2966
  693MPD2     C10244   0.463   1.338  10.603 -0.3818  0.3907  0.5733
  693MPD2    C110245   0.461   1.250  10.708 -0.5144 -0.6347  1.1473
  693MPD2    C210246   0.577   1.219  10.775 -0.7120  0.1061  0.5192
  693MPD2    C310247   0.703   1.271  10.739 -0.9665  0.3067 -0.1474
  693MPD2    C410248   0.702   1.362  10.631  0.0165  1.2531 -0.1792
  693MPD2    C510249   0.580   1.393  10.566  0.2481  0.2589 -0.0167
  693MPD2     H10250   0.573   1.177  10.875  0.6274 -0.1504  0.4624
  693MPD2    H110251   0.793   1.400  10.587  0.8191 -0.5409 -0.0862
  693MPD2    H210252   0.372   1.383  10.564 -0.5749  0.6230  1.2952
  693MPD2    H310253   0.581   1.450  10.474 -1.6464  0.6222  0.1823
  693MPD2     N10254   0.827   1.224  10.800  0.1459 -0.8010 -0.3382
  693MPD2    H510255   0.919   1.258  10.776 -0.0930  1.0752  1.4535
  693MPD2    N110256   0.338   1.194  10.756 -0.1085  0.1863 -0.0335
  693MPD2    H710257   0.333   1.155  10.850 -2.4413 -1.2397 -0.7466
  694TMC3    C110258   0.130   1.108  10.751  0.2060 -0.1460  0.2513
  694TMC3    C210259   0.044   1.033  10.671 -0.3456 -0.4257  0.2142
  694TMC3    C310260   4.684   0.947  10.742  0.2023  0.0758  0.4477
  694TMC3    C410261   0.135   1.097  10.890 -0.5638  0.4812  0.0172
  694TMC3    C510262   0.063   0.998  10.950 -0.0417  0.8634 -0.4415
  694TMC3    C610263   4.708   0.915  10.875 -0.2635 -0.0026  0.5960
  694TMC3     C10264   0.228   1.184  10.681 -0.3636  0.7139  0.5377
  694TMC3     O10265   0.194   1.221  10.568  0.0362 -0.2080  0.3341
  694TMC3     H10266   0.060   1.027  10.564 -0.9070 -1.2367  0.1806
  694TMC3    H110267   0.183   1.172  10.953 -0.4670  2.8306 -2.8333
  694TMC3    H210268   4.638   0.848  10.924 -2.0164  2.4527  1.4630
  694TMC3    C710269   0.043   1.003  11.092  0.3900  0.0500  0.2431
  694TMC3    C810270   4.619   0.848  10.669 -0.0653 -0.2086 -0.0678
  694TMC3    O110271   0.076   1.111  11.136 -0.0640 -0.0902  0.0269
  694TMC3    O210272   4.603   0.741  10.722 -0.0634  0.5204 -0.5573
  695MPD2     C10273   1.419   2.838  13.398 -0.2468 -0.0733  0.7206
  695MPD2    C110274   1.374   2.817  13.524  0.1213 -0.0584 -0.1046
  695MPD2    C210275   1.238   2.806  13.541 -0.1187 -0.0957  0.3921
  695MPD2    C310276   1.147   2.821  13.434 -0.1140  0.1167 -0.9032
  695MPD2    C410277   1.198   2.831  13.307 -0.3499  0.3381 -0.2530
  695MPD2    C510278   1.335   2.855  13.293  0.0411  0.2975  0.3354
  695MPD2     H10279   1.192   2.799  13.639  1.0003 -1.1326  0.8537
  695MPD2    H110280   1.139   2.841  13.217 -0.0597 -1.7125 -0.6750
  695MPD2    H210281   1.521   2.861  13.371  0.1637 -1.7370  0.8842
  695MPD2    H310282   1.378   2.889  13.200 -1.8192  1.8567  0.0526
  695MPD2     N10283   1.008   2.818  13.468 -0.1425 -0.0192  0.9110
  695MPD2    H510284   0.977   2.789  13.560 -2.6384 -1.8634 -0.4867
  695MPD2    N110285   1.459   2.806  13.638  0.1129 -0.4963  0.2453
  695MPD2    H710286   1.412   2.783  13.725 -3.1035 -1.3361 -1.6948
  696TMC3    C110287   0.772   2.843  13.422  0.2426  0.1307  0.4741
  696TMC3    C210288   0.741   2.778  13.536 -0.1780  0.1934 -0.0348
  696TMC3    C310289   0.631   2.816  13.598  0.2456  0.6759 -0.2598
  696TMC3    C410290   0.693   2.942  13.371  0.3093 -0.4914  0.3668
  696TMC3    C510291   0.578   2.969  13.443 -0.2454  0.3610  0.6150
  696TMC3    C610292   0.542   2.911  13.562  0.6150  0.6290  0.3137
  696TMC3     C10293   0.911   2.851  13.374 -0.0760  0.2070 -0.0474
  696TMC3     O10294   0.930   2.898  13.267 -0.4580  0.0794 -0.0309
  696TMC3     H10295   0.800   2.693  13.565 -2.3257 -0.3655  2.6831
  696TMC3    H110296   0.701   2.995  13.276 -1.1765  0.5469  0.8237
  696TMC3    H210297   0.448   2.926  13.613  1.1133 -1.0982  1.7480
  696TMC3    C710298   0.510   3.094  13.412 -0.0407 -0.1943  0.6920
  696TMC3    C810299   0.584   2.727  13.704 -0.0881  0.7081  0.2230
  696TMC3    O110300   0.501   3.114  13.294 -0.6245  0.3509 -0.6027
  696TMC3    O210301   0.496   2.648  13.661 -0.1491 -0.0614  0.3887
  697MPD2     C10302   0.857   0.419  15.661  0.0186 -0.9504  0.5244
  697MPD2    C110303   0.870   0.321  15.568  0.2016 -0.2331  0.1428
  697MPD2    C210304   0.861   0.348  15.431  0.2172 -0.5302  0.1719
  697MPD2    C310305   0.864   0.486  15.395  0.4916  0.2045 -0.1755
  697MPD2    C410306   0.849   0.582  15.488 -0.2431 -0.3968  0.0551
  697MPD2    C510307   0.838   0.547  15.624  0.5769 -0.3133 -0.0541
  697MPD2     H10308   0.864   0.269  15.356  0.2948  0.0032 -0.3832
  697MPD2    H110309   0.852   0.687  15.461  1.6174 -0.4989 -0.1412
  697MPD2    H210310   0.839   0.397  15.765 -2.9660  2.3200  0.7259
  697MPD2    H310311   0.816   0.627  15.694  2.7807  1.6884 -1.6626
  697MPD2     N10312   0.869   0.513  15.257 -0.2016 -0.7991  0.0301
  697MPD2    H510313   0.880   0.434  15.194  1.3205 -0.0238 -0.6733
  697MPD2    N110314   0.885   0.179  15.600  0.4403  0.0841 -0.6298
  697MPD2    H710315   0.908   0.118  15.522  1.2511  0.3072 -0.5638
  698TMC3    C110316   0.819   0.634  15.058 -0.5378  0.5441  0.4345
  698TMC3    C210317   0.828   0.748  14.985 -0.0956 -0.7225 -0.1506
  698TMC3    C310318   0.752   0.759  14.874  0.2573 -0.5156  0.3494
  698TMC3    C410319   0.733   0.536  15.018 -0.1394 -0.2467 -0.3543
  698TMC3    C510320   0.661   0.560  14.905  0.5839  0.0174 -0.0166
  698TMC3    C610321   0.665   0.668  14.825 -0.3099  0.0950  0.6395
  698TMC3     C10322   0.872   0.638  15.195  0.3851  0.1097 -0.3682
  698TMC3     O10323   0.935   0.737  15.239 -0.2229 -0.4283 -0.0857
  698TMC3     H10324   0.883   0.835  15.021  0.6791 -0.8590 -0.9975
  698TMC3    H110325   0.711   0.447  15.075 -0.3085 -0.4357 -0.7164
  698TMC3    H210326   0.614   0.673  14.730  1.2814 -0.7219 -0.2406
  698TMC3    C710327   0.631   0.442  14.825  0.2788  0.0881  0.1266
  698TMC3    C810328   0.794   0.839  14.759  0.3929  0.0595  0.5144
  698TMC3    O110329   0.519   0.394  14.831 -0.0814 -0.2540 -0.1425
  698TMC3    O210330   0.722   0.862  14.662  0.7796 -0.1811 -0.0443
  699TMC3    C110331   0.636   2.786  13.020  0.4683  0.2077  0.2337
  699TMC3    C210332   0.717   2.704  13.093  0.2874  0.4023 -0.6959
  699TMC3    C310333   0.651   2.608  13.165 -1.1930 -0.9602 -0.1556
  699TMC3    C410334   0.500   2.772  13.014  0.2938  1.0997  0.1130
  699TMC3    C510335   0.442   2.671  13.090  0.0732 -0.0819 -0.5595
  699TMC3    C610336   0.520   2.583  13.157 -0.1041 -0.6333 -0.6292
  699TMC3     C10337   0.701   2.888  12.941 -0.2752 -0.3669 -0.6886
  699TMC3     O10338   0.623   2.964  12.884  0.5852 -0.8480  0.3808
  699TMC3     H10339   0.818   2.738  13.118 -0.2055  2.6242 -1.6889
  699TMC3    H110340   0.450   2.853  12.962  0.6848  0.3478 -1.4442
  699TMC3    H210341   0.470   2.501  13.207 -1.7084  1.6235  1.4832
  699TMC3    C710342   0.304   2.692  13.136  0.0703  0.2165  0.2479
  699TMC3    C810343   0.720   2.531  13.264  0.2954  0.6317 -0.2484
  699TMC3    O110344   0.286   2.811  13.166 -0.1581 -0.6640 -0.2014
  699TMC3    O210345   0.645   2.467  13.341  0.4549 -0.1748 -0.4306
  700TMC3    C110346   4.434   4.653   0.389  0.0694 -0.1368  0.8552
  700TMC3    C210347   4.508   4.537   0.416 -1.0927  0.2669  0.6911
  700TMC3    C310348   4.644   4.541   0.440 -0.6082  0.0970 -0.6531
  700TMC3    C410349   4.491   0.052   0.411  0.5005  0.0115 -1.1771
  700TMC3    C510350   4.618   0.062   0.456  0.4740 -0.2536 -0.2247
  700TMC3    C610351   4.693   4.674   0.463 -0.2376 -0.7351 -0.2785
  700TMC3     C10352   4.380   4.647   0.257 -1.4451  0.2115  0.2077
  700TMC3     O10353   4.307   4.555   0.242 -0.4752 -0.0942  0.4173
  700TMC3     H10354   4.453   4.444   0.414 -3.9516  1.9829 -0.5857
  700TMC3    H110355   4.436   0.143   0.393 -1.5281 -0.7256  1.3298
  700TMC3    H210356   0.080   4.674   0.471 -0.0782  0.1183 -2.2979
  700TMC3    C710357   4.684   0.184   0.425 -0.0463  0.2058 -0.0182
  700TMC3    C810358   4.721   4.477   0.342  0.0847  0.3309  0.2604
  700TMC3    O110359   4.647   0.253   0.333 -0.2034 -0.1587  0.4704
  700TMC3    O210360   0.118   4.504   0.333 -0.0332  0.1346 -0.0851
  701TMC3    C110361   4.516   3.789  15.722  0.3154 -0.5899  0.1095
  701TMC3    C210362   4.579   3.708  15.626 -0.0605  0.0025  0.1205
  701TMC3    C310363   4.707   3.750  15.580 -0.0105 -0.4335  0.3436
  701TMC3    C410364   4.575   3.907  15.761 -0.2012  0.0634  0.3009
  701TMC3    C510365   4.702   3.941  15.719 -0.2987  0.9112 -0.6854
  701TMC3    C610366   0.053   3.857  15.642  0.3176  0.4879 -0.1969
  701TMC3     C10367   4.380   3.751  15.755  0.5755  0.2955 -0.1349
  701TMC3     O10368   4.347   3.645  15.703  0.3428 -0.6911  0.3159
  701TMC3     H10369   4.527   3.623  15.585  0.3551  0.8530 -2.2005
  701TMC3    H110370   4.521   3.974  15.827  2.4657  0.8746  1.6485
  701TMC3    H210371   0.152   3.881  15.606  1.3065 -1.4518  1.2147
  701TMC3    C710372   0.042   4.069  15.743 -0.2436  0.3367 -0.2690
  701TMC3    C810373   0.066   3.679  15.486 -0.0856 -0.0202 -0.2045
  701TMC3    O110374   0.131   4.102  15.665 -0.0430  0.1669  0.1257
  701TMC3    O210375   0.157   3.728  15.425  0.0468  0.5194 -0.4236
  702MPD2     C10376   4.009   1.374  10.448  0.5754 -0.0174 -0.4934
  702MPD2    C110377   4.083   1.410  10.561 -0.3163  0.2848 -0.2240
  702MPD2    C210378   4.156   1.520  10.551 -0.1481  0.2667 -0.5256
  702MPD2    C310379   4.175   1.584  10.426  0.2667  0.6454 -0.6591
  702MPD2    C410380   4.107   1.545  10.315  0.4759 -0.2532  0.1895
  702MPD2    C510381   4.025   1.439  10.324 -0.1943  0.4315 -0.8364
  702MPD2     H10382   4.201   1.562  10.640  0.7092 -0.9771 -0.3826
  702MPD2    H110383   4.116   1.594  10.219  0.1228 -0.8095 -0.1261
  702MPD2    H210384   3.948   1.284  10.440 -0.9561  1.1479 -1.9592
  702MPD2    H310385   3.970   1.409  10.236  2.1462 -2.1323 -1.4266
  702MPD2     N10386   4.251   1.702  10.421  0.1854 -0.7077  0.6219
  702MPD2    H510387   4.233   1.769  10.347  0.1013 -1.1069  0.2809
  702MPD2    N110388   4.069   1.355  10.693  0.3504 -0.5751 -0.8362
  702MPD2    H710389   4.106   1.409  10.771  3.2454 -2.8036 -0.6793
  703TMC3    C110390   4.367   1.877  10.527  0.1949  0.0014 -0.4726
  703TMC3    C210391   4.258   1.948  10.552  0.1749  0.1548 -0.5121
  703TMC3    C310392   4.288   2.058  10.629 -0.2549  0.7118 -0.3276
  703TMC3    C410393   4.495   1.917  10.548  0.1463  0.6124 -0.2674
  703TMC3    C510394   4.517   2.040  10.603 -0.3225 -0.0538  0.1564
  703TMC3    C610395   4.410   2.113  10.649 -0.1358 -0.2528 -0.2423
  703TMC3     C10396   4.350   1.731  10.510 -0.5862  0.4493  0.3673
  703TMC3     O10397   4.415   1.655  10.588 -0.4355 -0.2246 -0.1304
  703TMC3     H10398   4.156   1.913  10.537 -0.4925  1.5681  0.6217
  703TMC3    H110399   4.578   1.849  10.539  0.0189  0.3631  0.4522
  703TMC3    H210400   4.418   2.203  10.709 -3.3024 -1.0143  1.3096
  703TMC3    C710401   4.596   2.118  10.514 -0.9627  0.7825  0.3916
  703TMC3    C810402   4.181   2.143  10.664  0.3134 -0.7065  0.0576
  703TMC3    O110403   4.692   2.055  10.465 -0.1747  0.0944  0.3255
  703TMC3    O210404   4.204   2.260  10.645  0.4918 -0.0095  0.1804
  704TMC3    C110405   1.552   4.145  12.675 -0.3985  0.0500  0.0922
  704TMC3    C210406   1.648   4.235  12.705 -0.1129  0.4066  0.4014
  704TMC3    C310407   1.742   4.208  12.795 -0.3723  0.3893 -0.0193
  704TMC3    C410408   1.529   4.029  12.742  0.6612  0.3078 -0.6457
  704TMC3    C510409   1.618   4.006  12.838  0.2548 -0.0385 -0.2760
  704TMC3    C610410   1.722   4.094  12.872 -0.2078 -0.2671 -0.0075
  704TMC3     C10411   1.445   4.183  12.587  0.4385 -0.1750 -0.1187
  704TMC3     O10412   1.328   4.154  12.619  0.2715 -0.3175 -0.6933
  704TMC3     H10413   1.647   4.328  12.649 -0.3493  1.9966  3.0805
  704TMC3    H110414   1.446   3.968  12.710 -0.7700  1.6977  0.4347
  704TMC3    H210415   1.775   4.061  12.960 -1.5451 -0.7616  0.6180
  704TMC3    C710416   1.649   3.867  12.867 -0.1216 -0.9878  0.2935
  704TMC3    C810417   1.878   4.238  12.765  0.0655  0.0614 -0.1682
  704TMC3    O110418   1.759   3.849  12.915 -0.2030 -0.4622 -0.3656
  704TMC3    O210419   1.906   4.285  12.651 -0.1699  0.3624 -0.2275
  705MPD2     C10420   1.353   3.022  16.866 -0.2792 -0.7015 -0.0102
  705MPD2    C110421   1.331   2.912  16.791 -0.1788 -0.2688  0.4019
  705MPD2    C210422   1.231   2.820  16.833  0.1606  0.0111  0.2129
  705MPD2    C310423   1.152   2.852  16.943 -0.4733 -0.1386 -0.5119
  705MPD2    C410424   1.184   2.962  17.015  0.0677 -0.1293 -0.4408
  705MPD2    C510425   1.279   3.048  16.976 -0.1418  0.3564  0.2542
  705MPD2     H10426   1.216   2.729  16.776 -1.2833  1.5514 -1.8584
  705MPD2    H110427   1.115   2.987  17.095  1.4062  1.7491  0.1316
  705MPD2    H210428   1.421   3.100  16.835  0.2242 -0.8627  0.6815
  705MPD2    H310429   1.284   3.151  17.008 -0.2388  0.1655  0.8805
  705MPD2     N10430   1.038   2.770  16.978  0.2006  0.4224 -0.0427
  705MPD2    H510431   0.994   2.789  17.068 -1.6232  1.5997 -1.1773
  705MPD2    N110432   1.399   2.895  16.668 -0.9879  0.3535  0.5804
  705MPD2    H710433   1.348   2.827  16.612 -0.3831  0.1443  0.2889
  706TMC3    C110434   1.687   2.953  16.297  0.3760  0.6692  0.0785
  706TMC3    C210435   1.592   3.008  16.218  0.1230 -0.2481  0.2239
  706TMC3    C310436   1.472   3.037  16.285 -0.4368 -0.5129  0.1570
  706TMC3    C410437   1.666   2.924  16.436  0.0335  0.5010 -0.2329
  706TMC3    C510438   1.538   2.934  16.484 -0.0325  0.1320  0.3383
  706TMC3    C610439   1.448   3.004  16.410  0.3475 -0.0575 -0.0861
  706TMC3     C10440   1.786   2.857  16.237  0.6661 -0.8755 -0.3410
  706TMC3     O10441   1.824   2.763  16.301  0.5396  0.2342 -0.5683
  706TMC3     H10442   1.601   3.034  16.113  0.6367  1.7287  0.7484
  706TMC3    H110443   1.737   2.870  16.498 -1.2116  1.8522  2.3630
  706TMC3    H210444   1.351   3.027  16.453 -0.8622 -1.2633 -2.1689
  706TMC3    C710445   1.522   2.947  16.628 -0.2878 -0.0904  0.1789
  706TMC3    C810446   1.397   3.156  16.246  0.4223  0.2042  0.1789
  706TMC3    O110447   1.610   2.987  16.702  0.2654 -0.4500  0.1868
  706TMC3    O210448   1.273   3.156  16.259  0.0502 -0.3097  0.4254
  707TMC3    C110449   2.910   0.882   1.782 -0.3183  0.1954 -0.6257
  707TMC3    C210450   2.966   0.828   1.899  0.2361  0.7004 -0.2929
  707TMC3    C310451   2.902   0.723   1.960  0.2591  0.2298 -0.1932
  707TMC3    C410452   2.785   0.844   1.740 -0.2143 -0.3895 -0.1289
  707TMC3    C510453   2.721   0.752   1.814 -0.7190  0.3955 -0.2002
  707TMC3    C610454   2.780   0.681   1.916 -0.3954 -0.1267 -0.0773
  707TMC3     C10455   2.999   0.964   1.695 -0.5563 -0.7585  0.0698
  707TMC3     O10456   3.089   1.009   1.761  0.5885  0.3898 -0.2418
  707TMC3     H10457   3.071   0.851   1.916  0.3998 -0.4073  0.2251
  707TMC3    H110458   2.747   0.885   1.647  1.0267  0.2977 -0.3397
  707TMC3    H210459   2.739   0.602   1.978  0.0490 -2.1637 -2.3792
  707TMC3    C710460   2.606   0.689   1.744 -0.7114 -0.4063  0.1525
  707TMC3    C810461   2.979   0.622   2.024 -0.6441  0.4382  0.3439
  707TMC3    O110462   2.585   0.730   1.632  0.2333  0.0500 -0.5502
  707TMC3    O210463   2.919   0.562   2.117  0.2200 -0.3162 -0.4862
  708MPD2     C10464   4.069   0.926  13.516  0.1625  0.1441  0.1440
  708MPD2    C110465   3.974   0.915  13.615 -0.3002 -0.1383  0.4220
  708MPD2    C210466   4.007   0.836  13.725 -0.4206 -0.0270  0.8505
  708MPD2    C310467   4.127   0.772  13.734 -0.1429 -0.0891  0.0370
  708MPD2    C410468   4.227   0.795  13.636  0.1760 -0.0833 -0.4250
  708MPD2    C510469   4.193   0.865  13.524  0.3156  0.0512 -0.2268
  708MPD2     H10470   3.939   0.809  13.805 -0.9374 -0.0523  0.4056
  708MPD2    H110471   4.329   0.761  13.636  0.1655 -0.1020  0.1635
  708MPD2    H210472   4.051   0.981  13.425 -0.8872  1.2564  1.0195
  708MPD2    H310473   4.257   0.864  13.437 -0.0586  2.4328 -0.5341
  708MPD2     N10474   4.156   0.701  13.854 -0.2077  0.5463  0.1107
  708MPD2    H510475   4.077   0.687  13.916 -0.6357 -2.0857 -1.0089
  708MPD2    N110476   3.853   0.988  13.616  0.1360  0.4844  0.0038
  708MPD2    H710477   3.796   0.977  13.700 -0.7687  0.2571 -0.6380
  709TMC3    C110478   3.718   1.171  13.589  0.3903 -0.6361  0.5078
  709TMC3    C210479   3.773   1.293  13.620  0.8540 -0.2530  0.5438
  709TMC3    C310480   3.768   1.334  13.751 -0.2385  0.2892 -0.4974
  709TMC3    C410481   3.638   1.106  13.678  0.0804  0.0301 -0.3386
  709TMC3    C510482   3.631   1.146  13.808  0.2871  0.2818 -0.8184
  709TMC3    C610483   3.703   1.256  13.844 -0.1532  0.2874  0.3048
  709TMC3     C10484   3.820   1.088  13.527  0.4171  0.4405 -0.1612
  709TMC3     O10485   3.881   1.134  13.431 -0.0948 -0.4512 -0.2890
  709TMC3     H10486   3.848   1.323  13.548  2.6981 -2.6294  1.4627
  709TMC3    H110487   3.614   1.002  13.660  0.2582  0.0635 -0.7752
  709TMC3    H210488   3.712   1.276  13.950  0.6724  1.6000 -0.0197
  709TMC3    C710489   3.635   1.036  13.894 -0.3190  0.7090 -1.0311
  709TMC3    C810490   3.887   1.400  13.801  0.1052 -0.0061  0.1965
  709TMC3    O110491   3.690   0.934  13.852  0.0278 -0.2697  0.2327
  709TMC3    O210492   3.922   1.368  13.912 -0.0691  0.3458 -0.1140
  710TMC3    C110493   0.757   2.314   0.856  0.2491  0.3557 -0.1059
  710TMC3    C210494   0.812   2.276   0.736  0.0983 -0.0079  0.4168
  710TMC3    C310495   0.951   2.268   0.730  0.5909  0.1810  0.1685
  710TMC3    C410496   0.836   2.339   0.960  0.1515  0.0772  0.1019
  710TMC3    C510497   0.978   2.346   0.947  0.5769  0.4541  0.2275
  710TMC3    C610498   1.038   2.317   0.826 -0.0610  0.1105 -0.4305
  710TMC3     C10499   0.646   2.227   0.880  0.0767 -0.1858  0.1148
  710TMC3     O10500   0.659   2.123   0.820  0.4011  0.0654 -0.1741
  710TMC3     H10501   0.750   2.237   0.657 -2.4717  2.9127  0.9774
  710TMC3    H110502   0.791   2.361   1.056  0.0699 -1.2630  0.3702
  710TMC3    H210503   1.145   2.317   0.816 -0.2424 -0.5517 -2.2924
  710TMC3    C710504   1.047   2.299   1.064  0.3145 -0.3171  0.2229
  710TMC3    C810505   1.001   2.143   0.678 -0.6729 -0.4103 -0.5746
  710TMC3    O110506   0.978   2.249   1.154 -0.1826 -0.1682  0.6373
  710TMC3    O210507   1.121   2.134   0.668  0.4209  0.6122 -0.2536
  711TMC3    C110508   0.346   3.060  15.230 -1.2121  0.1894  0.1545
  711TMC3    C210509   0.361   3.191  15.265 -0.0176 -0.5027  0.5298
  711TMC3    C310510   0.455   3.265  15.202  0.3524 -0.3290  0.2121
  711TMC3    C410511   0.434   3.002  15.136  0.0738  0.3736 -0.3931
  711TMC3    C510512   0.542   3.079  15.097 -0.7276  0.9193 -0.0927
  711TMC3    C610513   0.548   3.216  15.120  0.0609 -0.2782  0.4513
  711TMC3     C10514   0.253   2.971  15.293  0.6563  0.7264  0.6824
  711TMC3     O10515   0.279   2.849  15.279 -0.3192 -0.0685 -0.3632
  711TMC3     H10516   0.298   3.238  15.339 -1.9439 -0.9556 -0.8173
  711TMC3    H110517   0.441   2.896  15.116  0.8247  0.1048  1.3168
  711TMC3    H210518   0.627   3.267  15.066 -0.6049  1.3578  1.0231
  711TMC3    C710519   0.671   3.023  15.065  0.3390  0.3852  0.3756
  711TMC3    C810520   0.494   3.382  15.280 -0.2709 -0.5223 -0.2496
  711TMC3    O110521   0.776   3.085  15.077 -0.1246 -0.4223  0.6166
  711TMC3    O210522   0.451   3.397  15.395 -0.4214 -0.1901 -0.5661
  712MPD2     C10523   1.396   4.501  13.232  0.0430 -0.2935  0.4570
  712MPD2    C110524   1.479   4.412  13.301  0.4552  0.5693  0.7805
  712MPD2    C210525   1.608   4.449  13.336 -0.0845  0.5350  0.1531
  712MPD2    C310526   1.639   4.581  13.320  0.7043 -0.2844 -0.1036
  712MPD2    C410527   1.552   4.667  13.255  0.1268 -0.9129  0.0782
  712MPD2    C510528   1.439   4.628  13.197  0.3520  0.5476  0.6416
  712MPD2     H10529   1.676   4.384  13.390 -2.0932 -1.6823  0.0288
  712MPD2    H110530   1.586   0.048  13.245 -1.1412 -0.4180  0.7287
  712MPD2    H210531   1.294   4.478  13.205  0.2766  0.2761 -0.9104
  712MPD2    H310532   1.369   4.700  13.157 -0.2267 -0.4774 -0.1760
  712MPD2     N10533   1.756   4.641  13.377 -0.1760  0.1536  0.0535
  712MPD2    H510534   1.756   0.021  13.372  0.9651  0.1635  0.0680
  712MPD2    N110535   1.418   4.286  13.317  0.6661  0.1980 -0.5832
  712MPD2    H710536   1.329   4.278  13.268  0.2948 -0.6009  0.2116
  713TMC3    C110537   1.945   4.676  13.521 -1.1677 -0.1546  0.1978
  713TMC3    C210538   2.077   4.658  13.522 -0.2148 -0.2185 -0.0689
  713TMC3    C310539   2.152   0.038  13.577 -0.4260 -0.8462 -0.4210
  713TMC3    C410540   1.893   0.071  13.570 -0.4624  0.4176 -0.1378
  713TMC3    C510541   1.972   0.173  13.613 -0.5257 -0.4343 -0.3564
  713TMC3    C610542   2.106   0.164  13.605  0.0209 -0.2257 -0.1919
  713TMC3     C10543   1.862   4.578  13.445  0.3500 -0.0687 -0.5182
  713TMC3     O10544   1.902   4.462  13.429  0.4859  0.3945  0.2871
  713TMC3     H10545   2.112   4.565  13.479  1.8569 -0.6285  2.4917
  713TMC3    H110546   1.785   0.077  13.561 -0.6560 -2.4572  0.4502
  713TMC3    H210547   2.184   0.236  13.630  0.4512 -0.8702  0.3011
  713TMC3    C710548   1.909   0.311  13.619  0.1558 -0.2294  0.1962
  713TMC3    C810549   2.285   0.020  13.554 -0.0289 -0.0948  0.2809
  713TMC3    O110550   1.789   0.307  13.584  0.4419  0.1531 -0.1030
  713TMC3    O210551   2.347   0.116  13.521  0.1467 -0.0872 -0.3049
  714MPD2     C10552   3.362   2.711   1.366 -0.9255 -0.6059  0.1796
  714MPD2    C110553   3.449   2.645   1.283  0.8875 -0.3400  0.0040
  714MPD2    C210554   3.446   2.682   1.147  0.4230 -0.1768 -0.1909
  714MPD2    C310555   3.359   2.779   1.102  0.8417 -0.1473 -0.2346
  714MPD2    C410556   3.263   2.828   1.184  0.9025  0.0266 -0.0227
  714MPD2    C510557   3.263   2.790   1.315  0.1485  0.0362 -0.4351
  714MPD2     H10558   3.530   2.652   1.085  0.7651  0.1423  0.1152
  714MPD2    H110559   3.192   2.903   1.151 -1.9880 -2.7886 -0.1347
  714MPD2    H210560   3.363   2.691   1.473  3.0001 -1.7108 -0.0768
  714MPD2    H310561   3.184   2.833   1.375 -1.6165 -1.3829 -1.7507
  714MPD2     N10562   3.368   2.818   0.969 -0.0838  0.6186 -0.9363
  714MPD2    H510563   3.443   2.767   0.923 -0.3740 -1.6556  1.1083
  714MPD2    N110564   3.542   2.550   1.337 -0.4120 -0.3932  0.2661
  714MPD2    H710565   3.527   2.525   1.434 -0.3458  0.0962  0.4025
  715TMC3    C110566   3.734   2.413   1.342  0.3129  0.2276  0.5077
  715TMC3    C210567   3.827   2.341   1.272  0.0242  0.0466 -0.5935
  715TMC3    C310568   3.945   2.313   1.337  0.2292  0.0118  0.1806
  715TMC3    C410569   3.759   2.478   1.464  0.0174  0.7887 -0.5236
  715TMC3    C510570   3.878   2.447   1.515 -0.4703 -0.0909  0.3650
  715TMC3    C610571   3.970   2.361   1.459 -0.2944 -0.3378  0.4082
  715TMC3     C10572   3.624   2.471   1.260 -0.2714  0.7294 -0.3475
  715TMC3     O10573   3.641   2.463   1.141 -0.2595  0.3765  0.1999
  715TMC3     H10574   3.811   2.314   1.168 -1.4270  1.0597 -0.6397
  715TMC3    H110575   3.699   2.561   1.501  0.5819  0.9325  0.0649
  715TMC3    H210576   4.049   2.315   1.518  0.5784  1.0889  0.3609
  715TMC3    C710577   3.901   2.516   1.641  0.4906 -0.7572  0.0556
  715TMC3    C810578   4.050   2.244   1.269  0.6273 -0.5757  0.1883
  715TMC3    O110579   4.021   2.539   1.663  0.6441  0.3322  0.1126
  715TMC3    O210580   4.018   2.176   1.170 -0.3980 -0.1028 -0.0237
  716MPD2     C10581   0.208   1.111  10.243  0.4151 -0.2362 -0.0615
  716MPD2    C110582   0.104   1.071  10.163 -0.0337 -0.5997  0.2959
  716MPD2    C210583   0.062   0.940  10.157 -0.8419 -1.0081  0.1825
  716MPD2    C310584   0.124   0.853  10.239  0.7642 -0.1870 -0.0207
  716MPD2    C410585   0.225   0.895  10.326  0.8864 -0.0206 -0.3987
  716MPD2    C510586   0.273   1.019  10.319  0.1863  0.8416 -0.1869
  716MPD2     H10587   4.702   0.913  10.090  0.4814 -4.3181 -0.0959
  716MPD2    H110588   0.279   0.824  10.387  1.6315 -0.2591 -1.3353
  716MPD2    H210589   0.257   1.207  10.232 -2.9005  1.5774  1.1167
  716MPD2    H310590   0.360   1.040  10.380  1.6630 -0.0399 -1.9853
  716MPD2     N10591   0.078   0.719  10.236 -0.0498  0.3295 -0.2588
  716MPD2    H510592   0.003   0.706  10.169 -0.9403 -0.0048  0.8017
  716MPD2    N110593   0.038   1.165  10.088  0.4415  0.1043 -0.2467
  716MPD2    H710594   4.683   1.123  10.037 -1.2329 -0.4073  2.6465
  717TMC3    C110595   0.068   0.493  10.263  0.3729  0.5043  0.0314
  717TMC3    C210596   0.035   0.491  10.129  0.8789  0.0541 -0.3584
  717TMC3    C310597   4.694   0.377  10.081  1.3533  0.3631  0.0542
  717TMC3    C410598   0.028   0.394  10.354 -0.8542 -0.2274 -0.4138
  717TMC3    C510599   4.679   0.294  10.300  0.6200 -0.6080 -0.6597
  717TMC3    C610600   4.645   0.280  10.169 -0.2341 -0.3477  0.3787
  717TMC3     C10601   0.121   0.620  10.321 -0.2142  0.4110  0.0273
  717TMC3     O10602   0.182   0.622  10.428 -0.1583  0.1040 -0.9469
  717TMC3     H10603   0.074   0.554  10.049  2.7819 -0.0153  0.5168
  717TMC3    H110604   0.079   0.381  10.449  2.0728  0.1979 -1.8946
  717TMC3    H210605   4.599   0.190  10.131 -0.5672  0.2367 -0.5981
  717TMC3    C710606   4.614   0.201  10.390  0.2745 -0.0651  0.9123
  717TMC3    C810607   4.649   0.383   9.941  0.3415  0.5524  0.4704
  717TMC3    O110608   4.539   0.112  10.346  0.6422  0.1033 -0.1826
  717TMC3    O210609   4.693   0.479   9.878  0.1167 -0.3040 -0.6419
  718MPD2     C10610   3.427   4.289  12.861 -0.3613  0.2127 -0.1510
  718MPD2    C110611   3.375   4.354  12.755 -0.6889  0.1062 -0.1229
  718MPD2    C210612   3.238   4.395  12.760  0.2158  0.4532 -1.0882
  718MPD2    C310613   3.172   4.392  12.881  0.4577 -0.1138  0.1705
  718MPD2    C410614   3.224   4.319  12.989 -0.1283 -0.1097  0.7000
  718MPD2    C510615   3.354   4.269  12.976  0.0188 -0.2611  0.1197
  718MPD2     H10616   3.193   4.452  12.680 -1.0693 -0.3340 -0.9336
  718MPD2    H110617   3.169   4.299  13.081 -0.4545 -0.8065  0.3535
  718MPD2    H210618   3.525   4.242  12.862 -1.5504 -2.2341  1.7327
  718MPD2    H310619   3.393   4.209  13.058  0.4849 -0.1598 -0.0263
  718MPD2     N10620   3.055   4.470  12.880 -0.2644  0.0537  0.7669
  718MPD2    H510621   3.028   4.506  12.789  0.1244 -2.2108 -0.2477
  718MPD2    N110622   3.441   4.379  12.630  0.0882  0.6863 -0.6530
  718MPD2    H710623   3.379   4.411  12.556 -1.3566 -0.7958 -0.0819
  719TMC3    C110624   3.618   4.418  12.479  0.3129  0.5419 -0.1779
  719TMC3    C210625   3.508   4.450  12.393  0.0753 -0.3301 -0.1125
  719TMC3    C310626   3.495   4.579  12.344 -0.0672 -0.0295  1.1970
  719TMC3    C410627   3.723   4.509  12.501  0.0953 -0.3009  0.5469
  719TMC3    C510628   3.712   4.631  12.440 -0.4407 -0.0944  0.5437
  719TMC3    C610629   3.598   4.666  12.364  0.4814 -0.1008 -0.0403
  719TMC3     C10630   3.575   4.357  12.600 -0.0408  0.3994  0.3873
  719TMC3     O10631   3.662   4.330  12.682  0.6023  0.4510  0.3964
  719TMC3     H10632   3.429   4.379  12.370 -0.6677  0.3661  0.3235
  719TMC3    H110633   3.803   4.485  12.570 -0.5613 -0.0731  1.3999
  719TMC3    H210634   3.595   0.042  12.317  0.2974  0.1336  0.4603
  719TMC3    C710635   3.824   4.721  12.443  0.5743 -0.4916  0.6239
  719TMC3    C810636   3.361   4.627  12.374  0.0036 -0.5099 -0.6791
  719TMC3    O110637   3.823   0.095  12.361  0.5036 -0.2938 -0.8128
  719TMC3    O210638   3.281   4.557  12.436  0.1758 -0.4826 -0.0690
  720MPD2     C10639   1.775   1.477  13.999 -0.7853  0.4703  0.2279
  720MPD2    C110640   1.857   1.565  13.940 -0.4396 -0.1905 -0.1781
  720MPD2    C210641   1.984   1.588  13.991 -0.0407 -0.0309 -0.4760
  720MPD2    C310642   2.031   1.506  14.097  0.4696 -0.2529 -0.2049
  720MPD2    C410643   1.945   1.420  14.161 -0.4692 -0.3960 -0.4913
  720MPD2    C510644   1.813   1.405  14.115 -0.1228 -0.1786  0.5688
  720MPD2     H10645   2.055   1.654  13.942 -0.3347  0.4151 -0.3067
  720MPD2    H110646   1.975   1.361  14.247  1.9758  2.0275  0.3417
  720MPD2    H210647   1.676   1.463  13.959 -0.0679  0.6632 -1.6060
  720MPD2    H310648   1.738   1.342  14.160 -0.9169 -0.4107 -1.0643
  720MPD2     N10649   2.163   1.522  14.131  0.6560 -0.2938 -0.1324
  720MPD2    H510650   2.218   1.591  14.082  2.9860 -0.9320  1.5447
  720MPD2    N110651   1.800   1.628  13.828  0.0535  0.2266  0.0042
  720MPD2    H710652   1.724   1.580  13.779  1.5326 -3.0150  0.8857
  721TMC3    C110653   2.351   1.527  14.257  0.5712 -0.7240  0.6514
  721TMC3    C210654   2.372   1.594  14.370  0.8447  0.7556  0.2058
  721TMC3    C310655   2.481   1.682  14.388 -0.3912  0.3810  0.0193
  721TMC3    C410656   2.418   1.553  14.146 -0.0674  0.2398  0.4384
  721TMC3    C510657   2.536   1.634  14.169 -0.0874 -0.3306 -0.6151
  721TMC3    C610658   2.563   1.706  14.285  0.0668  0.0675  0.3186
  721TMC3     C10659   2.219   1.471  14.248  0.2691 -0.2335  0.6885
  721TMC3     O10660   2.168   1.412  14.339 -0.2701  0.1256 -0.1017
  721TMC3     H10661   2.312   1.561  14.454  0.4961  0.6911 -0.0686
  721TMC3    H110662   2.413   1.489  14.059 -0.2445  0.2415  0.4485
  721TMC3    H210663   2.652   1.765  14.304  0.3794 -0.7078  1.2845
  721TMC3    C710664   2.651   1.595  14.092  0.0433  0.6116 -0.2932
  721TMC3    C810665   2.499   1.766  14.506  0.3924  0.2681 -0.2670
  721TMC3    O110666   2.674   1.477  14.074 -0.1789  0.1867 -0.0059
  721TMC3    O210667   2.562   1.867  14.486  0.1086 -0.3362 -0.2251
  722MPD2     C10668   1.154   0.534  13.067  0.0369 -0.2246 -0.2144
  722MPD2    C110669   1.112   0.656  13.115 -0.4106  0.0267  0.3212
  722MPD2    C210670   0.977   0.696  13.099  0.3683  0.2295 -0.8595
  722MPD2    C310671   0.887   0.617  13.046 -0.7145  0.3447 -0.5781
  722MPD2    C410672   0.925   0.489  13.000 -0.1788 -0.4290 -0.0679
  722MPD2    C510673   1.061   0.460  12.997  0.0366 -0.6627 -0.2810
  722MPD2     H10674   0.954   0.789  13.151  0.4551 -0.3557  0.2287
  722MPD2    H110675   0.852   0.425  12.951 -0.3953  0.0757 -0.4096
  722MPD2    H210676   1.259   0.505  13.062  0.1816  0.0136  1.2550
  722MPD2    H310677   1.099   0.380  12.935  2.7040  0.4480 -0.0780
  722MPD2     N10678   0.760   0.667  13.034  0.6981 -0.5270 -0.6150
  722MPD2    H510679   0.745   0.764  13.057 -0.7891 -0.4243 -1.9851
  722MPD2    N110680   1.195   0.746  13.177 -0.2549 -0.2017 -0.5164
  722MPD2    H710681   1.160   0.840  13.189  1.1454  0.3296 -0.5759
  723TMC3    C110682   0.531   0.668  12.974 -0.5975  0.1329  0.2297
  723TMC3    C210683   0.430   0.600  12.907  1.1103 -0.3349  1.0690
  723TMC3    C310684   0.312   0.662  12.872 -0.4816 -0.6026 -0.8059
  723TMC3    C410685   0.505   0.791  13.021  0.0828 -1.0668  0.6975
  723TMC3    C510686   0.384   0.853  12.984 -0.1487  0.0083  0.7724
  723TMC3    C610687   0.288   0.793  12.907  0.0395  0.1809 -0.3219
  723TMC3     C10688   0.648   0.591  12.999  0.2078  0.2661  0.0490
  723TMC3     O10689   0.641   0.473  12.979 -0.0519  0.2419  0.0172
  723TMC3     H10690   0.435   0.495  12.882  0.6764 -0.0146 -0.3966
  723TMC3    H110691   0.577   0.838  13.087  0.4413 -1.2467  0.4311
  723TMC3    H210692   0.194   0.841  12.886  0.3170  0.9074  0.1047
  723TMC3    C710693   0.326   0.945  13.078 -0.1745 -0.2430 -0.5010
  723TMC3    C810694   0.194   0.586  12.847  0.4207 -0.4271  0.0371
  723TMC3    O110695   0.410   1.021  13.130  0.6551  0.0501 -0.7544
  723TMC3    O210696   0.093   0.647  12.888  0.0885  0.3644 -0.0902
  724TMC3    C110697   1.217   3.749  10.409 -0.0554 -0.3852  0.5250
  724TMC3    C210698   1.189   3.764  10.276  0.0568 -0.0696  0.1570
  724TMC3    C310699   1.194   3.890  10.225 -1.1490  0.0754  0.4211
  724TMC3    C410700   1.239   3.850  10.494  0.0400 -0.4411  1.0430
  724TMC3    C510701   1.228   3.975  10.441  0.0367  0.2804 -0.9615
  724TMC3    C610702   1.211   4.004  10.305 -0.2741 -0.2063 -0.3313
  724TMC3     C10703   1.193   3.621  10.474 -0.1368 -0.3242 -0.6488
  724TMC3     O10704   1.229   3.611  10.589  0.4144 -0.4412  0.3721
  724TMC3     H10705   1.198   3.684  10.204  0.6700 -0.8940  1.1604
  724TMC3    H110706   1.251   3.848  10.601 -6.1319 -0.1806  1.7444
  724TMC3    H210707   1.214   4.103  10.261  1.8592  0.6388  1.7477
  724TMC3    C710708   1.330   4.069  10.496  0.5969  0.7237 -0.0321
  724TMC3    C810709   1.154   3.912  10.086 -0.4603 -0.0371 -0.1746
  724TMC3    O110710   1.333   4.171  10.434 -0.1297 -0.5666  0.0324
  724TMC3    O210711   1.076   3.825  10.039 -0.1416  0.8430  0.2009
  725TMC3    C110712   2.810   2.113  13.226 -0.3599  0.2847 -0.1088
  725TMC3    C210713   2.687   2.148  13.188 -0.7953  0.0672 -0.1341
  725TMC3    C310714   2.592   2.051  13.182 -0.4522 -0.2826 -0.5113
  725TMC3    C410715   2.832   1.989  13.281  0.0814 -0.9023  0.2177
  725TMC3    C510716   2.725   1.899  13.287 -0.2152  0.7879 -0.7006
  725TMC3    C610717   2.601   1.932  13.235 -0.4721  0.4201  0.1955
  725TMC3     C10718   2.912   2.213  13.246 -0.2513 -0.1737  0.0704
  725TMC3     O10719   2.879   2.329  13.223  0.2195  0.4585 -0.2590
  725TMC3     H10720   2.671   2.245  13.142 -0.9470 -1.5268 -3.4998
  725TMC3    H110721   2.922   1.958  13.333  0.8742 -0.0047 -0.6400
  725TMC3    H210722   2.512   1.870  13.242  0.0972 -0.3824  0.3563
  725TMC3    C710723   2.746   1.756  13.298  0.0451  0.7663 -0.5698
  725TMC3    C810724   2.515   2.045  13.060  0.4927  1.1401  0.0631
  725TMC3    O110725   2.669   1.687  13.236 -0.4935  0.1836 -0.3310
  725TMC3    O210726   2.437   1.951  13.060 -0.2678  0.1726 -0.6837
  726MPD2     C10727   0.550   3.981  10.541 -0.6032 -0.1218  0.0391
  726MPD2    C110728   0.458   4.030  10.458 -0.5634 -0.2087 -0.1705
  726MPD2    C210729   0.337   3.967  10.457  0.1545  0.5652  0.3093
  726MPD2    C310730   0.311   3.873  10.557  0.2394  0.5470 -0.1167
  726MPD2    C410731   0.406   3.839  10.650 -0.1789  0.0353  0.6475
  726MPD2    C510732   0.535   3.884  10.630  0.1594  0.4122  0.0583
  726MPD2     H10733   0.263   4.007  10.388 -1.2487 -1.0180  0.9103
  726MPD2    H110734   0.390   3.761  10.724 -3.5832 -0.4713 -0.6326
  726MPD2    H210735   0.651   4.020  10.528 -0.3697 -0.4763  0.7894
  726MPD2    H310736   0.615   3.841  10.690 -0.6486 -0.9902  0.1318
  726MPD2     N10737   0.179   3.810  10.586  0.5741 -0.3116 -0.6846
  726MPD2    H510738   0.167   3.740  10.658 -0.2068 -0.0966 -0.6108
  726MPD2    N110739   0.477   4.141  10.374  0.3918  0.3233 -0.0795
  726MPD2    H710740   0.414   4.154  10.296 -1.7000 -1.1498  1.3575
  727TMC3    C110741   0.571   4.336  10.295 -0.0308 -0.3105 -0.1215
  727TMC3    C210742   0.626   4.453  10.328  0.0204  0.2280 -0.0963
  727TMC3    C310743   0.636   4.549  10.232  0.3351  0.4374 -0.3155
  727TMC3    C410744   0.514   4.304  10.174 -0.8040 -0.0257 -1.3434
  727TMC3    C510745   0.534   4.398  10.079 -0.4537 -0.2530  0.1402
  727TMC3    C610746   0.598   4.522  10.104  0.0619  0.2240 -0.2230
  727TMC3     C10747   0.573   4.232  10.398 -0.3334  0.0587 -0.6057
  727TMC3     O10748   0.664   4.245  10.477  0.3104  0.2820 -0.0135
  727TMC3     H10749   0.659   4.468  10.430  0.9841  1.9810 -0.6576
  727TMC3    H110750   0.476   4.208  10.143 -0.0014 -0.1877 -1.8449
  727TMC3    H210751   0.608   4.598  10.027 -1.8982 -1.1522 -1.8517
  727TMC3    C710752   0.439   4.394   9.972  0.2253  0.1152 -0.3598
  727TMC3    C810753   0.667   4.685  10.280 -0.4210  0.5033  0.8821
  727TMC3    O110754   0.393   4.505   9.943  0.2423  0.3421  0.6439
  727TMC3    O210755   0.685   4.708  10.397  0.0405 -0.2502  0.2055
  728TMC3    C110756   3.989   1.284  15.621  0.5150 -0.3551  0.1507
  728TMC3    C210757   4.028   1.347  15.734  0.2099  0.0848 -0.3619
  728TMC3    C310758   4.085   1.471  15.722  0.0026  0.3243  0.5426
  728TMC3    C410759   4.014   1.337  15.496  0.8669  0.5061 -0.6267
  728TMC3    C510760   4.076   1.461  15.486  0.5254 -0.0177 -0.3639
  728TMC3    C610761   4.111   1.528  15.603 -0.1833  0.2367 -0.2040
  728TMC3     C10762   3.916   1.161  15.626 -0.6087  0.0523 -0.1036
  728TMC3     O10763   3.917   1.081  15.531 -0.5465  0.3347 -0.0265
  728TMC3     H10764   4.005   1.308  15.832 -2.5940 -1.4189 -1.5981
  728TMC3    H110765   3.965   1.278  15.419 -0.8530  1.5465 -0.3119
  728TMC3    H210766   4.177   1.614  15.597  2.1013 -1.3731  2.4006
  728TMC3    C710767   4.069   1.526  15.355 -0.3304  0.2699 -0.1094
  728TMC3    C810768   4.156   1.517  15.848 -0.6931  0.2462  0.0663
  728TMC3    O110769   4.042   1.454  15.257 -0.2762  0.1425 -0.2901
  728TMC3    O210770   4.175   1.429  15.930 -0.1296 -1.0401 -0.4510
  729MPD2     C10771   1.998   3.567  16.251 -0.1577  0.0337 -0.1991
  729MPD2    C110772   2.088   3.479  16.307 -0.2862  0.2039 -0.2248
  729MPD2    C210773   2.078   3.440  16.439 -0.1125 -0.1210 -0.5705
  729MPD2    C310774   1.988   3.502  16.520 -0.9898  0.7540  0.3318
  729MPD2    C410775   1.888   3.580  16.463 -0.0816  0.2503  0.2446
  729MPD2    C510776   1.897   3.616  16.331  0.3664  0.1320  0.0845
  729MPD2     H10777   2.155   3.374  16.477  0.8033 -0.4624 -3.0442
  729MPD2    H110778   1.804   3.625  16.515  0.0712  1.6531 -0.7027
  729MPD2    H210779   1.996   3.601  16.148  0.3371  0.7399  0.0235
  729MPD2    H310780   1.827   3.687  16.288  2.0006  2.0959  0.6894
  729MPD2     N10781   1.998   3.475  16.658  0.1285 -0.0828 -0.3944
  729MPD2    H510782   1.950   3.538  16.721  2.0328  1.9911 -1.0146
  729MPD2    N110783   2.199   3.429  16.232  0.4975 -0.3684 -0.0122
  729MPD2    H710784   2.252   3.350  16.268  0.4332  0.1488  1.2080
  730TMC3    C110785   2.083   3.402  16.862 -0.3657  0.5685  0.1949
  730TMC3    C210786   2.202   3.358  16.913 -0.3176  0.0900  0.4364
  730TMC3    C310787   2.244   3.408  17.031 -1.1809  0.8390 -0.4964
  730TMC3    C410788   2.014   3.493  16.927  0.3368  0.5818 -1.2162
  730TMC3    C510789   2.044   3.535  17.054 -0.1454 -0.9540 -0.1041
  730TMC3    C610790   2.161   3.489  17.102  0.5766 -0.4377 -0.9553
  730TMC3     C10791   2.060   3.372  16.721 -0.6755  0.1024 -0.2632
  730TMC3     O10792   2.108   3.273  16.671 -0.2785  0.0473 -0.3566
  730TMC3     H10793   2.258   3.278  16.865  1.6282  1.7798 -0.0942
  730TMC3    H110794   1.924   3.536  16.886 -0.1099  1.9254  1.2092
  730TMC3    H210795   2.208   3.510  17.197  0.3310  0.4871 -1.0365
  730TMC3    C710796   2.052   3.684  17.057 -0.2741  0.0558  0.0105
  730TMC3    C810797   2.381   3.457  17.007  0.6013 -0.2701 -0.1103
  730TMC3    O110798   2.021   3.737  16.951 -0.1421 -0.3210 -0.5267
  730TMC3    O210799   2.432   3.402  16.910 -0.2989  0.7279  0.1039
  731MPD2     C10800   1.749   1.544  12.531 -0.4652 -0.1543 -0.0708
  731MPD2    C110801   1.833   1.436  12.540 -0.5594 -1.1590 -0.0623
  731MPD2    C210802   1.828   1.359  12.657  0.0302  0.6140  0.3147
  731MPD2    C310803   1.743   1.395  12.765 -0.2816  0.3817 -0.6729
  731MPD2    C410804   1.668   1.515  12.757  0.4298 -0.1707  0.3100
  731MPD2    C510805   1.666   1.581  12.640  0.6377 -0.5754 -0.1315
  731MPD2     H10806   1.883   1.267  12.671  2.0046  1.9823  1.5216
  731MPD2    H110807   1.590   1.534  12.830 -3.3684  0.6143 -3.8749
  731MPD2    H210808   1.728   1.596  12.438 -2.1244  0.0647  0.4198
  731MPD2    H310809   1.591   1.659  12.630  1.4918  0.2128 -0.3409
  731MPD2     N10810   1.751   1.318  12.879 -0.4304  0.6263 -0.2139
  731MPD2    H510811   1.800   1.230  12.866  1.0993  1.2746  1.2193
  731MPD2    N110812   1.910   1.397  12.422 -0.0443  0.6786  0.6344
  731MPD2    H710813   1.905   1.457  12.340  0.6521 -0.6055 -0.3640
  732TMC3    C110814   2.060   1.279  12.282 -0.3275  0.0035 -0.5015
  732TMC3    C210815   2.038   1.372  12.187 -0.0140  0.2550 -0.5202
  732TMC3    C310816   2.108   1.351  12.071 -0.2269  0.6285  0.3261
  732TMC3    C410817   2.155   1.179  12.265 -0.0721  0.3587 -0.6939
  732TMC3    C510818   2.235   1.176  12.155  0.2527  0.1556  0.1631
  732TMC3    C610819   2.220   1.270  12.059 -0.6845  0.3472  0.2084
  732TMC3     C10820   1.991   1.288  12.413 -0.0412 -0.1629 -0.4769
  732TMC3     O10821   2.025   1.208  12.498  0.0346  0.5331  0.2050
  732TMC3     H10822   1.993   1.466  12.216  0.3908  0.8589 -1.8400
  732TMC3    H110823   2.155   1.090  12.327 -1.2779  0.1541 -0.9730
  732TMC3    H210824   2.280   1.260  11.969 -0.4176  1.4293  0.2666
  732TMC3    C710825   2.371   1.128  12.171  0.2775 -0.3634  0.0984
  732TMC3    C810826   2.090   1.432  11.958  0.9567 -0.1077  0.3504
  732TMC3    O110827   2.437   1.105  12.069 -0.5086 -0.9272  0.3590
  732TMC3    O210828   2.193   1.456  11.891  0.1209  0.6394 -0.4757
  733TMC3    C110829   2.700   0.020  13.016  0.7540  0.4240  0.3397
  733TMC3    C210830   2.798   4.645  13.044 -0.7298 -0.5745 -0.0451
  733TMC3    C310831   2.901   4.629  12.958  0.2955  0.3163 -0.2721
  733TMC3    C410832   2.718   0.097  12.899  0.3247  0.1193 -0.0594
  733TMC3    C510833   2.826   0.080  12.815  0.3594 -0.1834  0.2599
  733TMC3    C610834   2.920   4.704  12.843 -0.4267  1.0329  0.2325
  733TMC3     C10835   2.570   0.004  13.080  1.2989  0.5129 -0.2771
  733TMC3     O10836   2.486   0.094  13.058 -0.8837  0.6445  0.0305
  733TMC3     H10837   2.803   4.603  13.144 -1.4006 -1.9113 -0.5815
  733TMC3    H110838   2.643   0.171  12.873  0.1149  1.0828  3.2877
  733TMC3    H210839   3.012   4.686  12.788  0.4097 -1.3513  2.3982
  733TMC3    C710840   2.857   0.159  12.697 -0.6711 -0.9776  0.3732
  733TMC3    C810841   2.994   4.521  12.990  0.1446 -0.8566  0.4869
  733TMC3    O110842   2.799   0.264  12.686  0.2920 -0.0884 -0.2020
  733TMC3    O210843   3.007   4.480  13.102  0.0330  0.4881 -0.3482
  734MPD2     C10844   0.082   2.945  12.193 -0.3892  0.3898 -0.6449
  734MPD2    C110845   0.071   2.824  12.127 -0.4694  1.2875 -0.3082
  734MPD2    C210846   0.110   2.829  11.991  0.1972 -0.1756 -0.1249
  734MPD2    C310847   0.132   2.944  11.927 -0.1191 -0.2080  0.5154
  734MPD2    C410848   0.121   3.065  11.991 -0.7180 -0.4518 -0.2619
  734MPD2    C510849   0.107   3.065  12.126 -0.2924 -0.6514  0.5763
  734MPD2     H10850   0.109   2.739  11.929 -0.6198 -0.5823  0.4804
  734MPD2    H110851   0.144   3.158  11.940  1.1610 -0.7352  0.0887
  734MPD2    H210852   0.058   2.947  12.298  0.4158  1.0350 -0.4806
  734MPD2    H310853   0.100   3.161  12.177 -0.7827 -1.6452  2.3787
  734MPD2     N10854   0.155   2.935  11.787 -0.3012  0.1323  0.0617
  734MPD2    H510855   0.160   2.838  11.755 -0.4734  0.5900 -1.3563
  734MPD2    N110856   0.042   2.701  12.185 -0.6748 -0.1744 -0.2106
  734MPD2    H710857   0.035   2.691  12.286  2.2235  2.0630  0.2083
  735TMC3    C110858   4.681   2.463  12.175  0.6057 -0.1624  0.0351
  735TMC3    C210859   4.592   2.397  12.093  0.1766 -0.7146 -0.0853
  735TMC3    C310860   4.630   2.277  12.051 -0.0458 -0.7047  0.1037
  735TMC3    C410861   0.080   2.411  12.203  0.0516 -0.4964 -0.7801
  735TMC3    C510862   0.107   2.279  12.175  0.3264  0.5005  0.3259
  735TMC3    C610863   0.022   2.206  12.097  1.2523 -0.5664  0.0015
  735TMC3     C10864   4.697   2.601  12.115 -0.0951 -0.2745  0.3602
  735TMC3     O10865   4.655   2.603  12.001 -0.0223  0.7522  0.7247
  735TMC3     H10866   4.504   2.449  12.055  1.6737  1.4823 -0.5241
  735TMC3    H110867   0.157   2.479  12.235 -0.9964  0.4148 -0.1825
  735TMC3    H210868   0.047   2.110  12.053  0.9377 -0.5300 -0.2616
  735TMC3    C710869   0.246   2.236  12.187  0.1213  0.1425  0.0715
  735TMC3    C810870   4.591   2.241  11.916  0.6633 -0.7018 -0.4522
  735TMC3    O110871   0.331   2.329  12.198 -0.0111 -0.0188  0.1457
  735TMC3    O210872   4.596   2.127  11.873 -0.1474  0.1598  0.1258
  736MPD2     C10873   0.374   1.891  12.179  0.1743  0.9290  0.1625
  736MPD2    C110874   0.380   2.032  12.162  0.2629  0.1315 -0.2872
  736MPD2    C210875   0.497   2.093  12.120  0.1854  0.0665 -0.1484
  736MPD2    C310876   0.604   2.014  12.083  0.9515  0.2399  0.6857
  736MPD2    C410877   0.599   1.885  12.100  0.0555 -0.2078 -0.4060
  736MPD2    C510878   0.490   1.823  12.152 -0.5937 -0.2618  0.8924
  736MPD2     H10879   0.489   2.199  12.097 -1.5473  0.5214  2.6247
  736MPD2    H110880   0.684   1.820  12.078 -2.2939 -2.2721 -3.2999
  736MPD2    H210881   0.284   1.837  12.206  1.4379 -0.7477  1.0157
  736MPD2    H310882   0.497   1.717  12.175  0.3266 -0.8183 -1.8723
  736MPD2     N10883   0.718   2.061  12.006  0.7668  0.1670  0.6057
  736MPD2    H510884   0.785   1.989  11.984 -0.2691 -0.2460 -1.1534
  736MPD2    N110885   0.262   2.103  12.181  0.1240  0.7141  0.2831
  736MPD2    H710886   0.182   2.045  12.206  0.5928 -0.5300 -1.1156
  737TMC3    C110887   0.846   2.207  11.881 -0.3607  0.0078 -0.4083
  737TMC3    C210888   0.839   2.324  11.806 -0.4083  0.4094 -0.1641
  737TMC3    C310889   0.857   2.310  11.669  0.5482  0.7009  0.6194
  737TMC3    C410890   0.888   2.085  11.835 -0.3449 -0.2982 -0.0318
  737TMC3    C510891   0.925   2.094  11.709 -0.3221  0.7324  1.6838
  737TMC3    C610892   0.906   2.194  11.618 -0.1852  0.1505 -0.1882
  737TMC3     C10893   0.747   2.192  11.982  0.0626 -0.9911 -0.2337
  737TMC3     O10894   0.691   2.294  12.015  0.0041  0.3215  0.2868
  737TMC3     H10895   0.785   2.410  11.845 -2.0371  0.4217 -2.4133
  737TMC3    H110896   0.928   2.002  11.892 -0.1735 -0.9099 -1.0299
  737TMC3    H210897   0.917   2.187  11.511  0.0026  2.0329 -0.2976
  737TMC3    C710898   0.989   1.977  11.643  0.1997  0.9271  0.3749
  737TMC3    C810899   0.869   2.435  11.593 -0.1080  0.2700 -0.2367
  737TMC3    O110900   0.948   1.866  11.678  0.1476  0.4311 -0.3715
  737TMC3    O210901   0.804   2.534  11.638  0.2141 -0.2094 -0.1262
  738MPD2     C10902   0.955   0.988  14.563 -0.0452  1.0944  0.3764
  738MPD2    C110903   1.003   0.929  14.678 -0.2687 -0.4928  0.4503
  738MPD2    C210904   1.138   0.928  14.708  0.2875 -0.4289 -0.0600
  738MPD2    C310905   1.230   0.975  14.614  0.1894  0.3503 -0.4714
  738MPD2    C410906   1.184   1.016  14.483  0.5395  0.0248  0.4770
  738MPD2    C510907   1.051   1.022  14.461 -0.1967 -0.5130  0.1657
  738MPD2     H10908   1.173   0.882  14.800 -0.9953 -1.4741 -0.0986
  738MPD2    H110909   1.260   1.042  14.410  0.4362  0.9935  0.7181
  738MPD2    H210910   0.849   0.996  14.542 -0.0886 -1.0890 -0.2862
  738MPD2    H310911   1.014   1.042  14.361 -1.4507  1.0133  0.9445
  738MPD2     N10912   1.372   0.975  14.635 -0.2209  0.8649  0.1284
  738MPD2    H510913   1.430   1.007  14.558  0.7688 -1.7357 -0.2124
  738MPD2    N110914   0.924   0.876  14.777  0.9471 -0.3787 -0.6023
  738MPD2    H710915   0.961   0.852  14.868 -0.3545  0.6193  0.1952
  739TMC3    C110916   1.578   0.925  14.719 -0.1688  0.5669  0.0011
  739TMC3    C210917   1.616   1.005  14.616 -0.1161 -0.3334 -0.0100
  739TMC3    C310918   1.731   0.969  14.545 -0.2230 -0.7298  0.6927
  739TMC3    C410919   1.648   0.812  14.748 -1.1393 -0.7616 -0.9548
  739TMC3    C510920   1.755   0.773  14.670 -0.6940  0.1018  0.0960
  739TMC3    C610921   1.798   0.849  14.566 -0.6140  0.6836  0.5436
  739TMC3     C10922   1.436   0.931  14.751 -0.0320 -0.0124 -0.3909
  739TMC3     O10923   1.397   0.849  14.833 -0.2223  0.5472 -0.9438
  739TMC3     H10924   1.563   1.097  14.595 -0.6612 -1.2421 -2.5802
  739TMC3    H110925   1.618   0.744  14.826  1.6327 -0.7085  0.1384
  739TMC3    H210926   1.877   0.814  14.501 -0.6279 -0.7630  1.3116
  739TMC3    C710927   1.851   0.674  14.724 -0.4598 -0.0129  0.2863
  739TMC3    C810928   1.748   1.034  14.418 -0.4551  0.2293 -0.6357
  739TMC3    O110929   1.805   0.574  14.785 -0.8340 -0.5116  0.2939
  739TMC3    O210930   1.649   1.097  14.377 -0.0213 -0.0289  0.1560
  740TMC3    C110931   2.228   2.146  14.264 -0.3913 -0.1068  0.4967
  740TMC3    C210932   2.221   2.066  14.375  0.2666  0.1263 -0.0717
  740TMC3    C310933   2.207   1.937  14.348 -0.1651  0.3814 -0.5546
  740TMC3    C410934   2.223   2.103  14.136 -0.1894 -0.2077  1.1741
  740TMC3    C510935   2.211   1.965  14.117  0.1026 -0.2211  0.1721
  740TMC3    C610936   2.194   1.882  14.221 -0.1363  0.6073 -1.0283
  740TMC3     C10937   2.153   2.272  14.277  0.5061 -0.0504  0.1600
  740TMC3     O10938   2.194   2.370  14.217  0.6404  0.8175 -0.1649
  740TMC3     H10939   2.210   2.098  14.478  1.0169 -0.4780  0.1908
  740TMC3    H110940   2.212   2.178  14.058 -1.4201 -0.3831  1.1792
  740TMC3    H210941   2.189   1.774  14.211  0.2817  0.3545  1.3337
  740TMC3    C710942   2.225   1.906  13.993 -0.2140 -0.5093 -0.8369
  740TMC3    C810943   2.152   1.859  14.447 -0.4884  0.0587 -0.3202
  740TMC3    O110944   2.235   1.783  14.000 -0.5991 -0.9860 -0.4703
  740TMC3    O210945   2.170   1.892  14.564  0.4123 -0.0327  0.4550
  741TMC3    C110946   1.339   1.520  14.281 -0.3548  0.5810  0.0484
  741TMC3    C210947   1.235   1.463  14.221  0.4468 -0.2777  0.5732
  741TMC3    C310948   1.161   1.382  14.297  0.4698 -0.0719  0.0555
  741TMC3    C410949   1.377   1.497  14.404  0.6308  0.2711 -0.9068
  741TMC3    C510950   1.304   1.413  14.476  0.5596  0.8129 -0.3186
  741TMC3    C610951   1.186   1.358  14.429 -0.5411  1.3305 -0.3737
  741TMC3     C10952   1.425   1.595  14.193 -0.5440  0.3686 -0.4628
  741TMC3     O10953   1.443   1.554  14.082  0.0657  0.3109 -0.0034
  741TMC3     H10954   1.202   1.494  14.123 -0.1139 -0.3551  0.7364
  741TMC3    H110955   1.458   1.552  14.450  3.1679 -2.8417 -1.6999
  741TMC3    H210956   1.129   1.287  14.488  3.4362 -3.7898 -2.7073
  741TMC3    C710957   1.361   1.376  14.602  0.2251 -1.1119  0.9028
  741TMC3    C810958   1.060   1.292  14.236  0.2972 -0.2346 -0.7890
  741TMC3    O110959   1.485   1.398  14.613 -0.6297  0.2324 -0.2751
  741TMC3    O210960   0.959   1.279  14.303  0.1167  0.0527 -0.2973
  742TMC3    C110961   1.211   0.088  15.111 -0.2994  0.1416 -0.0919
  742TMC3    C210962   1.094   0.046  15.051 -0.3001 -0.5076  0.7720
  742TMC3    C310963   1.104   0.004  14.920 -0.4747  0.1587  0.3023
  742TMC3    C410964   1.331   0.109  15.053  0.2598  0.0502  0.0610
  742TMC3    C510965   1.333   0.063  14.923 -0.3589  0.0144  0.4272
  742TMC3    C610966   1.228   0.007  14.865  0.1978  0.1032  0.4747
  742TMC3     C10967   1.189   0.104  15.257  0.1815  0.0598 -0.2576
  742TMC3     O10968   1.078   0.129  15.302  0.0027 -0.2352 -0.7101
  742TMC3     H10969   1.014   0.009  15.114  0.3345  0.5093  2.1517
  742TMC3    H110970   1.421   0.143  15.103 -0.1395 -0.7811  1.3664
  742TMC3    H210971   1.240   4.690  14.764  0.3207 -0.1550  0.5863
  742TMC3    C710972   1.466   0.031  14.866  0.0358  0.0440 -0.4495
  742TMC3    C810973   0.993   4.649  14.850 -0.9000  0.3305  1.0228
  742TMC3    O110974   1.470   4.679  14.766  1.0388 -0.4696 -0.1864
  742TMC3    O210975   1.032   4.586  14.753 -0.0025 -0.0280  0.0502
  743MPD2     C10976   3.990   0.071   2.033 -0.7436  0.5469  0.0144
  743MPD2    C110977   4.019   0.066   1.896  0.2374  0.2184  0.2329
  743MPD2    C210978   4.134   0.008   1.848 -0.2868 -0.2501  0.7840
  743MPD2    C310979   4.210   4.662   1.934 -0.3250  0.5347 -0.5928
  743MPD2    C410980   4.180   4.663   2.071  0.2028  0.2859 -0.5108
  743MPD2    C510981   4.072   0.006   2.122  0.4803  0.5322 -0.2035
  743MPD2     H10982   4.141   4.714   1.741 -0.4631 -0.3518  0.7878
  743MPD2    H110983   4.241   4.611   2.143 -0.4022 -1.2680 -1.1267
  743MPD2    H210984   3.902   0.122   2.069 -0.2978  1.3480 -0.0325
  743MPD2    H310985   4.057   4.713   2.228 -0.1873 -0.5172 -0.4480
  743MPD2     N10986   4.317   4.587   1.874  0.0328  0.2159  0.5999
  743MPD2    H510987   4.329   4.601   1.774 -0.3724 -1.4471  0.3089
  743MPD2    N110988   3.927   0.131   1.809 -0.2479 -1.1309 -1.2687
  743MPD2    H710989   3.843   0.165   1.855  2.2175  1.3747  1.3600
  744TMC3    C110990   3.825   0.241   1.608 -0.0126 -0.5682 -0.1450
  744TMC3    C210991   3.719   0.286   1.682 -0.1561  0.5081  0.4268
  744TMC3    C310992   3.615   0.344   1.614 -0.9815  0.1539 -0.0297
  744TMC3    C410993   3.837   0.268   1.476  0.3420  0.5293 -0.3552
  744TMC3    C510994   3.734   0.338   1.417 -1.0163 -0.4015  0.1696
  744TMC3    C610995   3.619   0.372   1.481  0.0475 -0.3125  0.3564
  744TMC3     C10996   3.933   0.162   1.667 -0.4614 -0.9543 -0.6577
  744TMC3     O10997   4.018   0.121   1.588 -0.4100  0.0768 -0.1343
  744TMC3     H10998   3.713   0.279   1.790  1.5692 -1.8716  0.3672
  744TMC3    H110999   3.908   0.211   1.417 -1.0740 -0.0291 -1.5390
  744TMC3    H211000   3.538   0.422   1.429  0.1315 -0.1257  0.4041
  744TMC3    C711001   3.745   0.382   1.283 -0.0789  0.1787 -0.6378
  744TMC3    C811002   3.491   0.382   1.680 -0.2011  0.0461  0.4853
  744TMC3    O111003   3.859   0.355   1.242 -0.4147 -0.1197 -0.0733
  744TMC3    O211004   3.409   0.448   1.616 -0.2473  0.0702  0.2767
  745TMC3    C111005   1.350   4.091  13.413  0.3250  0.2831 -0.1390
  745TMC3    C211006   1.273   4.148  13.504  0.4598 -0.9825  0.1812
  745TMC3    C311007   1.144   4.191  13.478 -0.6032 -0.8389 -0.1211
  745TMC3    C411008   1.289   4.064  13.292 -0.5803  0.2783  0.0327
  745TMC3    C511009   1.167   4.116  13.260  0.9244  0.4902 -0.4775
  745TMC3    C611010   1.085   4.167  13.358 -0.7382  0.1993  0.7564
  745TMC3     C11011   1.464   4.185  13.392  0.9567  0.0530 -0.5179
  745TMC3     O11012   1.554   4.186  13.474 -0.1016 -0.1363  0.1664
  745TMC3     H11013   1.310   4.165  13.604  0.9894 -0.3035 -0.1302
  745TMC3    H111014   1.339   4.007  13.215 -0.4362  0.6977 -0.1884
  745TMC3    H211015   0.990   4.217  13.340  0.3161  1.3065 -1.7066
  745TMC3    C711016   1.142   4.176  13.130 -0.7109 -0.0741 -0.3605
  745TMC3    C811017   1.110   4.324  13.530 -0.5055  0.8543  0.0242
  745TMC3    O111018   1.040   4.239  13.117  0.3245 -0.1578 -0.4450
  745TMC3    O211019   0.992   4.355  13.544  0.2193  0.1304 -0.2705
  746TMC3    C111020   4.116   1.284  11.073  0.7148 -0.3725 -0.2436
  746TMC3    C211021   4.119   1.273  10.938 -0.0139  0.2045  0.3773
  746TMC3    C311022   4.005   1.232  10.871 -0.3962 -0.2011  0.5255
  746TMC3    C411023   4.010   1.240  11.141 -0.0291  0.6004 -0.4567
  746TMC3    C511024   3.898   1.188  11.073 -0.0283  0.4681  0.2729
  746TMC3    C611025   3.894   1.182  10.933  0.0853  0.0780 -0.4021
  746TMC3     C11026   4.175   1.405  11.122 -0.4662  1.0783  0.0994
  746TMC3     O11027   4.126   1.455  11.224  0.7384 -0.4971 -0.2691
  746TMC3     H11028   4.211   1.285  10.882 -0.7560  1.1038 -0.6524
  746TMC3    H111029   4.012   1.251  11.249  0.4844 -1.9330 -0.2271
  746TMC3    H211030   3.811   1.131  10.885  0.6502 -0.9506 -0.2754
  746TMC3    C711031   3.817   1.095  11.149  0.7069 -0.0002  0.0045
  746TMC3    C811032   3.993   1.248  10.732 -0.2874 -0.2005 -0.2230
  746TMC3    O111033   3.865   1.068  11.256  0.0347 -0.5388  0.4897
  746TMC3    O211034   3.909   1.194  10.662  0.0428  0.0734  0.1310
  747TMC3    C111035   1.489   2.204  10.792  0.6867 -0.3076  0.4067
  747TMC3    C211036   1.461   2.083  10.849 -0.3832  0.0282  0.4817
  747TMC3    C311037   1.478   2.069  10.984 -0.1197  0.2801  0.2644
  747TMC3    C411038   1.523   2.308  10.874  0.4064  1.3167 -0.1698
  747TMC3    C511039   1.527   2.290  11.003  0.1630  0.2308  0.1337
  747TMC3    C611040   1.514   2.170  11.064  0.3479 -0.3600 -0.0469
  747TMC3     C11041   1.433   2.234  10.661 -0.6568 -0.4754  0.1108
  747TMC3     O11042   1.416   2.351  10.636  0.2507  0.4274 -0.1903
  747TMC3     H11043   1.407   2.001  10.802 -0.1069  0.5475 -0.7347
  747TMC3    H111044   1.509   2.409  10.839 -0.0607  1.2342 -0.2252
  747TMC3    H211045   1.528   2.151  11.170  0.8277  0.0506 -0.0374
  747TMC3    C711046   1.621   2.372  11.072  0.1479  0.3274 -0.0261
  747TMC3    C811047   1.404   1.964  11.045  0.4676 -0.3241 -0.5563
  747TMC3    O111048   1.640   2.354  11.192 -0.2946 -0.2213 -0.5777
  747TMC3    O211049   1.424   1.850  11.004 -0.2656  0.2073  0.1665
  748MPD2     C11050   2.772   1.342   1.394  0.2668  0.1646  0.3209
  748MPD2    C111051   2.870   1.343   1.487  0.1092 -0.2921 -1.0893
  748MPD2    C211052   3.000   1.384   1.439  0.0394  0.4012 -0.3898
  748MPD2    C311053   3.024   1.430   1.311 -0.1573 -0.2902 -0.2107
  748MPD2    C411054   2.918   1.440   1.222  0.1319  0.8347  0.4366
  748MPD2    C511055   2.793   1.387   1.266  0.3516 -0.0604  0.3662
  748MPD2     H11056   3.090   1.369   1.499 -1.3865 -1.3265  1.3162
  748MPD2    H111057   2.922   1.473   1.119  0.2587  1.1398  0.5409
  748MPD2    H211058   2.671   1.308   1.414  0.7026 -2.0038 -1.2424
  748MPD2    H311059   2.705   1.398   1.204  2.0108  1.0838 -1.7716
  748MPD2     N11060   3.153   1.487   1.285 -0.2796  0.3163  0.5434
  748MPD2    H511061   3.214   1.481   1.366 -1.3486 -1.2010  1.2554
  748MPD2    N111062   2.835   1.295   1.615  0.4137 -0.4042  0.3429
  748MPD2    H711063   2.740   1.260   1.620  0.0081  0.6111 -0.2622
  749TMC3    C111064   3.315   1.595   1.167  0.2870 -0.5066  0.2369
  749TMC3    C211065   3.408   1.556   1.261 -0.7093  0.4164  0.0168
  749TMC3    C311066   3.536   1.602   1.247  0.6221  0.3953  0.6143
  749TMC3    C411067   3.350   1.666   1.057 -0.3480  0.0669  0.0150
  749TMC3    C511068   3.476   1.720   1.051  0.9644  0.0633 -0.0563
  749TMC3    C611069   3.576   1.689   1.148  0.1270  0.1952  0.0073
  749TMC3     C11070   3.191   1.538   1.167 -0.1749 -0.5601 -0.0086
  749TMC3     O11071   3.130   1.541   1.056 -0.4028 -0.6184  0.2537
  749TMC3     H11072   3.386   1.480   1.335 -1.8035  0.3564 -0.3707
  749TMC3    H111073   3.278   1.690   0.978 -0.8188 -0.2974  0.3355
  749TMC3    H211074   3.669   1.743   1.149  1.7222 -2.6042  2.3940
  749TMC3    C711075   3.507   1.819   0.950  0.3704 -0.3177  0.2616
  749TMC3    C811076   3.627   1.580   1.361 -0.0284  0.9229  0.3171
  749TMC3    O111077   3.458   1.933   0.953 -0.3205  0.5470 -0.3473
  749TMC3    O211078   3.579   1.545   1.469 -0.5176  0.4161 -0.1826
  750MPD2     C11079   3.483   3.521  11.373 -0.1746  0.2700  0.3129
  750MPD2    C111080   3.407   3.412  11.388  0.1270 -0.2956 -0.0111
  750MPD2    C211081   3.458   3.285  11.360 -0.9357 -0.4807 -0.0584
  750MPD2    C311082   3.586   3.270  11.314 -0.1829 -0.4491 -0.6610
  750MPD2    C411083   3.660   3.386  11.308  0.0882 -0.0430  0.4925
  750MPD2    C511084   3.618   3.508  11.344 -0.0828 -0.3883 -1.6187
  750MPD2     H11085   3.391   3.201  11.371  0.1317 -1.5797 -1.7610
  750MPD2    H111086   3.765   3.386  11.282  0.5209 -0.6786  2.2386
  750MPD2    H211087   3.444   3.619  11.397  0.4935  1.1074 -2.0489
  750MPD2    H311088   3.685   3.593  11.344 -0.9017  0.2573 -1.4355
  750MPD2     N11089   3.645   3.156  11.256  0.2934 -0.0161  0.1783
  750MPD2    H511090   3.735   3.173  11.212  1.0988  0.7280  2.1290
  750MPD2    N111091   3.274   3.435  11.425  0.4566 -0.0416  0.5684
  750MPD2    H711092   3.240   3.530  11.432  3.6582  1.2539 -1.2298
  751TMC3    C111093   3.676   2.922  11.222 -0.1348 -1.0368 -0.5057
  751TMC3    C211094   3.615   2.805  11.245 -0.2934  0.1296  0.0576
  751TMC3    C311095   3.677   2.688  11.210 -0.4768  0.6202  0.3914
  751TMC3    C411096   3.798   2.927  11.152 -0.6854  0.5254  0.7158
  751TMC3    C511097   3.852   2.812  11.113 -0.0200  0.9734  0.9053
  751TMC3    C611098   3.787   2.690  11.131 -0.1188  0.0469 -0.1678
  751TMC3     C11099   3.596   3.031  11.274 -0.4983 -0.3348 -0.5144
  751TMC3     O11100   3.504   3.000  11.345  0.4636 -0.0394  0.0547
  751TMC3     H11101   3.521   2.795  11.299  0.2980 -0.9335  0.8878
  751TMC3    H111102   3.855   3.019  11.147  1.4389 -0.7886  1.0129
  751TMC3    H211103   3.813   2.600  11.076 -0.9545  0.5285 -1.3440
  751TMC3    C711104   3.966   2.807  11.018  0.0293  0.0471 -0.5064
  751TMC3    C811105   3.600   2.564  11.210 -0.8927 -0.6861 -0.2519
  751TMC3    O111106   3.976   2.905  10.943  1.2080  0.4438 -0.5512
  751TMC3    O211107   3.624   2.487  11.124  0.2589  0.2994 -0.1884
  752TMC3    C111108   2.552   2.863  16.931  0.1535 -0.5091  0.3666
  752TMC3    C211109   2.622   2.822  17.045  0.2607  0.1567  0.4904
  752TMC3    C311110   2.552   2.833  17.164 -0.6503  0.0451  0.0660
  752TMC3    C411111   2.429   2.931  16.939 -0.0285  0.7990 -0.5951
  752TMC3    C511112   2.369   2.941  17.057  0.9287  0.0836 -0.0565
  752TMC3    C611113   2.423   2.888  17.176 -0.3839 -0.6283  0.4329
  752TMC3     C11114   2.618   2.828  16.799  0.3075  0.3166 -0.1415
  752TMC3     O11115   2.705   2.742  16.785  0.0331 -0.1247  0.3632
  752TMC3     H11116   2.717   2.769  17.047 -0.1985 -0.7812 -2.8676
  752TMC3    H111117   2.373   2.974  16.856  0.1298  1.1103 -0.5419
  752TMC3    H211118   2.373   2.889  17.272 -1.6638  0.3796 -0.2400
  752TMC3    C711119   2.247   3.011  17.063 -0.6522 -0.3412 -0.6466
  752TMC3    C811120   2.628   2.793  17.279 -0.2476 -0.1620  0.3217
  752TMC3    O111121   2.180   3.024  16.962  0.9883  0.4954  0.3268
  752TMC3    O211122   2.707   2.700  17.261 -0.1988  0.4884 -0.6500
  753TMC3    C111123   4.714   4.181  13.363 -0.1561 -0.3831 -0.2785
  753TMC3    C211124   0.062   4.153  13.476  0.0301  0.4030  0.8393
  753TMC3    C311125   0.032   4.034  13.533 -0.2863  0.5134  0.5172
  753TMC3    C411126   4.638   4.084  13.298 -0.0717 -0.6562  0.3185
  753TMC3    C511127   4.626   3.963  13.356 -0.3472 -0.4650  0.0771
  753TMC3    C611128   4.673   3.936  13.485 -0.1833  0.0932  0.7286
  753TMC3     C11129   0.012   4.312  13.302 -0.0431  0.0058 -0.3738
  753TMC3     O11130   0.111   4.373  13.340 -0.0114  0.1451 -0.1839
  753TMC3     H11131   0.126   4.232  13.513  2.8330 -2.0926  1.3125
  753TMC3    H111132   4.584   4.105  13.206  2.3505  1.0301 -0.7203
  753TMC3    H211133   4.670   3.837  13.528 -3.2514  0.0834  0.4751
  753TMC3    C711134   4.534   3.872  13.284 -0.2094  0.3698 -0.4234
  753TMC3    C811135   0.050   4.026  13.671 -0.0657  0.2630 -0.5115
  753TMC3    O111136   4.521   3.905  13.162  0.4569  0.2354  0.4039
  753TMC3    O211137   0.034   3.911  13.720  0.4146  0.2200 -0.3428
  754MPD2     C11138   4.089   3.128  13.081 -0.0453  0.4762  0.5366
  754MPD2    C111139   4.047   2.996  13.095  0.1839 -0.4471  0.1499
  754MPD2    C211140   3.918   2.960  13.114 -0.1385  0.7969  0.3356
  754MPD2    C311141   3.823   3.062  13.129  0.0600 -1.1703 -0.1888
  754MPD2    C411142   3.862   3.198  13.106 -0.1757  0.6695 -0.5473
  754MPD2    C511143   3.993   3.226  13.075  0.0594 -0.6356  0.0384
  754MPD2     H11144   3.897   2.854  13.122  1.8114  0.1835 -2.4269
  754MPD2    H111145   3.784   3.273  13.099  0.5001  1.4655  0.4539
  754MPD2    H211146   4.192   3.161  13.072  0.5544 -2.0383 -1.9614
  754MPD2    H311147   4.027   3.329  13.076  1.9177 -1.2411 -1.6534
  754MPD2     N11148   3.687   3.038  13.155 -0.9064 -0.5586  0.2449
  754MPD2    H511149   3.628   3.119  13.142 -0.5299 -0.4535 -0.7975
  754MPD2    N111150   4.153   2.899  13.107 -0.2090 -0.4620 -0.3836
  754MPD2    H711151   4.244   2.926  13.143 -1.1121 -1.3062  2.5865
  755MPD2     C11152   2.981   3.547  13.461  0.6738  0.6171  0.1212
  755MPD2    C111153   2.926   3.424  13.469  0.8999 -0.2800  0.2087
  755MPD2    C211154   3.004   3.325  13.412  0.1653  0.0780 -0.6230
  755MPD2    C311155   3.135   3.345  13.363  0.0289 -0.2791 -0.0869
  755MPD2    C411156   3.179   3.472  13.358  0.5735 -0.2816  1.5390
  755MPD2    C511157   3.105   3.573  13.407  0.3318 -0.4215  0.3598
  755MPD2     H11158   2.968   3.223  13.426 -0.2274  0.1944 -0.7808
  755MPD2    H111159   3.278   3.493  13.319 -0.8496  0.1761 -1.8446
  755MPD2    H211160   2.927   3.634  13.498 -0.4643  0.2322 -0.6582
  755MPD2    H311161   3.133   3.676  13.390 -1.0705 -0.0851  0.0581
  755MPD2     N11162   3.224   3.248  13.311  0.3932  0.0051 -0.4393
  755MPD2    H511163   3.320   3.279  13.295  0.5514  0.2298  1.0225
  755MPD2    N111164   2.795   3.406  13.509 -0.0799 -0.1607 -0.5735
  755MPD2    H711165   2.770   3.310  13.487  0.0834 -0.5458  0.8861
  756MPD2     C11166   4.210   4.260   9.625 -0.6054 -0.8385  0.0651
  756MPD2    C111167   4.136   4.153   9.668  0.0950  0.0578  0.2303
  756MPD2    C211168   4.087   4.062   9.583  0.1079  0.0334  0.9566
  756MPD2    C311169   4.096   4.079   9.445 -0.8202 -0.2042 -1.5067
  756MPD2    C411170   4.167   4.182   9.399 -0.0323 -0.7283  0.2510
  756MPD2    C511171   4.227   4.272   9.481  0.0294  0.0908 -0.1059
  756MPD2     H11172   4.027   3.979   9.618 -0.7524  0.2262 -0.0631
  756MPD2    H111173   4.172   4.204   9.293  1.1128  1.4274  0.7454
  756MPD2    H211174   4.263   4.333   9.685 -1.5554 -0.4368  0.4194
  756MPD2    H311175   4.286   4.352   9.438 -0.2077  0.7167  0.7382
  756MPD2     N11176   4.035   3.982   9.365 -0.6821 -0.3493 -0.3619
  756MPD2    H511177   3.984   3.901   9.398 -1.2570 -0.7974 -2.3084
  756MPD2    N111178   4.114   4.129   9.808 -0.1857  0.6439 -0.4233
  756MPD2    H711179   4.080   4.039   9.840  2.1535  0.0393  0.3021
  757MPD2     C11180   4.120   3.190   9.528  0.2607 -0.0439 -0.4650
  757MPD2    C111181   4.064   3.288   9.602 -0.1576  0.5196  0.4647
  757MPD2    C211182   4.016   3.398   9.531  0.0987 -0.3083 -0.1914
  757MPD2    C311183   4.033   3.398   9.392 -0.3212  0.8173  0.2860
  757MPD2    C411184   4.093   3.295   9.326 -0.5026  0.3858 -0.3416
  757MPD2    C511185   4.147   3.191   9.400  0.8394  0.2439 -0.5670
  757MPD2     H11186   3.971   3.487   9.575 -3.1353 -1.7213 -0.6471
  757MPD2    H111187   4.125   3.293   9.223 -0.6263  0.9880 -0.3943
  757MPD2    H211188   4.164   3.108   9.584 -0.5979  0.2245  0.5985
  757MPD2    H311189   4.214   3.121   9.349  0.4147 -0.7511  0.2369
  757MPD2     N11190   3.997   3.512   9.316  0.4258 -0.0118  0.4768
  757MPD2    H511191   3.968   3.593   9.370  0.2910  1.3374 -1.5944
  757MPD2    N111192   4.061   3.270   9.747 -0.1614  0.1626  0.4538
  757MPD2    H711193   4.110   3.189   9.784  0.9222  0.3931 -0.4605
  758MPD2     C11194   3.189   1.582  15.396 -0.8871 -0.1859  0.1625
  758MPD2    C111195   3.278   1.516  15.478  0.9311  0.3725 -0.6871
  758MPD2    C211196   3.299   1.557  15.609 -0.1719 -0.0919 -0.3346
  758MPD2    C311197   3.227   1.661  15.663 -0.1097  0.3577  0.3556
  758MPD2    C411198   3.133   1.724  15.590 -0.1823 -0.0302 -0.7543
  758MPD2    C511199   3.107   1.678  15.460  0.4260  0.6287 -0.2042
  758MPD2     H11200   3.377   1.509  15.668  2.2012  2.9956 -0.9936
  758MPD2    H111201   3.072   1.806  15.627  0.7096  0.6392 -0.7662
  758MPD2    H211202   3.175   1.554  15.292 -2.0137 -0.2739  0.3340
  758MPD2    H311203   3.034   1.722  15.394  1.2629  0.1649 -1.4236
  758MPD2     N11204   3.261   1.711  15.793 -0.2752  0.5752  0.3135
  758MPD2    H511205   3.205   1.790  15.824 -0.1189  0.6675  0.3639
  758MPD2    N111206   3.360   1.408  15.427  0.1212  0.3722 -0.3385
  758MPD2    H711207   3.353   1.390  15.327  0.0458 -2.0436  0.0979
  759MPD2     C11208   3.364   1.201   9.235  0.0962  0.2243 -0.1752
  759MPD2    C111209   3.274   1.270   9.316  0.8818  0.0382  0.2614
  759MPD2    C211210   3.321   1.376   9.399 -0.2268 -0.4906  0.1291
  759MPD2    C311211   3.460   1.401   9.407  0.1434 -0.3265  0.1352
  759MPD2    C411212   3.543   1.322   9.333 -0.8237 -0.2409 -0.4332
  759MPD2    C511213   3.496   1.225   9.247  0.1811 -0.2101  0.7618
  759MPD2     H11214   3.257   1.434   9.463  1.1667  0.4979  0.6147
  759MPD2    H111215   3.651   1.333   9.343 -0.7606 -1.0168 -0.2274
  759MPD2    H211216   3.330   1.129   9.161 -2.3796  0.6443  0.5528
  759MPD2    H311217   3.567   1.175   9.182  0.9463  0.4802  1.0617
  759MPD2     N11218   3.505   1.500   9.505  0.4951  0.1850 -0.3992
  759MPD2    H511219   3.430   1.556   9.545  1.4102  0.7106  0.5770
  759MPD2    N111220   3.138   1.240   9.317  0.6661  0.8619 -0.0407
  759MPD2    H711221   3.071   1.312   9.342  0.8266  1.3749 -1.1023
  760MPD2     C11222   2.146   3.092  11.950  0.5350  0.1836  0.7260
  760MPD2    C111223   2.261   3.116  12.020 -0.1316  0.2646  0.6322
  760MPD2    C211224   2.314   3.016  12.094  0.4880 -0.7099  0.6385
  760MPD2    C311225   2.265   2.886  12.099  0.2213  0.2330 -0.3482
  760MPD2    C411226   2.143   2.864  12.032  0.5811 -0.7367  0.2736
  760MPD2    C511227   2.083   2.969  11.967 -0.0931 -1.2825  0.5369
  760MPD2     H11228   2.404   3.044  12.149  2.0083 -0.4139 -2.0097
  760MPD2    H111229   2.094   2.767  12.039 -0.2934 -0.4152 -1.4149
  760MPD2    H211230   2.087   3.161  11.890  3.0028  1.7177  0.0821
  760MPD2    H311231   1.983   2.955  11.928  0.4201 -1.7060 -0.6029
  760MPD2     N11232   2.323   2.775  12.171 -0.2227 -0.4936  0.4196
  760MPD2    H511233   2.280   2.683  12.165 -2.4164  0.6330 -1.2572
  760MPD2    N111234   2.309   3.248  12.015 -0.0551 -0.0054  0.8154
  760MPD2    H711235   2.260   3.306  11.948  1.7975  0.6421  0.0472
  761MPD2     C11236   3.228   2.278  11.392  0.0293 -0.3211 -0.6088
  761MPD2    C111237   3.287   2.269  11.268 -0.1198  0.0146 -0.1064
  761MPD2    C211238   3.389   2.366  11.246 -0.6042 -0.0746 -0.6308
  761MPD2    C311239   3.428   2.452  11.347  1.1473  0.0479 -0.0629
  761MPD2    C411240   3.371   2.450  11.465 -0.3252 -0.1842  0.0980
  761MPD2    C511241   3.272   2.364  11.494 -0.4865  0.3461  0.2053
  761MPD2     H11242   3.444   2.373  11.153 -0.5939 -2.8876 -0.8387
  761MPD2    H111243   3.417   2.513  11.541 -0.5451  0.6698 -0.4787
  761MPD2    H211244   3.151   2.207  11.419 -0.9277  0.0007 -2.4851
  761MPD2    H311245   3.224   2.366  11.591 -1.0222 -2.8161  0.0008
  761MPD2     N11246   3.521   2.553  11.325 -0.1354 -0.1162 -0.1010
  761MPD2    H511247   3.534   2.625  11.395 -0.1526 -0.4130  0.2066
  761MPD2    N111248   3.257   2.157  11.186  0.2288 -0.2841 -0.6206
  761MPD2    H711249   3.181   2.102  11.224  1.7863 -1.6357  0.5654
  762MPD2     C11250   3.739   2.245  10.917  1.1670 -0.2339  0.4923
  762MPD2    C111251   3.732   2.117  10.865  0.4278  0.5488  0.1021
  762MPD2    C211252   3.843   2.057  10.800  0.1845  0.5485 -0.8799
  762MPD2    C311253   3.956   2.131  10.775 -0.6662  0.0892  0.0681
  762MPD2    C411254   3.952   2.266  10.813 -0.0722  0.0613  0.6491
  762MPD2    C511255   3.851   2.320  10.892  0.0711  0.8741  1.0129
  762MPD2     H11256   3.836   1.959  10.753 -1.0763  0.4964 -0.5779
  762MPD2    H111257   4.030   2.333  10.780 -0.1574 -0.9608 -1.6298
  762MPD2    H211258   3.658   2.281  10.979 -1.9796 -1.7053 -2.7837
  762MPD2    H311259   3.861   2.420  10.933 -2.3788  2.2941 -1.8597
  762MPD2     N11260   4.065   2.070  10.706  0.1445 -0.3758  0.1257
  762MPD2    H511261   4.076   1.969  10.706 -1.5457 -0.5458  0.8515
  762MPD2    N111262   3.612   2.042  10.897 -0.2010  0.9563 -0.4123
  762MPD2    H711263   3.543   2.093  10.950 -2.3547 -1.4314 -0.9307
  763MPD2     C11264   1.044   2.371  16.292 -0.0099 -0.3984 -0.3345
  763MPD2    C111265   1.006   2.484  16.226  0.7112 -0.1069 -0.2014
  763MPD2    C211266   0.988   2.597  16.304  0.6216 -0.3782 -0.6501
  763MPD2    C311267   1.001   2.594  16.442 -0.0305  0.6701  0.5149
  763MPD2    C411268   1.024   2.476  16.504 -0.1141  0.2011 -0.0430
  763MPD2    C511269   1.029   2.365  16.429 -0.6040 -0.4345  0.0354
  763MPD2     H11270   0.952   2.685  16.252  0.9993  0.6108  0.7590
  763MPD2    H111271   1.037   2.478  16.612  0.1488 -0.8641 -0.0631
  763MPD2    H211272   1.077   2.281  16.241  0.1422 -0.9728  0.7834
  763MPD2    H311273   1.047   2.270  16.478  0.8052  0.9250  2.1376
  763MPD2     N11274   0.995   2.712  16.517 -0.7787  0.3362 -0.0470
  763MPD2    H511275   1.014   2.707  16.616  0.7380 -1.2276 -0.4117
  763MPD2    N111276   1.009   2.481  16.085  0.8119 -0.6485 -0.9497
  763MPD2    H711277   1.047   2.399  16.039 -0.4291 -0.1180 -2.9487
  764MPD2     C11278   2.369   3.157  17.610  0.1525  0.2579  0.9789
  764MPD2    C111279   2.412   3.289  17.588 -0.2979  0.3705  0.5751
  764MPD2    C211280   2.398   3.383   0.003  0.3807  0.0592  0.1529
  764MPD2    C311281   2.367   3.346   0.130 -0.6406 -0.0013 -0.0115
  764MPD2    C411282   2.330   3.211   0.153  0.1998  0.1755 -1.0441
  764MPD2    C511283   2.343   3.119   0.051  0.5257  0.2462  0.2610
  764MPD2     H11284   2.417   3.490  17.685  0.5433 -0.0902 -1.9089
  764MPD2    H111285   2.289   3.179   0.248  1.4601  1.7483  0.0353
  764MPD2    H211286   2.373   3.082  17.532 -0.5871  0.8966  0.3278
  764MPD2    H311287   2.315   3.014   0.059  0.5929  0.1425 -0.7927
  764MPD2     N11288   2.383   3.441   0.235  0.8746 -0.1898  0.3726
  764MPD2    H511289   2.429   3.528   0.214 -0.7462  1.0034  1.7765
  764MPD2    N111290   2.484   3.335  17.471  0.2830 -0.0021 -0.0006
  764MPD2    H711291   2.521   3.430  17.479 -0.9689  0.5668 -0.8493
  765MPD2     C11292   3.161   1.874  16.333 -0.0594  0.1518 -0.0232
  765MPD2    C111293   3.102   1.823  16.225  0.8813 -0.1513 -0.3960
  765MPD2    C211294   3.124   1.690  16.189 -0.7833  0.1967  0.7460
  765MPD2    C311295   3.210   1.617  16.267  0.6935  0.3976  0.7598
  765MPD2    C411296   3.276   1.670  16.378 -0.4731  0.4256  0.3996
  765MPD2    C511297   3.247   1.802  16.413  0.0281 -0.5363  0.3701
  765MPD2     H11298   3.080   1.640  16.104  1.3370  1.0628 -0.8518
  765MPD2    H111299   3.357   1.613  16.421 -0.8493 -1.6346 -1.6100
  765MPD2    H211300   3.151   1.980  16.355 -0.6447  0.0472  0.2185
  765MPD2    H311301   3.296   1.850  16.497 -0.2157  3.0780 -1.5328
  765MPD2     N11302   3.211   1.478  16.239  0.4391 -0.4590 -0.3928
  765MPD2    H511303   3.150   1.442  16.166  0.5037 -0.0751 -0.6366
  765MPD2    N111304   3.041   1.923  16.139 -0.1740  0.2989  0.3866
  765MPD2    H711305   3.026   2.017  16.175 -0.1415  0.2742  0.4644
  766MPD2     C11306   2.628   1.700  15.465 -0.5262 -0.4475 -0.2082
  766MPD2    C111307   2.702   1.815  15.459 -0.2908 -0.5357 -0.4448
  766MPD2    C211308   2.725   1.864  15.328  0.2369  0.1448  0.0531
  766MPD2    C311309   2.693   1.795  15.211  0.2430  0.3795 -0.7884
  766MPD2    C411310   2.651   1.663  15.223  0.0396 -0.3539 -0.2949
  766MPD2    C511311   2.614   1.626  15.345  0.3340 -0.4886 -0.1157
  766MPD2     H11312   2.777   1.956  15.306 -0.7099  0.5081 -0.6294
  766MPD2    H111313   2.632   1.592  15.144 -4.0479  0.2219  0.1588
  766MPD2    H211314   2.611   1.652  15.561 -0.8694 -0.6511 -0.3739
  766MPD2    H311315   2.560   1.532  15.354 -0.1392 -0.6455 -4.4857
  766MPD2     N11316   2.738   1.834  15.081 -0.6745 -0.9700 -0.1744
  766MPD2    H511317   2.732   1.760  15.012 -1.7066  0.9431 -2.1516
  766MPD2    N111318   2.742   1.879  15.581 -0.3300 -0.2323  0.2322
  766MPD2    H711319   2.725   1.829  15.668  1.3713 -0.6301  0.3397
  767MPD2     C11320   2.353   2.342  15.056  0.4969 -0.1226  0.0545
  767MPD2    C111321   2.489   2.368  15.029 -0.1750 -0.3859  0.5398
  767MPD2    C211322   2.533   2.341  14.897  0.1262  0.4377 -0.1158
  767MPD2    C311323   2.436   2.302  14.800  0.2069 -0.0399 -0.0247
  767MPD2    C411324   2.301   2.271  14.832 -0.1414  0.3155  0.0372
  767MPD2    C511325   2.267   2.287  14.963 -0.1650 -0.4341  0.0230
  767MPD2     H11326   2.635   2.356  14.863  0.4921 -0.6099  0.5429
  767MPD2    H111327   2.237   2.219  14.761  0.6765 -1.2769  0.4621
  767MPD2    H211328   2.307   2.357  15.153  1.7155  1.6715  0.3495
  767MPD2    H311329   2.167   2.263  14.998 -0.3013 -0.1129 -0.1437
  767MPD2     N11330   2.486   2.278  14.670 -0.6993 -0.1941  0.1945
  767MPD2    H511331   2.585   2.284  14.648 -0.1297 -2.0053  2.2551
  767MPD2    N111332   2.589   2.404  15.117  0.1651 -0.5244 -0.1239
  767MPD2    H711333   2.684   2.417  15.082  0.5174 -0.5289  0.8130
  768MPD2     C11334   3.749   0.815  10.671  0.2103  0.6366 -0.4160
  768MPD2    C111335   3.706   0.748  10.784 -0.1229 -0.3086 -0.4020
  768MPD2    C211336   3.797   0.745  10.886 -0.2367  0.3671 -0.4011
  768MPD2    C311337   3.924   0.809  10.881  0.1825  0.3006 -0.1787
  768MPD2    C411338   3.951   0.884  10.768 -0.6686  0.2540  0.4795
  768MPD2    C511339   3.866   0.876  10.664  0.2852 -0.1746 -0.0347
  768MPD2     H11340   3.769   0.695  10.978 -1.4083  1.0204 -0.4141
  768MPD2    H111341   4.037   0.948  10.755 -1.0397  0.7107  0.2555
  768MPD2    H211342   3.695   0.824  10.577 -3.5797 -1.1727  1.6239
  768MPD2    H311343   3.903   0.917  10.570 -2.0414 -0.4612 -1.0912
  768MPD2     N11344   4.017   0.815  10.990  1.2011  0.1531  0.3225
  768MPD2    H511345   4.101   0.869  10.973 -0.8569  2.9817 -0.8704
  768MPD2    N111346   3.584   0.687  10.803  0.7033 -0.1634  0.7771
  768MPD2    H711347   3.569   0.643  10.893  1.5839 -1.1508  0.4354
  769MPD2     C11348   0.081   3.305  15.111  0.7430 -0.3264  0.0133
  769MPD2    C111349   4.713   3.268  15.213  0.5324 -0.1335 -0.2160
  769MPD2    C211350   4.694   3.354  15.322  0.2429  0.3590 -0.4613
  769MPD2    C311351   0.037   3.473  15.338 -0.1405  0.1089  0.2201
  769MPD2    C411352   0.120   3.507  15.233  0.1822  0.6920  0.3362
  769MPD2    C511353   0.140   3.427  15.120  0.2278  0.0280 -0.2326
  769MPD2     H11354   4.623   3.319  15.397 -0.7087  0.2854 -1.3971
  769MPD2    H111355   0.176   3.599  15.230 -0.9740  1.3122 -1.9822
  769MPD2    H211356   0.092   3.232  15.032 -1.6930 -1.7868  1.0112
  769MPD2    H311357   0.218   3.457  15.051  0.3855 -0.5683 -0.3181
  769MPD2     N11358   0.009   3.553  15.450 -0.1758  0.4048  0.6103
  769MPD2    H511359   4.662   3.515  15.515  1.0708 -0.6698  1.2790
  769MPD2    N111360   4.641   3.151  15.193  0.5267  0.2955  0.2292
  769MPD2    H711361   4.683   3.080  15.134  0.3927  1.1914 -0.9436
  770MPD2     C11362   3.894   2.368  15.305 -0.5973  0.3294  0.4711
  770MPD2    C111363   3.901   2.391  15.172  0.4449  1.0305  0.5298
  770MPD2    C211364   3.983   2.496  15.126 -0.3904 -0.5388 -0.6516
  770MPD2    C311365   4.050   2.577  15.215  0.4961 -0.3878 -0.2333
  770MPD2    C411366   4.043   2.551  15.348  0.2519 -0.8527  0.3893
  770MPD2    C511367   3.961   2.444  15.389  0.3108 -0.4271 -0.1200
  770MPD2     H11368   3.989   2.522  15.021  0.4525  0.8043 -0.2833
  770MPD2    H111369   4.081   2.608  15.432 -1.1210 -0.5428  0.8064
  770MPD2    H211370   3.837   2.287  15.349 -1.2073  0.4506 -0.0880
  770MPD2    H311371   3.933   2.421  15.491 -2.6208  2.3564 -0.2743
  770MPD2     N11372   4.123   2.685  15.168  0.5621  0.2535 -0.0892
  770MPD2    H511373   4.128   2.701  15.068  0.1206 -0.8823 -0.2943
  770MPD2    N111374   3.816   2.314  15.085 -0.2411 -0.1099 -0.2484
  770MPD2    H711375   3.755   2.242  15.122  1.4616 -1.3931  0.0414
  771MPD2     C11376   0.712   1.677  13.973  0.0971  0.6089  0.3935
  771MPD2    C111377   0.644   1.786  13.918  0.3104  0.7864 -0.3814
  771MPD2    C211378   0.531   1.765  13.845 -0.0597  0.1104 -0.3153
  771MPD2    C311379   0.481   1.638  13.830 -0.2156  0.4311  0.2212
  771MPD2    C411380   0.551   1.528  13.887 -0.1800 -0.4077 -0.5505
  771MPD2    C511381   0.664   1.554  13.956 -0.4791  0.8197 -0.7449
  771MPD2     H11382   0.476   1.852  13.812 -0.9245 -0.5370 -0.6073
  771MPD2    H111383   0.516   1.427  13.877  1.0144 -0.9687  0.8906
  771MPD2    H211384   0.796   1.687  14.040  0.6627  0.6149 -0.3185
  771MPD2    H311385   0.715   1.469  14.000  0.7130  1.8068 -0.1921
  771MPD2     N11386   0.358   1.633  13.766 -0.3289  0.0857  0.5732
  771MPD2    H511387   0.326   1.723  13.731  0.0635  0.0443  0.0972
  771MPD2    N111388   0.692   1.916  13.940 -0.1500  0.1396  0.6365
  771MPD2    H711389   0.636   1.989  13.897  2.8364  3.0108  1.6033
  772MPD2     C11390   0.292   2.502  13.960 -0.2882 -0.2093 -0.1027
  772MPD2    C111391   0.303   2.386  14.033  1.0195 -0.1333  0.6849
  772MPD2    C211392   0.196   2.325  14.086  0.3660  0.3330  0.2148
  772MPD2    C311393   0.069   2.367  14.041 -0.1072 -0.2026 -0.3202
  772MPD2    C411394   0.059   2.477  13.957  0.0413 -0.2778  0.4029
  772MPD2    C511395   0.167   2.539  13.911 -0.7931  0.6907  0.4585
  772MPD2     H11396   0.203   2.238  14.151 -0.2035  1.1902  1.4130
  772MPD2    H111397   4.684   2.521  13.933  0.4045 -0.9424 -2.2349
  772MPD2    H211398   0.373   2.548  13.905  1.6406 -1.5109  1.6241
  772MPD2    H311399   0.158   2.627  13.849  0.0809  0.3871 -0.0961
  772MPD2     N11400   4.667   2.314  14.077 -0.2687  0.3932  0.4974
  772MPD2    H511401   4.585   2.346  14.027 -1.3414 -0.0349  1.9601
  772MPD2    N111402   0.434   2.328  14.047 -0.8565 -0.1691  0.1398
  772MPD2    H711403   0.424   2.233  14.082  1.5161 -1.6338 -3.1258
  773MPD2     C11404   4.059   2.444   0.101  0.0021  0.0854  0.0910
  773MPD2    C111405   4.087   2.366  17.685  0.4103 -0.3489 -0.0283
  773MPD2    C211406   4.167   2.261   0.020  0.2497 -0.4455 -0.7436
  773MPD2    C311407   4.227   2.239   0.141  0.9453  0.1827 -0.5041
  773MPD2    C411408   4.187   2.313   0.249  0.0946  0.2835 -0.1986
  773MPD2    C511409   4.095   2.414   0.227  0.0127  0.8753  0.1729
  773MPD2     H11410   4.199   2.203  17.622  0.5241 -0.4185 -0.6575
  773MPD2    H111411   4.222   2.300   0.351 -0.4952  0.9620  0.0902
  773MPD2    H211412   3.993   2.529   0.096  0.5911  0.6216  1.5579
  773MPD2    H311413   4.047   2.470   0.306 -0.8382  0.0860  0.2219
  773MPD2     N11414   4.321   2.130   0.148  0.2591  0.5033  0.0111
  773MPD2    H511415   4.333   2.072   0.066  2.3294  1.5958 -0.4249
  773MPD2    N111416   4.042   2.384  17.554 -0.4001 -0.4050  0.5982
  773MPD2    H711417   4.077   2.318  17.485  0.2339 -0.7783  1.2817
  774MPD2     C11418   3.719   1.996  13.339 -0.6890  0.1850 -0.1658
  774MPD2    C111419   3.678   2.111  13.406  0.3891 -0.7645 -0.1279
  774MPD2    C211420   3.753   2.230  13.392 -0.2756 -0.7066  0.5512
  774MPD2    C311421   3.868   2.227  13.312  0.4001  0.4836  0.0489
  774MPD2    C411422   3.903   2.117  13.238  0.5413 -0.5493 -0.7219
  774MPD2    C511423   3.831   2.001  13.254 -0.3125 -0.1300  0.0108
  774MPD2     H11424   3.730   2.326  13.438 -1.9216 -0.1482 -1.4453
  774MPD2    H111425   3.979   2.111  13.161  1.9542  0.6224  0.5982
  774MPD2    H211426   3.666   1.902  13.350  1.4105 -0.9880 -0.0705
  774MPD2    H311427   3.867   1.917  13.197  0.3149 -0.6158  1.1110
  774MPD2     N11428   3.949   2.342  13.307 -0.1734  0.0291 -0.3130
  774MPD2    H511429   3.899   2.418  13.351  0.3463  0.1836  0.0148
  774MPD2    N111430   3.556   2.112  13.480 -0.1006 -0.3904  0.0094
  774MPD2    H711431   3.509   2.026  13.509 -0.8233 -0.7693 -2.2537
  775MPD2     C11432   0.468   4.016  15.800  0.2014  0.2835 -0.0575
  775MPD2    C111433   0.482   4.111  15.895 -0.3368 -0.3905  0.5291
  775MPD2    C211434   0.586   4.198  15.900  0.1038 -0.5574 -0.4679
  775MPD2    C311435   0.687   4.184  15.811 -0.4434  0.2566  0.3706
  775MPD2    C411436   0.682   4.073  15.727 -0.3466  0.0057  0.1663
  775MPD2    C511437   0.573   3.994  15.717  0.5249 -0.2969 -0.1414
  775MPD2     H11438   0.577   4.277  15.974 -0.7836  0.0978 -1.2650
  775MPD2    H111439   0.767   4.059  15.661  0.4597 -0.9534  1.4194
  775MPD2    H211440   0.377   3.960  15.782  0.5393 -0.4489  0.4984
  775MPD2    H311441   0.564   3.911  15.647 -2.6711 -1.6675  1.9119
  775MPD2     N11442   0.794   4.269  15.797  0.0109 -0.8285 -0.2294
  775MPD2    H511443   0.856   4.253  15.718 -3.0306 -2.1916 -2.3394
  775MPD2    N111444   0.370   4.093  15.990 -0.2054  0.0203 -0.6561
  775MPD2    H711445   0.307   4.015  15.975  1.5275 -2.0050  2.6956
  776MPD2     C11446   3.030   3.786  11.034  0.0224  0.3091 -0.0216
  776MPD2    C111447   3.006   3.803  11.172  0.5138 -0.5856  0.0958
  776MPD2    C211448   3.017   3.930  11.232 -0.0106  0.0985 -0.3432
  776MPD2    C311449   3.079   4.031  11.161 -0.1019  0.3179 -0.0822
  776MPD2    C411450   3.115   4.005  11.027  0.1794  0.0067 -0.1079
  776MPD2    C511451   3.076   3.894  10.963  0.4965  0.1257  0.4787
  776MPD2     H11452   2.976   3.945  11.331  0.5966  1.6297 -0.3350
  776MPD2    H111453   3.167   4.074  10.961  0.0351 -0.3367 -0.5771
  776MPD2    H211454   3.007   3.697  10.977 -0.6248  0.3151  0.2298
  776MPD2    H311455   3.083   3.878  10.856 -1.2411  0.6528  0.2805
  776MPD2     N11456   3.109   4.154  11.212  0.1139 -0.4028 -0.1062
  776MPD2    H511457   3.143   4.221  11.144 -0.1723 -1.8574 -1.7001
  776MPD2    N111458   2.964   3.696  11.251 -0.6151  0.5937 -0.0836
  776MPD2    H711459   2.962   3.609  11.199 -2.0950  1.2520 -1.1108
  777MPD2     C11460   0.074   0.839   0.889  0.0351  0.1590  0.0372
  777MPD2    C111461   4.669   0.886   0.894 -0.1497  0.8057  0.2577
  777MPD2    C211462   4.567   0.828   0.819 -0.0129  0.1247 -0.1508
  777MPD2    C311463   4.583   0.714   0.754  0.4801 -0.3188  0.6047
  777MPD2    C411464   4.711   0.660   0.751 -0.0204  0.2885 -0.0673
  777MPD2    C511465   0.093   0.725   0.811  0.2801 -0.2660 -0.4349
  777MPD2     H11466   4.464   0.859   0.827  0.3045  1.5188 -1.4111
  777MPD2    H111467   0.012   0.566   0.701 -2.0808  1.5553 -3.3654
  777MPD2    H211468   0.158   0.883   0.941  0.7946  0.7877 -1.7136
  777MPD2    H311469   0.195   0.690   0.818  1.0297  2.3995  2.0170
  777MPD2     N11470   4.471   0.650   0.687 -0.2257 -1.0554 -0.1113
  777MPD2    H511471   4.488   0.562   0.639  2.4186 -0.7506  0.2327
  777MPD2    N111472   4.648   0.993   0.981  0.1605 -0.0059 -0.3616
  777MPD2    H711473   0.009   1.016   1.036  1.0054 -1.3847 -1.0484
  778MPD2     C11474   0.619   1.853  15.508 -0.4547 -0.2148  0.4069
  778MPD2    C111475   0.593   1.772  15.394  0.0997 -0.0100 -0.1796
  778MPD2    C211476   0.609   1.830  15.272  0.3894  0.2827 -0.3262
  778MPD2    C311477   0.652   1.954  15.252 -0.7677 -0.1463  0.3601
  778MPD2    C411478   0.673   2.038  15.361 -0.0519 -0.4170 -0.0584
  778MPD2    C511479   0.649   1.985  15.484  0.4220  0.2782 -0.2702
  778MPD2     H11480   0.586   1.764  15.189  1.3699  0.4911 -0.7731
  778MPD2    H111481   0.719   2.134  15.343 -1.0064 -0.2391 -1.5553
  778MPD2    H211482   0.613   1.824  15.612  0.0748  1.8684  1.0212
  778MPD2    H311483   0.672   2.049  15.568 -1.3850  0.0668  0.3808
  778MPD2     N11484   0.678   1.992  15.113 -0.0750 -0.2046 -0.1495
  778MPD2    H511485   0.664   1.918  15.045  2.9387 -0.2357 -0.7327
  778MPD2    N111486   0.546   1.639  15.400 -0.1126 -0.1119  0.0574
  778MPD2    H711487   0.549   1.584  15.315 -0.3740 -0.5525  0.3297
  779MPD2     C11488   0.144   0.431  13.840  0.0232  0.1609  0.6395
  779MPD2    C111489   0.238   0.437  13.939 -0.0077 -0.2916 -0.2615
  779MPD2    C211490   0.266   0.564  13.988 -0.1393 -0.2776 -0.0207
  779MPD2    C311491   0.216   0.674  13.938 -0.3863  0.5009  0.4777
  779MPD2    C411492   0.121   0.661  13.840  0.1407 -0.5054 -0.2256
  779MPD2    C511493   0.082   0.542  13.792 -0.1565  0.5522 -0.0972
  779MPD2     H11494   0.339   0.570  14.067 -0.6545 -4.7273  0.8332
  779MPD2    H111495   0.081   0.743  13.782 -0.0123 -0.6967 -0.3942
  779MPD2    H211496   0.101   0.336  13.810  1.2340 -0.6844  1.5585
  779MPD2    H311497   0.013   0.535  13.709  1.6433 -0.2326 -1.5446
  779MPD2     N11498   0.245   0.804  13.994  0.0247  0.2488 -0.2276
  779MPD2    H511499   0.322   0.806  14.060 -0.1039  0.3306 -0.0794
  779MPD2    N111500   0.290   0.314  13.984 -0.3624  0.0057  0.4548
  779MPD2    H711501   0.273   0.232  13.926  0.4816 -0.0071  0.2321
  780MPD2     C11502   3.967   4.083   1.463 -0.1929 -0.3231 -0.0165
  780MPD2    C111503   3.949   4.175   1.361  0.2315  0.8484 -0.5941
  780MPD2    C211504   4.050   4.201   1.268 -0.4013 -0.0281 -1.1101
  780MPD2    C311505   4.173   4.161   1.304  0.1844  0.6060  0.3822
  780MPD2    C411506   4.196   4.068   1.409  0.5809  0.1264 -0.0264
  780MPD2    C511507   4.085   4.024   1.475 -0.4226  0.4879  0.3382
  780MPD2     H11508   4.031   4.261   1.180 -1.5736  1.3750  0.0843
  780MPD2    H111509   4.294   4.030   1.433  1.5460  1.0071 -2.5542
  780MPD2    H211510   3.881   4.050   1.520 -1.1783  1.9962 -0.1538
  780MPD2    H311511   4.099   3.960   1.562 -1.0351 -2.1825 -1.5540
  780MPD2     N11512   4.279   4.202   1.219 -0.2877  0.1251 -0.2109
  780MPD2    H511513   4.253   4.266   1.144 -2.9036 -0.3989  0.2428
  780MPD2    N111514   3.822   4.224   1.353  0.2619  0.2116 -0.2352
  780MPD2    H711515   3.754   4.169   1.404  1.7357 -3.0936 -1.8887
  781MPD2     C11516   1.515   2.765  11.936  0.0591 -0.0962 -0.2670
  781MPD2    C111517   1.602   2.676  11.996 -0.7031  0.0088  0.2541
  781MPD2    C211518   1.724   2.649  11.934 -0.0369 -0.7213  0.0253
  781MPD2    C311519   1.759   2.697  11.810 -0.0132 -0.0773 -0.7446
  781MPD2    C411520   1.659   2.779  11.751  0.2523  0.1039  0.2823
  781MPD2    C511521   1.547   2.812  11.814 -0.3194  0.7966  0.3436
  781MPD2     H11522   1.794   2.590  11.992  0.1205 -1.4256 -0.8632
  781MPD2    H111523   1.677   2.814  11.650 -0.4363 -3.0721 -0.9432
  781MPD2    H211524   1.422   2.797  11.982 -0.0909 -1.8588  0.6370
  781MPD2    H311525   1.478   2.871  11.755 -0.3878  0.1151 -0.2570
  781MPD2     N11526   1.884   2.678  11.740  0.5604  0.8958  0.3193
  781MPD2    H511527   1.891   2.715  11.645 -0.7843 -1.1526 -0.5609
  781MPD2    N111528   1.564   2.614  12.116  0.6978 -0.1953 -1.1791
  781MPD2    H711529   1.635   2.555  12.157  0.6971 -0.8347 -2.0929
  782MPD2     C11530   4.364   3.251  10.022  0.6819 -0.2578 -0.2125
  782MPD2    C111531   4.394   3.210  10.151  0.1388  0.1102  0.1060
  782MPD2    C211532   4.404   3.302  10.255  0.3533  0.2649 -0.1411
  782MPD2    C311533   4.380   3.435  10.229 -0.1778  0.1094  1.2543
  782MPD2    C411534   4.341   3.475  10.104  0.3757  0.3173  0.4880
  782MPD2    C511535   4.328   3.381  10.008  0.5947  0.0584  0.2246
  782MPD2     H11536   4.420   3.274  10.358  0.5986  0.2034 -0.1966
  782MPD2    H111537   4.337   3.580  10.076  1.1401  0.6570  1.6556
  782MPD2    H211538   4.350   3.179   9.942 -0.6132  1.5576 -1.6133
  782MPD2    H311539   4.295   3.415   9.910  0.7368  0.5421  0.3459
  782MPD2     N11540   4.405   3.520  10.333 -0.0401 -0.1406  0.2513
  782MPD2    H511541   4.449   3.479  10.415  1.7540 -0.4839 -0.8889
  782MPD2    N111542   4.410   3.070  10.171  0.6961  0.3373 -0.2423
  782MPD2    H711543   4.417   3.010  10.090  0.9346 -0.0312  0.0520
  783MPD2     C11544   4.161   2.504  10.967  0.3260 -0.2494  1.1172
  783MPD2    C111545   4.127   2.634  10.933 -0.1376 -0.5357  0.1097
  783MPD2    C211546   4.186   2.697  10.828 -0.3933 -0.1429 -0.2432
  783MPD2    C311547   4.290   2.640  10.761  0.4857 -0.6523  0.1821
  783MPD2    C411548   4.323   2.507  10.786 -0.3679 -0.1897 -0.3546
  783MPD2    C511549   4.256   2.441  10.886 -0.1138  0.1391  0.5526
  783MPD2     H11550   4.154   2.798  10.805  0.6523  0.5429  1.2739
  783MPD2    H111551   4.401   2.464  10.723 -1.0389 -1.3872 -0.3750
  783MPD2    H211552   4.116   2.451  11.050  0.9791 -0.6184  1.2347
  783MPD2    H311553   4.283   2.338  10.905  2.3665  0.9896  1.5322
  783MPD2     N11554   4.366   2.721  10.671  0.1352  0.1611 -0.1928
  783MPD2    H511555   4.337   2.817  10.653 -0.7975 -0.7434 -3.4520
  783MPD2    N111556   4.029   2.686  11.025 -0.5106  0.6012 -0.0284
  783MPD2    H711557   4.001   2.628  11.103  4.2310 -0.7243  0.6579
  784MPD2     C11558   2.466   2.727   0.332  0.2694  0.4314 -0.4660
  784MPD2    C111559   2.452   2.834   0.409  0.4363  0.7467 -0.4937
  784MPD2    C211560   2.340   2.917   0.406 -0.1639  0.5168 -0.7461
  784MPD2    C311561   2.232   2.887   0.321  0.3965 -0.1040 -0.1834
  784MPD2    C411562   2.245   2.775   0.246 -0.4783 -0.1359  0.4776
  784MPD2    C511563   2.364   2.700   0.252 -0.9447 -0.2635 -0.5788
  784MPD2     H11564   2.344   3.005   0.469  2.4622  0.1370 -0.4009
  784MPD2    H111565   2.171   2.742   0.174 -1.8260  0.4836  1.5947
  784MPD2    H211566   2.540   2.649   0.345 -0.3703 -0.3790 -1.6990
  784MPD2    H311567   2.369   2.612   0.189  1.2549 -0.4592 -0.1185
  784MPD2     N11568   2.118   2.972   0.325 -0.1582  0.1081 -0.0558
  784MPD2    H511569   2.127   3.043   0.397  1.6355 -0.2507  0.0802
  784MPD2    N111570   2.544   2.866   0.512 -0.3087  0.4009  0.0995
  784MPD2    H711571   2.514   2.941   0.574  0.5534 -0.5516  1.6542
  785MPD2     C11572   3.487   2.263   8.622 -0.0468 -0.3491 -0.3819
  785MPD2    C111573   3.615   2.274   8.567 -0.5788  0.2890 -0.2732
  785MPD2    C211574   3.683   2.160   8.546  0.0160  0.5742  0.2758
  785MPD2    C311575   3.639   2.040   8.599  0.5277  0.2892  0.0039
  785MPD2    C411576   3.515   2.031   8.657  0.1817  0.3276 -0.3777
  785MPD2    C511577   3.437   2.142   8.662 -0.1714 -0.2834 -0.2185
  785MPD2     H11578   3.785   2.158   8.507  0.5814  2.7112  1.6211
  785MPD2    H111579   3.473   1.939   8.698  1.5764 -0.2785 -0.2979
  785MPD2    H211580   3.438   2.359   8.633 -0.2029 -0.4974  0.2492
  785MPD2    H311581   3.343   2.153   8.715 -0.2172 -0.9971 -0.1546
  785MPD2     N11582   3.728   1.931   8.580  0.0984 -0.1905  0.4527
  785MPD2    H511583   3.816   1.951   8.533  0.5020  1.7577  2.0411
  785MPD2    N111584   3.660   2.404   8.527  0.0419 -0.6003  0.6191
  785MPD2    H711585   3.602   2.486   8.543  1.4633  1.1709 -3.4825
  786MPD2     C11586   0.527   4.536  14.731 -0.1749  0.2603 -0.2377
  786MPD2    C111587   0.644   4.483  14.688  0.3380 -0.3513  0.5171
  786MPD2    C211588   0.760   4.539  14.731  0.1200  0.4902 -0.0252
  786MPD2    C311589   0.750   4.604  14.853 -0.2560 -0.0547 -0.1266
  786MPD2    C411590   0.632   4.647  14.912 -0.0005  0.1509  0.3074
  786MPD2    C511591   0.518   4.612  14.847 -0.5713 -0.6826 -0.3109
  786MPD2     H11592   0.850   4.497  14.689 -0.2290  1.3757 -1.6632
  786MPD2    H111593   0.632   4.710  15.000 -0.6344  0.1783  0.2849
  786MPD2    H211594   0.439   4.525  14.669  1.0199 -0.2487 -1.8578
  786MPD2    H311595   0.422   4.658  14.868 -1.8570 -2.1941 -2.7824
  786MPD2     N11596   0.866   4.663  14.910  0.4057  0.0858  0.1493
  786MPD2    H511597   0.851   0.011  14.983  3.1379  0.2498  0.5593
  786MPD2    N111598   0.649   4.395  14.571 -0.6345 -0.0401 -0.3319
  786MPD2    H711599   0.742   4.365  14.546  0.0568 -0.4663  2.7688
  787MPD2     C11600   1.146   4.096  14.662  0.5362 -0.1119 -0.7177
  787MPD2    C111601   1.081   4.018  14.565 -0.1467 -0.1865 -0.2912
  787MPD2    C211602   1.109   3.887  14.561 -0.2381  1.0303 -0.2022
  787MPD2    C311603   1.220   3.826  14.629  0.0326  0.2453  0.4901
  787MPD2    C411604   1.283   3.915  14.724  0.1285 -0.1536  0.2524
  787MPD2    C511605   1.249   4.043  14.732 -0.1267  0.0640  0.2282
  787MPD2     H11606   1.061   3.824  14.487  1.2321  1.3015 -1.3958
  787MPD2    H111607   1.372   3.883  14.776 -0.0117 -0.9439  0.0057
  787MPD2    H211608   1.111   4.199  14.669  0.9485  0.0466 -0.9526
  787MPD2    H311609   1.297   4.104  14.808  1.4933 -0.6390 -0.2198
  787MPD2     N11610   1.248   3.687  14.632  0.3185 -0.2926  0.1774
  787MPD2    H511611   1.294   3.651  14.715  0.5584  2.0999  1.0702
  787MPD2    N111612   0.978   4.083  14.488  0.8018  0.3558  0.0186
  787MPD2    H711613   0.956   4.182  14.494  0.8720  0.4730 -1.7608
  788MPD2     C11614   2.606   1.891   1.034 -0.0615  0.3900 -0.0440
  788MPD2    C111615   2.541   1.836   0.925  0.1981 -0.1571 -0.3973
  788MPD2    C211616   2.557   1.893   0.806  0.3260 -0.3575  0.5968
  788MPD2    C311617   2.648   1.997   0.785  0.5429 -1.3252 -0.1064
  788MPD2    C411618   2.716   2.046   0.894  0.2131 -0.2710 -0.0587
  788MPD2    C511619   2.695   1.996   1.017  0.5328 -0.8607 -0.3290
  788MPD2     H11620   2.494   1.855   0.727 -0.9135  0.0708  1.3863
  788MPD2    H111621   2.785   2.128   0.873  1.6939 -1.7645 -1.0554
  788MPD2    H211622   2.588   1.861   1.137  0.0128 -0.5047 -0.2968
  788MPD2    H311623   2.750   2.041   1.099  0.7253 -0.7383 -0.5231
  788MPD2     N11624   2.680   2.059   0.662 -0.8437  0.2029 -0.2637
  788MPD2    H511625   2.748   2.133   0.655 -1.7127  1.2509  2.5208
  788MPD2    N111626   2.447   1.727   0.938 -0.1651  0.0716  0.0282
  788MPD2    H711627   2.384   1.700   0.863 -0.3059 -0.8757  0.4808
  789MPD2     C11628   3.057   2.004  16.809 -0.0924  0.2538  0.3923
  789MPD2    C111629   2.976   1.996  16.694 -0.0691 -0.0823  0.1652
  789MPD2    C211630   2.931   2.110  16.630  0.0687 -0.4719 -0.0190
  789MPD2    C311631   2.929   2.225  16.704 -0.4536 -0.6927 -0.5169
  789MPD2    C411632   2.979   2.224  16.831  0.0966  0.3216 -0.5594
  789MPD2    C511633   3.047   2.121  16.882  0.1304  0.0791  0.2553
  789MPD2     H11634   2.882   2.106  16.533  1.4788 -2.1652 -0.6441
  789MPD2    H111635   2.973   2.311  16.895  1.2120 -0.2988  0.3976
  789MPD2    H211636   3.091   1.912  16.855  0.8542 -0.4084 -1.5905
  789MPD2    H311637   3.080   2.125  16.985 -0.9457  3.4040  0.4687
  789MPD2     N11638   2.876   2.345  16.659 -0.4318 -0.0546  0.2621
  789MPD2    H511639   2.869   2.426  16.720 -0.2059  0.9346 -1.0181
  789MPD2    N111640   2.963   1.874  16.623  0.4485  0.5528 -0.3200
  789MPD2    H711641   2.914   1.885  16.535 -1.0511 -1.5339  0.2396
  790MPD2     C11642   4.503   4.155  13.785 -0.0446  0.2457 -0.2643
  790MPD2    C111643   4.427   4.049  13.786 -0.3582 -0.1365 -0.1661
  790MPD2    C211644   4.358   4.003  13.672  0.2043 -0.2380 -0.4598
  790MPD2    C311645   4.365   4.082  13.558  0.4000 -0.3251 -0.4396
  790MPD2    C411646   4.444   4.199  13.562  0.0392 -0.1555 -0.2013
  790MPD2    C511647   4.506   4.232  13.673 -0.6449  0.1739  1.1271
  790MPD2     H11648   4.305   3.908  13.677  1.2076 -0.7853 -0.2100
  790MPD2    H111649   4.441   4.273  13.483 -0.8969 -1.1933 -1.1500
  790MPD2    H211650   4.562   4.179  13.872 -1.0693 -3.2453  1.3966
  790MPD2    H311651   4.561   4.325  13.674 -2.0700  1.0018  1.1766
  790MPD2     N11652   4.285   4.046  13.447 -0.9032  0.0373  0.4415
  790MPD2    H511653   4.242   3.954  13.451  0.0119 -0.4773 -1.3515
  790MPD2    N111654   4.417   3.989  13.912  0.1149 -0.3604 -0.3712
  790MPD2    H711655   4.469   4.020  13.994 -0.8330 -0.1628  0.1713
  791MPD2     C11656   3.610   3.955  13.341  0.6672 -0.3659  0.1124
  791MPD2    C111657   3.676   3.876  13.250 -0.0144 -0.5582 -0.7191
  791MPD2    C211658   3.605   3.783  13.178 -0.3442 -0.2061  0.4773
  791MPD2    C311659   3.471   3.768  13.187  0.2197 -0.2208  0.4988
  791MPD2    C411660   3.402   3.840  13.278  0.4466  0.1383 -0.3322
  791MPD2    C511661   3.470   3.938  13.349 -0.6953  0.0846 -0.4471
  791MPD2     H11662   3.670   3.727  13.111  0.1565  1.9942 -0.8592
  791MPD2    H111663   3.299   3.818  13.304  0.3008 -0.3617 -1.2979
  791MPD2    H211664   3.661   4.031  13.399 -1.1379  0.2238  0.9402
  791MPD2    H311665   3.420   3.986  13.433  1.0307  1.0015  0.0445
  791MPD2     N11666   3.405   3.675  13.112  0.1590 -0.1761  0.1485
  791MPD2    H511667   3.463   3.609  13.061 -0.9539 -0.5711 -0.5967
  791MPD2    N111668   3.820   3.901  13.241  0.1446 -0.2171 -0.2299
  791MPD2    H711669   3.848   3.975  13.304 -1.2954 -0.4584  0.6871
  792MPD2     C11670   4.193   3.867  11.285  0.8018  0.3355 -0.3599
  792MPD2    C111671   4.152   3.951  11.182 -0.1009  0.6489 -0.5881
  792MPD2    C211672   4.030   3.926  11.132 -0.0647  0.0584  0.2116
  792MPD2    C311673   3.946   3.823  11.174  1.1892  0.4812 -0.0718
  792MPD2    C411674   3.990   3.749  11.283  0.3843  0.7624  0.0199
  792MPD2    C511675   4.113   3.769  11.345  0.9471  0.2075 -0.1151
  792MPD2     H11676   3.999   3.992  11.052  1.9595  0.5962 -0.1410
  792MPD2    H111677   3.930   3.678  11.338  0.7779 -0.3300 -0.9789
  792MPD2    H211678   4.286   3.880  11.340  0.8505  0.0195 -0.3683
  792MPD2    H311679   4.144   3.717  11.434 -0.8892 -3.0551 -1.3851
  792MPD2     N11680   3.816   3.794  11.123  0.8955 -0.0828  0.0103
  792MPD2    H511681   3.768   3.721  11.174  0.1458  1.7951  2.0203
  792MPD2    N111682   4.235   4.058  11.140  0.2414 -0.0457  0.1663
  792MPD2    H711683   4.331   4.051  11.173  0.6146  0.3024 -0.8422
  793MPD2     C11684   3.554   3.898  10.249  0.4007  0.2659  0.7981
  793MPD2    C111685   3.657   3.944  10.333 -0.3344 -0.1265  0.0180
  793MPD2    C211686   3.624   3.966  10.463 -0.6277 -0.7344 -0.6875
  793MPD2    C311687   3.495   3.936  10.517 -0.6160  0.0289 -0.0522
  793MPD2    C411688   3.403   3.880  10.432  0.7001  0.5611 -0.7149
  793MPD2    C511689   3.431   3.869  10.297 -0.4572  0.3331  0.0663
  793MPD2     H11690   3.704   3.995  10.530 -0.3765 -0.5255 -1.0804
  793MPD2    H111691   3.306   3.845  10.465  1.1551  1.3687  1.4204
  793MPD2    H211692   3.572   3.886  10.143  0.1991 -0.4276  0.8428
  793MPD2    H311693   3.358   3.826  10.229  1.4786 -1.3397 -0.9358
  793MPD2     N11694   3.480   3.938  10.660 -0.0177 -0.4965  0.1504
  793MPD2    H511695   3.562   3.972  10.710 -0.2193  1.2196 -0.6943
  793MPD2    N111696   3.794   3.965  10.297  0.2681  0.2318 -0.9469
  793MPD2    H711697   3.854   4.001  10.371  1.2389 -0.1484 -1.5622
  794MPD2     C11698   3.479   2.889  17.112 -0.1701  0.1949 -0.3102
  794MPD2    C111699   3.521   2.780  17.036 -0.5796  0.2977  0.4207
  794MPD2    C211700   3.458   2.734  16.922  0.4248 -0.5357  0.3832
  794MPD2    C311701   3.351   2.809  16.880  0.4482 -0.1170 -0.0098
  794MPD2    C411702   3.302   2.912  16.952  0.5086  0.0862  0.4025
  794MPD2    C511703   3.357   2.945  17.067 -0.1398 -0.4859  0.6772
  794MPD2     H11704   3.499   2.643  16.880  2.3654  0.4500  0.1093
  794MPD2    H111705   3.211   2.963  16.922 -0.5079 -1.0450  1.5269
  794MPD2    H211706   3.533   2.929  17.197  0.9786 -1.8869 -0.0864
  794MPD2    H311707   3.319   3.029  17.124  1.7474 -0.0236  1.2548
  794MPD2     N11708   3.282   2.781  16.756 -0.0128 -0.4601  0.7528
  794MPD2    H511709   3.205   2.846  16.739 -0.1906 -1.2365 -1.5025
  794MPD2    N111710   3.625   2.692  17.080  0.1988  0.3332  0.1069
  794MPD2    H711711   3.636   2.600  17.040  1.0794 -0.9781  3.3615
  795MPD2     C11712   1.862   0.809  13.713  0.2241  0.3035 -0.5725
  795MPD2    C111713   1.800   0.735  13.616  0.5583 -0.3746  1.1131
  795MPD2    C211714   1.837   0.606  13.612 -0.0675  0.6138 -0.1050
  795MPD2    C311715   1.941   0.550  13.692  0.2388 -0.1272  0.1735
  795MPD2    C411716   2.000   0.634  13.786  0.3234  0.3763 -0.3649
  795MPD2    C511717   1.966   0.765  13.790 -0.2002  0.0906  0.5738
  795MPD2     H11718   1.787   0.537  13.544  2.1463  0.8578 -1.9894
  795MPD2    H111719   2.083   0.593  13.843 -1.0440 -0.9442  0.6826
  795MPD2    H211720   1.842   0.915  13.723 -0.1649  0.1010  0.7594
  795MPD2    H311721   2.026   0.832  13.850  1.8567 -0.5819 -0.7105
  795MPD2     N11722   1.989   0.414  13.676  0.4813  0.2215  0.1193
  795MPD2    H511723   2.075   0.390  13.726  0.4725  1.1650  0.5862
  795MPD2    N111724   1.707   0.789  13.527 -0.4949 -0.1221 -0.3986
  795MPD2    H711725   1.667   0.719  13.465 -2.8039  0.2159  0.7233
  796MPD2     C11726   1.545   2.615  16.161  0.4314 -0.3291 -0.1756
  796MPD2    C111727   1.467   2.652  16.267  0.3187 -0.2827 -0.1090
  796MPD2    C211728   1.342   2.714  16.235 -0.3082 -0.3866  0.0580
  796MPD2    C311729   1.314   2.749  16.101 -0.9101 -0.2748  0.2758
  796MPD2    C411730   1.407   2.727  16.002 -0.5634  0.4997 -0.1064
  796MPD2    C511731   1.522   2.656  16.028  0.1585  0.3822  0.1386
  796MPD2     H11732   1.264   2.722  16.311 -0.6076  0.0821 -0.2969
  796MPD2    H111733   1.407   2.771  15.904  0.2055  0.7138 -0.0139
  796MPD2    H211734   1.636   2.559  16.176  2.4475  2.1908 -2.9330
  796MPD2    H311735   1.597   2.631  15.953  0.1804 -2.3771  1.0506
  796MPD2     N11736   1.190   2.824  16.077 -0.5093  0.5620 -0.0009
  796MPD2    H511737   1.137   2.850  16.160 -0.6947  0.0009  0.0601
  796MPD2    N111738   1.505   2.603  16.393  0.5713  0.4943 -0.7061
  796MPD2    H711739   1.592   2.553  16.408  0.3043  1.1412  2.8944
  797MPD2     C11740   2.501   1.650  17.607  0.5707 -1.0460 -0.2147
  797MPD2    C111741   2.607   1.692  17.532 -0.3892  0.2700  0.0948
  797MPD2    C211742   2.583   1.781  17.424 -0.5229 -0.1303  0.3006
  797MPD2    C311743   2.456   1.815  17.386 -0.1374  0.2382  0.0947
  797MPD2    C411744   2.349   1.759  17.443 -0.2141 -0.1468  0.2093
  797MPD2    C511745   2.369   1.684  17.554  0.2797  0.9282  0.4672
  797MPD2     H11746   2.669   1.820  17.371 -1.5933  0.7589 -0.7789
  797MPD2    H111747   2.247   1.773  17.408  0.2399 -0.4431 -1.2263
  797MPD2    H211748   2.497   1.572  17.683  2.8134  0.1474  1.1141
  797MPD2    H311749   2.284   1.646  17.609  1.5847 -1.3746  0.9027
  797MPD2     N11750   2.455   1.909  17.283  0.5297  0.5364  0.1145
  797MPD2    H511751   2.548   1.937  17.256  1.2367 -0.6240  1.3510
  797MPD2    N111752   2.742   1.682  17.571  0.6925 -0.4008  0.0877
  797MPD2    H711753   2.813   1.718  17.508  1.8623  1.6332  2.5491
  798MPD2     C11754   3.032   2.259  17.234  0.6724 -0.3130 -0.3073
  798MPD2    C111755   2.948   2.150  17.217  0.5396  0.7100  0.1546
  798MPD2    C211756   2.977   2.028  17.278  0.4660 -1.0349  0.0470
  798MPD2    C311757   3.081   2.016  17.366  0.1164  0.2878 -0.3266
  798MPD2    C411758   3.168   2.132  17.385  0.0677  0.3187 -0.0270
  798MPD2    C511759   3.147   2.243  17.310 -0.1066 -0.1256 -0.1483
  798MPD2     H11760   2.911   1.943  17.261  0.3373 -0.8834 -0.2118
  798MPD2    H111761   3.247   2.136  17.460 -0.8273 -0.8542  0.9747
  798MPD2    H211762   3.012   2.352  17.182 -0.0114 -0.9025 -1.0968
  798MPD2    H311763   3.206   2.331  17.330  0.3550 -0.0911 -1.6696
  798MPD2     N11764   3.091   1.905  17.447  0.6154  0.3741  0.2895
  798MPD2    H511765   3.023   1.832  17.427  1.0602 -0.5680  2.1668
  798MPD2    N111766   2.832   2.167  17.137  0.1101 -0.4376 -0.1414
  798MPD2    H711767   2.806   2.261  17.108 -1.5977 -0.8744 -0.0459
  799MPD2     C11768   0.919   3.514  14.783 -0.4611 -0.5723 -0.2201
  799MPD2    C111769   0.868   3.407  14.708  0.2013  0.8824  0.2362
  799MPD2    C211770   0.790   3.448  14.595 -0.0466  0.3085 -0.4323
  799MPD2    C311771   0.770   3.579  14.554  0.1266  0.1399 -0.9481
  799MPD2    C411772   0.823   3.679  14.633  0.3317 -0.4623 -0.4854
  799MPD2    C511773   0.889   3.643  14.743  0.4375  0.2150  0.3579
  799MPD2     H11774   0.754   3.370  14.530 -0.1080 -0.4201  0.4647
  799MPD2    H111775   0.801   3.784  14.622 -1.4833 -0.7896 -0.0422
  799MPD2    H211776   0.984   3.501  14.869 -0.0198  2.1905 -0.1270
  799MPD2    H311777   0.940   3.718  14.803  0.5905  0.6707 -0.3325
  799MPD2     N11778   0.712   3.611  14.433 -0.2177 -0.0914  0.2411
  799MPD2    H511779   0.712   3.710  14.410  1.1984  0.6351  3.3125
  799MPD2    N111780   0.901   3.272  14.728 -1.0292 -0.4638  0.4055
  799MPD2    H711781   0.853   3.206  14.668  2.7151 -1.1692 -1.8030
  800MPD2     C11782   1.260   0.043  13.730 -0.3570  0.0964 -0.1432
  800MPD2    C111783   1.373   4.682  13.722  0.3124  0.2927 -0.5024
  800MPD2    C211784   1.361   4.566  13.646  0.1693 -0.3728 -1.3278
  800MPD2    C311785   1.233   4.523  13.609 -0.1369 -0.7608 -0.1097
  800MPD2    C411786   1.125   4.605  13.626  0.5589 -0.2277  0.2398
  800MPD2    C511787   1.145   0.004  13.674  0.5485 -0.7928  0.1072
  800MPD2     H11788   1.453   4.513  13.626 -0.2044 -1.3798 -0.3994
  800MPD2    H111789   1.025   4.575  13.598  0.5284  1.6630 -1.6237
  800MPD2    H211790   1.260   0.131  13.793  1.8275 -0.5448  0.7597
  800MPD2    H311791   1.058   0.064  13.702 -0.7871 -1.9816 -1.5189
  800MPD2     N11792   1.224   4.396  13.537 -0.5790  0.0012  0.3542
  800MPD2    H511793   1.309   4.339  13.543 -1.3026 -1.1693 -0.3915
  800MPD2    N111794   1.495   0.002  13.785  0.1127  0.0190 -0.1252
  800MPD2    H711795   1.496   0.080  13.851 -0.0275  0.3301 -0.4916
  801MPD2     C11796   1.655   0.548  14.028 -1.0683 -0.2909 -0.2637
  801MPD2    C111797   1.608   0.451  14.117  0.6520  0.0777  0.4636
  801MPD2    C211798   1.497   0.463  14.189 -0.3919  0.1876 -0.4376
  801MPD2    C311799   1.429   0.585  14.184  0.2997 -0.2745 -0.1818
  801MPD2    C411800   1.478   0.691  14.111  0.2424 -0.5590 -0.3508
  801MPD2    C511801   1.588   0.661  14.028  1.0253 -0.3264 -0.1143
  801MPD2     H11802   1.444   0.378  14.231 -1.4186  0.5554 -0.9802
  801MPD2    H111803   1.417   0.778  14.089 -0.8549 -1.1578  0.3020
  801MPD2    H211804   1.740   0.543  13.962 -0.4747  2.0185  0.3326
  801MPD2    H311805   1.615   0.744  13.963  1.4215  0.7460  1.4063
  801MPD2     N11806   1.311   0.598  14.269  0.0923  0.0565 -0.2924
  801MPD2    H511807   1.296   0.524  14.337  0.7959  0.5569  0.4162
  801MPD2    N111808   1.665   0.322  14.111  0.3741  0.1944 -0.5597
  801MPD2    H711809   1.613   0.249  14.158 -2.0262  0.4944 -2.7677
  802MPD2     C11810   0.500   0.068  17.555 -0.6660 -0.1154 -0.4867
  802MPD2    C111811   0.611   0.101  17.627 -0.3189 -0.6110  1.0409
  802MPD2    C211812   0.734   0.119  17.557  0.2731 -0.1135  0.4798
  802MPD2    C311813   0.731   0.120  17.422 -0.6640  0.2710  0.0230
  802MPD2    C411814   0.620   0.077  17.352  0.0234  0.2703  0.6053
  802MPD2    C511815   0.507   0.049  17.420 -0.5890  0.4477 -0.6286
  802MPD2     H11816   0.824   0.131  17.615  0.9357  1.1114 -0.8110
  802MPD2    H111817   0.617   0.058  17.246  2.2193 -0.8989  0.7714
  802MPD2    H211818   0.407   0.051  17.608 -0.5115  1.5959  0.3251
  802MPD2    H311819   0.420   0.008  17.369 -1.1572 -0.2971  0.9598
  802MPD2     N11820   0.858   0.137  17.364  0.5818  0.9455 -0.9824
  802MPD2    H511821   0.940   0.145  17.423 -0.8848  1.2978  0.9843
  802MPD2    N111822   0.607   0.114   0.078 -0.5508 -0.3622 -0.0060
  802MPD2    H711823   0.678   0.160   0.134 -1.7920  0.1816  1.1404
  803MPD2     C11824   2.169   3.755  12.107  1.1166 -0.3955  0.4625
  803MPD2    C111825   2.226   3.781  12.233 -0.0943  0.6980  0.1846
  803MPD2    C211826   2.214   3.681  12.326 -0.5109  0.0193  0.5376
  803MPD2    C311827   2.150   3.567  12.308 -0.0681 -0.3284  0.5444
  803MPD2    C411828   2.082   3.543  12.188  0.4504  0.0301  0.5175
  803MPD2    C511829   2.091   3.637  12.087  0.1022 -0.2697 -0.0376
  803MPD2     H11830   2.261   3.700  12.421 -1.8586 -0.0897  1.2320
  803MPD2    H111831   2.018   3.456  12.180 -0.1317  0.4876  0.2211
  803MPD2    H211832   2.165   3.828  12.027 -0.6928 -1.8194 -0.7653
  803MPD2    H311833   2.039   3.613  11.995  0.7114  2.6541 -1.1468
  803MPD2     N11834   2.131   3.468  12.405  0.1373  0.0258 -0.5168
  803MPD2    H511835   2.059   3.398  12.391  0.3339  0.1597 -2.1364
  803MPD2    N111836   2.307   3.896  12.270  0.0777 -0.5693 -0.4316
  803MPD2    H711837   2.335   3.913  12.366  1.9499  0.6399 -1.2045
  804MPD2     C11838   1.478   0.370  16.903  0.6494 -0.1566  0.1220
  804MPD2    C111839   1.541   0.269  16.974 -0.2502 -0.5587  0.0016
  804MPD2    C211840   1.641   0.296  17.066  0.4637  0.1713 -0.0908
  804MPD2    C311841   1.669   0.430  17.093 -0.0168  0.4333 -0.2330
  804MPD2    C411842   1.622   0.530  17.011 -0.3104 -0.1527  0.0879
  804MPD2    C511843   1.530   0.497  16.913  0.2004 -0.4543  0.9942
  804MPD2     H11844   1.667   0.213  17.130  0.8886  3.7267  4.3761
  804MPD2    H111845   1.661   0.631  17.013  2.1353 -1.0629 -1.9589
  804MPD2    H211846   1.405   0.346  16.826 -0.3669 -0.6407  1.2381
  804MPD2    H311847   1.479   0.567  16.849  0.9269 -0.1104  0.8033
  804MPD2     N11848   1.768   0.443  17.191 -0.3325 -0.0300 -0.8689
  804MPD2    H511849   1.792   0.362  17.248 -0.1910  1.0060  0.5533
  804MPD2    N111850   1.494   0.134  16.988 -0.1096 -0.1121 -0.0087
  804MPD2    H711851   1.559   0.064  17.021 -0.1866  0.3525  1.1149
  805MPD2     C11852   0.759   3.634  15.204  0.1167  0.4509 -0.7970
  805MPD2    C111853   0.677   3.552  15.284  0.0302  0.4269 -0.9151
  805MPD2    C211854   0.685   3.576  15.423 -0.2094  0.0373 -0.1303
  805MPD2    C311855   0.778   3.658  15.479 -0.0700 -0.2283 -0.6704
  805MPD2    C411856   0.860   3.736  15.401  0.2045 -0.1913  0.4345
  805MPD2    C511857   0.845   3.718  15.267 -0.4792  0.1033  0.5352
  805MPD2     H11858   0.631   3.511  15.491  0.2574 -2.7691 -2.4695
  805MPD2    H111859   0.926   3.807  15.449  0.8889 -0.4722 -0.0866
  805MPD2    H211860   0.751   3.636  15.096  0.2849  0.4516 -0.8102
  805MPD2    H311861   0.903   3.782  15.200 -3.1496 -3.4364 -5.1812
  805MPD2     N11862   0.782   3.665  15.623  0.1755 -0.5935 -0.5458
  805MPD2    H511863   0.705   3.625  15.676 -0.4160 -0.3786 -1.2441
  805MPD2    N111864   0.594   3.458  15.218 -0.0231 -0.0093 -0.4570
  805MPD2    H711865   0.612   3.448  15.119 -0.5446  1.2849 -0.6880
  806MPD2     C11866   1.429   2.993   0.887  0.5641 -0.2481 -0.4026
  806MPD2    C111867   1.531   2.982   0.799  0.0912  0.4413 -0.0151
  806MPD2    C211868   1.507   2.920   0.672  0.4164 -0.8009  0.3208
  806MPD2    C311869   1.377   2.860   0.638  0.3849 -0.6663 -0.0519
  806MPD2    C411870   1.276   2.881   0.729 -0.4704  0.0596  0.1612
  806MPD2    C511871   1.308   2.943   0.853  0.6859  0.4944 -0.4055
  806MPD2     H11872   1.584   2.898   0.599  0.6427  0.3499  0.2207
  806MPD2    H111873   1.177   2.837   0.727 -0.0390 -0.8491 -1.7422
  806MPD2    H211874   1.440   3.040   0.984  0.2977 -2.4339  0.6834
  806MPD2    H311875   1.226   2.962   0.922  1.3382  0.8824  0.2671
  806MPD2     N11876   1.354   2.815   0.507 -0.1313 -0.7882 -0.1711
  806MPD2    H511877   1.426   2.843   0.441 -0.7123  0.7237 -0.1690
  806MPD2    N111878   1.661   3.021   0.845  0.8022  0.0806 -0.4609
  806MPD2    H711879   1.674   3.039   0.944  2.6611  0.1651 -0.7200
  807MPD2     C11880   1.979   2.882   1.461 -0.1051 -0.7761 -0.8322
  807MPD2    C111881   1.884   2.872   1.357 -0.1969 -0.0054  0.1996
  807MPD2    C211882   1.767   2.803   1.377  0.0160  0.4426  0.5966
  807MPD2    C311883   1.755   2.716   1.486 -0.4777 -1.2317 -0.8481
  807MPD2    C411884   1.857   2.712   1.577  0.1113  0.1055  0.3821
  807MPD2    C511885   1.964   2.789   1.567 -0.4045  0.1016  0.4492
  807MPD2     H11886   1.703   2.791   1.290  1.3172  2.0665 -0.5949
  807MPD2    H111887   1.854   2.647   1.664  1.7818 -1.3739 -0.6698
  807MPD2    H211888   2.067   2.944   1.447 -2.1090  1.5926 -2.7375
  807MPD2    H311889   2.036   2.782   1.647  0.4821  1.5161 -0.2167
  807MPD2     N11890   1.641   2.627   1.475  0.2914 -0.7018 -0.4272
  807MPD2    H511891   1.588   2.632   1.388 -0.2415 -1.2756 -0.1409
  807MPD2    N111892   1.900   2.940   1.232  0.0703  0.0296 -0.4824
  807MPD2    H711893   1.818   2.946   1.172  1.7681 -1.6498 -2.9893
  808MPD2     C11894   1.746   0.036   9.171  0.3134 -0.5315  0.0170
  808MPD2    C111895   1.781   0.044   9.300  0.6312  0.1478 -0.4229
  808MPD2    C211896   1.913   0.074   9.327  0.2029  0.4611 -0.3217
  808MPD2    C311897   2.008   0.082   9.227  0.2927 -0.4635 -0.4946
  808MPD2    C411898   1.971   0.059   9.103 -0.2969 -0.0410  0.0739
  808MPD2    C511899   1.841   0.054   9.071 -0.3105  0.0642  1.0111
  808MPD2     H11900   1.931   0.092   9.432 -0.6758 -0.5418  0.0030
  808MPD2    H111901   2.043   0.081   9.024  1.5548  1.6736  2.2522
  808MPD2    H211902   1.645   0.018   9.136  0.8836  0.2525 -2.0357
  808MPD2    H311903   1.809   0.050   8.968  0.7647  1.6385  0.6235
  808MPD2     N11904   2.148   0.108   9.250 -0.3257  0.5424 -1.0055
  808MPD2    H511905   2.213   0.112   9.173  0.4096 -1.1837 -0.4837
  808MPD2    N111906   1.696   0.029   9.408 -0.2597  0.1382  0.0418
  808MPD2    H711907   1.737   0.071   9.490  0.8440 -2.2760  0.7274
  809MPD2     C11908   3.001   4.331   9.658  0.1541 -0.5028  0.9527
  809MPD2    C111909   2.892   4.383   9.719 -0.3351  0.5064 -0.9501
  809MPD2    C211910   2.817   4.477   9.657  0.0327  0.1979  0.0244
  809MPD2    C311911   2.835   4.505   9.527  0.2879  0.2367 -0.2054
  809MPD2    C411912   2.944   4.458   9.460 -0.5137 -0.1721  1.0558
  809MPD2    C511913   3.022   4.372   9.528  0.1121  0.2038  0.6328
  809MPD2     H11914   2.735   4.515   9.716 -0.3064 -1.9492  0.9277
  809MPD2    H111915   2.974   4.490   9.361 -2.3259  0.9213  0.8669
  809MPD2    H211916   3.078   4.279   9.713  1.0796  1.2783  1.3440
  809MPD2    H311917   3.107   4.333   9.472 -1.0684 -3.7088  1.5363
  809MPD2     N11918   2.747   4.593   9.452  0.5673 -0.3725 -0.1227
  809MPD2    H511919   2.790   4.639   9.373 -0.0894 -1.6606 -1.2358
  809MPD2    N111920   2.864   4.367   9.863  1.1950  0.1102 -0.2441
  809MPD2    H711921   2.796   4.433   9.900  0.5522 -0.5724 -0.2055
  810MPD2     C11922   1.307   4.404  10.648  1.0270 -0.0913  0.6183
  810MPD2    C111923   1.207   4.467  10.575  0.2487  0.2340  0.2419
  810MPD2    C211924   1.178   4.602  10.599 -0.9366  0.3831  0.0261
  810MPD2    C311925   1.265   4.679  10.681  0.2927  0.4255  0.3204
  810MPD2    C411926   1.368   4.621  10.740  0.1988  0.0690 -0.1445
  810MPD2    C511927   1.382   4.480  10.733  0.4497 -0.0017 -0.1300
  810MPD2     H11928   1.096   4.650  10.545 -1.6829 -0.8385  0.0820
  810MPD2    H111929   1.438   4.685  10.792 -0.5588  0.0317  0.9243
  810MPD2    H211930   1.318   4.297  10.654 -0.2217 -0.2328  0.3759
  810MPD2    H311931   1.466   4.438  10.788  0.9691 -1.0461 -1.7110
  810MPD2     N11932   1.250   0.096  10.688 -0.1039  0.1959 -0.9677
  810MPD2    H511933   1.317   0.144  10.747 -2.6049 -0.3518  2.3178
  810MPD2    N111934   1.131   4.384  10.487 -0.7016 -0.7305 -0.8844
  810MPD2    H711935   1.163   4.289  10.473 -1.9284 -1.2505 -0.1048
  811MPD2     C11936   0.754   4.276   9.747  0.3132  0.3450 -0.3449
  811MPD2    C111937   0.812   4.371   9.833  0.4516  0.4771  0.0243
  811MPD2    C211938   0.810   4.503   9.806  0.7064  0.1083 -0.0068
  811MPD2    C311939   0.741   4.545   9.692 -0.2073 -0.5785 -0.2301
  811MPD2    C411940   0.689   4.452   9.602 -0.1739 -0.0592  0.0031
  811MPD2    C511941   0.694   4.318   9.634  0.2860  0.0261  0.4285
  811MPD2     H11942   0.844   4.577   9.878 -1.1044  1.5885 -0.6813
  811MPD2    H111943   0.643   4.478   9.507 -0.8614 -0.7041  0.1622
  811MPD2    H211944   0.768   4.169   9.751 -1.2503  0.1368 -0.3785
  811MPD2    H311945   0.658   4.248   9.560  0.6253  0.3425 -0.0405
  811MPD2     N11946   0.723   4.687   9.678  0.1591 -0.1683  0.1706
  811MPD2    H511947   0.764   0.023   9.750  2.8593 -0.3428 -1.2515
  811MPD2    N111948   0.870   4.331   9.959  0.2660  0.2664  0.0487
  811MPD2    H711949   0.933   4.388  10.015  0.5423  0.7303 -0.7352
  812MPD2     C11950   3.839   3.673  12.382 -0.3050  0.0101 -0.4269
  812MPD2    C111951   3.958   3.665  12.314 -0.2787  0.5452  0.9058
  812MPD2    C211952   4.066   3.611  12.387 -0.7507 -0.7768 -0.1368
  812MPD2    C311953   4.066   3.593  12.521  0.3597  0.5957  0.0562
  812MPD2    C411954   3.939   3.591  12.585  0.6705 -0.0492  1.1797
  812MPD2    C511955   3.826   3.634  12.513 -0.0170 -0.2024  0.1659
  812MPD2     H11956   4.159   3.595  12.333 -0.1635  1.2364  0.2847
  812MPD2    H111957   3.930   3.546  12.683  1.5434 -0.3427  1.1282
  812MPD2    H211958   3.747   3.714  12.342 -0.7548 -0.3096  0.2919
  812MPD2    H311959   3.729   3.628  12.560 -1.1392 -0.9111 -2.2218
  812MPD2     N11960   4.182   3.552  12.587  0.4969 -0.4654 -0.4981
  812MPD2    H511961   4.270   3.548  12.537  0.2529  1.2229 -1.0774
  812MPD2    N111962   3.974   3.736  12.193 -0.0876  0.2852 -0.2795
  812MPD2    H711963   3.893   3.784  12.155 -0.1768  0.1564 -0.2499
  813MPD2     C11964   4.371   0.997  13.008  0.4194  0.2774  0.4173
  813MPD2    C111965   4.280   1.080  13.068  0.0778 -0.1319 -0.0051
  813MPD2    C211966   4.168   1.028  13.123 -0.0787 -0.3583 -0.4409
  813MPD2    C311967   4.140   0.898  13.123  0.2950 -0.2132  0.1015
  813MPD2    C411968   4.230   0.811  13.061  0.1772  0.7043 -0.6011
  813MPD2    C511969   4.344   0.862  13.013  0.2449 -0.2556  0.3616
  813MPD2     H11970   4.100   1.095  13.173 -0.5164  1.3341 -3.3563
  813MPD2    H111971   4.197   0.708  13.048 -1.0741  1.0860 -0.5259
  813MPD2    H211972   4.465   1.025  12.960  1.4026 -0.5252  1.8719
  813MPD2    H311973   4.416   0.806  12.954 -1.0154 -1.0955 -0.3823
  813MPD2     N11974   4.021   0.860  13.179  0.2560 -0.4960  0.4701
  813MPD2    H511975   3.955   0.935  13.198 -0.6100 -1.4389  1.1764
  813MPD2    N111976   4.311   1.217  13.086  0.4016 -0.5597 -0.1429
  813MPD2    H711977   4.254   1.267  13.153  0.4773  0.4003 -0.7898
  814MPD2     C11978   4.326   2.579  12.198  0.4073  0.0485  0.5815
  814MPD2    C111979   4.317   2.645  12.079  0.1751 -0.5566  0.2784
  814MPD2    C211980   4.359   2.777  12.063  0.3255  1.0101  0.2824
  814MPD2    C311981   4.397   2.852  12.172  0.6049  0.4370 -0.5011
  814MPD2    C411982   4.402   2.785  12.290  0.1964  0.0699  0.5260
  814MPD2    C511983   4.366   2.654  12.300  0.3795  0.7325  0.5930
  814MPD2     H11984   4.350   2.821  11.964 -0.6734 -0.6684 -0.3729
  814MPD2    H111985   4.447   2.827  12.379 -1.3390  2.0056  0.3668
  814MPD2    H211986   4.287   2.478  12.213 -1.4775  0.6018 -0.5474
  814MPD2    H311987   4.384   2.606  12.395  0.5005 -0.7899 -0.1827
  814MPD2     N11988   4.433   2.982  12.171 -0.0620 -0.0327  0.8180
  814MPD2    H511989   4.447   3.034  12.258  1.8487  2.5519 -1.0271
  814MPD2    N111990   4.279   2.576  11.954 -0.0534  0.1646  0.0080
  814MPD2    H711991   4.271   2.631  11.869 -3.8141  2.8094  2.0490
  815MPD2     C11992   0.086   1.019  12.002  0.1409 -0.0539 -0.2506
  815MPD2    C111993   0.046   0.893  11.955 -0.2745  0.4386 -0.4730
  815MPD2    C211994   4.662   0.826  12.023 -0.0461  0.3721  0.0734
  815MPD2    C311995   4.597   0.879  12.128  0.2504  0.6759 -0.0067
  815MPD2    C411996   4.628   1.010  12.169  0.0134  0.6305 -0.2292
  815MPD2    C511997   0.010   1.071  12.105  0.3412 -0.0309  0.3311
  815MPD2     H11998   4.634   0.725  11.995  1.7984  0.2750 -1.4468
  815MPD2    H111999   4.578   1.069  12.245 -0.1890 -1.2517  1.1098
  815MPD2    H212000   0.172   1.074  11.965  0.0944 -1.0440 -1.8430
  815MPD2    H312001   0.046   1.166  12.143  1.6187 -0.3641 -0.0335
  815MPD2     N12002   4.484   0.806  12.189  0.7279  0.0524  0.8083
  815MPD2    H512003   4.465   0.717  12.144  1.8937 -0.5424  1.5077
  815MPD2    N112004   0.109   0.823  11.852 -0.6519  0.1970  0.2593
  815MPD2    H712005   0.089   0.725  11.837 -0.6286  0.1460  0.5532
  816MPD2     C12006   4.558   4.397   0.023  0.4728  0.3379 -0.0640
  816MPD2    C112007   4.667   4.403   0.103  0.1060  0.1118 -0.6591
  816MPD2    C212008   0.079   4.381   0.056  0.8727  0.2818 -0.0083
  816MPD2    C312009   0.086   4.366  17.605  0.4322 -0.7184 -0.1437
  816MPD2    C412010   4.695   4.367  17.525 -0.0762  0.6713  0.6184
  816MPD2    C512011   4.567   4.375  17.578 -0.2921 -0.3321 -0.1744
  816MPD2     H12012   0.157   4.367   0.130  0.8944 -3.0269 -0.6732
  816MPD2    H112013   4.697   4.354  17.417  0.4626 -2.3707  0.9976
  816MPD2    H212014   4.458   4.409   0.062  0.2191  1.0669 -0.9274
  816MPD2    H312015   4.486   4.374  17.506  0.1961 -0.6820 -0.7293
  816MPD2     N12016   0.207   4.353  17.527  0.0685 -0.3274  0.4106
  816MPD2    H512017   0.203   4.357  17.425  1.7190  1.2004  0.4061
  816MPD2    N112018   4.638   4.435   0.241 -0.4263 -0.2769 -0.2437
  816MPD2    H712019   4.540   4.442   0.265 -0.1345  1.4788  0.4773
  817MPD2     C12020   4.631   2.068   9.903 -0.0276 -0.1748  0.3145
  817MPD2    C112021   4.697   2.036   9.782 -0.6207  0.7413  0.5226
  817MPD2    C212022   4.674   2.122   9.675 -0.2008 -0.2301  0.3508
  817MPD2    C312023   4.602   2.237   9.699  0.5114 -0.8287 -0.3336
  817MPD2    C412024   4.552   2.266   9.824 -0.4508  0.3162 -0.4533
  817MPD2    C512025   4.570   2.185   9.928  0.1509 -0.1005 -0.8008
  817MPD2     H12026   4.708   2.105   9.573 -0.8088 -0.8672  0.2535
  817MPD2    H112027   4.502   2.361   9.838 -0.0105  0.6275 -0.9606
  817MPD2    H212028   4.637   1.997   9.985  0.5467 -0.7708 -0.2424
  817MPD2    H312029   4.529   2.213  10.025  1.1563 -0.0536 -0.3861
  817MPD2     N12030   4.570   2.302   9.581 -0.1045  0.2687  0.1819
  817MPD2    H512031   4.603   2.257   9.497  1.2863  2.3332 -0.3677
  817MPD2    N112032   0.042   1.912   9.752  0.5228 -0.4569  0.9323
  817MPD2    H712033   0.068   1.897   9.655 -2.8911  0.9406 -0.1697
  818MPD2     C12034   3.031   1.490   9.915 -0.4157  0.2053  0.0087
  818MPD2    C112035   3.058   1.417  10.031 -0.5082 -0.7211  0.3338
  818MPD2    C212036   3.171   1.340  10.037  0.3139  0.0927  0.0130
  818MPD2    C312037   3.260   1.341   9.928 -0.6292 -0.0445  0.1039
  818MPD2    C412038   3.232   1.420   9.815 -0.3876 -0.0034 -0.2307
  818MPD2    C512039   3.120   1.494   9.810 -0.3291 -0.1022 -0.5479
  818MPD2     H12040   3.183   1.280  10.127 -2.2209  1.0079  0.9685
  818MPD2    H112041   3.298   1.431   9.730 -1.0150 -1.5769 -0.9212
  818MPD2    H212042   2.947   1.558   9.903  1.2040  2.5772  2.1645
  818MPD2    H312043   3.097   1.552   9.721 -0.3062  0.6307 -0.0781
  818MPD2     N12044   3.367   1.253   9.918  0.0634 -0.0262 -0.4854
  818MPD2    H512045   3.415   1.250   9.829  0.6463 -0.6519 -0.1479
  818MPD2    N112046   2.968   1.410  10.138 -0.2186  0.4066 -0.1194
  818MPD2    H712047   2.999   1.347  10.212  0.0145 -0.8778 -1.2956
  819MPD2     C12048   1.412   3.130  15.753 -0.2219 -0.0306  0.0105
  819MPD2    C112049   1.512   3.082  15.671 -0.1873 -0.5201  1.0391
  819MPD2    C212050   1.647   3.108  15.697  0.1764 -0.4677  0.9493
  819MPD2    C312051   1.675   3.182  15.816 -0.1623 -0.0783 -0.1559
  819MPD2    C412052   1.576   3.218  15.906 -0.0117  0.4597  0.0266
  819MPD2    C512053   1.442   3.198  15.868  0.0736  0.2300 -0.1584
  819MPD2     H12054   1.734   3.069  15.646  1.5663  2.4227  1.0580
  819MPD2    H112055   1.599   3.268  16.000 -1.3958  2.5051 -0.7387
  819MPD2    H212056   1.307   3.120  15.728 -0.7522  1.4372  1.6028
  819MPD2    H312057   1.363   3.226  15.937  0.7133  3.7407 -0.8490
  819MPD2     N12058   1.812   3.200  15.852  0.2934  0.8245 -0.4123
  819MPD2    H512059   1.884   3.188  15.782 -1.3208  0.1127 -1.9668
  819MPD2    N112060   1.472   3.001  15.565  0.0811  0.3651  0.4835
  819MPD2    H712061   1.373   2.980  15.554  0.3132 -1.0123  1.0337
  820MPD2     C12062   0.718   2.662  14.985  0.8809  0.0549 -0.3475
  820MPD2    C112063   0.757   2.787  15.034 -0.2247  0.3574 -0.3450
  820MPD2    C212064   0.879   2.809  15.097 -0.5064 -0.2295  0.3089
  820MPD2    C312065   0.974   2.709  15.098 -0.5730  0.4553 -0.2395
  820MPD2    C412066   0.937   2.589  15.032 -0.3665  0.3208  0.2887
  820MPD2    C512067   0.809   2.565  14.991 -0.5271 -0.1260 -1.0469
  820MPD2     H12068   0.910   2.903  15.140  1.5443 -0.8020  0.0955
  820MPD2    H112069   1.010   2.510  15.041 -2.6688 -1.7602  0.6785
  820MPD2    H212070   0.620   2.639  14.943  1.9631  1.0960 -3.4717
  820MPD2    H312071   0.791   2.466  14.951  0.1055 -0.8087  0.3888
  820MPD2     N12072   1.111   2.721  15.136  0.2964  0.1171  0.1496
  820MPD2    H512073   1.165   2.637  15.119  0.3960  0.2514 -0.2058
  820MPD2    N112074   0.653   2.889  15.030 -0.0290 -0.1439  0.4083
  820MPD2    H712075   0.558   2.861  15.011  0.7813 -3.3362  1.0759
  821MPD2     C12076   1.190   4.340  12.882 -0.3379 -0.0852  0.9032
  821MPD2    C112077   1.286   4.274  12.953 -0.7834 -0.3780  0.4403
  821MPD2    C212078   1.414   4.336  12.947  0.7081  0.0874 -0.3837
  821MPD2    C312079   1.428   4.444  12.865  0.0243 -0.2981 -0.1771
  821MPD2    C412080   1.330   4.500  12.790 -0.4109  0.4912  0.4511
  821MPD2    C512081   1.207   4.446  12.800  0.1739  0.3103  0.1539
  821MPD2     H12082   1.498   4.305  13.009 -2.7904 -0.7715  3.9702
  821MPD2    H112083   1.348   4.595  12.742 -0.7826 -0.3019 -1.2533
  821MPD2    H212084   1.088   4.304  12.890 -0.1930 -0.5156  0.8497
  821MPD2    H312085   1.127   4.499  12.749 -0.7510 -1.0860  0.1652
  821MPD2     N12086   1.541   4.522  12.862 -0.0876  0.1113 -0.4094
  821MPD2    H512087   1.532   4.617  12.827 -0.0784  0.2520 -0.0356
  821MPD2    N112088   1.264   4.185  13.064 -0.1421  0.3133  0.9816
  821MPD2    H712089   1.342   4.126  13.090 -0.1105 -0.7579 -1.6277
  822MPD2     C12090   2.028   4.456  15.550 -0.9378 -0.4647  0.1035
  822MPD2    C112091   2.059   4.423  15.680  0.3288  0.1931  0.0083
  822MPD2    C212092   1.980   4.477  15.778 -0.2134 -0.2530  0.1297
  822MPD2    C312093   1.891   4.575  15.751 -0.4099 -1.1656 -0.0148
  822MPD2    C412094   1.861   4.612  15.622 -0.1627 -0.5915  0.3435
  822MPD2    C512095   1.935   4.554  15.523 -0.3468  0.0392 -0.0729
  822MPD2     H12096   1.999   4.450  15.881 -0.7984 -0.6797  0.1257
  822MPD2    H112097   1.783   4.680  15.588 -0.6549 -1.9372 -1.2426
  822MPD2    H212098   2.077   4.405  15.468 -0.2369  1.3186 -0.6004
  822MPD2    H312099   1.899   4.569  15.422 -0.3578  0.5964  0.0115
  822MPD2     N12100   1.823   4.632  15.864  0.2727 -0.0983 -0.2035
  822MPD2    H512101   1.839   4.592  15.956 -0.8524 -4.0809 -1.7305
  822MPD2    N112102   2.170   4.334  15.717 -0.0482  0.4939 -0.0330
  822MPD2    H712103   2.191   4.324  15.816  2.4050 -0.7404 -0.6787
  823MPD2     C12104   1.755   0.114  16.664 -0.1906 -0.0879  0.4681
  823MPD2    C112105   1.775   0.027  16.555 -0.1237 -0.1068  0.1505
  823MPD2    C212106   1.884   4.659  16.566  0.6247  0.6349 -0.0659
  823MPD2    C312107   1.965   4.651  16.679 -0.0273 -0.0738 -0.7341
  823MPD2    C412108   1.934   0.011  16.781  0.2303  0.6343  0.4666
  823MPD2    C512109   1.834   0.107  16.777  0.3964  0.2566  0.2441
  823MPD2     H12110   1.911   4.604  16.476 -0.8610 -0.5279  0.1966
  823MPD2    H112111   1.992   4.716  16.871  0.9668  1.0118  0.0599
  823MPD2    H212112   1.675   0.186  16.656 -1.0165 -0.9467  1.0103
  823MPD2    H312113   1.816   0.163  16.868 -1.9138  0.8764 -0.6074
  823MPD2     N12114   2.064   4.548  16.700 -0.1526  0.1665  0.2886
  823MPD2    H512115   2.122   4.567  16.781  0.3803  0.3198 -0.1323
  823MPD2    N112116   1.697   0.039  16.446  0.6103 -0.2802  0.0841
  823MPD2    H712117   1.629   0.114  16.441  2.2198  1.0663 -1.7068
  824MPD2     C12118   2.470   3.602  15.740 -0.0032  0.2481  0.7368
  824MPD2    C112119   2.584   3.672  15.769 -0.1626  0.0676 -0.3143
  824MPD2    C212120   2.700   3.602  15.775 -0.4304  0.9436 -0.3614
  824MPD2    C312121   2.719   3.460  15.755 -0.9919 -0.2788  0.7374
  824MPD2    C412122   2.600   3.393  15.739  0.0507  0.0438  0.5271
  824MPD2    C512123   2.486   3.467  15.733  0.4085 -0.4487  0.0149
  824MPD2     H12124   2.794   3.653  15.791 -0.3780  0.9290 -0.6228
  824MPD2    H112125   2.580   3.287  15.728  2.6116 -0.4328  0.5108
  824MPD2    H212126   2.372   3.640  15.714 -1.1296 -2.1945  1.3862
  824MPD2    H312127   2.398   3.406  15.715  0.1397 -0.0483 -0.0440
  824MPD2     N12128   2.843   3.388  15.762  0.1489  0.1413 -0.1946
  824MPD2    H512129   2.927   3.437  15.790  0.8581 -0.6379 -0.9549
  824MPD2    N112130   2.580   3.807  15.800  0.1144  0.4531  0.8608
  824MPD2    H712131   2.664   3.848  15.840 -1.1186  2.4569  1.3894
  825MPD2     C12132   3.511   3.200  15.233  0.4266  0.1159  0.7620
  825MPD2    C112133   3.434   3.292  15.301 -0.3982 -0.5604 -0.4414
  825MPD2    C212134   3.448   3.424  15.262  0.7848 -0.0737 -0.7617
  825MPD2    C312135   3.532   3.469  15.161  0.4162 -0.5719  0.2052
  825MPD2    C412136   3.597   3.372  15.095 -0.1143  0.0761 -0.4736
  825MPD2    C512137   3.597   3.244  15.141 -0.4049  0.3448 -0.4720
  825MPD2     H12138   3.390   3.498  15.316  2.1899  0.0276  0.6138
  825MPD2    H112139   3.658   3.402  15.011  0.5476 -0.4196 -0.1684
  825MPD2    H212140   3.506   3.093  15.251 -2.1153 -0.4382 -3.3263
  825MPD2    H312141   3.667   3.177  15.091 -2.3523 -1.6295 -0.5385
  825MPD2     N12142   3.546   3.600  15.119  0.1613 -0.7190 -0.5133
  825MPD2    H512143   3.609   3.613  15.040 -0.5241 -0.1241 -0.9655
  825MPD2    N112144   3.361   3.247  15.418 -0.4329 -0.1125 -0.5912
  825MPD2    H712145   3.372   3.149  15.440 -1.0546  0.2302  1.2325
  826MPD2     C12146   3.200   3.516  13.735 -0.6129  0.2061 -0.3927
  826MPD2    C112147   3.285   3.616  13.691  0.0252 -0.1083  0.6613
  826MPD2    C212148   3.228   3.740  13.680  0.1512 -0.4094  0.8852
  826MPD2    C312149   3.091   3.759  13.691  0.1692 -0.2829  0.3309
  826MPD2    C412150   3.013   3.666  13.749 -0.5157  0.2668  0.0082
  826MPD2    C512151   3.067   3.538  13.754 -0.7274 -1.0193 -0.3096
  826MPD2     H12152   3.293   3.815  13.635  1.5973 -0.7536  2.3708
  826MPD2    H112153   2.908   3.684  13.772 -0.2003  2.2035 -0.0855
  826MPD2    H212154   3.247   3.419  13.736 -1.3795 -0.1627  0.1610
  826MPD2    H312155   3.002   3.462  13.797 -1.5904 -1.1357 -1.8047
  826MPD2     N12156   3.024   3.878  13.665  0.1041  0.4058 -0.2070
  826MPD2    H512157   2.923   3.880  13.676  0.2144 -0.7304  1.0356
  826MPD2    N112158   3.419   3.592  13.674  0.5063 -0.1074  0.2339
  826MPD2    H712159   3.457   3.499  13.689 -1.8675 -1.0586  0.2933
  827MPD2     C12160   3.849   0.387   9.960  0.0505  0.6448 -0.8085
  827MPD2    C112161   3.889   0.267  10.021  0.9207 -0.3920 -0.3469
  827MPD2    C212162   3.857   0.148   9.961 -0.2566 -0.0408 -0.9452
  827MPD2    C312163   3.781   0.148   9.842 -0.6423  0.5307  0.3360
  827MPD2    C412164   3.751   0.269   9.775 -0.6265 -0.1578  0.9177
  827MPD2    C512165   3.791   0.385   9.837  1.0095 -0.2726  0.6427
  827MPD2     H12166   3.894   0.056  10.005 -2.5467 -1.1545 -1.3510
  827MPD2    H112167   3.696   0.268   9.682 -0.6363 -0.2330  0.9237
  827MPD2    H212168   3.856   0.480  10.015 -0.2822 -0.1162  0.5172
  827MPD2    H312169   3.773   0.481   9.789  1.2246 -1.5862 -2.0501
  827MPD2     N12170   3.727   0.021   9.804 -0.2232  0.1454 -0.0647
  827MPD2    H512171   3.726   4.669   9.874 -0.0670  3.5009  3.4681
  827MPD2    N112172   3.963   0.268  10.140  0.2648 -0.6727 -0.6804
  827MPD2    H712173   3.987   0.360  10.177  1.6603 -1.1380 -0.4532
  828MPD2     C12174   2.064   4.570  12.768 -0.3037  0.1026  0.0449
  828MPD2    C112175   2.104   4.630  12.647 -0.8725 -0.2496  0.9340
  828MPD2    C212176   2.235   4.656  12.618  0.6896  0.3718 -0.1163
  828MPD2    C312177   2.335   4.612  12.710 -0.9289 -0.1479 -0.4221
  828MPD2    C412178   2.294   4.546  12.817  0.2160 -0.0557 -0.5543
  828MPD2    C512179   2.162   4.529  12.855 -0.0967  0.1834 -0.1648
  828MPD2     H12180   2.266   4.704  12.527 -1.8164  0.7272 -0.7895
  828MPD2    H112181   2.370   4.504  12.881  0.3086  0.6736 -0.1830
  828MPD2    H212182   1.963   4.566  12.808 -0.2566  1.8888  0.3424
  828MPD2    H312183   2.151   4.488  12.955 -0.7955 -0.8379 -0.6626
  828MPD2     N12184   2.477   4.626  12.686  0.0619 -0.1557  0.2495
  828MPD2    H512185   2.540   4.565  12.737 -0.3318 -0.0292  0.8906
  828MPD2    N112186   2.010   4.661  12.552 -0.4372  0.3248  0.5834
  828MPD2    H712187   2.039   4.703  12.465  0.5926 -0.4130  0.5683
  829MPD2     C12188   2.249   0.306  11.868  0.0742  0.5093  0.0410
  829MPD2    C112189   2.120   0.321  11.842  0.4929 -0.5331  0.1821
  829MPD2    C212190   2.035   0.283  11.942 -0.1846  0.6805 -0.7058
  829MPD2    C312191   2.083   0.257  12.065  0.8795 -0.6714 -0.1573
  829MPD2    C412192   2.222   0.242  12.080 -0.4261 -0.6523  0.1107
  829MPD2    C512193   2.306   0.272  11.987  0.7089  0.1733  0.2588
  829MPD2     H12194   1.928   0.280  11.930 -0.8313  2.2744  4.3563
  829MPD2    H112195   2.257   0.207  12.176 -0.5883 -0.8893  0.0849
  829MPD2    H212196   2.319   0.319  11.786 -0.5034 -2.6682 -0.9551
  829MPD2    H312197   2.413   0.260  11.996  1.1064  1.3147 -2.9222
  829MPD2     N12198   2.001   0.226  12.173  1.0695  0.2309 -0.4134
  829MPD2    H512199   2.046   0.193  12.258 -0.2138  1.7569  0.8606
  829MPD2    N112200   2.075   0.377  11.717  0.6346 -0.4363 -0.0987
  829MPD2    H712201   2.147   0.386  11.646 -0.1853  2.6561 -0.5227
  830MPD2     C12202   1.996   3.379  15.371  0.3497  0.2175  0.1881
  830MPD2    C112203   2.107   3.356  15.445 -0.2915  0.0077 -0.4419
  830MPD2    C212204   2.239   3.363  15.384 -0.3927 -0.4049  0.1925
  830MPD2    C312205   2.251   3.401  15.249 -0.2639 -0.6504 -0.4289
  830MPD2    C412206   2.134   3.435  15.184 -0.1029 -0.0541 -0.2745
  830MPD2    C512207   2.011   3.424  15.241 -0.1800  0.6310  1.1258
  830MPD2     H12208   2.327   3.336  15.442  0.8340  1.3612 -0.8451
  830MPD2    H112209   2.138   3.481  15.086  1.6144  0.7483  0.1762
  830MPD2    H212210   1.894   3.379  15.407  0.1133  1.8733 -0.4624
  830MPD2    H312211   1.930   3.457  15.177  0.1147  0.7166  0.8022
  830MPD2     N12212   2.375   3.405  15.183  0.3984 -0.2712  0.0829
  830MPD2    H512213   2.377   3.417  15.082  1.0381  0.9508  0.2444
  830MPD2    N112214   2.088   3.301  15.573 -0.3246  0.0585  0.4177
  830MPD2    H712215   2.003   3.341  15.613 -0.3975 -0.7140  1.0165
  831MPD2     C12216   2.069   0.134  16.021  0.7568 -0.7295 -0.4035
  831MPD2    C112217   2.124   0.029  15.950  0.2027  1.0063 -0.5556
  831MPD2    C212218   2.145   4.623  16.005 -0.2470 -0.3081  0.3113
  831MPD2    C312219   2.110   4.593  16.136 -0.3233  0.2271 -0.5754
  831MPD2    C412220   2.048   4.696  16.211  0.0809  0.2385  0.1076
  831MPD2    C512221   2.034   0.102  16.146 -0.7454  0.5159  0.3628
  831MPD2     H12222   2.195   4.551  15.941  2.6705  0.6372  1.5315
  831MPD2    H112223   2.020   4.687  16.315 -1.0662  1.1418 -0.1180
  831MPD2    H212224   2.059   0.233  15.978 -1.7486 -1.4734 -1.5418
  831MPD2    H312225   1.989   0.181  16.207  0.5758  0.5435  1.2963
  831MPD2     N12226   2.113   4.458  16.185 -0.1170  0.0463  0.0903
  831MPD2    H512227   2.068   4.442  16.275  0.4069 -0.0140  0.3395
  831MPD2    N112228   2.149   0.040  15.817 -0.2774 -0.2848 -0.7297
  831MPD2    H712229   2.165   4.672  15.772 -0.2475 -1.1255  0.9474
  832MPD2     C12230   0.871   0.612  17.405  0.3735  0.1325 -0.2617
  832MPD2    C112231   0.802   0.564  17.514 -0.2082 -0.0377 -0.1281
  832MPD2    C212232   0.683   0.493  17.502 -0.0766 -0.1104 -0.0801
  832MPD2    C312233   0.643   0.465  17.370  0.2927 -0.2326  1.2072
  832MPD2    C412234   0.714   0.509  17.260  0.4250  0.6046  0.3652
  832MPD2    C512235   0.836   0.572  17.278 -0.2236 -0.5132  0.4971
  832MPD2     H12236   0.642   0.429  17.579 -2.0307  1.7382  0.4358
  832MPD2    H112237   0.686   0.492  17.156  2.9460  0.0930 -0.2336
  832MPD2    H212238   0.963   0.668  17.422  1.1408 -1.1095 -0.3176
  832MPD2    H312239   0.896   0.609  17.195 -0.6784  0.8088  0.7642
  832MPD2     N12240   0.516   0.416  17.334 -0.3856  1.0230  0.0603
  832MPD2    H512241   0.487   0.399  17.238 -0.6872  0.3376  0.2704
  832MPD2    N112242   0.872   0.586  17.631  0.5748 -0.3935 -0.0030
  832MPD2    H712243   0.948   0.652  17.640 -0.5548  1.0039 -0.7287
  833MPD2     C12244   2.859   2.330  12.830 -0.8937  0.4402  0.4282
  833MPD2    C112245   2.895   2.400  12.725 -0.3390 -0.2796 -0.3756
  833MPD2    C212246   2.913   2.330  12.601  0.0065 -0.2090 -0.4288
  833MPD2    C312247   2.926   2.196  12.591 -0.2472 -0.1184  0.1580
  833MPD2    C412248   2.902   2.124  12.707 -0.0736  0.6732 -0.3392
  833MPD2    C512249   2.856   2.196  12.818  0.5376  0.9665 -0.1239
  833MPD2     H12250   2.932   2.383  12.508  2.2464  1.2722  0.8668
  833MPD2    H112251   2.879   2.018  12.704  0.6633  0.5935 -3.2004
  833MPD2    H212252   2.839   2.370  12.929 -1.8529  0.8710  0.0673
  833MPD2    H312253   2.833   2.130  12.900  1.0682 -1.2794 -1.7763
  833MPD2     N12254   2.938   2.118  12.477 -0.5666  0.4962  0.1328
  833MPD2    H512255   2.936   2.016  12.477  1.0065  0.4674  1.9416
  833MPD2    N112256   2.908   2.537  12.711  0.6265  0.1431 -0.1384
  833MPD2    H712257   2.944   2.566  12.621  4.0976 -0.7849  0.9463
  834MPD2     C12258   2.524   1.415  11.948 -0.1855 -0.5603  0.3111
  834MPD2    C112259   2.580   1.484  11.845 -0.7840  0.1914  0.2363
  834MPD2    C212260   2.644   1.601  11.870  0.9571 -0.3922 -0.8149
  834MPD2    C312261   2.621   1.669  11.986  0.3622  0.1922 -0.6500
  834MPD2    C412262   2.562   1.596  12.087 -0.2991  0.0394 -0.9140
  834MPD2    C512263   2.527   1.464  12.079  0.1613  0.2653  1.0036
  834MPD2     H12264   2.693   1.654  11.789  2.3288  0.6678  0.7027
  834MPD2    H112265   2.574   1.629  12.189 -1.2520 -1.3093 -0.3758
  834MPD2    H212266   2.472   1.326  11.915 -0.5888 -0.3378  0.3485
  834MPD2    H312267   2.494   1.412  12.168  1.1772 -3.7458 -0.9309
  834MPD2     N12268   2.684   1.795  12.000 -0.3625  0.3261 -1.0766
  834MPD2    H512269   2.721   1.842  11.917  0.7250 -0.2593 -0.9078
  834MPD2    N112270   2.585   1.422  11.721  0.9609  0.0527 -0.6892
  834MPD2    H712271   2.548   1.328  11.711  3.4776 -0.8278 -1.8365
  835MPD2     C12272   3.064   0.327  10.928 -0.1182 -0.2023 -0.2229
  835MPD2    C112273   2.929   0.349  10.921  0.1524 -0.1965  0.6143
  835MPD2    C212274   2.852   0.345  11.037  0.3984 -0.1701  0.4241
  835MPD2    C312275   2.907   0.322  11.165 -0.2821  0.3576  0.3989
  835MPD2    C412276   3.041   0.304  11.163  0.8055 -0.7265  0.2635
  835MPD2    C512277   3.119   0.306  11.049 -0.3399  0.4182 -0.0331
  835MPD2     H12278   2.744   0.357  11.029  0.4885 -0.6346 -1.5415
  835MPD2    H112279   3.101   0.276  11.249 -2.5242 -0.4436  2.6573
  835MPD2    H212280   3.136   0.327  10.848 -0.6222  0.3647 -0.6724
  835MPD2    H312281   3.224   0.289  11.067 -0.6090 -2.5885 -1.1714
  835MPD2     N12282   2.839   0.335  11.290 -0.2251 -0.1372 -0.0082
  835MPD2    H512283   2.898   0.293  11.362 -0.2484  0.5751  0.4229
  835MPD2    N112284   2.869   0.392  10.796  0.7211  0.4828 -0.0820
  835MPD2    H712285   2.769   0.404  10.807  0.7558 -0.9916  1.7943
  836MPD2     C12286   2.157   0.789  11.460 -0.0847  0.3301 -0.2915
  836MPD2    C112287   2.211   0.706  11.559 -0.6153 -0.0744  0.1353
  836MPD2    C212288   2.132   0.692  11.673 -0.7577  0.1401 -0.3658
  836MPD2    C312289   2.004   0.748  11.686  0.0054  0.2221  0.1303
  836MPD2    C412290   1.955   0.828  11.580 -0.0950 -0.2735 -0.0803
  836MPD2    C512291   2.035   0.849  11.474 -0.3456 -0.6366 -0.2417
  836MPD2     H12292   2.164   0.627  11.754 -1.4868  0.1889 -0.0416
  836MPD2    H112293   1.856   0.872  11.585 -0.3325 -0.6548 -1.6559
  836MPD2    H212294   2.209   0.819  11.370  1.9173 -0.6928  0.5424
  836MPD2    H312295   1.993   0.909  11.394 -1.5282 -1.1277  0.0059
  836MPD2     N12296   1.917   0.737  11.801  0.2795 -0.2541 -0.4967
  836MPD2    H512297   1.820   0.766  11.804  0.0454 -1.1831  1.4953
  836MPD2    N112298   2.331   0.637  11.538 -0.3591 -0.5555 -0.2858
  836MPD2    H712299   2.368   0.641  11.444  1.8970  0.1547  0.6320
  837MPD2     C12300   0.962   0.635   9.949  0.3819  0.0344 -0.4258
  837MPD2    C112301   0.891   0.660   9.836 -0.2587  0.2731  0.6387
  837MPD2    C212302   0.870   0.789   9.794 -0.1759 -0.3875  0.0968
  837MPD2    C312303   0.905   0.894   9.870 -0.1050 -0.5021  0.1652
  837MPD2    C412304   0.973   0.873   9.984 -0.4693 -0.1422  0.3256
  837MPD2    C512305   1.010   0.745  10.010  0.8148  0.7396  0.0262
  837MPD2     H12306   0.824   0.811   9.699  0.4700 -0.3009 -0.1956
  837MPD2    H112307   1.019   0.958  10.033 -0.9135  1.7471 -2.5287
  837MPD2    H212308   1.000   0.542   9.990 -0.0649  0.0612  0.0440
  837MPD2    H312309   1.078   0.722  10.091 -0.7129 -1.9686  0.5291
  837MPD2     N12310   0.841   1.014   9.833 -0.2410  0.2162 -0.0073
  837MPD2    H512311   0.794   1.005   9.743  0.3023  0.9882 -0.3665
  837MPD2    N112312   0.837   0.557   9.757  0.6406 -0.2844  0.1746
  837MPD2    H712313   0.785   0.591   9.677  1.2267 -0.0752 -0.1145
  838MPD2     C12314   3.624   3.463  11.705 -0.8856 -0.1853  0.5024
  838MPD2    C112315   3.682   3.341  11.726  0.2142 -0.7922 -0.0880
  838MPD2    C212316   3.628   3.253  11.816 -0.6389 -0.0742 -0.4703
  838MPD2    C312317   3.517   3.295  11.888 -0.0423 -0.1057 -0.4078
  838MPD2    C412318   3.459   3.426  11.867  0.1299 -0.1674 -0.9673
  838MPD2    C512319   3.507   3.501  11.765  0.0971 -0.1031 -0.5732
  838MPD2     H12320   3.666   3.153  11.829 -0.2243  0.0434 -0.7999
  838MPD2    H112321   3.369   3.460  11.918  0.9023  3.4039 -2.0200
  838MPD2    H212322   3.667   3.539  11.641 -0.8726 -0.0795  0.6367
  838MPD2    H312323   3.461   3.596  11.740  0.6600  0.2328 -0.3464
  838MPD2     N12324   3.457   3.207  11.984  0.4303 -0.5169  0.0451
  838MPD2    H512325   3.371   3.250  12.017  1.3548  1.3218  0.0682
  838MPD2    N112326   3.794   3.296  11.648  0.4281  0.0413  0.1116
  838MPD2    H712327   3.826   3.204  11.676  0.3040 -0.6031 -1.8155
  839MPD2     C12328   3.844   2.530  11.648 -0.8396  0.1120  0.0862
  839MPD2    C112329   3.886   2.543  11.518 -0.8612  0.6414 -0.6808
  839MPD2    C212330   3.938   2.665  11.475  0.1099 -0.0728  0.1077
  839MPD2    C312331   3.949   2.765  11.567 -0.6265  0.3213 -0.9669
  839MPD2    C412332   3.917   2.750  11.698  0.8029  0.4122 -0.4684
  839MPD2    C512333   3.861   2.636  11.738  0.3275 -0.0073  0.7089
  839MPD2     H12334   3.959   2.679  11.370 -0.1590  0.0692  0.0737
  839MPD2    H112335   3.936   2.830  11.769 -0.1545 -0.3356  0.6298
  839MPD2    H212336   3.811   2.435  11.689 -1.8709 -0.7699 -2.8021
  839MPD2    H312337   3.832   2.628  11.842  0.2221 -2.1094  0.5174
  839MPD2     N12338   4.005   2.887  11.531  0.4720  1.4106  0.6827
  839MPD2    H512339   3.999   2.959  11.603  0.1090  0.3208  1.7429
  839MPD2    N112340   3.872   2.425  11.442 -0.2979  0.9887  0.4423
  839MPD2    H712341   3.819   2.350  11.483  1.8810 -0.2675  0.9603
  840MPD2     C12342   4.452   0.650  10.225 -0.0561  0.3992 -0.8007
  840MPD2    C112343   4.436   0.591  10.352  0.5694 -0.6753 -0.1161
  840MPD2    C212344   4.478   0.665  10.464 -0.2742 -0.6316  0.0089
  840MPD2    C312345   4.523   0.798  10.445 -0.0430  0.3940  0.0679
  840MPD2    C412346   4.522   0.855  10.320 -0.7474 -0.0181 -0.3296
  840MPD2    C512347   4.485   0.782  10.214 -0.7374 -0.4010  0.3988
  840MPD2     H12348   4.472   0.623  10.564  1.2929 -1.4368 -0.2286
  840MPD2    H112349   4.555   0.957  10.308 -0.9823  0.1715  0.5991
  840MPD2    H212350   4.419   0.592  10.140 -0.3596 -0.4787 -0.0898
  840MPD2    H312351   4.485   0.829  10.117 -0.2177 -0.2369  0.4805
  840MPD2     N12352   4.589   0.882  10.540 -0.3210 -0.8455 -0.3008
  840MPD2    H512353   4.605   0.978  10.513 -0.6284 -1.6042 -3.1263
  840MPD2    N112354   4.366   0.464  10.356  0.0019  0.1506  0.6595
  840MPD2    H712355   4.333   0.434  10.264  1.0618  0.9757  0.0160
  841MPD2     C12356   4.187   0.533  14.796  0.2215  0.1229 -0.7133
  841MPD2    C112357   4.229   0.456  14.691 -0.1302 -1.1407 -0.0161
  841MPD2    C212358   4.337   0.486  14.613  0.3412  0.7700  0.6247
  841MPD2    C312359   4.407   0.596  14.632  0.2337 -0.2102  0.0258
  841MPD2    C412360   4.366   0.687  14.730 -0.4796  0.5382 -0.3516
  841MPD2    C512361   4.262   0.643  14.810  0.3834  0.1869 -0.2938
  841MPD2     H12362   4.362   0.421  14.530  2.2013  0.2566  1.5840
  841MPD2    H112363   4.416   0.779  14.758  0.5436 -0.0842 -0.1625
  841MPD2    H212364   4.109   0.506  14.866  0.3083  2.3160  0.2236
  841MPD2    H312365   4.229   0.717  14.883  1.1894 -0.3589  0.6146
  841MPD2     N12366   4.522   0.615  14.542 -0.1872 -0.1824 -0.4570
  841MPD2    H512367   4.549   0.550  14.469 -0.1717 -1.7114  0.8893
  841MPD2    N112368   4.163   0.333  14.658 -0.1021 -0.2988 -0.2671
  841MPD2    H712369   4.209   0.261  14.603 -0.7367  0.3631 -1.6640
  842MPD2     C12370   4.067   0.148  17.160 -0.8282  0.3974 -0.0951
  842MPD2    C112371   4.029   0.269  17.113 -0.0570  0.1420  0.1396
  842MPD2    C212372   4.095   0.385  17.152 -0.2549 -0.4710  0.4282
  842MPD2    C312373   4.215   0.366  17.221 -0.0805  0.4995  0.8336
  842MPD2    C412374   4.254   0.244  17.267  0.5776 -0.1286  0.4308
  842MPD2    C512375   4.174   0.132  17.243  0.0118 -0.3190  0.0648
  842MPD2     H12376   4.084   0.481  17.102  1.6855 -1.1973 -1.3786
  842MPD2    H112377   4.347   0.224  17.318  1.1702  0.4223 -0.4249
  842MPD2    H212378   4.002   0.065  17.132 -0.5603  0.4842 -1.0000
  842MPD2    H312379   4.190   0.033  17.283 -2.5625 -0.2647  1.2511
  842MPD2     N12380   4.306   0.479  17.222 -0.0095 -0.0025 -0.3435
  842MPD2    H512381   4.280   0.562  17.169  1.5901  0.1271 -0.9242
  842MPD2    N112382   3.920   0.274  17.022 -1.4671 -0.1269 -0.0324
  842MPD2    H712383   3.904   0.184  16.978 -1.3190 -0.9510  1.5827
  843MPD2     C12384   1.656   0.733  17.632  0.2337 -0.3096 -0.1679
  843MPD2    C112385   1.630   0.759   0.076  0.5980 -0.1528 -0.4724
  843MPD2    C212386   1.686   0.873   0.137  0.3065  0.6220  0.2540
  843MPD2    C312387   1.757   0.966   0.064 -0.7102  0.1575  0.6249
  843MPD2    C412388   1.783   0.936  17.620 -0.0683  0.4915 -0.2042
  843MPD2    C512389   1.728   0.827  17.565 -0.3562  0.1708  0.4363
  843MPD2     H12390   1.677   0.896   0.242 -2.4849  1.9639 -0.2899
  843MPD2    H112391   1.838   1.004  17.556 -1.5389  0.8160 -1.1278
  843MPD2    H212392   1.635   0.641  17.579 -1.9895  0.4801 -0.6437
  843MPD2    H312393   1.742   0.813  17.458  1.0959  1.7718  0.4138
  843MPD2     N12394   1.818   1.083   0.116  0.8756  0.5218 -0.0272
  843MPD2    H512395   1.872   1.137   0.049  0.2224  2.6557  1.1321
  843MPD2    N112396   1.569   0.656   0.143  0.5254 -0.4301  0.3230
  843MPD2    H712397   1.543   0.574   0.089 -4.6722 -0.2836  2.6552
  844MPD2     C12398   0.131   0.882  17.047  0.3047  0.4968  0.5464
  844MPD2    C112399   0.242   0.816  16.994 -0.3465 -0.3970  0.2890
  844MPD2    C212400   0.367   0.864  17.029  0.2201  0.1008  0.7667
  844MPD2    C312401   0.381   0.988  17.093 -0.1396 -0.4261 -0.0162
  844MPD2    C412402   0.266   1.036  17.155  0.2007  0.2716 -0.4012
  844MPD2    C512403   0.147   0.981  17.142  0.7061 -0.2867  0.5214
  844MPD2     H12404   0.448   0.812  16.981 -0.2766 -1.2297  1.3735
  844MPD2    H112405   0.274   1.133  17.202 -1.7276  1.3111 -2.2484
  844MPD2    H212406   0.028   0.856  17.024  0.7776 -1.3269  0.4439
  844MPD2    H312407   0.064   1.034  17.187  1.8676  2.1888 -0.2585
  844MPD2     N12408   0.504   1.030  17.117 -0.0082 -0.1986 -0.4583
  844MPD2    H512409   0.581   0.972  17.085  1.7412  0.9834  1.5933
  844MPD2    N112410   0.215   0.705  16.908 -0.1941 -0.3972 -0.1217
  844MPD2    H712411   0.123   0.703  16.867  0.1590  0.3011 -0.9392
  845MPD2     C12412   0.838   1.942  17.076  0.0651 -0.6129 -0.2455
  845MPD2    C112413   0.746   1.867  17.011  0.0898  0.4844  0.1575
  845MPD2    C212414   0.766   1.728  17.002 -0.0957  0.2357  0.3695
  845MPD2    C312415   0.869   1.664  17.070  0.9354  0.5383  0.1094
  845MPD2    C412416   0.953   1.750  17.150 -0.2960 -0.8043  0.3618
  845MPD2    C512417   0.942   1.887  17.147 -0.1674 -0.2063 -1.0474
  845MPD2     H12418   0.699   1.663  16.948  1.7708 -0.9837 -0.5053
  845MPD2    H112419   1.031   1.711  17.215 -0.0100  1.6799  1.4974
  845MPD2    H212420   0.837   2.051  17.083 -0.9963 -0.7380  1.3731
  845MPD2    H312421   1.011   1.941  17.211  0.9463 -1.2403 -1.3732
  845MPD2     N12422   0.857   1.519  17.091  0.3393  0.2658 -0.2284
  845MPD2    H512423   0.786   1.468  17.039 -0.0167 -2.0952  2.5404
  845MPD2    N112424   0.641   1.935  16.945  0.2010 -0.2818 -0.8479
  845MPD2    H712425   0.651   2.032  16.919 -1.2299  0.7026  2.2365
  846MPD2     C12426   2.196   1.887  13.479 -1.0164 -0.9601  0.7656
  846MPD2    C112427   2.144   2.011  13.526 -0.3174 -0.0489  0.6722
  846MPD2    C212428   2.146   2.046  13.662 -0.4014 -0.3682 -0.7887
  846MPD2    C312429   2.199   1.953  13.749  0.2202  0.0950  0.3443
  846MPD2    C412430   2.259   1.836  13.705  0.1108  0.1950  0.2755
  846MPD2    C512431   2.252   1.804  13.571  0.0651 -0.1480 -0.0699
  846MPD2     H12432   2.098   2.135  13.700  2.2253  0.4025  0.6882
  846MPD2    H112433   2.292   1.766  13.782  0.7800  0.5556  0.3131
  846MPD2    H212434   2.208   1.848  13.378 -2.2884 -0.0533  0.2622
  846MPD2    H312435   2.289   1.706  13.543 -1.6020 -0.9899  0.6956
  846MPD2     N12436   2.199   1.990  13.888  0.1328 -0.4745 -0.3698
  846MPD2    H512437   2.151   2.076  13.912  0.8358 -0.6752  1.7421
  846MPD2    N112438   2.113   2.113  13.430 -0.7925  0.3206 -0.5616
  846MPD2    H712439   2.092   2.204  13.468  1.3512  0.4248  0.3967
  847MPD2     C12440   2.392   2.684  14.511 -0.1566 -0.4870 -0.8399
  847MPD2    C112441   2.472   2.768  14.446 -0.1257  0.6145 -0.0258
  847MPD2    C212442   2.602   2.790  14.488 -0.3636  0.9308 -0.6957
  847MPD2    C312443   2.650   2.724  14.604 -0.2740  0.7097  0.1645
  847MPD2    C412444   2.563   2.639  14.666 -0.0791 -0.5738  0.6396
  847MPD2    C512445   2.441   2.615  14.618 -0.2429  0.0419  0.0790
  847MPD2     H12446   2.671   2.857  14.437  0.4985  0.0758 -0.6523
  847MPD2    H112447   2.595   2.582  14.753  0.5066  0.6797  1.2455
  847MPD2    H212448   2.295   2.650  14.476 -0.5122 -2.0957  1.6794
  847MPD2    H312449   2.373   2.546  14.666 -1.2208  0.8916 -0.1043
  847MPD2     N12450   2.778   2.763  14.651 -0.4372  0.0935  0.0247
  847MPD2    H512451   2.813   2.848  14.607 -1.2327 -0.6315 -2.0366
  847MPD2    N112452   2.435   2.836  14.329  0.4079  0.2728 -0.3032
  847MPD2    H712453   2.505   2.897  14.289  1.8370 -0.6011  0.8837
  848MPD2     C12454   0.027   0.243  16.781 -0.3178 -0.6271 -0.2060
  848MPD2    C112455   0.022   0.353  16.862  0.2554 -0.0746  0.1447
  848MPD2    C212456   4.681   0.466  16.807  0.4056  0.1851 -0.3213
  848MPD2    C312457   4.645   0.476  16.672 -0.6997  0.2008  0.1574
  848MPD2    C412458   4.647   0.358  16.599  0.2676 -0.3353  0.3397
  848MPD2    C512459   4.692   0.241  16.655 -0.6074 -0.2300  0.3615
  848MPD2     H12460   4.677   0.555  16.868  1.3494  0.8180 -1.1731
  848MPD2    H112461   4.627   0.362  16.492 -1.7356  3.1346  0.8364
  848MPD2    H212462   0.072   0.148  16.808  1.8137  0.1941 -0.8514
  848MPD2    H312463   4.697   0.151  16.596 -2.9431  0.1601 -0.4027
  848MPD2     N12464   4.614   0.596  16.605 -0.0267 -0.9128 -0.2271
  848MPD2    H512465   4.579   0.581  16.511 -0.5613  1.2768 -0.3656
  848MPD2    N112466   0.064   0.353  16.993 -0.4497 -0.5586 -0.0716
  848MPD2    H712467   0.020   0.423  17.052  1.7104  0.1699  0.6575
  849MPD2     C12468   3.586   1.047  14.268  0.6157  0.0948  0.7421
  849MPD2    C112469   3.649   1.019  14.148  0.2040  0.1419  0.4773
  849MPD2    C212470   3.753   0.929  14.143 -0.3490  0.1867 -0.1695
  849MPD2    C312471   3.803   0.880  14.259  0.4581 -1.0651 -0.3009
  849MPD2    C412472   3.752   0.920  14.376  0.1533 -0.1790 -0.2325
  849MPD2    C512473   3.646   1.002  14.381  0.3655 -0.5859  0.4246
  849MPD2     H12474   3.805   0.920  14.049  0.9583 -1.9306  0.7595
  849MPD2    H112475   3.795   0.886  14.469  0.7888  1.6058  0.1343
  849MPD2    H212476   3.513   1.127  14.277 -0.2843 -0.5789 -0.6236
  849MPD2    H312477   3.614   1.051  14.472  1.3776  0.3096  0.3141
  849MPD2     N12478   3.916   0.794  14.266  0.2118 -0.2327 -0.0506
  849MPD2    H512479   3.952   0.767  14.357  1.2400  0.5656 -0.2229
  849MPD2    N112480   3.605   1.078  14.024 -0.1323  0.2466  0.4497
  849MPD2    H712481   3.536   1.150  14.045  0.1020  0.2486  1.2104
  850MPD2     C12482   2.065   3.957  14.248 -0.6007  0.4353  0.0270
  850MPD2    C112483   2.051   4.071  14.326  1.0140 -0.7943  0.5601
  850MPD2    C212484   2.165   4.146  14.342 -1.0488 -0.2537 -1.1608
  850MPD2    C312485   2.294   4.103  14.316 -0.2563 -0.6519  0.4249
  850MPD2    C412486   2.304   3.993  14.233 -0.0515  0.4581  0.5155
  850MPD2    C512487   2.190   3.923  14.202 -0.1917 -0.7453 -0.1674
  850MPD2     H12488   2.148   4.244  14.385  1.2665 -1.6990  3.0720
  850MPD2    H112489   2.398   3.955  14.193  0.7722  1.1361  1.8170
  850MPD2    H212490   1.988   3.886  14.223 -0.2814  0.6571 -1.5610
  850MPD2    H312491   2.201   3.832  14.143 -1.7997 -0.7665 -0.4271
  850MPD2     N12492   2.406   4.150  14.384 -0.0191 -0.0139  0.1477
  850MPD2    H512493   2.497   4.111  14.362 -0.2604  0.1772 -1.1798
  850MPD2    N112494   1.923   4.105  14.377  0.3624  0.0838 -0.0437
  850MPD2    H712495   1.842   4.063  14.332 -1.0111 -0.7019  3.1036
  851MPD2     C12496   2.524   4.198  15.016  0.1743 -0.3127  1.0164
  851MPD2    C112497   2.472   4.108  14.927 -1.2930 -0.0944  0.3983
  851MPD2    C212498   2.524   3.980  14.915 -0.1290  0.4690 -0.1277
  851MPD2    C312499   2.615   3.938  15.013 -0.1438  0.4906  0.1459
  851MPD2    C412500   2.673   4.029  15.102 -0.1423  0.6053 -0.0320
  851MPD2    C512501   2.629   4.160  15.095  0.7994 -0.5487 -0.2756
  851MPD2     H12502   2.492   3.915  14.834 -1.1466  1.2233 -0.3372
  851MPD2    H112503   2.752   4.018  15.175 -1.1023  1.9873  1.2090
  851MPD2    H212504   2.487   4.299  15.026 -0.9028 -0.5041 -0.9863
  851MPD2    H312505   2.666   4.229  15.170  2.3372 -0.9576 -0.6570
  851MPD2     N12506   2.657   3.800  15.010  0.9744  0.2601  0.8636
  851MPD2    H512507   2.610   3.742  14.941  1.6855  0.9413 -0.1877
  851MPD2    N112508   2.367   4.161  14.845  0.0390 -0.4050  0.2206
  851MPD2    H712509   2.335   4.255  14.868 -0.5242 -0.7200  0.7500
  852MPD2     C12510   4.211   1.688   9.129 -0.2559 -0.4898  0.1558
  852MPD2    C112511   4.113   1.776   9.080  0.1329  0.1065 -0.2476
  852MPD2    C212512   4.076   1.886   9.156  0.4626 -0.0450  0.5831
  852MPD2    C312513   4.148   1.912   9.273 -0.0135  0.7638 -0.4077
  852MPD2    C412514   4.250   1.824   9.307  0.1108  0.0095 -0.0609
  852MPD2    C512515   4.274   1.710   9.241  1.2282  0.1126  0.4015
  852MPD2     H12516   3.989   1.946   9.130 -0.0026 -1.5333 -1.3859
  852MPD2    H112517   4.300   1.837   9.403  0.4828 -2.4581  0.0818
  852MPD2    H212518   4.255   1.609   9.069 -1.4197  0.1415 -1.5447
  852MPD2    H312519   4.348   1.635   9.268 -1.3221 -2.7874 -0.6279
  852MPD2     N12520   4.129   2.031   9.346  0.3825 -0.1237  0.0883
  852MPD2    H512521   4.055   2.091   9.311 -1.3003 -2.5806 -0.6077
  852MPD2    N112522   4.048   1.751   8.952 -0.2443  0.6630 -1.1474
  852MPD2    H712523   3.958   1.796   8.945 -0.6480  0.1520  0.8366
  853MPD2     C12524   4.051   1.492  12.552  0.6636 -0.7149  0.3705
  853MPD2    C112525   3.961   1.587  12.514 -1.0774 -0.1129  0.5597
  853MPD2    C212526   3.943   1.614  12.375 -0.0364 -0.3760 -0.2030
  853MPD2    C312527   4.027   1.553  12.288  0.0995 -0.5545 -0.1852
  853MPD2    C412528   4.119   1.459  12.331 -0.0855  0.2664  0.0044
  853MPD2    C512529   4.134   1.422  12.465 -0.1451  0.0570 -0.3178
  853MPD2     H12530   3.866   1.687  12.355 -1.0344 -1.9212 -1.9273
  853MPD2    H112531   4.190   1.417  12.261 -0.2054  0.5023 -0.2598
  853MPD2    H212532   4.059   1.473  12.658 -0.6231  0.9319  0.7632
  853MPD2    H312533   4.195   1.339  12.500 -0.3283  0.0178 -0.0933
  853MPD2     N12534   4.028   1.571  12.148 -0.4039  0.0566  0.3861
  853MPD2    H512535   4.102   1.525  12.098 -0.4603  1.2102 -0.7691
  853MPD2    N112536   3.877   1.630  12.612 -0.2207 -0.0884 -0.1783
  853MPD2    H712537   3.902   1.603  12.707  0.1464  1.1986  0.0909
  854MPD2     C12538   0.513   1.784  12.491  0.5950 -0.0990  0.7526
  854MPD2    C112539   0.560   1.881  12.574 -0.5716 -0.2901  0.3988
  854MPD2    C212540   0.675   1.869  12.647  0.1689  0.0345 -0.0291
  854MPD2    C312541   0.759   1.759  12.621  0.2356  0.3325  0.0011
  854MPD2    C412542   0.702   1.652  12.548  0.5390  0.2335  0.5541
  854MPD2    C512543   0.582   1.667  12.490  0.3922  0.8229 -0.0983
  854MPD2     H12544   0.702   1.951  12.713  1.8243  0.9104 -1.8017
  854MPD2    H112545   0.730   1.548  12.557  0.0933  0.0559 -0.1598
  854MPD2    H212546   0.412   1.778  12.453  0.2298  2.3003  1.3787
  854MPD2    H312547   0.536   1.583  12.439 -0.6107  0.8459  0.7902
  854MPD2     N12548   0.876   1.736  12.696  0.0054 -0.2091 -0.7943
  854MPD2    H512549   0.913   1.643  12.684 -1.3383 -1.3193  3.5129
  854MPD2    N112550   0.480   2.000  12.578 -0.1391  0.2279 -0.2984
  854MPD2    H712551   0.397   1.987  12.522 -0.8903 -0.1590  0.9288
  855MPD2     C12552   1.492   1.711  13.518 -0.0259 -0.4836  0.0459
  855MPD2    C112553   1.466   1.596  13.449 -0.0119  0.3731  0.6989
  855MPD2    C212554   1.429   1.601  13.322 -1.0032  0.0108  0.5849
  855MPD2    C312555   1.414   1.723  13.253  0.3829  0.2975 -0.1353
  855MPD2    C412556   1.430   1.840  13.325  0.0776 -0.3194 -0.0727
  855MPD2    C512557   1.476   1.830  13.451 -0.4179  0.0161 -0.4931
  855MPD2     H12558   1.423   1.505  13.272 -1.9977  0.4250 -0.0879
  855MPD2    H112559   1.420   1.940  13.284  0.9071  0.8448  2.5297
  855MPD2    H212560   1.547   1.714  13.612 -0.1710  0.3999  0.1024
  855MPD2    H312561   1.502   1.927  13.491  1.6518 -0.7190 -0.0014
  855MPD2     N12562   1.385   1.719  13.117 -0.0457  0.0148  0.0412
  855MPD2    H512563   1.380   1.629  13.069  1.0070 -0.2996  0.5266
  855MPD2    N112564   1.471   1.465  13.497  0.3329  0.3761 -0.1877
  855MPD2    H712565   1.429   1.398  13.434  2.2403 -1.1229  0.1428
  856MPD2     C12566   3.054   2.251  13.792 -0.4496 -0.3124 -0.4041
  856MPD2    C112567   3.094   2.367  13.861 -0.3384  0.1648  0.2610
  856MPD2    C212568   3.095   2.479  13.783 -0.2965  0.6523  0.3320
  856MPD2    C312569   3.082   2.482  13.646  0.1682  0.2914  0.1846
  856MPD2    C412570   3.058   2.364  13.590  0.1699  0.1095 -0.2395
  856MPD2    C512571   3.035   2.255  13.656 -0.6272 -0.1243 -0.5742
  856MPD2     H12572   3.117   2.570  13.839  1.3778  1.3676 -1.4888
  856MPD2    H112573   3.027   2.357  13.486 -0.6741 -0.5927  0.0561
  856MPD2    H212574   3.033   2.153  13.833  0.1397 -0.4771 -0.4971
  856MPD2    H312575   2.999   2.169  13.602 -0.9581 -0.8880  0.8742
  856MPD2     N12576   3.096   2.602  13.567 -0.4734 -0.3752 -0.0162
  856MPD2    H512577   3.064   2.597  13.471  0.0596  0.4001 -0.2294
  856MPD2    N112578   3.130   2.381  13.995 -0.3582  0.1880 -1.1908
  856MPD2    H712579   3.167   2.471  14.025 -0.4123 -0.3910  0.6289
  857MPD2     C12580   4.636   0.168  12.735  0.1326  0.9410  0.2271
  857MPD2    C112581   0.044   0.150  12.682  0.1031 -0.3856  0.1825
  857MPD2    C212582   0.141   0.246  12.705  0.0957 -0.1876 -0.5925
  857MPD2    C312583   0.110   0.363  12.774  0.7375  0.1298 -0.3620
  857MPD2    C412584   4.699   0.377  12.812 -0.4050 -0.3286  0.1855
  857MPD2    C512585   4.603   0.284  12.798 -0.0836  0.0061  0.4180
  857MPD2     H12586   0.241   0.228  12.667  0.1119  0.7749 -1.0353
  857MPD2    H112587   4.676   0.473  12.858  0.1180 -0.1922  0.1659
  857MPD2    H212588   4.551   0.101  12.726  1.4200 -0.7359  0.5490
  857MPD2    H312589   4.503   0.298  12.839 -0.3117  1.5100 -0.6464
  857MPD2     N12590   0.215   0.458  12.805 -0.2287 -0.0708  0.4942
  857MPD2    H512591   0.305   0.425  12.773 -0.8923 -0.3343 -1.0946
  857MPD2    N112592   0.066   0.043  12.590 -0.0851  1.1446 -0.2642
  857MPD2    H712593   4.717   4.691  12.589 -0.5491  1.6047 -1.0533
  858MPD2     C12594   0.488   2.926  16.847  0.7084 -0.4207  0.2928
  858MPD2    C112595   0.606   2.965  16.907  0.2385  0.3761 -0.0647
  858MPD2    C212596   0.610   2.999  17.044  1.0143  0.3477 -0.7553
  858MPD2    C312597   0.491   3.009  17.110 -0.1052  0.0593  0.5037
  858MPD2    C412598   0.378   2.953  17.054  0.0526 -0.2129 -0.5951
  858MPD2    C512599   0.373   2.922  16.921  0.1929  0.3999 -0.7395
  858MPD2     H12600   0.699   3.023  17.102 -0.9859  2.6354  1.3828
  858MPD2    H112601   0.285   2.934  17.106  0.3317 -1.4505 -0.5269
  858MPD2    H212602   0.490   2.899  16.742  1.4953  0.5594  0.0536
  858MPD2    H312603   0.284   2.879  16.877 -0.7507 -0.3225  1.8822
  858MPD2     N12604   0.479   3.064  17.235  0.5719 -0.8022  0.3186
  858MPD2    H512605   0.384   3.070  17.270 -0.4143  0.1459 -2.4727
  858MPD2    N112606   0.724   2.977  16.829  0.3961 -0.5863  0.1448
  858MPD2    H712607   0.721   2.947  16.732 -3.3775  0.3402 -0.0404
  859MPD2     C12608   3.648   0.587  15.009  0.5265  0.4456 -0.2609
  859MPD2    C112609   3.780   0.606  15.037 -0.2911  0.1538 -0.5881
  859MPD2    C212610   3.852   0.484  15.067  0.4196 -0.1263  0.3638
  859MPD2    C312611   3.796   0.356  15.067  0.2023 -0.1231 -0.7711
  859MPD2    C412612   3.665   0.351  15.028  0.4993  0.2836 -0.4364
  859MPD2    C512613   3.590   0.461  15.007  0.4212 -0.1351  0.0708
  859MPD2     H12614   3.956   0.488  15.098  0.0436 -2.7192  1.9468
  859MPD2    H112615   3.610   0.257  15.027  1.2403 -0.1663  1.2145
  859MPD2    H212616   3.584   0.667  14.975 -1.4728 -1.4814 -1.0314
  859MPD2    H312617   3.484   0.449  14.987  0.4911 -2.3886  0.9140
  859MPD2     N12618   3.858   0.237  15.107  0.6793  0.0530 -0.1858
  859MPD2    H512619   3.811   0.152  15.079  0.9792 -0.9050  2.2049
  859MPD2    N112620   3.846   0.728  15.016  0.5338 -0.1230  0.3898
  859MPD2    H712621   3.794   0.809  14.984 -1.9437 -1.2010  1.6653
  860MPD2     C12622   1.967   1.598  11.720 -0.3206 -0.6382 -0.2821
  860MPD2    C112623   1.901   1.521  11.818  0.5166  0.2839 -0.1156
  860MPD2    C212624   1.772   1.518  11.822  0.9525  0.5599  0.6312
  860MPD2    C312625   1.688   1.600  11.742  0.2612  0.4387  0.7527
  860MPD2    C412626   1.756   1.686  11.660  0.0820 -0.2840 -0.3768
  860MPD2    C512627   1.888   1.674  11.640  0.4824  0.1102  0.5742
  860MPD2     H12628   1.728   1.448  11.892 -0.0003 -0.7320 -1.2614
  860MPD2    H112629   1.709   1.746  11.583 -2.3932  1.3306  2.3739
  860MPD2    H212630   2.075   1.602  11.710 -0.0843  0.5011  2.8725
  860MPD2    H312631   1.937   1.728  11.560 -0.2667  1.2818  0.9149
  860MPD2     N12632   1.546   1.574  11.739 -0.5115 -0.3997  0.4783
  860MPD2    H512633   1.504   1.498  11.791 -1.5302 -0.8199 -0.9427
  860MPD2    N112634   1.962   1.448  11.925  0.3992 -0.1915  0.9361
  860MPD2    H712635   1.899   1.414  11.996 -2.1042  1.8186 -0.3079
  861MPD2     C12636   0.871   4.669  11.112  0.6104 -0.2694 -0.0258
  861MPD2    C112637   0.748   4.623  11.127 -0.1182 -0.2459  0.4605
  861MPD2    C212638   0.639   4.650  11.035  0.8742  0.4094 -0.1996
  861MPD2    C312639   0.669   0.000  10.921 -0.4219 -0.0445  0.5218
  861MPD2    C412640   0.795   0.049  10.901  0.1617 -0.0377  0.3285
  861MPD2    C512641   0.892   0.018  10.994 -0.6276  0.3226  0.0126
  861MPD2     H12642   0.535   4.626  11.049  1.1262 -0.7964 -0.3699
  861MPD2    H112643   0.828   0.115  10.822 -1.1376 -1.4654 -1.4093
  861MPD2    H212644   0.950   4.646  11.182  1.3627  2.5046  0.0285
  861MPD2    H312645   0.992   0.060  10.988 -0.6445  0.7181  2.3406
  861MPD2     N12646   0.573   0.048  10.828 -0.6540  0.2686 -0.0734
  861MPD2    H512647   0.610   0.113  10.759 -1.6969 -0.3250 -1.1901
  861MPD2    N112648   0.707   4.557  11.247  0.2164  0.2824  0.4208
  861MPD2    H712649   0.611   4.528  11.265  0.5065 -2.4836 -2.4565
  862MPD2     C12650   0.169   4.706  10.294 -0.8384  0.6850 -0.0761
  862MPD2    C112651   0.286   4.687  10.365 -0.2301  0.3676  0.3166
  862MPD2    C212652   0.301   4.569  10.438  0.1579 -0.5291 -0.7220
  862MPD2    C312653   0.211   4.464  10.442  0.4169  0.1036 -0.2733
  862MPD2    C412654   0.104   4.478  10.353  0.4479 -0.0673 -0.0328
  862MPD2    C512655   0.090   4.594  10.282 -0.2064 -0.5677 -0.6189
  862MPD2     H12656   0.395   4.570  10.492  1.8715 -0.1602 -3.6707
  862MPD2    H112657   0.021   4.408  10.353  0.6689 -0.3414  1.4760
  862MPD2    H212658   0.136   0.081  10.258 -0.8115  0.4326 -0.7773
  862MPD2    H312659   4.716   4.605  10.230  0.7829  1.7522 -1.9593
  862MPD2     N12660   0.215   4.354  10.533 -0.3167  0.3266  0.2472
  862MPD2    H512661   0.139   4.288  10.521 -1.1567  0.9007  2.4139
  862MPD2    N112662   0.379   0.062  10.399  0.0134 -0.0440 -0.4043
  862MPD2    H712663   0.457   0.023  10.452 -1.2627 -1.0550  0.7233
  863MPD2     C12664   3.721   1.461  16.413  0.2256 -0.1486  0.1396
  863MPD2    C112665   3.715   1.601  16.401 -0.1112  0.3278 -0.7646
  863MPD2    C212666   3.798   1.677  16.489  1.2229 -0.3223  0.0172
  863MPD2    C312667   3.854   1.608  16.595 -0.5926  0.9777  0.1306
  863MPD2    C412668   3.850   1.477  16.603  0.3233  0.5182 -0.0962
  863MPD2    C512669   3.780   1.403  16.517  0.0171  0.2471  0.0567
  863MPD2     H12670   3.813   1.781  16.464  2.7608 -0.3180  0.9635
  863MPD2    H112671   3.893   1.425  16.688 -1.0026 -0.2945  0.0791
  863MPD2    H212672   3.673   1.399  16.339 -0.0417  0.0212  0.1685
  863MPD2    H312673   3.798   1.296  16.525 -0.1561  0.2076 -0.0688
  863MPD2     N12674   3.925   1.666  16.697 -0.5575 -0.6781  0.3461
  863MPD2    H512675   3.957   1.594  16.761 -1.2724 -1.9190 -0.7188
  863MPD2    N112676   3.650   1.653  16.286  0.0067  0.2405 -0.2198
  863MPD2    H712677   3.622   1.586  16.215  1.0153 -1.2027  0.7426
  864MPD2     C12678   4.192   3.562  17.146 -0.0864 -0.9467 -0.1104
  864MPD2    C112679   4.314   3.536  17.090  0.3663 -0.7298  0.5260
  864MPD2    C212680   4.418   3.623  17.118 -0.0535 -0.0886  0.7534
  864MPD2    C312681   4.396   3.747  17.186  0.4005 -0.3678 -0.0775
  864MPD2    C412682   4.268   3.769  17.237  0.3290  0.7414  0.0249
  864MPD2    C512683   4.171   3.674  17.220  0.2799  0.5616 -0.4552
  864MPD2     H12684   4.518   3.606  17.078 -0.5155 -0.5924 -0.2092
  864MPD2    H112685   4.244   3.863  17.287 -0.1055  2.0570 -2.6537
  864MPD2    H212686   4.110   3.493  17.130 -1.8314  1.0340  0.2721
  864MPD2    H312687   4.076   3.702  17.262  1.0960  1.7291  0.5953
  864MPD2     N12688   4.497   3.841  17.216  0.8555  0.2879 -0.1736
  864MPD2    H512689   4.466   3.924  17.266 -1.2887 -0.5648 -0.1029
  864MPD2    N112690   4.330   3.425  17.008 -0.2904 -0.3453  0.1478
  864MPD2    H712691   4.251   3.361  17.005 -0.3256 -0.2566 -0.8422
  865MPD2     C12692   0.181   4.523  16.650  0.2635  0.3009  0.0344
  865MPD2    C112693   0.147   4.385  16.648  0.8310  1.0465 -0.1345
  865MPD2    C212694   0.108   4.330  16.768  0.2572  0.0834  0.1403
  865MPD2    C312695   0.104   4.404  16.887 -0.0212  0.3579 -0.2037
  865MPD2    C412696   0.145   4.538  16.881  0.5543 -0.8096 -0.1286
  865MPD2    C512697   0.171   4.598  16.761  0.7168  0.8578  0.9463
  865MPD2     H12698   0.093   4.223  16.776 -2.0019  0.4021  0.1614
  865MPD2    H112699   0.140   4.596  16.973 -0.7248  0.5259 -1.0350
  865MPD2    H212700   0.194   4.583  16.560 -0.5768 -1.1143 -1.0282
  865MPD2    H312701   0.198   4.702  16.747 -1.1155  0.8624 -2.5559
  865MPD2     N12702   0.072   4.345  17.008  0.7762  0.9833  0.0748
  865MPD2    H512703   0.103   4.394  17.091 -0.0471 -1.0005  1.5400
  865MPD2    N112704   0.135   4.317  16.523  0.3907 -0.1763 -0.1341
  865MPD2    H712705   0.165   4.372  16.442  0.1431 -0.2138 -0.2506
  866MPD2     C12706   1.239   4.716  11.604  0.2026  0.6156 -0.7713
  866MPD2    C112707   1.267   0.062  11.489 -0.2429 -0.1799 -0.9281
  866MPD2    C212708   1.158   0.123  11.421 -0.0243  0.2048  0.0580
  866MPD2    C312709   1.031   0.126  11.484  0.2379  0.4846 -0.5810
  866MPD2    C412710   1.021   0.078  11.617 -0.1947  0.0217 -0.3814
  866MPD2    C512711   1.117   4.721  11.669  0.1412  0.0468 -0.6194
  866MPD2     H12712   1.178   0.168  11.325 -0.7210  0.2469 -0.0641
  866MPD2    H112713   0.931   0.085  11.676  0.0752 -1.0752  0.1501
  866MPD2    H212714   1.324   4.676  11.659 -1.0999 -1.0520 -0.0060
  866MPD2    H312715   1.118   4.672  11.766 -3.4625 -1.0935 -1.1388
  866MPD2     N12716   0.918   0.192  11.419 -0.2255 -0.1459  0.0505
  866MPD2    H512717   0.831   0.192  11.472 -0.4017  1.2612 -0.2296
  866MPD2    N112718   1.396   0.035  11.436  0.2237  0.0593  0.0813
  866MPD2    H712719   1.470   4.708  11.486 -1.1246 -0.0247  1.9657
  867MPD2     C12720   2.887   3.296  16.447  0.6030  0.2549  0.0372
  867MPD2    C112721   2.907   3.191  16.535 -0.1407 -0.2698  0.7269
  867MPD2    C212722   2.866   3.206  16.669  0.0950  0.9484 -0.2391
  867MPD2    C312723   2.801   3.325  16.703  0.7400 -0.7199  0.3687
  867MPD2    C412724   2.789   3.424  16.615  0.0170 -0.6754 -0.2287
  867MPD2    C512725   2.835   3.411  16.485  0.4684  0.5429 -0.6681
  867MPD2     H12726   2.867   3.125  16.741  3.1285  0.1874 -1.1329
  867MPD2    H112727   2.728   3.513  16.631 -0.8615 -1.2447 -0.4165
  867MPD2    H212728   2.911   3.280  16.343 -1.1864 -1.5276 -0.1042
  867MPD2    H312729   2.824   3.489  16.410 -0.2807  0.0960 -1.0272
  867MPD2     N12730   2.764   3.351  16.841  0.0713 -0.6716  0.1867
  867MPD2    H512731   2.734   3.444  16.867  2.3817 -0.3901  1.8868
  867MPD2    N112732   2.975   3.082  16.492 -0.1591 -0.4164  0.4864
  867MPD2    H712733   3.005   3.076  16.395  1.5414 -0.6889  1.0268
  868MPD2     C12734   0.023   2.452  13.165  0.3517  0.0694  0.8192
  868MPD2    C112735   0.088   2.572  13.178 -0.0396  0.6897 -0.7020
  868MPD2    C212736   0.027   2.669  13.253 -0.2994 -0.1861 -0.1339
  868MPD2    C312737   4.631   2.650  13.316  0.0914  0.2514  0.1168
  868MPD2    C412738   4.561   2.532  13.299 -0.7451 -0.2110  0.7308
  868MPD2    C512739   4.623   2.434  13.234 -0.0704 -0.0244 -0.1517
  868MPD2     H12740   0.074   2.767  13.254 -0.9444  0.1140  1.6644
  868MPD2    H112741   4.472   2.513  13.357 -0.5177 -2.1297  0.4311
  868MPD2    H212742   0.063   2.363  13.118  1.9168  0.4050  1.5197
  868MPD2    H312743   4.575   2.336  13.228 -0.7911  0.4524 -2.2318
  868MPD2     N12744   4.604   2.746  13.414 -0.4776 -0.3542  0.1992
  868MPD2    H512745   4.655   2.834  13.404 -0.0309 -0.6668 -0.2763
  868MPD2    N112746   0.220   2.579  13.127  0.6983 -0.1029  0.3837
  868MPD2    H712747   0.256   2.490  13.094 -0.2757 -0.9768  1.6287
  869MPD2     C12748   1.521   0.300   2.121  0.4184  0.6030 -0.0224
  869MPD2    C112749   1.444   0.236   2.021  0.2954 -0.2098 -0.6353
  869MPD2    C212750   1.450   0.292   1.895 -0.4330  0.3223  0.2185
  869MPD2    C312751   1.531   0.400   1.861  0.4429  0.1933  0.1214
  869MPD2    C412752   1.620   0.445   1.961  0.1293  0.6040 -0.1737
  869MPD2    C512753   1.604   0.404   2.090  0.2746 -0.1485 -0.1908
  869MPD2     H12754   1.398   0.240   1.815 -0.0166 -0.5083  0.4896
  869MPD2    H112755   1.685   0.530   1.942 -0.8944  1.5792  0.6781
  869MPD2    H212756   1.499   0.284   2.226  1.1071 -1.2748 -0.1721
  869MPD2    H312757   1.666   0.444   2.169 -0.2556  2.1755 -0.9503
  869MPD2     N12758   1.519   0.470   1.738  0.1706  0.1587 -0.3978
  869MPD2    H512759   1.558   0.564   1.743  0.8502 -0.1968  0.9452
  869MPD2    N112760   1.349   0.138   2.061  0.3473 -0.0424 -0.0689
  869MPD2    H712761   1.349   0.113   2.159  0.7333  2.9897  0.6891
  870MPD2     C12762   0.860   4.067   1.426 -0.2675 -1.4372 -0.2163
  870MPD2    C112763   0.744   4.006   1.461 -0.3920  0.0211 -0.1026
  870MPD2    C212764   0.668   3.950   1.359  0.4217 -0.3600 -0.4362
  870MPD2    C312765   0.714   3.955   1.227 -0.2116 -0.6143 -0.0621
  870MPD2    C412766   0.833   4.019   1.194 -0.1691 -1.2179 -0.1740
  870MPD2    C512767   0.904   4.077   1.298 -0.1900  0.5034  0.0931
  870MPD2     H12768   0.571   3.908   1.382  0.9547 -0.3061  1.8826
  870MPD2    H112769   0.864   4.032   1.091 -0.3037  0.0349 -0.0529
  870MPD2    H212770   0.925   4.113   1.500 -0.2339  0.0541 -1.1704
  870MPD2    H312771   0.977   4.148   1.261 -1.5535  1.7062 -0.2617
  870MPD2     N12772   0.637   3.880   1.122 -0.2842  0.2924 -0.4858
  870MPD2    H512773   0.541   3.852   1.142  0.6391 -2.5014  0.0328
  870MPD2    N112774   0.722   3.991   1.600 -0.6746 -0.2104  0.3765
  870MPD2    H712775   0.796   4.028   1.660 -0.3571  2.7319 -1.8114
  871MPD2     C12776   2.788   4.002  16.550 -0.3471  0.1872  0.5024
  871MPD2    C112777   2.655   4.000  16.519  0.1697 -0.0390  0.4397
  871MPD2    C212778   2.603   3.906  16.430  0.2345  0.4691 -0.0782
  871MPD2    C312779   2.684   3.824  16.355  0.1355  0.4275  0.6173
  871MPD2    C412780   2.815   3.824  16.392  0.5031  0.5111 -0.2002
  871MPD2    C512781   2.866   3.912  16.484 -0.1376 -0.0299 -0.2755
  871MPD2     H12782   2.495   3.901  16.423  0.2098 -0.6852  1.1922
  871MPD2    H112783   2.894   3.768  16.344 -0.1846 -0.2280 -0.4505
  871MPD2    H212784   2.835   4.067  16.623 -0.3313 -1.2340  1.7378
  871MPD2    H312785   2.975   3.914  16.490 -0.1538 -2.1521  0.9070
  871MPD2     N12786   2.624   3.734  16.259 -0.1831  0.6722 -0.4875
  871MPD2    H512787   2.525   3.746  16.245 -0.4483 -2.1734 -0.9780
  871MPD2    N112788   2.570   4.103  16.571  0.2997 -0.4331  0.2832
  871MPD2    H712789   2.610   4.163  16.642  1.2894 -0.9875  0.1902
  872MPD2     C12790   3.100   1.651  13.840 -0.2134  0.6260  0.0766
  872MPD2    C112791   3.065   1.776  13.888  0.3840 -0.7825 -0.0665
  872MPD2    C212792   2.939   1.785  13.947 -0.5105 -0.0070 -0.0668
  872MPD2    C312793   2.855   1.677  13.972 -0.8615 -0.0928  0.5809
  872MPD2    C412794   2.899   1.555  13.933  0.2020 -0.3027  0.4150
  872MPD2    C512795   3.013   1.548  13.859  0.4244  0.0391  0.1737
  872MPD2     H12796   2.902   1.881  13.983 -0.0518 -0.2249  0.9762
  872MPD2    H112797   2.850   1.459  13.943 -0.4205 -0.0134  0.1292
  872MPD2    H212798   3.190   1.627  13.785 -0.3502  1.0282 -0.3272
  872MPD2    H312799   3.047   1.449  13.830 -0.1784 -0.0623 -0.1918
  872MPD2     N12800   2.729   1.702  14.041  0.2613  0.4235 -0.0304
  872MPD2    H512801   2.695   1.797  14.050 -1.7021 -0.1871 -0.9395
  872MPD2    N112802   3.141   1.895  13.867 -0.4835  0.2097  0.2981
  872MPD2    H712803   3.109   1.978  13.918  0.6221 -0.1965  1.6569
  873MPD2     C12804   0.671   1.097   1.058  0.3189  0.7719  0.3586
  873MPD2    C112805   0.536   1.076   1.054 -0.1913  0.5442 -0.1704
  873MPD2    C212806   0.485   0.944   1.077 -0.0158  0.2011 -0.3001
  873MPD2    C312807   0.579   0.841   1.092  0.1654 -0.7073  0.3238
  873MPD2    C412808   0.714   0.862   1.079  0.1055 -0.0528 -0.4166
  873MPD2    C512809   0.762   0.991   1.072 -0.0914 -0.3151  0.0320
  873MPD2     H12810   0.378   0.927   1.083  0.1665 -0.5159  0.7470
  873MPD2    H112811   0.781   0.780   1.102  0.4685  0.4273  0.2355
  873MPD2    H212812   0.714   1.196   1.062  2.0050  0.0498 -0.1187
  873MPD2    H312813   0.868   1.006   1.086 -0.2899  0.9211  0.1985
  873MPD2     N12814   0.534   0.706   1.102  0.4067 -0.0975 -0.0997
  873MPD2    H512815   0.605   0.634   1.097  0.6575  0.0358  1.6115
  873MPD2    N112816   0.446   1.190   1.060  0.2628  0.6031  0.2417
  873MPD2    H712817   0.492   1.279   1.042 -0.3728  0.8722 -0.0389
  874MPD2     C12818   3.847   0.699  16.262 -0.4161 -0.5433  0.0246
  874MPD2    C112819   3.912   0.619  16.359  0.8769 -0.2532 -0.1074
  874MPD2    C212820   4.049   0.619  16.357 -0.5767  0.9133 -0.1584
  874MPD2    C312821   4.117   0.711  16.272 -0.8686 -0.0116  0.5159
  874MPD2    C412822   4.050   0.770  16.169  0.1452 -0.6566 -0.8006
  874MPD2    C512823   3.912   0.757  16.158 -0.2977 -0.2241 -0.6812
  874MPD2     H12824   4.105   0.552  16.421  0.1344  1.3265 -0.3511
  874MPD2    H112825   4.101   0.830  16.094 -0.0728  2.1189  1.2858
  874MPD2    H212826   3.739   0.703  16.272 -0.3102  0.4631  0.7884
  874MPD2    H312827   3.856   0.801  16.076  0.1625  0.1708 -0.7866
  874MPD2     N12828   4.253   0.725  16.296  0.2935  0.2483 -0.3452
  874MPD2    H512829   4.286   0.663  16.370  1.0259 -0.2144 -1.0613
  874MPD2    N112830   3.837   0.527  16.433  0.9277  0.2571  0.3519
  874MPD2    H712831   3.738   0.540  16.419  0.7721 -0.4926  0.7613
  875MPD2     C12832   0.800   0.084  14.507 -0.9198 -0.2595 -0.8681
  875MPD2    C112833   0.666   0.119  14.539 -0.3856  0.3408 -0.1899
  875MPD2    C212834   0.652   0.223  14.632  0.6759  0.5309  0.2330
  875MPD2    C312835   0.761   0.292  14.684 -0.4936  0.0526 -1.1744
  875MPD2    C412836   0.891   0.255  14.652 -0.2021  0.0041 -0.0281
  875MPD2    C512837   0.904   0.144  14.568 -1.1926 -0.3192  0.3352
  875MPD2     H12838   0.551   0.246  14.664 -0.2327  0.2251 -2.4208
  875MPD2    H112839   0.978   0.303  14.695 -1.5977  0.9622  1.7553
  875MPD2    H212840   0.811   0.006  14.434 -1.6505 -0.1952 -1.0457
  875MPD2    H312841   1.000   0.119  14.526 -2.4000 -0.9598 -2.0569
  875MPD2     N12842   0.744   0.395  14.770 -0.7319 -0.0091  0.4016
  875MPD2    H512843   0.828   0.444  14.798 -0.8725 -0.6167  1.9160
  875MPD2    N112844   0.555   0.063  14.476  0.1946 -0.5919  0.5932
  875MPD2    H712845   0.468   0.110  14.501  1.1178  0.2990  2.1170
  876MPD2     C12846   4.220   1.024  15.714 -0.4020 -0.2908 -0.4076
  876MPD2    C112847   4.300   0.971  15.614  0.2174 -0.4898 -0.7960
  876MPD2    C212848   4.280   0.838  15.572  0.2930  0.8060  0.4869
  876MPD2    C312849   4.189   0.758  15.641 -0.3318  0.7842 -0.6796
  876MPD2    C412850   4.105   0.816  15.734  0.3955 -0.2816 -0.2143
  876MPD2    C512851   4.129   0.944  15.775  0.0028 -0.0093 -0.0899
  876MPD2     H12852   4.323   0.791  15.484 -0.8927 -2.7136  1.8322
  876MPD2    H112853   4.022   0.765  15.783 -0.2860  1.1569  0.1191
  876MPD2    H212854   4.237   1.121  15.759  0.3713 -1.0669  0.9782
  876MPD2    H312855   4.070   0.993  15.852  0.4175  0.4069 -0.0329
  876MPD2     N12856   4.184   0.623  15.602 -0.6543  0.1995 -0.4457
  876MPD2    H512857   4.221   0.593  15.512  1.0340 -0.6267  0.5058
  876MPD2    N112858   4.401   1.057  15.569 -0.2204  0.2135 -0.2541
  876MPD2    H712859   4.417   1.147  15.614 -1.7678 -0.6507  2.0158
  877MPD2     C12860   4.483   1.716  15.125  0.2535  0.2116  0.7773
  877MPD2    C112861   4.542   1.599  15.073 -0.0584  0.3732  0.1278
  877MPD2    C212862   4.567   1.584  14.936 -0.8496 -0.0982  0.3142
  877MPD2    C312863   4.549   1.690  14.848 -0.2934  0.4762  0.4940
  877MPD2    C412864   4.499   1.808  14.894  0.7151 -0.4492  0.2736
  877MPD2    C512865   4.471   1.816  15.031 -0.4108 -0.4549  0.2071
  877MPD2     H12866   4.595   1.489  14.891 -0.4843 -0.0373  0.4123
  877MPD2    H112867   4.473   1.889  14.826  0.4909 -1.1415 -0.4539
  877MPD2    H212868   4.472   1.736  15.231 -2.4574 -1.1844  0.7594
  877MPD2    H312869   4.421   1.908  15.060 -0.4659 -1.0919  2.0771
  877MPD2     N12870   4.569   1.690  14.711 -0.3607  0.0813  0.3789
  877MPD2    H512871   4.522   1.763  14.658  0.6290  0.1940 -0.3520
  877MPD2    N112872   4.578   1.487  15.158 -0.4451  0.0166 -0.1414
  877MPD2    H712873   4.618   1.406  15.113 -1.8966 -1.4941  1.2698
  878MPD2     C12874   4.363   1.490  13.649  0.0853  0.2033 -0.6696
  878MPD2    C112875   4.272   1.534  13.551 -0.5461  0.1702  0.0064
  878MPD2    C212876   4.136   1.542  13.576 -0.1542 -0.0809 -0.1504
  878MPD2    C312877   4.090   1.490  13.695  0.0132 -0.3446  0.2987
  878MPD2    C412878   4.178   1.455  13.795  0.3817  0.0095 -0.1746
  878MPD2    C512879   4.312   1.446  13.772  0.1612 -0.1748  0.4458
  878MPD2     H12880   4.063   1.575  13.503 -0.8662  1.4302  1.2380
  878MPD2    H112881   4.144   1.406  13.886 -1.8040  0.8887 -0.5137
  878MPD2    H212882   4.471   1.496  13.639  0.1460 -0.6720 -0.5498
  878MPD2    H312883   4.382   1.413  13.848  0.7543 -1.0952 -0.5015
  878MPD2     N12884   3.958   1.461  13.705  0.0088 -0.3975 -0.3372
  878MPD2    H512885   3.909   1.479  13.618 -0.3747 -0.9218 -0.2290
  878MPD2    N112886   4.323   1.554  13.423  0.3672 -0.2320 -0.0632
  878MPD2    H712887   4.412   1.507  13.410 -0.3243 -1.7618  0.7304
  879MPD2     C12888   4.438   2.063  16.811  0.0177  0.2721 -0.4088
  879MPD2    C112889   4.466   1.941  16.855  0.3110  1.1869  0.4398
  879MPD2    C212890   4.413   1.832  16.787 -0.1852  0.1610 -0.8529
  879MPD2    C312891   4.344   1.850  16.662 -0.1093 -0.2847 -0.7375
  879MPD2    C412892   4.330   1.977  16.611  0.8982 -1.1764 -0.0726
  879MPD2    C512893   4.366   2.081  16.689  0.2004 -0.0083 -0.1279
  879MPD2     H12894   4.429   1.729  16.817  0.7805 -0.0326 -2.0037
  879MPD2    H112895   4.296   1.992  16.509 -1.1160 -0.5820  0.6786
  879MPD2    H212896   4.456   2.150  16.873 -1.6335  0.7502 -0.5934
  879MPD2    H312897   4.346   2.179  16.646  1.6960  0.0969 -0.5748
  879MPD2     N12898   4.287   1.742  16.582 -0.0407  0.3008  0.7968
  879MPD2    H512899   4.246   1.778  16.496  2.2258  2.0658  0.4554
  879MPD2    N112900   4.541   1.937  16.972  0.2363  0.0524  0.7173
  879MPD2    H712901   4.577   2.026  17.003 -0.5335  0.6036  0.0398
  880MPD2     C12902   1.065   3.273   0.300 -1.0481 -0.4697 -0.1396
  880MPD2    C112903   1.127   3.340   0.193 -0.1172  0.2759  0.6437
  880MPD2    C212904   1.254   3.308   0.166 -0.3174 -0.7449 -0.8368
  880MPD2    C312905   1.325   3.221   0.243  0.0229  0.3700 -0.2008
  880MPD2    C412906   1.266   3.162   0.353  0.1235 -0.5320 -0.3550
  880MPD2    C512907   1.139   3.193   0.380 -0.0261 -0.8001  0.7581
  880MPD2     H12908   1.305   3.357   0.084  1.4952  1.8691  1.8313
  880MPD2    H112909   1.324   3.095   0.416 -0.3337  2.2771  3.0507
  880MPD2    H212910   0.963   3.291   0.334  0.3738  1.0453  3.2952
  880MPD2    H312911   1.085   3.138   0.457  0.2519  1.2189  2.3939
  880MPD2     N12912   1.459   3.199   0.202  0.5268  0.3704  0.3145
  880MPD2    H512913   1.512   3.247   0.130  1.1680 -0.9039 -0.0742
  880MPD2    N112914   1.056   3.435   0.123  0.0980  0.0379  0.0989
  880MPD2    H712915   0.962   3.448   0.159  0.0417  1.7036 -0.6208
  881MPD2     C12916   0.997   4.443  17.420 -0.4552 -0.4338  0.0674
  881MPD2    C112917   1.095   4.352  17.381 -0.7049 -0.2397  0.8727
  881MPD2    C212918   1.098   4.227  17.439  0.4783  0.5662 -0.1681
  881MPD2    C312919   1.006   4.193  17.533  0.4617  0.0650 -0.8270
  881MPD2    C412920   0.925   4.283  17.583 -0.2629 -0.5506 -0.3966
  881MPD2    C512921   0.914   4.407  17.530 -0.1027 -0.4723 -0.1544
  881MPD2     H12922   1.170   4.153  17.407 -0.8936 -0.6619 -0.3834
  881MPD2    H112923   0.859   4.258  17.665 -1.2409 -0.9009 -1.2956
  881MPD2    H212924   0.995   4.548  17.395 -2.5924 -0.4206  0.2305
  881MPD2    H312925   0.851   4.478  17.581 -0.0561  1.0320 -2.2050
  881MPD2     N12926   0.985   4.059  17.581  0.6067 -0.5215  0.1380
  881MPD2    H512927   0.909   4.042  17.646  0.2744  2.6434  0.5868
  881MPD2    N112928   1.177   4.383  17.272  0.1020 -0.2357  0.2149
  881MPD2    H712929   1.245   4.312  17.245 -1.0814 -1.1630 -0.3479
  882MPD2     C12930   4.403   1.807  13.870 -0.0123  0.2487  0.2632
  882MPD2    C112931   4.342   1.797  13.994 -0.5977 -0.8102 -0.4802
  882MPD2    C212932   4.210   1.830  14.011  0.0415 -0.6316  0.1104
  882MPD2    C312933   4.131   1.846  13.901  0.1135 -0.2032  0.5072
  882MPD2    C412934   4.193   1.840  13.776  0.0122  0.0715 -0.2659
  882MPD2    C512935   4.324   1.835  13.760 -0.6744 -0.3170 -0.0760
  882MPD2     H12936   4.162   1.821  14.107  2.2960 -1.1726  1.1722
  882MPD2    H112937   4.136   1.844  13.684 -1.2773 -0.1514  0.5236
  882MPD2    H212938   4.504   1.771  13.854  0.8803  1.7773  2.3775
  882MPD2    H312939   4.370   1.817  13.664  1.7139  2.5938  0.5261
  882MPD2     N12940   3.988   1.856  13.903  0.6927  0.4317 -0.1599
  882MPD2    H512941   3.943   1.863  13.812 -0.5623 -0.5822  0.3993
  882MPD2    N112942   4.431   1.756  14.102 -0.3012 -0.7008  0.4507
  882MPD2    H712943   4.526   1.731  14.076 -0.3925 -0.6188  0.0283
  883MPD2     C12944   1.328   2.266  16.179 -0.5621  0.2529  0.4253
  883MPD2    C112945   1.388   2.161  16.114 -0.2754  0.0070  0.2728
  883MPD2    C212946   1.503   2.098  16.170  0.8271  0.4893  0.6632
  883MPD2    C312947   1.535   2.138  16.298 -0.6384  0.3480  0.3111
  883MPD2    C412948   1.471   2.244  16.359  0.0398 -0.5341 -0.4114
  883MPD2    C512949   1.369   2.313  16.298 -0.6868 -0.3257 -0.4478
  883MPD2     H12950   1.546   2.017  16.111  0.3489  1.5813 -1.1806
  883MPD2    H112951   1.505   2.274  16.457 -2.4826 -1.0677  0.6229
  883MPD2    H212952   1.251   2.330  16.135  0.9710  1.8551  0.0653
  883MPD2    H312953   1.316   2.390  16.354 -2.2603 -0.5928 -1.5904
  883MPD2     N12954   1.644   2.070  16.361  0.2352  0.0900  0.7307
  883MPD2    H512955   1.698   2.011  16.298 -1.5152 -0.8756  0.1366
  883MPD2    N112956   1.354   2.124  15.977 -0.0397  0.2185 -0.0872
  883MPD2    H712957   1.403   2.045  15.936 -0.5492 -0.9395  1.5646
  884MPD2     C12958   3.216   1.945  15.095 -0.2895  0.3425  0.1248
  884MPD2    C112959   3.250   2.083  15.093 -0.2143 -0.2770 -0.3810
  884MPD2    C212960   3.183   2.179  15.167 -0.0908 -0.5454  0.4493
  884MPD2    C312961   3.091   2.127  15.254 -0.0266  0.5897  0.2787
  884MPD2    C412962   3.055   1.994  15.250 -0.4417 -0.6388 -0.0876
  884MPD2    C512963   3.117   1.898  15.176  0.3957  0.7691 -0.1136
  884MPD2     H12964   3.189   2.286  15.152 -0.3216 -0.5924  0.0177
  884MPD2    H112965   2.982   1.951  15.318 -2.0016 -1.5426 -2.3457
  884MPD2    H212966   3.269   1.869  15.038 -0.8715 -0.7588  1.0436
  884MPD2    H312967   3.097   1.791  15.179  2.2377  0.4160 -0.7223
  884MPD2     N12968   2.999   2.203  15.326 -0.0251  0.2077 -0.6193
  884MPD2    H512969   2.922   2.154  15.371 -0.9870  1.1487 -1.2157
  884MPD2    N112970   3.356   2.130  15.015 -0.4806  0.4434  0.3956
  884MPD2    H712971   3.368   2.230  14.999 -0.0438  0.0894 -1.4893
  885MPD2     C12972   1.488   2.446   0.022  0.0391 -0.9163 -0.5260
  885MPD2    C112973   1.611   2.427  17.654  0.2449  0.0873 -0.4266
  885MPD2    C212974   1.646   2.505  17.546 -0.1908 -0.1414 -0.1202
  885MPD2    C312975   1.555   2.600  17.497  0.6072 -0.3550 -0.3160
  885MPD2    C412976   1.431   2.605  17.556  0.1335 -0.0921  0.1355
  885MPD2    C512977   1.395   2.527  17.661  0.2623 -0.0686 -0.4485
  885MPD2     H12978   1.743   2.489  17.500 -1.2289 -1.0094 -2.0037
  885MPD2    H112979   1.364   2.681  17.520  0.7641  0.5090  0.2239
  885MPD2    H212980   1.453   2.382   0.102 -2.1767 -1.6508 -2.1110
  885MPD2    H312981   1.302   2.533   0.027  0.2292 -0.2466 -0.4845
  885MPD2     N12982   1.601   2.681  17.393 -0.0774 -0.1147  0.4602
  885MPD2    H512983   1.697   2.695  17.365  0.0980 -0.2800  0.9618
  885MPD2    N112984   1.690   2.327   0.030  0.2858  0.2155 -0.2645
  885MPD2    H712985   1.660   2.275   0.112 -1.0935  2.3039  0.5603
  886MPD2     C12986   2.534   0.832  14.935  0.0361 -0.8170 -0.1638
  886MPD2    C112987   2.638   0.850  15.019 -0.2636 -0.2688  0.2392
  886MPD2    C212988   2.705   0.968  15.011 -0.0028  0.3162 -0.6223
  886MPD2    C312989   2.676   1.061  14.916 -0.2502  0.1664 -0.5496
  886MPD2    C412990   2.568   1.045  14.834  0.4208 -0.2695 -0.1582
  886MPD2    C512991   2.503   0.929  14.842  0.5568  0.4962 -0.5731
  886MPD2     H12992   2.777   0.991  15.088  0.7477 -0.4834 -1.0862
  886MPD2    H112993   2.544   1.098  14.742 -0.6145 -1.2960 -0.4791
  886MPD2    H212994   2.485   0.737  14.916 -2.0482  0.2171 -0.0104
  886MPD2    H312995   2.433   0.912  14.760 -1.4162 -0.1879  1.2430
  886MPD2     N12996   2.763   1.177  14.894 -0.3007  0.8750 -0.3966
  886MPD2    H512997   2.724   1.246  14.830 -3.1907  0.3113  0.7791
  886MPD2    N112998   2.675   0.757  15.117 -0.3664 -0.4727 -0.7898
  886MPD2    H712999   2.612   0.679  15.135  0.6198 -0.8526  1.1011
  887MPD2     C13000   2.648   0.863  15.800  0.1526 -0.1203  0.1541
  887MPD2    C113001   2.764   0.787  15.789  0.9070  0.0926 -0.2049
  887MPD2    C213002   2.870   0.818  15.877  0.1289  0.5358  0.1278
  887MPD2    C313003   2.865   0.920  15.969 -0.0679 -0.0637 -0.2149
  887MPD2    C413004   2.737   0.986  15.982  0.1217 -0.5316 -0.1903
  887MPD2    C513005   2.632   0.956  15.899  0.3572 -0.5240 -0.2741
  887MPD2     H13006   2.963   0.762  15.872  1.3131  2.4139  0.9658
  887MPD2    H113007   2.709   1.059  16.058  1.0447 -0.4770  0.1010
  887MPD2    H213008   2.561   0.825  15.748 -0.1806  3.4276 -1.8523
  887MPD2    H313009   2.534   1.000  15.915 -0.0392 -1.0967 -1.1235
  887MPD2     N13010   2.977   0.954  16.051 -0.0081 -0.7077 -0.1943
  887MPD2    H513011   3.063   0.912  16.018  1.3724  1.2783  0.9160
  887MPD2    N113012   2.776   0.681  15.699 -0.1161  0.4617 -0.6979
  887MPD2    H713013   2.868   0.639  15.700 -1.3549 -2.2535 -1.0862
  888MPD2     C13014   0.860   1.714  14.971  0.2947  0.0420 -0.1384
  888MPD2    C113015   0.945   1.755  15.068 -0.3899 -0.3808 -0.4609
  888MPD2    C213016   1.026   1.861  15.031 -0.9889 -0.2850  0.6732
  888MPD2    C313017   1.045   1.906  14.903  0.0315  0.0143 -0.0149
  888MPD2    C413018   0.960   1.851  14.805  0.2783 -0.2513  0.1088
  888MPD2    C513019   0.862   1.768  14.846 -0.0035  0.0553 -0.1309
  888MPD2     H13020   1.096   1.903  15.101  0.2218 -0.7852 -0.2298
  888MPD2    H113021   0.972   1.879  14.701  1.0859 -3.1785 -0.5812
  888MPD2    H213022   0.794   1.629  14.984  0.7167 -0.1976  0.4399
  888MPD2    H313023   0.790   1.736  14.771 -1.9158  0.2895  1.6205
  888MPD2     N13024   1.136   2.009  14.870 -0.3134  0.0427 -0.5946
  888MPD2    H513025   1.180   2.057  14.948  0.3398 -0.4775 -0.6365
  888MPD2    N113026   0.953   1.700  15.198  0.4552  0.5559 -0.4949
  888MPD2    H713027   1.027   1.734  15.259 -1.1018 -0.6885  2.1072
  889MPD2     C13028   4.715   0.928  13.215 -0.4983  0.0013  0.1923
  889MPD2    C113029   0.122   0.969  13.216 -0.4756  0.3788  0.0479
  889MPD2    C213030   0.142   1.098  13.270  0.0928  0.3685  0.8651
  889MPD2    C313031   0.038   1.179  13.318 -0.1322  0.1655  0.3643
  889MPD2    C413032   4.630   1.136  13.304 -0.2380 -0.7518 -0.8992
  889MPD2    C513033   4.612   1.007  13.257 -0.3898  0.7720  0.1383
  889MPD2     H13034   0.232   1.146  13.233 -1.1794 -0.4208 -3.2418
  889MPD2    H113035   4.537   1.181  13.335  0.5990  0.9363 -0.8148
  889MPD2    H213036   4.687   0.838  13.162  3.1762 -1.7333  1.1777
  889MPD2    H313037   4.513   0.969  13.237  0.1507 -0.2554 -0.5924
  889MPD2     N13038   0.070   1.305  13.362 -0.0799 -0.3041 -0.7328
  889MPD2    H513039   0.168   1.325  13.382 -0.1944 -2.0622  1.6289
  889MPD2    N113040   0.198   0.915  13.115  0.6091  0.3704 -0.2556
  889MPD2    H713041   0.160   0.834  13.067  0.0616 -0.2261  1.1493
  890MPD2     C13042   4.096   1.918  15.031  0.0140 -0.2317 -0.1432
  890MPD2    C113043   4.154   1.965  15.151  0.2806  0.0490  0.6460
  890MPD2    C213044   4.159   1.874  15.261 -0.1630  0.4371 -0.1872
  890MPD2    C313045   4.117   1.739  15.239 -0.2111  0.6071 -0.4364
  890MPD2    C413046   4.087   1.692  15.115 -0.7712 -0.0573  0.3754
  890MPD2    C513047   4.086   1.783  15.016  0.1762  0.9258  0.2239
  890MPD2     H13048   4.189   1.910  15.359  0.4939 -0.5147 -0.0346
  890MPD2    H113049   4.064   1.588  15.093  0.3842 -0.0192 -1.0054
  890MPD2    H213050   4.094   1.989  14.949 -0.8794  0.0893  0.1657
  890MPD2    H313051   4.040   1.754  14.923 -0.1357  1.4233  0.2223
  890MPD2     N13052   4.118   1.651  15.350  0.2881 -0.0056  0.5869
  890MPD2    H513053   4.137   1.696  15.439  0.3593  1.7298 -0.3175
  890MPD2    N113054   4.183   2.100  15.154 -0.1638  0.0945  0.5594
  890MPD2    H713055   4.156   2.153  15.073 -1.9792  0.9520  1.7205
  891MPD2     C13056   2.387   0.785  16.549 -0.6130  0.2772  0.3716
  891MPD2    C113057   2.369   0.855  16.667  0.3559 -0.4028  0.1568
  891MPD2    C213058   2.445   0.809  16.772 -0.2045  0.4684  0.8427
  891MPD2    C313059   2.536   0.702  16.756  0.0710  0.5713 -0.5726
  891MPD2    C413060   2.549   0.634  16.632 -0.2381  0.7042 -0.5799
  891MPD2    C513061   2.465   0.670  16.533  0.4948  0.9545 -0.2555
  891MPD2     H13062   2.437   0.862  16.867 -2.7248 -1.4729  1.7283
  891MPD2    H113063   2.622   0.561  16.601 -0.1394 -0.0335  1.4341
  891MPD2    H213064   2.320   0.808  16.466 -1.4978 -1.3191  0.6362
  891MPD2    H313065   2.457   0.612  16.441  2.3954 -1.1748  0.9409
  891MPD2     N13066   2.635   0.677  16.853 -0.0740  0.3372 -0.0485
  891MPD2    H513067   2.620   0.715  16.946  0.9395  1.3422 -0.2876
  891MPD2    N113068   2.278   0.963  16.669  0.1899  0.3821 -0.2140
  891MPD2    H713069   2.239   1.001  16.584  0.1392 -0.4131 -0.5442
  892MPD2     C13070   3.379   1.699  14.693  0.3956  0.0942  0.8277
  892MPD2    C113071   3.311   1.788  14.608 -0.4098  0.2801 -0.0950
  892MPD2    C213072   3.376   1.837  14.502  0.4201  0.0299  0.0773
  892MPD2    C313073   3.503   1.798  14.462  0.0122  0.3037  0.5542
  892MPD2    C413074   3.571   1.716  14.547 -0.3375 -0.1617 -0.3470
  892MPD2    C513075   3.513   1.667  14.661 -0.3111  0.0823 -0.6233
  892MPD2     H13076   3.315   1.900  14.439  0.7411 -1.5756 -1.8209
  892MPD2    H113077   3.673   1.693  14.516 -0.6885 -0.8449 -1.0039
  892MPD2    H213078   3.334   1.648  14.777 -1.5493  0.8781  0.2432
  892MPD2    H313079   3.573   1.606  14.727  0.3485 -1.7561 -2.8903
  892MPD2     N13080   3.559   1.815  14.334  0.6744  0.4494  0.2016
  892MPD2    H513081   3.652   1.776  14.327 -0.4450 -1.6585 -3.0511
  892MPD2    N113082   3.192   1.848  14.641  0.2570 -0.2339 -0.3279
  892MPD2    H713083   3.158   1.923  14.582  0.9900  0.1203 -0.3070
  893MPD2     C13084   0.363   4.030   0.778 -0.2664  0.3328 -0.4954
  893MPD2    C113085   0.339   4.060   0.908  0.8077  0.1009  0.3587
  893MPD2    C213086   0.235   4.003   0.974 -0.7541 -0.4606 -0.2319
  893MPD2    C313087   0.154   3.915   0.913 -0.3340 -0.3364 -0.0936
  893MPD2    C413088   0.183   3.884   0.782 -1.0757 -0.0294 -0.7278
  893MPD2    C513089   0.291   3.943   0.720  0.0777  0.7763 -0.2833
  893MPD2     H13090   0.219   4.041   1.074  1.1894  0.9934 -0.4717
  893MPD2    H113091   0.125   3.818   0.718 -1.3190 -1.2936  0.7832
  893MPD2    H213092   0.438   4.083   0.719  0.4906  0.7836  0.8679
  893MPD2    H313093   0.324   3.922   0.618  0.2709 -2.2414  0.4008
  893MPD2     N13094   0.039   3.870   0.970 -0.2990 -0.0446 -0.3946
  893MPD2    H513095   4.704   3.811   0.909 -2.0330  1.9689 -0.7628
  893MPD2    N113096   0.433   4.150   0.965 -0.1935 -0.2138  0.3960
  893MPD2    H713097   0.493   4.195   0.896 -0.3140  0.7499  0.9116
  894MPD2     C13098   3.206   2.218   0.470  0.7152 -0.1552  0.1060
  894MPD2    C113099   3.240   2.247   0.599  0.2155 -1.0919  0.2472
  894MPD2    C213100   3.302   2.366   0.631  0.1976  0.2789 -0.0974
  894MPD2    C313101   3.334   2.457   0.531  0.1782  0.1723  0.2986
  894MPD2    C413102   3.305   2.426   0.402 -0.3809 -0.3864  0.0913
  894MPD2    C513103   3.246   2.301   0.371 -0.8338 -0.2382 -0.3364
  894MPD2     H13104   3.314   2.388   0.737  2.6302  0.7911 -0.4808
  894MPD2    H113105   3.346   2.479   0.317  0.1465 -2.3670 -0.8919
  894MPD2    H213106   3.161   2.123   0.443  0.4399 -0.2795  0.9895
  894MPD2    H313107   3.238   2.278   0.265  2.2099 -3.2813  0.0919
  894MPD2     N13108   3.398   2.573   0.568 -0.5040  0.0473 -0.8234
  894MPD2    H513109   3.426   2.577   0.665 -1.5939  0.1024 -0.5120
  894MPD2    N113110   3.216   2.153   0.705 -0.0377 -0.6297  0.0382
  894MPD2    H713111   3.262   2.176   0.792 -0.7919  1.6960 -0.1843
  895MPD2     C13112   3.072   0.742  13.897 -0.6506 -0.2670  0.3641
  895MPD2    C113113   3.015   0.718  13.771 -0.3811 -0.5021  0.8027
  895MPD2    C213114   3.023   0.597  13.706  0.1802 -0.0391 -0.0675
  895MPD2    C313115   3.114   0.507  13.760 -0.8646  0.9546  0.3690
  895MPD2    C413116   3.174   0.524  13.881  0.5564 -0.2187  0.0090
  895MPD2    C513117   3.152   0.644  13.952 -0.2068 -0.6955  0.0498
  895MPD2     H13118   2.982   0.588  13.607  0.6963  0.5737 -0.3369
  895MPD2    H113119   3.242   0.449  13.919 -1.3767 -0.2429  3.3844
  895MPD2    H213120   3.054   0.834  13.950  0.1429 -0.5999  1.2096
  895MPD2    H313121   3.205   0.651  14.046 -0.5346  0.5260  0.1482
  895MPD2     N13122   3.123   0.373  13.709 -0.3673  0.0629  0.5069
  895MPD2    H513123   3.183   0.307  13.757  1.4202  0.3002 -1.4231
  895MPD2    N113124   2.943   0.818  13.697  0.4979 -0.2980  0.4411
  895MPD2    H713125   2.908   0.795  13.605  0.3464  0.3468  0.3425
  896MPD2     C13126   4.107   3.285   2.001 -0.1897  0.2123  0.1089
  896MPD2    C113127   4.152   3.182   1.917 -0.5647 -0.0464  0.8920
  896MPD2    C213128   4.051   3.107   1.849 -0.3606 -0.7409  0.2553
  896MPD2    C313129   3.918   3.135   1.865  0.2014 -0.0888 -1.0329
  896MPD2    C413130   3.878   3.238   1.944 -0.0492  0.0535  0.5252
  896MPD2    C513131   3.971   3.307   2.012  0.7927 -0.7212 -0.2489
  896MPD2     H13132   4.074   3.032   1.775 -0.8485 -0.8014  0.1674
  896MPD2    H113133   3.776   3.270   1.962 -0.7643 -2.1859  0.4407
  896MPD2    H213134   4.173   3.350   2.058  0.3877 -2.4303  2.4216
  896MPD2    H313135   3.934   3.380   2.082 -1.9340 -2.1699 -0.1787
  896MPD2     N13136   3.833   3.061   1.782  0.1897  0.5301 -0.5054
  896MPD2    H513137   3.884   2.988   1.733  2.4935  1.3906  0.6073
  896MPD2    N113138   4.292   3.181   1.891 -0.2859  0.1796  0.4446
  896MPD2    H713139   4.339   3.258   1.939  0.1293  0.6154 -0.6494
  897MPD2     C13140   1.530   1.462  10.508  0.4942  0.1884 -0.9891
  897MPD2    C113141   1.433   1.382  10.439  0.3912 -0.6382  0.0072
  897MPD2    C213142   1.375   1.270  10.502  0.3568 -0.0719 -0.0978
  897MPD2    C313143   1.395   1.250  10.641  0.0308  0.3092  0.4369
  897MPD2    C413144   1.489   1.326  10.705  0.4533  0.3562  0.0933
  897MPD2    C513145   1.562   1.426  10.639  1.0488  0.5110 -0.2337
  897MPD2     H13146   1.288   1.220  10.462 -0.9369  1.3258  0.9709
  897MPD2    H113147   1.518   1.298  10.806  3.5637  2.4918 -0.1965
  897MPD2    H213148   1.583   1.539  10.454  1.1915  1.0804  0.9983
  897MPD2    H313149   1.647   1.469  10.691  0.6096  0.1184  0.7895
  897MPD2     N13150   1.298   1.175  10.708 -0.5520 -0.0687 -0.6834
  897MPD2    H513151   1.211   1.152  10.660 -2.0207  1.4804  1.2149
  897MPD2    N113152   1.401   1.430  10.313  0.0773  0.2223 -0.0205
  897MPD2    H713153   1.455   1.511  10.282  0.2640 -0.3918 -1.2800
  898MPD2     C13154   3.543   0.727   0.265 -0.3484 -0.2620  0.1748
  898MPD2    C113155   3.563   0.861   0.250  0.0158  0.7432  0.7457
  898MPD2    C213156   3.518   0.924   0.129  0.2144  0.1295  0.7307
  898MPD2    C313157   3.439   0.854   0.041  0.3487 -1.0367  0.1790
  898MPD2    C413158   3.393   0.729   0.071  0.0680 -0.9332 -0.2731
  898MPD2    C513159   3.451   0.669   0.182  0.0577  0.0568  0.1631
  898MPD2     H13160   3.551   1.026   0.115 -0.4835  0.2013 -0.3933
  898MPD2    H113161   3.320   0.673   0.014 -0.3817 -0.9878  0.3580
  898MPD2    H213162   3.587   0.667   0.343 -1.6332  1.6123  2.3408
  898MPD2    H313163   3.414   0.571   0.210  2.3489 -1.2602 -1.3768
  898MPD2     N13164   3.376   0.936  17.625 -0.1420  0.3778  0.5137
  898MPD2    H513165   3.400   1.034  17.615  0.8027 -0.0361 -1.2510
  898MPD2    N113166   3.652   0.930   0.337  0.6772 -0.7910  0.1620
  898MPD2    H713167   3.694   1.016   0.302 -1.1440  0.5539  1.2719
  899MPD2     C13168   4.201   1.304  17.017 -0.4271  0.4579  0.1661
  899MPD2    C113169   4.197   1.410  17.112 -0.3549  0.6095 -0.7285
  899MPD2    C213170   4.173   1.384  17.247  0.2527  0.0021  0.4070
  899MPD2    C313171   4.164   1.250  17.288 -0.3357 -0.2895 -0.0059
  899MPD2    C413172   4.169   1.147  17.194 -0.4375  0.3449  0.5511
  899MPD2    C513173   4.191   1.176  17.065 -0.0504 -0.2498 -0.7062
  899MPD2     H13174   4.146   1.460  17.319 -3.0143 -0.0545 -0.7893
  899MPD2    H113175   4.153   1.042  17.214  0.4441  0.2658  0.8351
  899MPD2    H213176   4.223   1.325  16.912 -1.0709 -0.6606 -0.1906
  899MPD2    H313177   4.197   1.095  16.993 -3.4975 -0.4461 -0.7705
  899MPD2     N13178   4.169   1.210  17.420 -0.1671 -0.4893 -0.0834
  899MPD2    H513179   4.219   1.123  17.436  0.1736  0.1245  2.2007
  899MPD2    N113180   4.213   1.535  17.055 -0.7339 -0.5048 -0.2176
  899MPD2    H713181   4.223   1.541  16.954  0.2405 -1.8303 -0.1939
  900MPD2     C13182   3.699   3.534  12.819 -0.3321  0.8340  0.6189
  900MPD2    C113183   3.585   3.498  12.750  0.7682  0.3736  0.0870
  900MPD2    C213184   3.488   3.594  12.718  0.3317 -0.2845 -0.1971
  900MPD2    C313185   3.507   3.729  12.760 -0.3653  0.0881 -0.6257
  900MPD2    C413186   3.616   3.763  12.836 -0.1493 -0.3404 -0.1371
  900MPD2    C513187   3.715   3.664  12.852  0.5925 -0.1605 -0.2098
  900MPD2     H13188   3.397   3.563  12.667  1.2280 -1.3244 -1.1747
  900MPD2    H113189   3.640   3.867  12.856 -0.2927 -0.4838  0.7898
  900MPD2    H213190   3.783   3.470  12.842  0.0040  0.6292 -1.1576
  900MPD2    H313191   3.807   3.714  12.878  2.2243 -3.1392 -0.3715
  900MPD2     N13192   3.405   3.826  12.734  0.2012  0.0523 -0.8939
  900MPD2    H513193   3.316   3.796  12.695  0.0688 -0.8079  0.0409
  900MPD2    N113194   3.579   3.366  12.698  0.5673 -0.5450  0.1505
  900MPD2    H713195   3.662   3.311  12.715  1.3398 -0.1682 -2.3903
  901MPD2     C13196   3.325   2.339  12.451  0.8368  0.2203  0.0196
  901MPD2    C113197   3.456   2.352  12.486 -0.0445 -0.2571 -0.5116
  901MPD2    C213198   3.508   2.481  12.492 -0.6469 -0.0405  0.0575
  901MPD2    C313199   3.436   2.597  12.477  0.5455  0.6752  0.8840
  901MPD2    C413200   3.300   2.576  12.456 -0.1527 -0.0361  0.3819
  901MPD2    C513201   3.244   2.456  12.439 -0.3989 -1.2922 -0.2628
  901MPD2     H13202   3.613   2.483  12.519 -0.7499 -0.0657  0.4719
  901MPD2    H113203   3.229   2.659  12.458 -0.9786 -0.7828  2.0517
  901MPD2    H213204   3.284   2.239  12.436 -1.6886  1.6694 -2.6669
  901MPD2    H313205   3.141   2.431  12.418 -0.6448  0.6644 -1.3639
  901MPD2     N13206   3.496   2.728  12.482 -0.0562  0.4336  0.3253
  901MPD2    H513207   3.595   2.731  12.502  0.1034  2.9747 -0.8784
  901MPD2    N113208   3.531   2.233  12.501  0.3981  0.0480  0.3659
  901MPD2    H713209   3.481   2.152  12.465 -0.7021  1.5379 -1.4648
  902MPD2     C13210   2.973   1.558  13.498 -0.3319  0.1829  0.6824
  902MPD2    C113211   2.889   1.584  13.397 -0.0591  0.4501 -0.7380
  902MPD2    C213212   2.856   1.477  13.314 -0.2953  0.0347  0.0380
  902MPD2    C313213   2.910   1.341  13.339  0.2414 -0.3509  0.0578
  902MPD2    C413214   2.992   1.324  13.449 -0.3910 -0.1303  0.1184
  902MPD2    C513215   3.018   1.433  13.526  0.1385 -0.3752 -0.1044
  902MPD2     H13216   2.789   1.495  13.231 -0.7178  2.4620  0.9017
  902MPD2    H113217   3.022   1.225  13.482 -1.2016  1.0147  4.2982
  902MPD2    H213218   3.017   1.644  13.546  2.0288 -0.5487 -0.1545
  902MPD2    H313219   3.075   1.412  13.616 -2.3720  3.1526  2.3347
  902MPD2     N13220   2.901   1.228  13.255  0.2533 -0.5051  0.4399
  902MPD2    H513221   2.945   1.139  13.277  0.8651 -0.2482  0.2326
  902MPD2    N113222   2.858   1.717  13.371 -0.1310  0.2532  0.2416
  902MPD2    H713223   2.905   1.788  13.426 -0.0264 -1.8155  2.8166
  903MPD2     C13224   2.788   0.989  12.441 -0.4206  0.2313  0.1473
  903MPD2    C113225   2.689   1.011  12.529 -0.4853 -0.2576 -0.2740
  903MPD2    C213226   2.564   1.060  12.479 -0.0150 -0.4785 -0.7034
  903MPD2    C313227   2.548   1.083  12.343 -0.1065  0.2078 -0.0688
  903MPD2    C413228   2.657   1.066  12.258  0.1676 -0.6988  0.0225
  903MPD2    C513229   2.775   1.020  12.307 -0.6719 -0.2947  0.1777
  903MPD2     H13230   2.483   1.082  12.548 -0.1994  2.5273 -1.8604
  903MPD2    H113231   2.654   1.109  12.159 -1.3702 -1.5434 -0.2942
  903MPD2    H213232   2.887   0.966  12.478 -0.4131 -0.4958 -0.3258
  903MPD2    H313233   2.863   1.003  12.248 -0.0950 -0.6507  1.1470
  903MPD2     N13234   2.415   1.119  12.303  0.1239  0.3167 -0.4234
  903MPD2    H513235   2.350   1.144  12.377  1.2023  0.5840  0.4277
  903MPD2    N113236   2.707   0.980  12.666 -0.9493 -0.1606  0.7411
  903MPD2    H713237   2.798   0.945  12.696 -0.4896 -0.6500 -1.2213
  904MPD2     C13238   2.466   0.095  13.853  0.2684  0.3095 -0.2610
  904MPD2    C113239   2.564   0.191  13.820  0.5936 -0.1726  0.0856
  904MPD2    C213240   2.695   0.170  13.848  0.6019  0.0593  0.2295
  904MPD2    C313241   2.742   0.060  13.918 -0.7865 -0.3706  0.0680
  904MPD2    C413242   2.644   4.685  13.941  0.4518  0.5857  0.6721
  904MPD2    C513243   2.515   4.709  13.912 -0.2911 -0.4758  0.0927
  904MPD2     H13244   2.767   0.246  13.821 -0.7927  1.1878 -0.2732
  904MPD2    H113245   2.668   4.588  13.984 -0.7719 -0.3201 -0.6783
  904MPD2    H213246   2.361   0.108  13.831  0.8342  2.6721 -1.5907
  904MPD2    H313247   2.437   4.635  13.930 -0.3616 -0.3631  0.2515
  904MPD2     N13248   2.881   0.043  13.943 -0.4984 -0.2233  0.3970
  904MPD2    H513249   2.934   0.126  13.919  0.1759 -0.0178  2.5354
  904MPD2    N113250   2.529   0.314  13.755 -0.1494  0.0362 -0.7186
  904MPD2    H713251   2.606   0.369  13.719  0.9596 -0.6546  0.5872
  905MPD2     C13252   2.645   0.500  13.068  0.5057  0.1891 -0.5183
  905MPD2    C113253   2.676   0.521  13.197 -0.4787 -0.0735 -0.2139
  905MPD2    C213254   2.791   0.472  13.252 -0.0233 -0.0041  0.3479
  905MPD2    C313255   2.875   0.397  13.174  0.3206  0.1037  0.1873
  905MPD2    C413256   2.858   0.403  13.034  0.2353 -0.1193  0.4775
  905MPD2    C513257   2.742   0.458  12.980 -0.2329 -0.4065  0.0272
  905MPD2     H13258   2.813   0.487  13.357 -0.0205 -2.2426  0.6782
  905MPD2    H113259   2.933   0.363  12.966  0.8689 -0.2627  1.2551
  905MPD2    H213260   2.553   0.538  13.026  0.1087 -0.4077 -0.1902
  905MPD2    H313261   2.724   0.455  12.873  0.0723 -1.2759 -0.0004
  905MPD2     N13262   2.977   0.328  13.237  0.2856 -0.8478 -0.4607
  905MPD2    H513263   2.981   0.353  13.336  0.7308  2.4817 -1.2983
  905MPD2    N113264   2.574   0.578  13.276 -0.1884 -0.0759  0.6451
  905MPD2    H713265   2.480   0.569  13.238 -0.7830  0.6190  1.9774
  906MPD2     C13266   4.700   0.955  11.376 -0.4511 -0.2009 -0.3116
  906MPD2    C113267   4.709   0.859  11.285 -1.0561 -0.2743  0.4405
  906MPD2    C213268   4.700   0.721  11.317 -0.2164  0.1689  0.0510
  906MPD2    C313269   4.671   0.687  11.447  0.3828  0.6286 -0.1714
  906MPD2    C413270   4.656   0.786  11.540 -0.7768  0.1424  0.1419
  906MPD2    C513271   4.665   0.915  11.500  0.1889 -0.3255  0.5855
  906MPD2     H13272   4.718   0.649  11.238  1.8112  0.6072  0.1086
  906MPD2    H113273   4.628   0.765  11.642  1.9998  1.8377  1.2536
  906MPD2    H213274   4.693   1.060  11.350 -0.8175 -0.0670  0.2980
  906MPD2    H313275   4.638   0.995  11.567 -0.6390  0.2992 -0.4931
  906MPD2     N13276   4.632   0.552  11.478 -0.4151  0.5189  0.2819
  906MPD2    H513277   4.584   0.535  11.566 -0.7726 -2.6016 -0.5245
  906MPD2    N113278   0.015   0.881  11.149  1.1466  0.2910 -0.4853
  906MPD2    H713279   0.006   0.796  11.094 -1.2723  0.8247 -0.8983
  907MPD2     C13280   3.240   4.351  15.349  0.0522  0.1496  0.0221
  907MPD2    C113281   3.320   4.245  15.378 -0.6035  0.7066 -0.3206
  907MPD2    C213282   3.352   4.233  15.505  0.9730 -0.0548  0.4513
  907MPD2    C313283   3.321   4.331  15.599 -0.1450 -0.6088 -0.4506
  907MPD2    C413284   3.235   4.427  15.573 -0.0151  0.1297 -0.4682
  907MPD2    C513285   3.195   4.440  15.442 -0.3223 -1.2750 -0.0766
  907MPD2     H13286   3.405   4.144  15.535  2.1522 -0.0753 -1.7380
  907MPD2    H113287   3.199   4.493  15.651 -1.4421 -1.0233 -0.1609
  907MPD2    H213288   3.201   4.362  15.248 -1.9723  3.0807  1.1125
  907MPD2    H313289   3.129   4.521  15.413 -0.6378 -0.8869  1.7074
  907MPD2     N13290   3.377   4.306  15.724  0.0127  0.0671  0.7495
  907MPD2    H513291   3.444   4.230  15.727  2.3019  2.0836  0.8310
  907MPD2    N113292   3.365   4.149  15.286  0.3402  0.7670 -0.1014
  907MPD2    H713293   3.420   4.071  15.320  0.0079  1.3548  1.7640
  908MPD2     C13294   0.989   1.092   9.465 -0.2439  0.3635 -0.1531
  908MPD2    C113295   1.063   1.033   9.566 -0.1627  0.8762 -0.1630
  908MPD2    C213296   1.110   1.115   9.665  0.0912 -0.5789 -0.8339
  908MPD2    C313297   1.100   1.253   9.656 -0.2613 -0.4325 -0.0687
  908MPD2    C413298   1.015   1.308   9.556  0.7174 -0.2421  0.6193
  908MPD2    C513299   0.955   1.229   9.462 -0.6346  0.7452  0.5909
  908MPD2     H13300   1.165   1.073   9.748 -1.2333 -0.7417 -0.0365
  908MPD2    H113301   1.001   1.415   9.546  1.1984 -0.0682  1.8024
  908MPD2    H213302   0.952   1.032   9.382 -0.9511 -0.4485  0.7546
  908MPD2    H313303   0.899   1.263   9.376 -1.3629  2.3104  1.6777
  908MPD2     N13304   1.167   1.334   9.751  0.3610 -0.5521 -0.6302
  908MPD2    H513305   1.226   1.289   9.820  1.7109 -2.1565 -2.8208
  908MPD2    N113306   1.093   0.891   9.568  0.2735  0.4433  0.0748
  908MPD2    H713307   1.159   0.859   9.638  0.5775 -0.2688 -0.5325
  909MPD2     C13308   1.770   3.209  11.715  0.1814 -0.4075  0.0813
  909MPD2    C113309   1.722   3.328  11.670  0.1142  0.0498  0.4287
  909MPD2    C213310   1.597   3.368  11.711 -0.1494  0.2130 -0.7497
  909MPD2    C313311   1.519   3.304  11.806  0.3064 -0.3425  0.4371
  909MPD2    C413312   1.576   3.190  11.846  0.1225  0.4425  1.0206
  909MPD2    C513313   1.702   3.141  11.808 -0.4164 -0.2778  0.1547
  909MPD2     H13314   1.555   3.461  11.676  0.7157 -0.3524 -3.2749
  909MPD2    H113315   1.524   3.137  11.925  0.0662  0.8756  1.2730
  909MPD2    H213316   1.873   3.179  11.697 -0.2503 -1.9948  0.3414
  909MPD2    H313317   1.738   3.047  11.849  0.0654 -0.0679  0.2159
  909MPD2     N13318   1.392   3.355  11.850  0.0857 -0.0943 -0.5964
  909MPD2    H513319   1.355   3.439  11.807  1.9623 -0.3239 -2.6244
  909MPD2    N113320   1.785   3.415  11.573 -0.1628 -0.4968 -0.5296
  909MPD2    H713321   1.733   3.498  11.547 -1.5326 -0.8266  1.1218
  910MPD2     C13322   2.780   0.235  15.423 -0.2130  0.2231  0.4287
  910MPD2    C113323   2.886   0.142  15.418  0.2534  0.0880  0.2840
  910MPD2    C213324   2.963   0.134  15.307  0.0824  0.1019 -0.0070
  910MPD2    C313325   2.953   0.215  15.194 -0.0057  1.1429  0.9473
  910MPD2    C413326   2.844   0.295  15.196 -0.2846  0.5751  0.3126
  910MPD2    C513327   2.760   0.304  15.300 -0.6714  0.7062  0.0687
  910MPD2     H13328   3.041   0.059  15.295  0.9425  1.2707 -1.7452
  910MPD2    H113329   2.815   0.351  15.108 -2.9013  0.8661  1.3560
  910MPD2    H213330   2.708   0.253  15.503 -0.1369 -1.7359  0.9161
  910MPD2    H313331   2.672   0.368  15.298 -0.0221  1.5974  0.3182
  910MPD2     N13332   3.041   0.209  15.088 -0.7751  0.4773  0.5304
  910MPD2    H513333   3.009   0.254  15.003  1.0535 -2.6794 -1.8766
  910MPD2    N113334   2.903   0.046  15.513  0.1213  0.6501  0.0038
  910MPD2    H713335   2.969   4.691  15.499  0.2060  1.0538 -1.7272
  911MPD2     C13336   0.788   1.633  16.620 -0.8486 -0.1642  0.2009
  911MPD2    C113337   0.754   1.501  16.588  0.5360  0.3447 -0.5965
  911MPD2    C213338   0.618   1.473  16.567  0.5308 -0.0023  1.3159
  911MPD2    C313339   0.525   1.571  16.562  0.1140  1.1480  0.0836
  911MPD2    C413340   0.568   1.701  16.578  0.2372 -0.6840  1.5542
  911MPD2    C513341   0.690   1.727  16.627 -0.1003 -0.3993  0.7952
  911MPD2     H13342   0.584   1.371  16.552  2.6491 -0.5812  0.4586
  911MPD2    H113343   0.498   1.783  16.573  2.0532  0.7880  0.2952
  911MPD2    H213344   0.890   1.651  16.650 -0.8343 -0.9512  0.6407
  911MPD2    H313345   0.708   1.826  16.668 -2.8428 -0.0758  1.2444
  911MPD2     N13346   0.396   1.542  16.530  0.3602  0.0714  0.6034
  911MPD2    H513347   0.388   1.441  16.526 -3.4908  0.2111  5.0358
  911MPD2    N113348   0.853   1.406  16.578 -0.3048  0.1224 -0.5173
  911MPD2    H713349   0.946   1.444  16.593  0.2461 -0.1997 -3.1978
  912MPD2     C13350   0.013   0.916  16.095  0.6480 -0.1644  0.3581
  912MPD2    C113351   0.076   0.970  16.204 -1.0103 -0.1116  0.0014
  912MPD2    C213352   0.125   0.889  16.302 -0.4776  0.0313  0.6233
  912MPD2    C313353   0.105   0.752  16.300 -0.3477 -0.3075 -0.2143
  912MPD2    C413354   0.024   0.697  16.200 -0.2909  0.0859  0.1298
  912MPD2    C513355   4.714   0.776  16.094 -0.1801  0.1822  0.4338
  912MPD2     H13356   0.193   0.925  16.378 -0.4760  1.0958  0.1131
  912MPD2    H113357   0.014   0.589  16.197 -3.3046  0.2858  2.2841
  912MPD2    H213358   4.704   0.969  16.005  1.8545  0.6633  0.4459
  912MPD2    H313359   4.649   0.733  16.019  1.1965 -0.5470 -0.3367
  912MPD2     N13360   0.163   0.675  16.400 -0.3625  0.0064  0.6939
  912MPD2    H513361   0.231   0.717  16.462  1.1129 -1.6540  0.2225
  912MPD2    N113362   0.119   1.103  16.193  0.1484 -0.3049 -0.8811
  912MPD2    H713363   0.108   1.146  16.102  0.5255  2.1606  0.2600
  913MPD2     C13364   1.915   2.918  10.698 -0.8125 -0.2433 -0.1993
  913MPD2    C113365   1.781   2.924  10.739 -0.0023  0.0385  0.0383
  913MPD2    C213366   1.675   2.956  10.648 -0.6676 -0.0111 -0.0112
  913MPD2    C313367   1.705   2.981  10.516  0.2093 -0.9221 -0.5780
  913MPD2    C413368   1.836   2.974  10.479 -0.0653  0.2047  0.8370
  913MPD2    C513369   1.939   2.939  10.564 -0.3500  0.5838  0.3392
  913MPD2     H13370   1.573   2.968  10.681 -1.4779 -0.9220 -2.1956
  913MPD2    H113371   1.858   3.009  10.379 -0.1628  0.8606  1.0455
  913MPD2    H213372   2.000   2.897  10.762  0.5817  2.8814 -1.0338
  913MPD2    H313373   2.038   2.925  10.521 -0.3006 -0.6367  0.8805
  913MPD2     N13374   1.609   3.014  10.415 -0.0630 -0.0270  0.0750
  913MPD2    H513375   1.641   3.043  10.324 -0.5893  0.4791  0.0575
  913MPD2    N113376   1.765   2.910  10.881 -0.0707  0.3153  0.4302
  913MPD2    H713377   1.851   2.896  10.933 -0.9449 -0.4547  1.6458
  914MPD2     C13378   3.238   2.387  11.921  0.4011  0.9649  0.1886
  914MPD2    C113379   3.322   2.445  12.022  0.0506 -0.2714  0.9077
  914MPD2    C213380   3.398   2.374  12.098  0.7279  0.5860 -0.1591
  914MPD2    C313381   3.408   2.241  12.075  0.6007  0.2799 -0.0248
  914MPD2    C413382   3.341   2.181  11.975 -0.4939  0.2199  0.2033
  914MPD2    C513383   3.250   2.254  11.896 -0.0090 -0.1714  0.1337
  914MPD2     H13384   3.447   2.425  12.180  1.3570 -1.8751  0.9962
  914MPD2    H113385   3.339   2.077  11.943 -0.8400  0.9253 -2.0830
  914MPD2    H213386   3.181   2.445  11.849  1.7426  0.4855 -1.2748
  914MPD2    H313387   3.196   2.208  11.814 -0.3674 -0.8288  0.7365
  914MPD2     N13388   3.495   2.169  12.157  0.4891  0.8105  0.3797
  914MPD2    H513389   3.539   2.224  12.230  0.3184  2.0105 -0.4404
  914MPD2    N113390   3.303   2.583  12.051  0.4751 -0.7208 -0.5831
  914MPD2    H713391   3.217   2.623  12.013  1.3017  2.3372  0.6984
  915MPD2     C13392   2.023   2.624  15.842 -0.1445  0.7849 -0.1223
  915MPD2    C113393   1.990   2.748  15.799 -0.4899  1.0132  0.3391
  915MPD2    C213394   1.927   2.835  15.889 -0.3449 -0.9263 -0.2851
  915MPD2    C313395   1.899   2.801  16.023  0.3903 -0.2840 -0.3947
  915MPD2    C413396   1.946   2.670  16.064 -0.2930 -0.4931 -0.1953
  915MPD2    C513397   1.995   2.585  15.971 -0.5018  0.1019 -0.4888
  915MPD2     H13398   1.905   2.937  15.859 -0.2345 -1.2618 -1.5065
  915MPD2    H113399   1.925   2.625  16.160  0.9003  2.2172  1.3349
  915MPD2    H213400   2.068   2.556  15.771 -1.7085  0.5614 -0.9018
  915MPD2    H313401   2.015   2.486  16.011  0.8819  1.3109  1.8071
  915MPD2     N13402   1.815   2.887  16.101 -0.2939  0.3533 -0.6453
  915MPD2    H513403   1.789   2.977  16.062 -0.0457  1.0075  0.7009
  915MPD2    N113404   2.024   2.786  15.667  0.5131 -0.0485  0.1984
  915MPD2    H713405   2.060   2.710  15.611 -1.2668 -1.4112  0.9067
  916MPD2     C13406   0.025   0.486  15.343 -0.5946 -0.2541  0.2579
  916MPD2    C113407   4.702   0.391  15.435  0.1174 -0.3619 -0.2785
  916MPD2    C213408   0.076   0.325  15.502 -0.0975 -0.0077  0.0511
  916MPD2    C313409   0.211   0.340  15.482  0.1061  0.0583 -0.3229
  916MPD2    C413410   0.256   0.436  15.394 -0.6404  0.3990 -0.0867
  916MPD2    C513411   0.163   0.511  15.326 -0.0622  1.1662 -0.0895
  916MPD2     H13412   0.051   0.259  15.584  2.1970  0.5400  1.1992
  916MPD2    H113413   0.359   0.435  15.360 -0.8379  3.0643 -0.7449
  916MPD2    H213414   4.679   0.547  15.284 -2.3874  0.8976  3.4960
  916MPD2    H313415   0.196   0.588  15.258 -0.0273  2.6248  1.5770
  916MPD2     N13416   0.297   0.255  15.559 -0.0108  0.1339 -0.0806
  916MPD2    H513417   0.250   0.188  15.620  0.0759 -0.8796 -1.1247
  916MPD2    N113418   4.563   0.369  15.463 -0.4920  0.0475  0.6474
  916MPD2    H713419   4.511   0.449  15.428  1.4364  1.9845  2.1537
  917MPD2     C13420   0.267   3.176  11.017  0.1884  0.4967 -0.4219
  917MPD2    C113421   0.282   3.241  11.135 -0.1241  0.0299  0.2896
  917MPD2    C213422   0.406   3.275  11.183  0.6721  0.2983  0.1992
  917MPD2    C313423   0.518   3.265  11.102  0.5485  0.5415  0.0272
  917MPD2    C413424   0.505   3.210  10.974  0.4785 -0.0166  0.3498
  917MPD2    C513425   0.378   3.159  10.940 -0.3545 -0.6197 -0.5912
  917MPD2     H13426   0.422   3.316  11.282  0.8678  0.4089  0.1206
  917MPD2    H113427   0.594   3.194  10.913  0.4798 -1.8884  0.8572
  917MPD2    H213428   0.170   3.156  10.974 -0.6214  0.6764  1.3197
  917MPD2    H313429   0.370   3.106  10.845  0.0496  1.2192 -1.6352
  917MPD2     N13430   0.644   3.306  11.137  0.4462 -0.0861 -0.3916
  917MPD2    H513431   0.714   3.309  11.063 -0.3629  0.8343 -1.1176
  917MPD2    N113432   0.166   3.263  11.220  0.4749 -0.4407 -0.6484
  917MPD2    H713433   0.085   3.204  11.202  1.5711 -1.6357 -1.5995
  918MPD2     C13434   0.171   3.530  12.161 -0.0981 -0.2573 -0.2458
  918MPD2    C113435   0.245   3.439  12.092 -0.4519  0.1773  0.1446
  918MPD2    C213436   0.199   3.402  11.962  0.2795  0.5583 -0.3756
  918MPD2    C313437   0.084   3.451  11.910 -0.7972 -0.6635 -0.6254
  918MPD2    C413438   0.013   3.545  11.982 -0.0455  0.3284  0.0604
  918MPD2    C513439   0.055   3.577  12.108 -0.2836 -0.1860  0.1239
  918MPD2     H13440   0.260   3.344  11.894 -0.9655  0.1325 -1.1232
  918MPD2    H113441   4.641   3.591  11.952  0.6004 -0.0286 -2.4606
  918MPD2    H213442   0.192   3.577  12.256 -0.7689  0.8279 -0.6331
  918MPD2    H313443   4.715   3.641  12.170 -3.3837 -3.1559  0.0519
  918MPD2     N13444   0.039   3.399  11.782  0.0619 -0.3885 -0.1978
  918MPD2    H513445   0.091   3.323  11.738 -0.9275 -0.2607 -1.5760
  918MPD2    N113446   0.370   3.390  12.129 -0.1866  0.1902  0.0830
  918MPD2    H713447   0.414   3.324  12.066 -1.8939  1.1176 -2.0832
  919MPD2     C13448   0.876   2.602  11.351  0.2324  0.3978 -0.2711
  919MPD2    C113449   0.946   2.487  11.366  1.2514  0.1245 -0.1950
  919MPD2    C213450   1.018   2.441  11.256 -0.7894 -0.4827 -0.6286
  919MPD2    C313451   1.016   2.500  11.129 -0.2231 -0.3264 -0.2134
  919MPD2    C413452   0.927   2.604  11.117 -0.5383  0.7587  0.5985
  919MPD2    C513453   0.868   2.663  11.234 -0.1997 -0.3701  0.2529
  919MPD2     H13454   1.078   2.351  11.264 -0.6526 -0.4686 -1.5464
  919MPD2    H113455   0.905   2.652  11.022 -1.5310  1.6525  1.2791
  919MPD2    H213456   0.804   2.640  11.423 -1.6214 -1.3045 -1.2157
  919MPD2    H313457   0.798   2.742  11.212  0.5171 -0.2910 -1.7615
  919MPD2     N13458   1.060   2.444  11.007 -0.6373 -0.0292  0.2440
  919MPD2    H513459   1.033   2.494  10.923 -0.4450 -0.0751  0.1537
  919MPD2    N113460   0.948   2.413  11.484  0.4584 -0.3920  0.3262
  919MPD2    H713461   1.016   2.337  11.484  1.3169  0.3747 -0.0478
  920MPD2     C13462   0.860   2.493  10.055 -0.7836 -0.4017 -0.0600
  920MPD2    C113463   0.781   2.384  10.102  0.1000  1.3696 -0.0975
  920MPD2    C213464   0.805   2.333  10.225 -0.7970  0.4036  0.1364
  920MPD2    C313465   0.917   2.385  10.299  0.4431  0.3805  0.0540
  920MPD2    C413466   0.993   2.482  10.246 -0.5853  1.4211 -0.0918
  920MPD2    C513467   0.965   2.539  10.132 -0.0946 -0.0458  0.4250
  920MPD2     H13468   0.749   2.253  10.272 -1.9089  1.3466  0.4149
  920MPD2    H113469   1.079   2.531  10.290 -0.7482  0.3505  1.4041
  920MPD2    H213470   0.845   2.538   9.958  0.0421 -0.0022  0.0045
  920MPD2    H313471   1.039   2.603  10.086  0.2408 -1.4456 -0.9881
  920MPD2     N13472   0.941   2.322  10.424  0.2858  0.3602 -0.1607
  920MPD2    H513473   0.890   2.237  10.445 -1.1397  0.8786 -1.4686
  920MPD2    N113474   0.671   2.337  10.035 -0.3512  0.3451  0.2766
  920MPD2    H713475   0.620   2.262  10.080  1.3172 -0.2796  1.1477
  921MPD2     C13476   1.575   1.448  17.017 -0.0134  0.0092  0.3221
  921MPD2    C113477   1.615   1.347  16.930 -0.1959 -0.1787 -0.2268
  921MPD2    C213478   1.527   1.305  16.837  0.6711 -0.4780  0.4035
  921MPD2    C313479   1.398   1.353  16.828 -0.4795 -0.4221 -0.0969
  921MPD2    C413480   1.357   1.443  16.923  0.6671 -0.1014 -0.2044
  921MPD2    C513481   1.444   1.493  17.009 -0.4535  0.0238 -0.1321
  921MPD2     H13482   1.548   1.216  16.778 -1.2328 -1.1311  0.6888
  921MPD2    H113483   1.264   1.498  16.920 -0.1662 -1.6411 -2.5147
  921MPD2    H213484   1.641   1.498  17.087 -1.5234  1.1088  0.9581
  921MPD2    H313485   1.407   1.562  17.084  0.6599 -0.0975  0.5214
  921MPD2     N13486   1.295   1.305  16.740 -0.3039 -0.2916 -0.5345
  921MPD2    H513487   1.199   1.327  16.765  0.3332  2.1383 -0.2502
  921MPD2    N113488   1.750   1.312  16.931 -0.0439  0.4188  0.5395
  921MPD2    H713489   1.806   1.367  16.995 -1.9893  3.0335  0.0121
  922MPD2     C13490   2.638   3.893  16.945  0.0367  0.8946  0.0013
  922MPD2    C113491   2.589   3.889  17.077  0.0298  0.0454  0.3955
  922MPD2    C213492   2.512   3.780  17.105 -0.0808 -0.2555 -0.1828
  922MPD2    C313493   2.493   3.679  17.018  0.4891 -0.2581  0.1780
  922MPD2    C413494   2.558   3.670  16.890 -0.3931  0.0712  0.1762
  922MPD2    C513495   2.623   3.784  16.852 -0.2771 -0.3793 -0.4847
  922MPD2     H13496   2.469   3.778  17.204  1.0826 -0.9625  0.3068
  922MPD2    H113497   2.542   3.586  16.822  0.3309 -0.3844  0.5646
  922MPD2    H213498   2.703   3.968  16.902  2.6872 -2.7480 -2.3519
  922MPD2    H313499   2.676   3.783  16.758  3.0261  2.1541  1.3445
  922MPD2     N13500   2.405   3.577  17.061 -0.1459  0.3526 -0.1748
  922MPD2    H513501   2.366   3.598  17.153  1.7460  0.2006  0.6529
  922MPD2    N113502   2.604   3.998  17.168 -0.3537  1.3349  0.0549
  922MPD2    H713503   2.557   3.997  17.258  1.0730 -1.7054  0.7417
  923MPD2     C13504   4.430   0.235   9.512  0.2306 -0.2188 -0.0276
  923MPD2    C113505   4.439   0.362   9.571  0.9613  0.5180 -0.2242
  923MPD2    C213506   4.502   0.376   9.695  0.2449 -0.1242 -1.3702
  923MPD2    C313507   4.555   0.262   9.757 -0.5551 -0.5300 -0.4134
  923MPD2    C413508   4.532   0.139   9.701 -0.5919 -0.9577  1.1560
  923MPD2    C513509   4.472   0.127   9.578 -0.3911 -0.0067  0.0307
  923MPD2     H13510   4.517   0.473   9.742 -0.5406  0.4175 -2.2442
  923MPD2    H113511   4.566   0.046   9.746 -0.7632 -1.3728  0.4236
  923MPD2    H213512   4.386   0.216   9.414 -0.1326 -2.3526  0.5436
  923MPD2    H313513   4.452   0.035   9.525 -0.0855 -0.3687  0.5338
  923MPD2     N13514   4.603   0.266   9.889  0.2496  0.3878  0.1647
  923MPD2    H513515   4.609   0.178   9.938 -0.0331  0.9749  1.2431
  923MPD2    N113516   4.374   0.466   9.499  0.8748 -0.3510 -0.0960
  923MPD2    H713517   4.318   0.434   9.421  1.1808 -0.9005 -0.0900
  924MPD2     C13518   3.742   3.697  15.765 -1.1190  0.1090 -0.3190
  924MPD2    C113519   3.692   3.724  15.889  0.8557 -0.0847 -0.1871
  924MPD2    C213520   3.714   3.847  15.948 -0.5116 -0.9354  0.3097
  924MPD2    C313521   3.760   3.959  15.871 -0.1699 -0.2041  0.5136
  924MPD2    C413522   3.799   3.928  15.741 -0.0789 -0.1494 -0.0045
  924MPD2    C513523   3.792   3.801  15.693 -0.6854  0.5258 -0.1269
  924MPD2     H13524   3.661   3.875  16.038  0.3001  0.5030  0.3435
  924MPD2    H113525   3.843   4.011  15.687 -2.3061  3.0092  3.0802
  924MPD2    H213526   3.724   3.600  15.721 -0.8074  0.4206 -1.1274
  924MPD2    H313527   3.816   3.787  15.588 -1.2770  0.0065 -0.1903
  924MPD2     N13528   3.758   4.091  15.917 -0.4649  0.1260 -0.0697
  924MPD2    H513529   3.765   4.159  15.842 -2.4210  0.3949 -0.0121
  924MPD2    N113530   3.602   3.630  15.939 -0.0312 -0.6698 -0.2818
  924MPD2    H713531   3.579   3.551  15.878 -0.0770 -1.3038  0.5583
  925MPD2     C13532   2.486   1.881  14.778  0.0127  0.3494  0.2054
  925MPD2    C113533   2.419   1.766  14.739 -0.3040  0.5236 -0.8108
  925MPD2    C213534   2.345   1.698  14.833 -0.0168 -0.6861 -0.3321
  925MPD2    C313535   2.328   1.739  14.960  0.0157  0.4265 -0.9412
  925MPD2    C413536   2.385   1.855  14.996 -0.1372 -0.6731 -0.1822
  925MPD2    C513537   2.453   1.929  14.896  0.3940 -0.3376 -0.1660
  925MPD2     H13538   2.312   1.601  14.798 -1.0603 -0.4415 -0.0308
  925MPD2    H113539   2.386   1.895  15.097  1.0904 -1.3221  0.0642
  925MPD2    H213540   2.555   1.935  14.714 -0.5911 -1.4931 -1.9987
  925MPD2    H313541   2.502   2.018  14.934 -0.4023 -0.1183  0.3503
  925MPD2     N13542   2.252   1.672  15.059 -0.2310  0.7538 -0.6164
  925MPD2    H513543   2.241   1.717  15.149  1.4302 -2.4167  1.1842
  925MPD2    N113544   2.435   1.705  14.613 -0.3273 -0.6608  0.1758
  925MPD2    H713545   2.415   1.606  14.606  1.6089 -1.1039  0.7830
  926MPD2     C13546   1.120   0.067  13.051 -0.5067 -0.3485  0.5201
  926MPD2    C113547   1.179   0.155  13.132  0.0728 -0.2499 -0.5398
  926MPD2    C213548   1.297   0.220  13.100  0.5392 -0.5133  0.3875
  926MPD2    C313549   1.358   0.202  12.977  0.4908 -0.0070 -0.2936
  926MPD2    C413550   1.290   0.124  12.887  0.9667 -0.3181  0.3448
  926MPD2    C513551   1.170   0.058  12.924 -0.9698  0.6687 -0.6457
  926MPD2     H13552   1.342   0.289  13.170 -1.2774  2.0251 -0.9471
  926MPD2    H113553   1.317   0.118  12.782 -2.1371  0.1655 -0.4817
  926MPD2    H213554   1.025   0.020  13.072 -0.7176 -1.6542 -3.3845
  926MPD2    H313555   1.108   0.007  12.852 -0.6052 -0.7776  0.0526
  926MPD2     N13556   1.469   0.282  12.935 -0.7730 -0.0678  0.0803
  926MPD2    H513557   1.485   0.296  12.836  0.7809  1.1209  0.5018
  926MPD2    N113558   1.114   0.197  13.245  0.0397 -0.8637 -0.0951
  926MPD2    H713559   1.150   0.276  13.298 -1.8792 -0.2909  0.3687
  927MPD2     C13560   0.840   1.819   0.726 -0.3391 -0.2296  0.7526
  927MPD2    C113561   0.925   1.915   0.670 -0.1442  0.0431 -0.3933
  927MPD2    C213562   1.045   1.875   0.611 -0.3902 -0.2184  0.2330
  927MPD2    C313563   1.077   1.746   0.611 -0.2970 -1.1412 -0.4971
  927MPD2    C413564   0.991   1.652   0.662 -0.0811  0.1186 -0.1008
  927MPD2    C513565   0.871   1.684   0.726 -0.3502  0.0356 -0.3558
  927MPD2     H13566   1.111   1.944   0.559 -1.4430  1.7108  1.4652
  927MPD2    H113567   1.016   1.549   0.641 -1.0965 -0.4164  1.3355
  927MPD2    H213568   0.756   1.863   0.778 -0.9772 -2.0573  1.2676
  927MPD2    H313569   0.795   1.617   0.764 -2.1880  0.8302 -2.5852
  927MPD2     N13570   1.196   1.715   0.538  0.3605  0.2281  0.3700
  927MPD2    H513571   1.235   1.789   0.482 -1.2153  0.7808 -0.0049
  927MPD2    N113572   0.903   2.050   0.685  0.3121 -0.8786  0.3064
  927MPD2    H713573   0.816   2.072   0.732  0.5957  3.2807 -1.0978
  928MPD2     C13574   3.486   0.492   1.038  0.1579  0.6488 -0.9506
  928MPD2    C113575   3.613   0.450   1.081 -0.3165 -0.3914  0.1892
  928MPD2    C213576   3.722   0.460   0.998 -0.3511  0.0765  0.3675
  928MPD2    C313577   3.711   0.510   0.868  0.6596  0.3018  0.1033
  928MPD2    C413578   3.591   0.554   0.832 -0.0303  0.0785 -0.2355
  928MPD2    C513579   3.482   0.542   0.913 -0.6184 -0.7877 -0.3276
  928MPD2     H13580   3.820   0.420   1.021  0.2525  1.1827 -0.2751
  928MPD2    H113581   3.575   0.590   0.731  0.5406  0.9518 -0.0077
  928MPD2    H213582   3.397   0.478   1.098 -0.2087 -2.0883 -2.1560
  928MPD2    H313583   3.392   0.587   0.875 -1.7668 -4.0080 -1.4614
  928MPD2     N13584   3.812   0.550   0.781  0.0168  0.4408  0.8586
  928MPD2    H513585   3.785   0.584   0.689  0.4228  1.6812  1.2059
  928MPD2    N113586   3.626   0.405   1.212  0.0755  0.2002  0.3171
  928MPD2    H713587   3.539   0.389   1.263 -1.2764  1.6051 -1.5710
  929MPD2     C13588   4.229   1.030  10.357  0.1030 -0.0634  0.1597
  929MPD2    C113589   4.144   0.931  10.391 -0.3753  0.0493  0.0357
  929MPD2    C213590   4.023   0.926  10.320  0.8621 -0.2471  0.3508
  929MPD2    C313591   3.992   1.029  10.227  0.0792  0.2301  0.0119
  929MPD2    C413592   4.079   1.132  10.208 -0.0622  0.1508 -0.1202
  929MPD2    C513593   4.194   1.136  10.278 -0.4212  0.0518 -0.6519
  929MPD2     H13594   3.960   0.838  10.326 -0.1953  0.7374  3.7586
  929MPD2    H113595   4.053   1.196  10.124 -2.0752 -0.5863 -0.0536
  929MPD2    H213596   4.323   1.038  10.411  1.7284  1.6492 -2.9331
  929MPD2    H313597   4.257   1.225  10.274  1.8503 -1.5397 -0.1958
  929MPD2     N13598   3.877   1.024  10.143  1.1449 -0.7711 -0.0827
  929MPD2    H513599   3.849   1.107  10.092  1.7767  0.2908  1.3092
  929MPD2    N113600   4.187   0.826  10.479 -0.1483  0.0375  0.6164
  929MPD2    H713601   4.275   0.847  10.525  0.1582 -0.7331  0.3993
  930MPD2     C13602   0.904   2.962  14.057  0.0065 -0.1610  0.7406
  930MPD2    C113603   0.830   3.016  13.958  0.1744 -0.6316 -0.0958
  930MPD2    C213604   0.760   2.938  13.867 -0.3979  0.2358 -0.0067
  930MPD2    C313605   0.743   2.804  13.888 -0.5714 -0.0742 -0.0596
  930MPD2    C413606   0.804   2.752  14.001  0.2350 -0.0682  0.0090
  930MPD2    C513607   0.885   2.834  14.078 -0.6640 -0.8346  0.5385
  930MPD2     H13608   0.704   2.983  13.786  0.1628  0.2223 -0.4037
  930MPD2    H113609   0.802   2.647  14.026 -0.0208 -0.4136 -1.4844
  930MPD2    H213610   0.965   3.025  14.121  1.7243 -1.5946  0.5251
  930MPD2    H313611   0.921   2.795  14.172  2.3680  1.0076  0.1322
  930MPD2     N13612   0.655   2.712  13.821 -0.3319  0.3248 -0.1031
  930MPD2    H513613   0.626   2.625  13.864 -2.2207  0.5714 -0.9013
  930MPD2    N113614   0.831   3.158  13.957 -0.1822 -0.5921 -0.4357
  930MPD2    H713615   0.890   3.200  14.027 -0.1234  0.8194 -1.3299
  931MPD2     C13616   1.400   2.299   1.157  0.3869 -0.0038 -0.2205
  931MPD2    C113617   1.267   2.262   1.152 -0.3496 -0.0675 -0.2455
  931MPD2    C213618   1.231   2.150   1.226  0.7560  0.2272 -1.0640
  931MPD2    C313619   1.323   2.072   1.293 -0.8768 -0.0718 -0.3432
  931MPD2    C413620   1.452   2.119   1.301 -0.1598  0.3772  0.0315
  931MPD2    C513621   1.488   2.231   1.242  0.0944  0.8772  0.2706
  931MPD2     H13622   1.137   2.103   1.198  0.9928 -0.4450 -0.7419
  931MPD2    H113623   1.527   2.061   1.354 -0.4621 -0.8501 -0.8703
  931MPD2    H213624   1.438   2.386   1.105 -0.3381 -0.2960 -1.2509
  931MPD2    H313625   1.590   2.268   1.247  0.5310 -0.4330  1.0921
  931MPD2     N13626   1.282   1.951   1.355 -0.4506 -0.1326  0.0331
  931MPD2    H513627   1.185   1.927   1.339 -0.2495 -0.5557 -0.5308
  931MPD2    N113628   1.179   2.334   1.072 -0.2804 -0.0434  0.5814
  931MPD2    H713629   1.205   2.414   1.016  0.3897 -1.8366 -1.6998
  932MPD2     C13630   2.809   0.783  11.529 -0.5965  0.2671 -0.3190
  932MPD2    C113631   2.783   0.887  11.615 -0.1747  0.2544 -0.5422
  932MPD2    C213632   2.849   0.880  11.736 -0.0633 -0.1346  0.3539
  932MPD2    C313633   2.937   0.774  11.769  0.0628  0.2110 -0.1533
  932MPD2    C413634   2.949   0.668  11.687  0.0502 -0.1001 -0.2571
  932MPD2    C513635   2.882   0.674  11.569 -1.1606  0.0407  0.4621
  932MPD2     H13636   2.847   0.955  11.814 -0.6307 -0.8514  1.0246
  932MPD2    H113637   3.027   0.597  11.714 -1.9157 -1.6015  1.5664
  932MPD2    H213638   2.759   0.784  11.432 -0.7612  1.2714 -0.2280
  932MPD2    H313639   2.897   0.595  11.496 -2.7122 -0.2670  0.4822
  932MPD2     N13640   3.007   0.759  11.894 -0.5306 -0.5259 -0.7831
  932MPD2    H513641   3.062   0.676  11.914 -0.2917 -0.3361 -0.6428
  932MPD2    N113642   2.706   1.000  11.577  0.4649  0.1000  0.3437
  932MPD2    H713643   2.694   1.063  11.655 -0.1377  1.0136 -0.4907
  933MPD2     C13644   3.310   0.231   1.973  0.4617 -0.1639 -0.0370
  933MPD2    C113645   3.347   0.329   1.888 -0.0756  0.6575  0.4515
  933MPD2    C213646   3.268   0.445   1.882 -0.3768  0.4216  0.4903
  933MPD2    C313647   3.158   0.466   1.962 -0.0312  0.2450  0.6431
  933MPD2    C413648   3.124   0.363   2.052  0.9461 -0.9349  0.0143
  933MPD2    C513649   3.200   0.251   2.052 -0.6312 -0.2150  0.6861
  933MPD2     H13650   3.292   0.527   1.815  1.7480  0.4327  1.2555
  933MPD2    H113651   3.041   0.357   2.120 -0.3699  0.1067 -1.4981
  933MPD2    H213652   3.371   0.142   1.991  1.8181  0.5440 -1.0997
  933MPD2    H313653   3.158   0.181   2.122 -1.9124  0.1836  0.3265
  933MPD2     N13654   3.094   0.595   1.956  0.6218  0.0082  0.3521
  933MPD2    H513655   3.115   0.660   1.881 -1.5935  0.4312  0.1007
  933MPD2    N113656   3.465   0.315   1.805  0.6955 -0.0036  0.0440
  933MPD2    H713657   3.534   0.246   1.833  1.4567  0.2724 -1.1697
  934MPD2     C13658   3.698   2.762   2.021  0.1769  0.1001  0.0198
  934MPD2    C113659   3.834   2.760   1.981  1.3486 -0.6387 -1.3091
  934MPD2    C213660   3.865   2.673   1.878  0.4920  0.6102 -0.2710
  934MPD2    C313661   3.770   2.594   1.825 -0.0999  0.3029  0.2490
  934MPD2    C413662   3.638   2.601   1.867  0.1938 -0.0299  0.3573
  934MPD2    C513663   3.605   2.685   1.966  0.5516 -0.2975  0.0529
  934MPD2     H13664   3.965   2.669   1.837  0.9630 -0.1741  0.9574
  934MPD2    H113665   3.554   2.547   1.825  0.5818 -0.3757  0.0261
  934MPD2    H213666   3.662   2.829   2.098 -1.8622 -0.7416 -0.2118
  934MPD2    H313667   3.501   2.687   1.996  0.5239  0.3950 -0.1045
  934MPD2     N13668   3.789   2.519   1.720  0.2494  0.1397  0.2339
  934MPD2    H513669   3.710   2.462   1.691  1.2226 -0.0321 -2.0899
  934MPD2    N113670   3.933   2.833   2.049  0.3374  0.0910 -0.2592
  934MPD2    H713671   4.021   2.846   2.000 -0.6898 -1.6725 -2.5742
  935MPD2     C13672   4.544   2.177   1.144  0.4948 -0.2522 -0.8668
  935MPD2    C113673   4.440   2.104   1.088  0.2806 -0.0554  0.3250
  935MPD2    C213674   4.314   2.146   1.133 -0.4749 -0.5867  0.5289
  935MPD2    C313675   4.299   2.243   1.239 -0.4303 -0.3266  0.1676
  935MPD2    C413676   4.410   2.315   1.287  0.1411  0.5343  0.4040
  935MPD2    C513677   4.528   2.282   1.230 -0.3756  0.2828 -0.0281
  935MPD2     H13678   4.227   2.085   1.113 -0.5721 -0.1415 -0.4438
  935MPD2    H113679   4.392   2.402   1.349 -0.1230  0.2138  0.7770
  935MPD2    H213680   4.645   2.161   1.108  2.3273  1.3410  3.5024
  935MPD2    H313681   4.608   2.353   1.250 -0.7093  0.5147  0.5047
  935MPD2     N13682   4.178   2.282   1.302 -0.0885  0.2994 -0.2368
  935MPD2    H513683   4.183   2.354   1.373  1.1782  0.6234 -0.6563
  935MPD2    N113684   4.456   2.002   0.999  0.1276 -0.1836  0.5369
  935MPD2    H713685   4.369   1.978   0.952 -0.2255 -0.8214  1.4950
  936MPD2     C13686   3.007   0.270  12.449 -0.5064  0.1670  0.1754
  936MPD2    C113687   3.030   0.149  12.512 -0.9035  0.9643  0.6266
  936MPD2    C213688   3.143   0.079  12.473  0.2993 -0.1730 -0.0217
  936MPD2    C313689   3.225   0.111  12.367 -0.8767 -0.4411 -0.3454
  936MPD2    C413690   3.197   0.231  12.306 -0.0564  0.5387  0.6091
  936MPD2    C513691   3.088   0.308  12.343  0.4377 -0.0008 -0.2185
  936MPD2     H13692   3.172   4.719  12.537 -0.8657 -0.7629 -0.2419
  936MPD2    H113693   3.262   0.272  12.230 -0.2296 -0.5940 -0.1545
  936MPD2    H213694   2.917   0.325  12.475 -0.4219 -0.4663  1.8214
  936MPD2    H313695   3.067   0.392  12.278 -3.6289  0.6457  1.9930
  936MPD2     N13696   3.343   0.041  12.339  0.1392  0.2448  0.0027
  936MPD2    H513697   3.412   0.081  12.275  0.7864 -0.7725  0.0489
  936MPD2    N113698   2.952   0.099  12.618  1.4569 -0.3919 -0.3775
  936MPD2    H713699   2.973   0.003  12.643 -1.0309 -0.5413  1.1647
  937MPD2     C13700   1.131   1.798  11.443 -0.4419 -0.2970 -0.0023
  937MPD2    C113701   1.127   1.939  11.441  0.1544  0.6173  0.0383
  937MPD2    C213702   1.200   2.009  11.349 -0.6796 -0.0665 -0.5252
  937MPD2    C313703   1.256   1.934  11.241  1.3705  0.1874 -0.3996
  937MPD2    C413704   1.237   1.801  11.229  0.1316  0.3287  0.1873
  937MPD2    C513705   1.174   1.740  11.328 -0.2864 -0.2143 -0.6107
  937MPD2     H13706   1.215   2.116  11.355  0.6508 -0.3573  1.3057
  937MPD2    H113707   1.274   1.742  11.146  1.0313  0.8991  0.1805
  937MPD2    H213708   1.077   1.732  11.510 -0.7157  0.4770  0.5430
  937MPD2    H313709   1.166   1.633  11.310  1.8255 -0.7574  1.6875
  937MPD2     N13710   1.332   2.003  11.151 -0.2522 -0.1889  0.1688
  937MPD2    H513711   1.322   2.104  11.148  0.5430 -0.0702  1.4913
  937MPD2    N113712   1.079   2.019  11.548 -0.0149  1.0367 -0.1822
  937MPD2    H713713   1.094   2.118  11.537  2.1844  0.5316 -1.6781
  938MPD2     C13714   3.719   1.939   0.494 -0.6435 -0.3251  0.0279
  938MPD2    C113715   3.662   2.019   0.590 -0.4733  0.4045 -0.1390
  938MPD2    C213716   3.610   1.963   0.710 -0.4595 -0.8226 -0.6078
  938MPD2    C313717   3.619   1.831   0.739  0.4057 -0.5449  0.2201
  938MPD2    C413718   3.675   1.751   0.644  0.8354  0.2262 -0.1823
  938MPD2    C513719   3.716   1.805   0.527 -0.0104 -0.7233  0.2164
  938MPD2     H13720   3.565   2.030   0.783  0.3117 -2.1933  1.1384
  938MPD2    H113721   3.689   1.644   0.654 -0.5604 -0.2821 -3.5400
  938MPD2    H213722   3.762   1.973   0.401 -0.3007  0.1153  0.3469
  938MPD2    H313723   3.751   1.740   0.446  2.6007  1.9392 -0.8003
  938MPD2     N13724   3.574   1.760   0.849  0.1911  0.3401  0.2122
  938MPD2    H513725   3.602   1.663   0.847  1.4131  0.7157 -1.0169
  938MPD2    N113726   3.674   2.164   0.587 -0.2612  0.3110  1.2705
  938MPD2    H713727   3.657   2.215   0.673 -0.6660 -1.8551  2.4827
  939MPD2     C13728   4.319   2.797   1.422  0.2882  0.2515 -0.1320
  939MPD2    C113729   4.264   2.905   1.354  0.0003  0.2343 -0.1060
  939MPD2    C213730   4.285   2.904   1.213 -0.4931 -0.0508 -0.0566
  939MPD2    C313731   4.347   2.803   1.149 -0.0316  0.5731 -0.4922
  939MPD2    C413732   4.397   2.697   1.221  0.7689 -0.1800 -0.3482
  939MPD2    C513733   4.385   2.703   1.357 -0.3009  0.2805 -0.4517
  939MPD2     H13734   4.237   2.977   1.149 -1.2950 -0.6240 -0.1081
  939MPD2    H113735   4.461   2.618   1.184 -0.1202 -0.5147 -1.1466
  939MPD2    H213736   4.306   2.784   1.529  2.6309  3.9003  0.6098
  939MPD2    H313737   4.428   2.620   1.414  1.4685  0.1962 -1.9151
  939MPD2     N13738   4.348   2.799   1.012 -0.2714  0.1725 -0.5842
  939MPD2    H513739   4.320   2.887   0.971  3.7124 -0.3902 -4.5086
  939MPD2    N113740   4.186   2.999   1.425  0.2573  0.2124  0.7268
  939MPD2    H713741   4.189   2.991   1.526  1.9908  1.4540  0.7748
  940MPD2     C13742   3.840   4.264  13.196 -0.5347 -0.7014  0.0688
  940MPD2    C113743   3.964   4.320  13.203  0.3975 -0.0914  0.0274
  940MPD2    C213744   4.027   4.347  13.085 -0.0528  0.8985  0.0932
  940MPD2    C313745   3.964   4.324  12.966  0.3637  0.0504 -0.2252
  940MPD2    C413746   3.840   4.266  12.958 -0.3263 -0.3035  0.0725
  940MPD2    C513747   3.782   4.229  13.081  0.0538 -0.0463 -0.1344
  940MPD2     H13748   4.125   4.394  13.093  0.9783 -1.0465 -1.2820
  940MPD2    H113749   3.795   4.232  12.865 -1.1210  0.3961  0.1913
  940MPD2    H213750   3.775   4.253  13.282 -0.8622  0.7324 -0.0029
  940MPD2    H313751   3.689   4.173  13.072  0.1527 -0.0043 -1.4674
  940MPD2     N13752   4.022   4.359  12.845 -0.3801 -0.0281 -0.8083
  940MPD2    H513753   3.966   4.338  12.763  1.3816 -1.7361 -1.5790
  940MPD2    N113754   4.032   4.335  13.332  0.4568 -0.9443 -0.0616
  940MPD2    H713755   4.123   4.380  13.328 -1.4523  2.9166  0.9062
  941MPD2     C13756   3.532   3.753   9.036  0.1028  0.0456  0.0147
  941MPD2    C113757   3.560   3.677   9.152 -0.0952  0.3384 -0.0582
  941MPD2    C213758   3.567   3.540   9.148  0.3006 -0.1234  0.2968
  941MPD2    C313759   3.567   3.477   9.029  0.3236 -0.2270 -0.6642
  941MPD2    C413760   3.542   3.544   8.909 -0.3086  0.0402  0.3583
  941MPD2    C513761   3.523   3.681   8.916  0.2919  0.6584  0.4687
  941MPD2     H13762   3.585   3.484   9.239 -0.5712  0.2784  0.7160
  941MPD2    H113763   3.525   3.495   8.814  1.3040  0.4064 -0.1158
  941MPD2    H213764   3.533   3.861   9.045  1.0935  0.1072 -0.7778
  941MPD2    H313765   3.500   3.730   8.822  0.7782 -2.1451 -1.1161
  941MPD2     N13766   3.587   3.337   9.014 -0.1476 -0.3783  0.2608
  941MPD2    H513767   3.595   3.301   8.919  1.5403  0.2141  0.1702
  941MPD2    N113768   3.573   3.739   9.280 -0.2914 -0.1226  0.0731
  941MPD2    H713769   3.579   3.682   9.364 -0.5356  1.6213  1.2750
  942MPD2     C13770   2.973   1.004   9.675 -0.3359 -0.0515 -0.2097
  942MPD2    C113771   3.008   0.897   9.601  0.0948 -0.0197  0.5781
  942MPD2    C213772   3.134   0.904   9.546 -0.0408  0.6621  0.2097
  942MPD2    C313773   3.224   1.001   9.575  0.4943  0.3067  0.3041
  942MPD2    C413774   3.179   1.108   9.643 -0.0064  0.6387 -0.0949
  942MPD2    C513775   3.051   1.114   9.695  0.1388  0.3818  0.3071
  942MPD2     H13776   3.176   0.818   9.495 -0.8843  2.8417 -4.1607
  942MPD2    H113777   3.250   1.189   9.649  0.1141  0.6101 -1.0627
  942MPD2    H213778   2.874   1.006   9.719 -0.1166 -0.6487  0.3156
  942MPD2    H313779   3.014   1.203   9.744 -0.1440  0.6631 -0.4103
  942MPD2     N13780   3.369   0.998   9.547  0.2741  0.0431  0.5585
  942MPD2    H513781   3.417   1.081   9.579 -2.4554  1.3342  1.3414
  942MPD2    N113782   2.927   0.786   9.575  0.7956 -0.4004  0.7980
  942MPD2    H713783   2.973   0.710   9.525 -1.1477  0.1082 -1.7384
  943MPD2     C13784   1.722   4.395   9.565 -0.4182  0.2011  0.2265
  943MPD2    C113785   1.665   4.336   9.673 -1.1497  0.0502 -0.1781
  943MPD2    C213786   1.704   4.383   9.797  0.3241  0.4383 -0.2036
  943MPD2    C313787   1.781   4.491   9.813  1.0018 -0.8190  0.0292
  943MPD2    C413788   1.830   4.552   9.702  0.3358 -0.5158 -0.9604
  943MPD2    C513789   1.812   4.496   9.580  0.0255 -0.7398  0.0397
  943MPD2     H13790   1.649   4.357   9.886  1.0308 -0.6846 -0.1053
  943MPD2    H113791   1.898   4.636   9.715 -1.0775  0.9006 -2.5694
  943MPD2    H213792   1.696   4.363   9.465  0.5324  3.3649 -1.0409
  943MPD2    H313793   1.852   4.537   9.488 -0.3088  1.9552  1.1090
  943MPD2     N13794   1.823   4.541   9.937 -0.2756 -0.0993  0.2364
  943MPD2    H513795   1.866   4.633   9.938 -0.5524  0.0287  0.3804
  943MPD2    N113796   1.581   4.217   9.656 -0.3349 -0.4899  0.1990
  943MPD2    H713797   1.570   4.177   9.749 -0.8010 -1.8783 -0.4588
  944MPD2     C13798   1.941   3.294  11.048  0.8886  0.4686 -0.9511
  944MPD2    C113799   1.839   3.311  10.957 -0.2277  0.2038  0.4891
  944MPD2    C213800   1.701   3.283  10.988 -1.2129 -0.3011  0.0885
  944MPD2    C313801   1.675   3.241  11.115  0.7795  0.1186 -0.1225
  944MPD2    C413802   1.781   3.214  11.206 -0.3731 -0.0196  0.6864
  944MPD2    C513803   1.911   3.248  11.174 -0.5809  0.4593 -0.9055
  944MPD2     H13804   1.618   3.309  10.924 -1.2361  1.9157  1.0150
  944MPD2    H113805   1.760   3.188  11.309 -2.3249 -0.8647  0.0868
  944MPD2    H213806   2.042   3.319  11.018  0.9843  0.7527 -0.3958
  944MPD2    H313807   1.987   3.240  11.250 -2.6052  1.1065  1.1571
  944MPD2     N13808   1.543   3.250  11.159 -0.3862  0.9079  0.1058
  944MPD2    H513809   1.478   3.285  11.089 -0.8391 -0.3447 -0.0943
  944MPD2    N113810   1.879   3.342  10.825  0.3260 -0.4903  0.2495
  944MPD2    H713811   1.979   3.338  10.805  0.7211 -0.2733  2.1462
    1TCq1    O113812   0.135   3.053  14.604 -0.2049 -0.2571 -0.5249
    1TCq1    C113813   0.149   3.121  14.720  0.6430 -0.0828 -0.0741
    1TCq1    O213814   0.065   3.144  14.805  0.2186 -0.1632  0.2607
    1TCq1    C213815   0.277   3.170  14.715  0.4484  0.3395  0.4493
    1TCq1    C313816   0.382   3.081  14.681  0.3998  0.0999  0.4766
    1TCq1    C413817   0.514   3.129  14.700  0.1089  0.4640 -0.1722
    1TCq1    C513818   0.535   3.254  14.735 -0.6365  0.6884 -0.1518
    1TCq1    C613819   0.430   3.336  14.773  0.3512 -0.1522  0.2522
    1TCq1    C713820   0.296   3.293  14.767  0.5413  0.2350 -0.1973
    1TCq1    C813821   0.476   3.463  14.839  0.4278  0.1453 -0.6854
    1TCq1    O413822   0.580   3.464  14.899  0.0316  0.1794  0.1553
    1TCq1    C913823   0.617   3.052  14.639 -0.1266 -0.8636  0.2346
    1TCq1    O513824   0.712   3.120  14.590  0.5768 -0.1106 -0.0901
    1TCq1    O613825   0.583   2.939  14.591  0.2167  0.7307 -0.0096
    1TCq1    H113826   0.204   3.067  14.537  0.0099  2.3249  0.2157
    1TCq1    H213827   0.362   2.984  14.639 -1.2132  0.7529 -0.2494
    1TCq1    H313828   0.637   3.291  14.731  0.3197 -1.9967 -0.4963
    1TCq1    H413829   0.215   3.349  14.813  0.3155  1.0663 -1.5967
    2MPD2     C13830   0.321   3.918  15.025  0.1151  0.7980  0.5597
    2MPD2    C113831   0.239   3.882  14.924  0.0758 -0.4049  0.3361
    2MPD2    C213832   0.265   3.764  14.859 -0.2942  0.5185  0.5654
    2MPD2    C313833   0.368   3.682  14.896 -0.3245 -0.5088  0.2432
    2MPD2    C413834   0.465   3.726  14.984  0.3808 -0.4254  0.2256
    2MPD2    C513835   0.441   3.848  15.046  0.2041  0.2353 -0.0299
    2MPD2     H13836   0.201   3.721  14.783  2.6101 -2.9784  0.1203
    2MPD2    H113837   0.561   3.681  15.004  1.5765  2.2718  0.4394
    2MPD2    H213838   0.306   4.003  15.091 -1.0083  0.8990  0.1702
    2MPD2    H313839   0.515   3.884  15.117 -1.1087  1.8268  0.5431
    2MPD2     N13840   0.369   3.553  14.840 -0.8381 -0.2113 -0.5449
    2MPD2    H513841   0.285   3.525  14.790 -1.6403  1.8535 -0.3764
    2MPD2    N113842   0.133   3.969  14.895 -0.0135  0.2694  0.1455
    2MPD2    H713843   0.121   4.057  14.945 -1.2326  0.1498  0.0608
    3TMC2    C113844   4.668   4.054  14.774 -0.7456 -0.8148  0.8208
    3TMC2    C213845   4.663   4.149  14.871 -0.6189  0.2226 -0.1995
    3TMC2    C313846   4.588   4.262  14.838 -0.2613  0.0321 -0.4051
    3TMC2    C413847   4.604   4.058  14.654  0.3733  0.3325  0.5004
    3TMC2    C513848   4.535   4.169  14.629  0.0174 -0.7380 -0.3088
    3TMC2    C613849   4.522   4.268  14.719 -0.5563  0.1172  0.3015
    3TMC2     C13850   0.032   3.942  14.799  0.5057  0.7205  0.3362
    3TMC2     O13851   0.026   3.850  14.720 -1.0707  0.1813 -1.0534
    3TMC2     H13852   4.719   4.147  14.963 -0.2954 -0.9887 -0.4141
    3TMC2    H113853   4.624   3.984  14.577  1.5120  0.4178  0.7120
    3TMC2    H213854   4.466   4.359  14.698  0.3966  0.9688  1.4176
    3TMC2    C713855   4.486   4.179  14.497  0.7069  0.5275 -0.9866
    3TMC2    C813856   4.572   4.378  14.925  0.0037  0.4870  0.2624
    3TMC2    O113857   4.450   4.073  14.450 -0.6947 -0.1444  0.5931
    3TMC2    O213858   4.459   4.410  14.964  0.3101  0.0809  0.1672
    3TMC2    O513859   4.682   4.391  14.990  0.4045  0.6147  0.1579
    3TMC2    H513860   0.038   4.364  14.936 -0.5297  0.5196 -1.1370
    4MPD2     C13861   3.859   0.220  13.937  0.4407  0.1959 -0.2087
    4MPD2    C113862   3.924   0.207  13.822  1.0570  0.0887 -0.6926
    4MPD2    C213863   4.068   0.197  13.823  0.4770 -0.0906 -0.4899
    4MPD2    C313864   4.136   0.220  13.938 -0.3543  0.1889 -0.5435
    4MPD2    C413865   4.069   0.245  14.058 -0.3889  0.3275  0.2584
    4MPD2    C513866   3.931   0.240  14.057  0.4086  0.0158  0.2958
    4MPD2     H13867   4.127   0.190  13.732  0.8970 -0.2604 -0.2005
    4MPD2    H113868   4.117   0.255  14.155 -0.2099  1.4029  0.0520
    4MPD2    H213869   3.751   0.214  13.936  0.4112  1.1428 -1.4725
    4MPD2    H313870   3.875   0.268  14.145 -2.8389 -0.1906 -1.7253
    4MPD2     N13871   4.278   0.231  13.938 -0.3152  0.2839 -0.3674
    4MPD2    H513872   4.325   0.203  13.853 -2.2137 -0.6157 -1.1353
    4MPD2    N113873   3.848   0.185  13.702  0.0306 -0.1423  0.5273
    4MPD2    H713874   3.747   0.183  13.715 -0.2660 -2.6693 -2.0191
    5TCq2    C113875   4.360   0.276  14.039 -0.0197  0.1637  0.5811
    5TCq2    O213876   4.340   0.334  14.145  0.0140  0.1410 -0.4803
    5TCq2    C213877   4.501   0.248  14.000 -0.7580  0.2041  0.4541
    5TCq2    C313878   4.517   0.232  13.864 -0.2999  0.3445 -0.1554
    5TCq2    C413879   4.614   0.150  13.821  0.0001  0.2521  0.6102
    5TCq2    C513880   4.692   0.086  13.912  0.1728 -0.4630 -0.3273
    5TCq2    C613881   4.681   0.101  14.049 -0.8650  0.0696  0.0927
    5TCq2    C713882   4.583   0.188  14.093 -0.4744 -0.1643 -0.3893
    5TCq2    C813883   4.678   4.703  14.126 -0.6308  0.3303 -0.4074
    5TCq2    O413884   4.720   4.713  14.237  0.2111 -0.1273 -0.5531
    5TCq2    C913885   4.643   0.145  13.680  0.5137  0.3346 -0.0648
    5TCq2    O513886   4.553   0.184  13.608  0.1321 -0.2344  0.2761
    5TCq2    O613887   0.035   0.103  13.646  0.3582 -0.0361  0.2854
    5TCq2    H213888   4.472   0.300  13.792  0.3909  0.0110 -0.8998
    5TCq2    H313889   0.043   0.020  13.866 -0.9024 -1.9529  0.1067
    5TCq2    H413890   4.553   0.201  14.196  0.3224 -0.3014 -0.1437
    6MPD1     C13891   3.407   1.141  11.935 -0.2988 -0.4521 -0.0123
    6MPD1    C113892   3.306   1.117  12.023 -0.4727  0.3345  0.6035
    6MPD1    C213893   3.327   1.060  12.144  0.1054  0.6700 -0.5821
    6MPD1    C313894   3.458   1.023  12.177  0.1816 -0.8742  0.7638
    6MPD1    C413895   3.558   1.040  12.088 -0.1525  0.8586  0.4745
    6MPD1    C513896   3.535   1.096  11.963 -0.2126  1.1616  0.3838
    6MPD1     H13897   3.241   1.063  12.211  1.5143 -1.3533  1.2932
    6MPD1    H113898   3.660   1.008  12.105  0.5747  1.7996 -2.0052
    6MPD1    H213899   3.394   1.193  11.841 -0.1634  0.4366  0.4605
    6MPD1    H313900   3.620   1.116  11.898 -1.1220  3.1986 -0.1753
    6MPD1     N13901   3.490   0.952  12.292  0.2253  0.5003 -0.0380
    6MPD1    H513902   3.588   0.927  12.301 -0.2550 -0.5445  2.2158
    6MPD1    N113903   3.182   1.172  11.997  0.0715 -0.1292  0.4097
    6MPD1    H613904   3.166   1.178  11.896  2.2597  1.5017  0.1605
    6MPD1    H713905   3.106   1.118  12.038  0.3092 -0.3954  0.5005
    7MPD2     C13906   3.352   0.757  13.150 -0.3406 -0.9746  1.3223
    7MPD2    C113907   3.460   0.694  13.090  0.3341  0.4669  0.4028
    7MPD2    C213908   3.510   0.583  13.145 -1.0250  0.6213  0.2401
    7MPD2    C313909   3.451   0.526  13.257 -0.2131 -0.2315  0.5677
    7MPD2    C413910   3.348   0.592  13.318 -0.6732 -0.9773  0.5208
    7MPD2    C513911   3.297   0.706  13.266 -0.6611  0.3687  0.3669
    7MPD2     H13912   3.596   0.535  13.101 -1.7398 -0.6771  0.2330
    7MPD2    H113913   3.320   0.556  13.417 -1.9351  0.3187  0.6413
    7MPD2    H213914   3.302   0.847  13.116 -0.0847 -0.9028  1.1327
    7MPD2    H313915   3.221   0.759  13.323 -0.9110  0.7737 -0.3379
    7MPD2     N13916   3.511   0.403  13.307 -0.4888  0.5265 -0.5228
    7MPD2    H513917   3.590   0.370  13.252  0.9552  2.2691  0.5186
    7MPD2    N113918   3.506   0.723  12.959 -0.5171  0.1571 -0.3190
    7MPD2    H713919   3.580   0.667  12.917 -0.0305 -0.5321  1.4571
    8TMC3    C113920   3.555   0.214  13.420 -0.2369 -0.5476  0.2282
    8TMC3    C213921   3.650   0.214  13.514  0.4481 -0.3423 -0.1564
    8TMC3    C313922   3.781   0.185  13.475  0.0240 -0.0321  0.1381
    8TMC3    C413923   3.581   0.179  13.293  0.2928  0.0029 -0.5244
    8TMC3    C513924   3.703   0.158  13.246  0.2047 -0.0573 -0.0463
    8TMC3    C613925   3.806   0.167  13.336  0.3019  0.1764 -0.5948
    8TMC3     C13926   3.477   0.335  13.422  0.4389  0.7392 -0.2852
    8TMC3     O13927   3.457   0.379  13.530  0.4111 -0.4812 -0.4546
    8TMC3     H13928   3.636   0.266  13.608 -1.7140  1.4165 -1.4573
    8TMC3    H113929   3.492   0.171  13.232 -0.6235 -1.7184  1.0503
    8TMC3    H213930   3.908   0.151  13.304  0.7823  1.4062  0.3125
    8TMC3    C713931   3.726   0.194  13.105 -0.3516 -0.0946 -0.5497
    8TMC3    C813932   3.896   0.179  13.568  0.6176  0.2044  0.0939
    8TMC3    O113933   3.820   0.276  13.089  0.0737 -0.0101  0.6317
    8TMC3    O213934   4.006   0.161  13.515 -0.0803  0.5162 -0.4636
    9TMC3    C113935   3.465   0.841  12.502 -0.0875 -0.8798 -0.5120
    9TMC3    C213936   3.539   0.734  12.464  0.4652 -0.5375  0.7175
    9TMC3    C313937   3.594   0.654  12.561 -0.3240  0.0078 -0.1712
    9TMC3    C413938   3.435   0.864  12.632  0.1820 -0.1616  0.2419
    9TMC3    C513939   3.500   0.793  12.727 -0.4700  0.1499 -0.6398
    9TMC3    C613940   3.587   0.692  12.692  0.0657  0.5800 -0.3639
    9TMC3     C13941   3.401   0.918  12.393  0.0330 -0.6445  0.4500
    9TMC3     O13942   3.283   0.939  12.402  0.6455 -0.0058  0.3419
    9TMC3     H13943   3.549   0.704  12.360  1.1487 -0.1424  0.6641
    9TMC3    H113944   3.368   0.948  12.649 -1.8506 -0.9207 -3.9298
    9TMC3    H213945   3.652   0.647  12.765  2.5647 -0.7525 -3.3888
    9TMC3    C713946   3.457   0.815  12.870 -0.1507  0.7538  0.0773
    9TMC3    C813947   3.579   0.508  12.535 -0.4999 -0.0920  0.4300
    9TMC3    O113948   3.371   0.896  12.891  0.0431  0.4962  0.0175
    9TMC3    O213949   3.487   0.472  12.466 -0.0862  0.2543  0.1288
   10MPD2     C13950   3.490   0.097  12.837  0.3043  0.4807  0.8006
   10MPD2    C113951   3.588   0.177  12.891 -0.6760 -0.0404  0.1351
   10MPD2    C213952   3.640   0.286  12.822  0.2078 -0.7021 -0.0270
   10MPD2    C313953   3.601   0.319  12.698 -0.4070  0.6922 -0.3006
   10MPD2    C413954   3.504   0.238  12.639  0.3489 -0.4245 -0.5523
   10MPD2    C513955   3.449   0.139  12.710 -0.6950  0.6323 -1.2909
   10MPD2     H13956   3.721   0.337  12.874 -1.0065 -0.5968  1.7288
   10MPD2    H113957   3.461   0.266  12.543 -1.7319  0.5556  0.6499
   10MPD2    H213958   3.434   0.016  12.883  1.6548  0.7304  2.8532
   10MPD2    H313959   3.365   0.093  12.659 -0.3754  0.7816 -1.9552
   10MPD2     N13960   3.642   0.443  12.636  0.6002  0.3361  0.2509
   10MPD2    H513961   3.708   0.495  12.693  0.4837  0.1419  0.5653
   10MPD2    N113962   3.628   0.138  13.023  0.4542  0.2415  0.1384
   10MPD2    H713963   3.585   0.054  13.061  1.5023 -1.0060 -1.3681
   11MPD2     C13964   4.420   4.259  14.214 -0.6384  0.2566  0.3280
   11MPD2    C113965   4.484   4.338  14.302 -0.3304  0.4933  0.6490
   11MPD2    C213966   4.540   4.458  14.261 -0.2166 -0.6731  0.6987
   11MPD2    C313967   4.531   4.499  14.130  0.5756  0.0923  0.5568
   11MPD2    C413968   4.461   4.417  14.046  0.3748 -0.4833 -0.2063
   11MPD2    C513969   4.411   4.298  14.086 -0.0863 -0.5128  0.5747
   11MPD2     H13970   4.594   4.514  14.336 -3.1114  1.8001  0.9408
   11MPD2    H113971   4.463   4.444  13.941  0.4697  0.6726  0.0887
   11MPD2    H213972   4.380   4.162  14.240  0.1857 -0.2250 -0.1843
   11MPD2    H313973   4.367   4.222  14.022  0.6339 -0.2041 -0.3056
   11MPD2     N13974   4.594   4.614  14.071 -0.0982  0.6182 -0.1148
   11MPD2    H513975   4.561   4.634  13.977 -1.5511  2.1809  0.7253
   11MPD2    N113976   4.499   4.309  14.442  0.0831  0.0612 -0.1720
   11MPD2    H713977   4.551   4.375  14.499  0.2275  0.7766 -1.1471
    1MPD1     C13978   2.209   0.901   0.247 -0.1074 -0.1204  0.6382
    1MPD1    C113979   2.137   0.923   0.128 -0.0010  0.0405  0.0451
    1MPD1    C213980   2.196   1.013   0.034  0.0069 -0.7574 -0.7885
    1MPD1    C313981   2.293   1.098   0.079 -0.2300  0.0844  0.0044
    1MPD1    C413982   2.350   1.090   0.201  0.5374 -0.2685 -0.6125
    1MPD1    C513983   2.303   0.995   0.286  0.7796  0.2105 -0.0913
    1MPD1     H13984   2.155   1.013  17.621  1.3730  2.0114 -1.3503
    1MPD1    H113985   2.430   1.158   0.229  0.5037 -0.7261  0.5788
    1MPD1    H213986   2.187   0.830   0.325 -2.1267 -1.3492 -1.0484
    1MPD1    H313987   2.344   0.977   0.384 -3.4663 -1.5291  1.3554
    1MPD1     N13988   2.349   1.197  17.672 -0.4115  0.6931  0.4152
    1MPD1    H513989   2.421   1.259   0.020 -0.3937  0.0202  1.5540
    1MPD1    N113990   2.042   0.830   0.080 -0.6113  0.2293 -0.1417
    1MPD1    H613991   1.980   0.791   0.150  0.2733 -1.5857 -0.3792
    1MPD1    H713992   1.978   0.862   0.008 -1.1545 -0.7135 -0.0630
    2MPD1     C13993   3.170   1.236   0.033  0.0871  0.0507 -0.8693
    2MPD1    C113994   3.067   1.147   0.057 -0.1762 -0.1873 -0.2052
    2MPD1    C213995   2.946   1.161  17.676  0.1564  0.4672 -0.0793
    2MPD1    C313996   2.928   1.262  17.585  0.2837  0.0934 -0.4070
    2MPD1    C413997   3.032   1.346  17.558  0.4196  0.7612 -0.2167
    2MPD1    C513998   3.149   1.331  17.625 -0.3530 -0.1000  0.8459
    2MPD1     H13999   2.867   1.093   0.016 -0.3899  0.8059 -0.8058
    2MPD1    H114000   3.027   1.430  17.489 -1.3632 -1.7992 -3.1854
    2MPD1    H214001   3.260   1.234   0.093 -1.2472 -1.5200  1.0797
    2MPD1    H314002   3.230   1.400  17.605 -1.0747  0.2645 -0.7852
    2MPD1     N14003   2.801   1.261  17.524  0.3057  1.1314  0.3210
    2MPD1    H514004   2.746   1.178  17.544 -1.7396  2.3557 -0.2461
    2MPD1    N114005   3.091   1.038   0.146 -0.3224  0.0410 -0.1110
    2MPD1    H614006   3.006   1.004   0.190  0.3368 -0.5961  0.6510
    2MPD1    H714007   3.157   1.069   0.216 -0.1199  0.1690 -0.3584
    3TMC3    C114008   2.618   1.341  17.397 -0.4156  0.0031 -0.2180
    3TMC3    C214009   2.566   1.419  17.290 -0.2971 -0.1809  1.1354
    3TMC3    C314010   2.437   1.440  17.284  0.3233 -0.4750 -0.0485
    3TMC3    C414011   2.534   1.301  17.502 -0.7805  0.5427 -0.5463
    3TMC3    C514012   2.395   1.316  17.486 -0.0815 -0.2939 -0.1080
    3TMC3    C614013   2.350   1.385  17.379 -0.0018 -0.5634 -0.7242
    3TMC3     C14014   2.755   1.349  17.430  0.5402  0.2597 -0.3443
    3TMC3     O14015   2.822   1.438  17.383  0.1399  0.0514 -0.1100
    3TMC3     H14016   2.635   1.489  17.244 -0.3501 -1.0838 -0.2934
    3TMC3    H114017   2.574   1.235  17.578 -0.5701 -0.7932 -1.8224
    3TMC3    H214018   2.243   1.382  17.368 -0.2696 -0.3505  1.9076
    3TMC3    C714019   2.307   1.222  17.546  0.7256 -0.8841 -0.5433
    3TMC3    C814020   2.371   1.491  17.163  0.0831 -0.0220 -0.1007
    3TMC3    O114021   2.204   1.186  17.488  0.2776  0.2791 -0.5016
    3TMC3    O214022   2.250   1.520  17.166  0.3502  0.2504  0.6641
    4MPD1     C14023   2.381   1.545  16.656 -0.3600 -0.9517  0.0073
    4MPD1    C114024   2.503   1.500  16.695  0.6240  0.3609  0.4566
    4MPD1    C214025   2.524   1.487  16.832  0.3852  1.0933 -0.3856
    4MPD1    C314026   2.417   1.506  16.919 -1.1266  0.0603 -0.1426
    4MPD1    C414027   2.289   1.545  16.873  0.0017 -0.3725  0.4266
    4MPD1    C514028   2.277   1.571  16.739  0.1134 -0.1119  0.0628
    4MPD1     H14029   2.618   1.458  16.878 -0.5276  0.3146  1.0064
    4MPD1    H114030   2.203   1.542  16.938  0.1614 -0.6749  0.6251
    4MPD1    H214031   2.357   1.560  16.551 -0.3471 -0.6523  0.0474
    4MPD1    H314032   2.179   1.592  16.697 -0.0321  0.7971  0.8390
    4MPD1     N14033   2.452   1.482  17.053 -0.8746 -0.4259 -0.2070
    4MPD1    H514034   2.542   1.444  17.080 -0.2496  1.8532  0.9058
    4MPD1    N114035   2.606   1.487  16.601 -0.8022 -0.3952  0.8788
    4MPD1    H614036   2.659   1.400  16.612  0.6909  0.4887  0.7206
    4MPD1    H714037   2.564   1.468  16.510  0.9296  1.4471 -0.3179
    1TCq1    O114038   3.647   0.467  11.850  0.0845 -0.5950 -0.2068
    1TCq1    C114039   3.775   0.510  11.836  0.2568  0.5157  0.0329
    1TCq1    O214040   3.829   0.516  11.723 -0.1000  0.5602  0.1943
    1TCq1    C214041   3.798   0.616  11.931 -0.6780 -0.2037  0.0874
    1TCq1    C314042   3.857   0.732  11.899 -0.6066  0.2084  0.1028
    1TCq1    C414043   3.905   0.814  11.998 -0.5197 -0.4558 -0.3699
    1TCq1    C514044   3.865   0.795  12.129 -0.2415  0.1634 -0.3645
    1TCq1    C614045   3.817   0.669  12.162  0.5737 -0.4212  0.2916
    1TCq1    C714046   3.782   0.585  12.066  0.5598  0.2007  0.1990
    1TCq1    C814047   3.855   0.610  12.292 -0.3131  0.4387 -0.6405
    1TCq1    O414048   3.867   0.489  12.297  0.2437  0.4451  0.2073
    1TCq1    C914049   3.924   0.952  11.965  0.4458  0.5524  0.6106
    1TCq1    O514050   3.926   0.988  11.846 -0.0478  0.0642 -0.2921
    1TCq1    O614051   3.949   1.027  12.065  0.6273  0.3756 -0.9205
    1TCq1    H114052   3.600   0.506  11.927 -0.8603 -0.3724 -0.8984
    1TCq1    H214053   3.837   0.766  11.798 -2.0090 -2.5599 -0.5618
    1TCq1    H314054   3.891   0.867  12.205  0.4168  0.7476 -1.1438
    1TCq1    H414055   3.758   0.482  12.089 -2.2103  0.9353  0.6216
    2MPD1     C14056   4.072   0.650  12.753  0.1528 -0.1156 -0.0592
    2MPD1    C114057   4.060   0.774  12.702 -0.5963 -0.5410  0.1450
    2MPD1    C214058   3.990   0.788  12.579  0.2157  0.1831  0.4719
    2MPD1    C314059   3.955   0.679  12.509 -0.4549 -0.6252 -0.0957
    2MPD1    C414060   3.981   0.553  12.560  0.2212  0.2201 -0.1795
    2MPD1    C514061   4.046   0.541  12.678 -0.5393  0.8814 -0.2644
    2MPD1     H14062   3.977   0.889  12.542 -1.0988  0.9972  3.1398
    2MPD1    H114063   3.953   0.466  12.503  1.5672 -0.3173 -0.0406
    2MPD1    H214064   4.112   0.637  12.853 -1.2127  0.3586  0.5554
    2MPD1    H314065   4.062   0.445  12.726  3.5936  1.2801 -0.8609
    2MPD1     N14066   3.895   0.704  12.385  0.0992  0.4106  0.0036
    2MPD1    H514067   3.868   0.799  12.361  1.0239  0.9071  0.9336
    2MPD1    N114068   4.078   0.886  12.780 -0.8854 -0.1470  0.4840
    2MPD1    H614069   4.119   0.959  12.722  0.7729 -0.1355  1.7017
    2MPD1    H714070   4.151   0.862  12.846  1.1181  2.1522 -0.9448
    1TCq1    O114071   0.858   3.485   1.301  0.0032  0.7331  0.3765
    1TCq1    C114072   0.883   3.608   1.243  0.2465  0.4312  0.9270
    1TCq1    O214073   0.886   3.608   1.120  0.0745  0.3806  0.2384
    1TCq1    C214074   0.973   3.684   1.337  0.0619 -0.3852 -0.3426
    1TCq1    C314075   1.094   3.708   1.279  0.1634 -0.4404  0.4453
    1TCq1    C414076   1.187   3.760   1.354  0.5673  0.8559  0.4043
    1TCq1    C514077   1.168   3.768   1.495 -0.2315  0.2984  0.1895
    1TCq1    C614078   1.043   3.746   1.550  0.1895  0.1113 -0.0578
    1TCq1    C714079   0.944   3.695   1.471 -0.6509  0.6683 -0.1908
    1TCq1    C814080   1.023   3.760   1.698 -0.9257 -0.0824 -0.2484
    1TCq1    O414081   1.115   3.806   1.764 -0.3294 -0.0685 -0.3729
    1TCq1    C914082   1.316   3.756   1.300 -0.1429 -0.1091  0.0740
    1TCq1    O514083   1.330   3.694   1.186  0.0084 -0.0145  0.1960
    1TCq1    O614084   1.404   3.815   1.366  0.2815 -0.7024  0.0364
    1TCq1    H114085   0.896   3.483   1.391  1.2565  1.8286 -0.1239
    1TCq1    H214086   1.095   3.693   1.171 -0.5211  0.6057  0.2956
    1TCq1    H314087   1.251   3.790   1.561 -1.2925  3.6860  0.4340
    1TCq1    H414088   0.848   3.656   1.501 -0.4234  0.5505  0.3806
    2MPD1     C14089   0.736   3.658   2.103 -0.2936  0.4237 -0.2252
    2MPD1    C114090   0.663   3.617   1.999  0.2838 -0.1142  0.2696
    2MPD1    C214091   0.726   3.622   1.872  0.6423 -0.3665  0.3989
    2MPD1    C314092   0.852   3.690   1.865  0.0490 -0.4882 -0.4795
    2MPD1    C414093   0.914   3.748   1.974  0.2709 -0.0411 -0.2322
    2MPD1    C514094   0.850   3.731   2.091  0.8734  0.0701  0.1393
    2MPD1     H14095   0.687   3.587   1.778  2.3350  0.9570 -0.8043
    2MPD1    H114096   1.011   3.795   1.971  0.2650 -0.1333 -1.9821
    2MPD1    H214097   0.689   3.655   2.201 -0.3056 -1.4270 -0.2963
    2MPD1    H314098   0.902   3.764   2.181 -1.5895 -0.1711  1.6474
    2MPD1     N14099   0.901   3.705   1.735 -0.5664 -0.2104  0.0557
    2MPD1    H514100   0.842   3.663   1.665  1.0659  0.9104 -2.0123
    2MPD1    N114101   0.553   3.532   2.004 -0.2170 -0.0472  0.3601
    2MPD1    H614102   0.492   3.537   1.922  1.3762 -0.5383 -0.8375
    2MPD1    H714103   0.500   3.553   2.089  0.4323  3.2947 -0.0530
    1MPD1     C14104   4.387   1.956  11.398  0.6727 -0.6553  0.5751
    1MPD1    C114105   4.502   1.978  11.327  0.0856  0.7833  0.2271
    1MPD1    C214106   4.624   1.968  11.386  0.1947  0.1166  0.2046
    1MPD1    C314107   4.632   1.949  11.521 -0.3186 -0.0121 -0.0743
    1MPD1    C414108   4.518   1.918  11.597  0.1363  0.4656 -0.5486
    1MPD1    C514109   4.394   1.925  11.532 -0.2230 -0.2112 -0.1545
    1MPD1     H14110   4.715   1.994  11.334  0.3817  1.5399  1.2478
    1MPD1    H114111   4.521   1.900  11.704  0.1276 -2.7900 -1.0886
    1MPD1    H214112   4.287   1.959  11.357 -1.3720 -3.1193  5.3280
    1MPD1    H314113   4.301   1.913  11.587  1.5429  0.1854  2.8966
    1MPD1     N14114   0.038   1.968  11.581 -0.3896 -0.3693  0.4105
    1MPD1    H514115   0.098   2.024  11.521 -1.0338  0.4821  0.5668
    1MPD1    N114116   4.489   1.992  11.188 -0.5618  0.2380 -0.8772
    1MPD1    H614117   4.402   2.032  11.153 -0.7570 -0.4175 -1.1410
    1MPD1    H714118   4.565   2.048  11.149 -0.2556  0.6357  0.2955
    2MPD1     C14119   0.285   2.099  11.337 -0.1739  0.2487  0.0828
    2MPD1    C114120   0.281   1.962  11.312 -0.4944  0.9783 -0.0107
    2MPD1    C214121   0.223   1.920  11.195  0.9765  0.2588 -0.4246
    2MPD1    C314122   0.176   2.008  11.101  0.4258  0.3054  0.9651
    2MPD1    C414123   0.184   2.143  11.127 -0.0417 -0.4125  0.4025
    2MPD1    C514124   0.238   2.186  11.243  0.1859 -0.2112  0.4368
    2MPD1     H14125   0.217   1.814  11.174 -0.8803 -0.0545  1.7875
    2MPD1    H114126   0.138   2.217  11.063  0.5883  1.8886  2.6149
    2MPD1    H214127   0.331   2.137  11.427 -2.2473 -1.2102  1.7648
    2MPD1    H314128   0.251   2.291  11.264 -1.1378  0.2347 -0.9685
    2MPD1     N14129   0.111   1.973  10.983 -0.1628  1.0006  0.4564
    2MPD1    H514130   0.099   2.045  10.913  3.4953  0.5243 -0.6911
    2MPD1    N114131   0.300   1.872  11.418  0.3230 -0.1142  0.3697
    2MPD1    H614132   0.373   1.901  11.483 -0.7293 -0.8925  1.9139
    2MPD1    H714133   0.335   1.787  11.375 -3.1192 -1.1708 -0.3457
    3MPD1     C14134   4.394   1.126  10.761 -0.9171 -0.1935 -0.0678
    3MPD1    C114135   4.454   1.168  10.875 -0.3198  0.2855 -0.5195
    3MPD1    C214136   4.538   1.281  10.868 -0.3617  0.5350 -0.3557
    3MPD1    C314137   4.571   1.331  10.746 -0.0126  0.1798 -0.5920
    3MPD1    C414138   4.505   1.289  10.633  0.1873  0.0744  0.7210
    3MPD1    C514139   4.399   1.200  10.646 -0.3842  0.6664 -0.0127
    3MPD1     H14140   4.572   1.323  10.962 -0.0727  0.2487 -0.3294
    3MPD1    H114141   4.522   1.334  10.536  0.6176 -0.5559  0.5022
    3MPD1    H214142   4.321   1.046  10.753  0.1904 -1.0917 -1.2838
    3MPD1    H314143   4.363   1.178  10.546  1.0053  1.8196 -0.7674
    3MPD1     N14144   4.663   1.437  10.744  0.4978  0.3909 -0.3972
    3MPD1    H514145   4.704   1.459  10.834 -2.2316  2.4408  0.3643
    3MPD1    N114146   4.412   1.119  10.997 -0.2572 -0.4066 -0.3029
    3MPD1    H614147   4.387   1.022  10.985 -2.6276 -0.0827  2.3202
    3MPD1    H714148   4.472   1.139  11.077  0.4409  1.2926 -1.2451
    4MPD2     C14149   0.394   2.486  11.444 -0.5010 -1.0232 -0.3097
    4MPD2    C114150   0.453   2.373  11.472 -0.4134 -0.4695 -0.5133
    4MPD2    C214151   0.544   2.314  11.390 -0.3581 -0.0526 -0.4360
    4MPD2    C314152   0.588   2.371  11.272 -0.0429  0.0893  0.6626
    4MPD2    C414153   0.509   2.481  11.232 -0.2013  0.4655  0.4581
    4MPD2    C514154   0.409   2.530  11.316 -0.5143 -0.2988  0.4376
    4MPD2     H14155   0.586   2.222  11.428 -1.1713 -0.3919 -0.3519
    4MPD2    H114156   0.521   2.524  11.133  0.3437 -1.1242 -0.1675
    4MPD2    H214157   0.327   2.538  11.512  3.1133  0.0022  2.4352
    4MPD2    H314158   0.357   2.618  11.279  0.8077 -1.3084 -3.9057
    4MPD2     N14159   0.685   2.315  11.179  0.0365 -0.4767 -0.3156
    4MPD2    H514160   0.696   2.364  11.090  0.3934 -2.5208 -1.3964
    4MPD2    N114161   0.431   2.306  11.589  0.1789 -0.1007 -0.3278
    4MPD2    H714162   0.485   2.222  11.607  1.0209  0.5547  0.1937
    5TMC3    C114163   0.305   2.206  11.766  0.1356 -0.6059 -0.3274
    5TMC3    C214164   0.192   2.134  11.733 -0.8568  0.3242 -0.3029
    5TMC3    C314165   0.202   2.001  11.748  0.1651 -0.7397  0.2348
    5TMC3    C414166   0.428   2.144  11.780  0.1485  0.2403  0.3977
    5TMC3    C514167   0.442   2.010  11.774 -0.8021 -0.1026  0.2377
    5TMC3    C614168   0.319   1.937  11.763  0.6815  0.2028  0.6838
    5TMC3     C14169   0.319   2.319  11.678  0.7615  0.5308 -0.4139
    5TMC3     O14170   0.223   2.395  11.664  0.3903 -0.1183 -0.5604
    5TMC3     H14171   0.094   2.178  11.723 -0.9595 -0.3267 -2.3920
    5TMC3    H114172   0.514   2.207  11.800  1.9132 -1.4847 -1.6812
    5TMC3    H214173   0.314   1.828  11.760  0.7030  0.2507 -1.5221
    5TMC3    C714174   0.550   1.976  11.687  0.4288 -0.4603  0.3590
    5TMC3    C814175   0.077   1.935  11.707  0.3725  1.1748 -0.3410
    5TMC3    O114176   0.608   2.070  11.630 -0.0205  0.6093 -0.2789
    5TMC3    O214177   0.025   1.842  11.778 -0.1355  0.5063 -0.8407
    6TMC3    C114178   0.039   1.825  10.809 -0.1094  0.4679 -0.2000
    6TMC3    C214179   4.718   1.700  10.778  0.0712 -0.5535  0.0938
    6TMC3    C314180   0.049   1.640  10.674 -0.4121 -0.0563  0.2192
    6TMC3    C414181   0.123   1.892  10.717  0.0698  0.5254  0.5673
    6TMC3    C514182   0.151   1.836  10.596 -0.2604  1.0679  0.0118
    6TMC3    C614183   0.126   1.705  10.581 -0.5098  0.5369  0.5772
    6TMC3     C14184   0.070   1.848  10.950  0.7151  0.3132 -0.2155
    6TMC3     O14185   0.051   1.752  11.021 -0.5336 -0.3033 -0.7835
    6TMC3     H14186   4.648   1.661  10.851 -2.2549 -2.3210 -3.0683
    6TMC3    H114187   0.172   1.987  10.734  0.2451  0.9418 -2.3540
    6TMC3    H214188   0.158   1.639  10.502  3.3212  0.5409  2.1275
    6TMC3    C714189   0.270   1.893  10.537 -0.0274  0.3162 -0.5576
    6TMC3    C814190   4.699   1.521  10.638 -0.0633 -1.1561 -0.1527
    6TMC3    O114191   0.369   1.820  10.539  0.4956 -0.1278  0.2076
    6TMC3    O214192   4.680   1.510  10.516  0.5963  0.2303 -0.4341
    7MPD2     C14193   0.742   1.657  11.332  0.0873  0.3993  0.7189
    7MPD2    C114194   0.750   1.793  11.336 -0.9992  0.5690 -0.6714
    7MPD2    C214195   0.682   1.861  11.443 -0.4038 -0.1068  0.4575
    7MPD2    C314196   0.609   1.789  11.539 -0.8525 -0.4336 -0.3085
    7MPD2    C414197   0.603   1.652  11.522  0.2172  0.6429 -0.6573
    7MPD2    C514198   0.677   1.589  11.429  0.8311  0.0359 -1.0568
    7MPD2     H14199   0.688   1.969  11.452  0.2912 -0.2212  1.3616
    7MPD2    H114200   0.554   1.596  11.601 -3.1990  1.3086 -2.2625
    7MPD2    H214201   0.796   1.606  11.253  0.6605  2.9030 -0.5068
    7MPD2    H314202   0.665   1.481  11.424  0.1485 -0.0646  2.7255
    7MPD2     N14203   0.558   1.845  11.654  0.3162  0.2327 -0.4036
    7MPD2    H514204   0.497   1.787  11.711 -1.3369  1.2832 -1.0766
    7MPD2    N114205   0.795   1.874  11.228 -0.0716 -0.8542 -0.1137
    7MPD2    H714206   0.785   1.973  11.247 -1.9175 -1.1064  0.3089
    8TMC3    C114207   0.913   1.946  11.042  0.2464  0.1617 -1.0978
    8TMC3    C214208   0.851   1.950  10.923  0.0526 -0.8325  0.2889
    8TMC3    C314209   0.796   2.063  10.882  0.2489  0.6655  0.1029
    8TMC3    C414210   0.922   2.060  11.125 -0.3382  0.3047 -0.0019
    8TMC3    C514211   0.842   2.165  11.092  0.2159 -0.8504 -0.5237
    8TMC3    C614212   0.779   2.168  10.967 -0.8156 -0.5485  0.7929
    8TMC3     C14213   0.879   1.834  11.128 -0.0203 -0.4565 -0.1064
    8TMC3     O14214   0.887   1.724  11.084 -0.4120 -0.1173 -0.0566
    8TMC3     H14215   0.861   1.863  10.858 -0.9483  0.1770 -1.2129
    8TMC3    H114216   0.982   2.050  11.215  0.5548  2.2433 -0.3832
    8TMC3    H214217   0.703   2.241  10.942 -0.1062 -0.4348 -1.0459
    8TMC3    C714218   0.771   2.211  11.206 -0.0184  0.3301  0.1181
    8TMC3    C814219   0.730   2.068  10.750 -0.0284  0.3848  0.3955
    8TMC3    O114220   0.782   2.143  11.307  0.7210 -0.1072 -0.2259
    8TMC3    O214221   0.708   1.960  10.691 -0.2870  0.2299  0.2624
    9MPD2     C14222   0.562   2.311  10.535 -0.3246  0.4651 -0.2714
    9MPD2    C114223   0.577   2.195  10.607  0.4526  0.3002  0.5468
    9MPD2    C214224   0.471   2.101  10.585 -0.1619  0.3643 -0.0968
    9MPD2    C314225   0.360   2.122  10.508 -1.2086  0.4723  0.1330
    9MPD2    C414226   0.353   2.246  10.440 -0.9689  0.1555  0.2789
    9MPD2    C514227   0.459   2.329  10.449  0.0957  0.4830 -0.1253
    9MPD2     H14228   0.477   2.010  10.644  0.3121  0.3576 -0.1544
    9MPD2    H114229   0.276   2.280  10.371  0.0408 -1.0614 -1.4403
    9MPD2    H214230   0.639   2.387  10.540 -0.3393  0.5285 -1.0668
    9MPD2    H314231   0.457   2.427  10.402  2.2760 -0.1727 -1.5695
    9MPD2     N14232   0.259   2.028  10.503  0.7948 -0.2300 -0.0592
    9MPD2    H514233   0.169   2.048  10.462  1.3402  2.7232  0.2194
    9MPD2    N114234   0.684   2.189  10.702  0.3507  1.2084 -0.1957
    9MPD2    H714235   0.703   2.274  10.754 -2.8057  1.2151  0.8962
    1MPD1     C14236   4.502   0.534  15.920 -0.3451 -0.5077  0.0499
    1MPD1    C114237   4.491   0.401  15.962 -0.4410 -0.2558 -0.5356
    1MPD1    C214238   4.367   0.371  16.023 -0.3112 -0.0285 -0.3290
    1MPD1    C314239   4.261   0.459  16.033  0.1052 -0.4560  0.5182
    1MPD1    C414240   4.279   0.584  15.986 -0.2425 -0.5074  0.5715
    1MPD1    C514241   4.399   0.622  15.933 -0.0869 -0.3851 -0.6362
    1MPD1     H14242   4.368   0.270  16.064 -0.3147 -0.6064 -1.7639
    1MPD1    H114243   4.198   0.655  15.985 -0.4586 -0.7443  1.9473
    1MPD1    H214244   4.599   0.567  15.886 -0.3800  0.2638  0.6905
    1MPD1    H314245   4.411   0.725  15.903  2.0760 -0.5652 -0.3736
    1MPD1     N14246   4.137   0.416  16.087  0.3350 -0.5028  0.1052
    1MPD1    H514247   4.067   0.488  16.098  1.7205  0.9653 -0.5750
    1MPD1    N114248   4.598   0.309  15.965 -0.4281  0.7947 -0.4668
    1MPD1    H614249   4.653   0.314  15.879  1.5438 -0.8568  0.6868
    1MPD1    H714250   4.572   0.211  15.976 -0.8540  1.0356  0.6564
    2MPD1     C14251   3.891   4.436  16.749  0.2726 -0.2975  0.5965
    2MPD1    C114252   3.999   4.473  16.679 -0.3512  1.3614  0.6632
    2MPD1    C214253   3.993   4.571  16.591  0.2837 -0.3571  0.6696
    2MPD1    C314254   3.875   4.636  16.562 -0.1678  0.0224  0.2678
    2MPD1    C414255   3.767   4.593  16.639  0.1256 -0.2797 -0.0220
    2MPD1    C514256   3.771   4.500  16.736 -0.2265 -0.4751 -0.3990
    2MPD1     H14257   4.079   4.593  16.528 -0.0442 -1.0946 -0.0314
    2MPD1    H114258   3.674   4.646  16.623  0.7017  0.9359  0.6484
    2MPD1    H214259   3.902   4.361  16.827  2.4622  0.5354  1.0862
    2MPD1    H314260   3.682   4.473  16.790 -1.2932  0.4683 -1.6653
    2MPD1     N14261   3.874   0.015  16.461 -0.1526  0.1317  0.1683
    2MPD1    H514262   3.962   0.018  16.409  0.0866  1.3719  0.6555
    2MPD1    N114263   4.130   4.436  16.710  0.1496  0.1184  0.3637
    2MPD1    H614264   4.203   4.442  16.639  1.1203  3.2683  1.6506
    2MPD1    H714265   4.142   4.346  16.756 -2.0549 -0.9411 -1.1614
    3TCq2    C114266   3.772   0.102  16.437  0.3247 -0.3490 -0.0732
    3TCq2    O214267   3.655   0.106  16.482  0.1373  0.2216  0.2595
    3TCq2    C214268   3.812   0.192  16.327  0.1700 -0.5928 -0.2353
    3TCq2    C314269   3.716   0.282  16.281 -0.5044  0.3128  0.4703
    3TCq2    C414270   3.746   0.358  16.174  0.0324  0.3682  0.1383
    3TCq2    C514271   3.870   0.357  16.113 -0.1165 -0.5406 -0.5226
    3TCq2    C614272   3.968   0.294  16.186 -0.5128  0.9439 -0.1440
    3TCq2    C714273   3.944   0.207  16.288 -0.6610  0.2242  0.1055
    3TCq2    C814274   4.107   0.295  16.137 -0.4135  0.0590 -0.1183
    3TCq2    O414275   4.172   0.194  16.146 -0.2094 -0.2079  0.3275
    3TCq2    C914276   3.640   0.454  16.129 -0.2257 -0.0590 -0.4144
    3TCq2    O514277   3.544   0.469  16.204 -0.2882 -0.0692 -0.1491
    3TCq2    O614278   3.655   0.482  16.009  0.1104  0.6043 -1.1123
    3TCq2    H214279   3.620   0.297  16.330 -0.7875 -0.4730  0.1574
    3TCq2    H314280   3.889   0.419  16.027  0.5623 -0.6389 -0.4404
    3TCq2    H414281   4.032   0.165  16.336 -1.2798  0.6397  1.5848
    1TCq1    O114282   3.018   3.490  12.708 -0.2858  0.0874  0.1728
    1TCq1    C114283   3.030   3.617  12.723 -0.0444 -0.2251  0.3892
    1TCq1    O214284   3.135   3.676  12.703 -0.0574 -0.2352  0.1382
    1TCq1    C214285   2.907   3.660  12.785  0.2283  0.1952 -0.6818
    1TCq1    C314286   2.793   3.586  12.756  0.3293 -0.1800 -0.4554
    1TCq1    C414287   2.689   3.605  12.843  0.6551  0.3533 -0.0359
    1TCq1    C514288   2.696   3.693  12.949 -0.0437  0.7999 -0.4207
    1TCq1    C614289   2.811   3.759  12.974 -0.8881  0.4807 -0.3514
    1TCq1    C714290   2.922   3.737  12.895 -1.4455  1.0484  0.1912
    1TCq1    C814291   2.807   3.858  13.084  0.0742 -0.3483 -0.7237
    1TCq1    O414292   2.690   3.899  13.104 -0.0546  0.4121 -0.5232
    1TCq1    C914293   2.581   3.520  12.837 -0.6276 -0.4445  0.3105
    1TCq1    O514294   2.499   3.524  12.926  0.2878  0.0444  0.0773
    1TCq1    O614295   2.602   3.422  12.754  0.4587 -0.7471  0.2850
    1TCq1    H114296   2.947   3.443  12.757  1.3550 -2.4586  0.0990
    1TCq1    H214297   2.778   3.521  12.670 -1.1388 -0.2204 -0.1714
    1TCq1    H314298   2.615   3.698  13.020  0.4441  0.1588  0.1862
    1TCq1    H414299   3.010   3.797  12.915 -1.3346  0.5754  1.1119
    2MPD2     C14300   2.856   4.094  13.233  0.0394  0.4778  0.1190
    2MPD2    C114301   2.961   4.012  13.194 -0.4810 -0.7625 -0.6110
    2MPD2    C214302   3.089   4.042  13.249 -0.1697  0.2525  0.3768
    2MPD2    C314303   3.113   4.156  13.329  0.3259 -0.6333  0.1110
    2MPD2    C414304   3.003   4.237  13.356 -0.3665 -0.1021 -0.1070
    2MPD2    C514305   2.877   4.200  13.317  0.3286 -0.0276  0.7927
    2MPD2     H14306   3.168   3.985  13.202 -2.3458 -1.4393 -1.2067
    2MPD2    H114307   3.009   4.335  13.402 -3.4640  1.6169 -3.4303
    2MPD2    H214308   2.757   4.088  13.190  0.3300  4.4604 -1.1806
    2MPD2    H314309   2.797   4.272  13.330  1.8249  1.5094  1.5151
    2MPD2     N14310   3.248   4.185  13.369  0.3384 -0.1338 -0.1593
    2MPD2    H514311   3.316   4.111  13.357  0.2285  0.0188 -1.7468
    2MPD2    N114312   2.935   3.889  13.129 -0.5020 -0.3692 -0.4578
    2MPD2    H714313   3.015   3.828  13.112  1.3120  1.5429  1.2605
    3TCq1    O114314   3.743   4.154  13.701  0.3097 -0.1178 -0.0728
    3TCq1    C114315   3.619   4.206  13.727  0.2622 -0.3301 -0.3169
    3TCq1    O214316   3.526   4.142  13.782 -0.2143 -0.2706  0.1612
    3TCq1    C214317   3.577   4.278  13.612 -0.1765  0.5943 -0.0154
    3TCq1    C314318   3.666   4.366  13.561 -0.2555 -0.2201  0.0340
    3TCq1    C414319   3.634   4.430  13.444  0.2147 -0.8550  0.2354
    3TCq1    C514320   3.507   4.406  13.393  0.5336 -0.3429  0.1003
    3TCq1    C614321   3.423   4.314  13.454 -0.2531 -0.4055  0.5361
    3TCq1    C714322   3.454   4.242  13.562  0.2682  0.3952  0.4661
    3TCq1    C814323   3.291   4.309  13.403  0.1190 -0.4374 -0.1901
    3TCq1    O414324   3.233   4.412  13.386  0.0830  0.0173 -0.5031
    3TCq1    C914325   3.708   4.539  13.394 -0.4009  0.3477 -0.2707
    3TCq1    O514326   3.801   4.584  13.463 -0.3686  0.5754  0.6246
    3TCq1    O614327   3.680   4.574  13.275  0.0020 -0.1802  0.0840
    3TCq1    H114328   3.775   4.184  13.613  0.8955  1.8152  0.8049
    3TCq1    H214329   3.756   4.403  13.609  0.1567  1.0284 -1.7026
    3TCq1    H314330   3.467   4.468  13.314  1.0581 -1.5886 -1.1495
    3TCq1    H414331   3.385   4.175  13.613  0.1966  0.1692  0.0716
    1MPD2     C14332   2.053   4.593  14.366 -0.1595 -0.0618  0.4991
    1MPD2    C114333   1.925   4.643  14.374 -0.3908  0.5171  0.1865
    1MPD2    C214334   1.833   4.577  14.294  0.3302  0.1611 -0.5603
    1MPD2    C314335   1.857   4.468  14.217 -0.0878  0.0508  0.1874
    1MPD2    C414336   1.983   4.418  14.214  0.4527 -0.3000 -1.1195
    1MPD2    C514337   2.081   4.490  14.284 -0.0329  0.3203  0.1637
    1MPD2     H14338   1.735   4.623  14.283 -0.1175 -0.7649 -0.4822
    1MPD2    H114339   2.014   4.345  14.140  1.9695 -4.4439  3.6507
    1MPD2    H214340   2.134   4.629  14.428  1.0083 -0.5885 -0.6962
    1MPD2    H314341   2.184   4.460  14.269  0.2063  1.0437  0.3844
    1MPD2     N14342   1.766   4.401  14.133  0.3563 -0.2301  0.1507
    1MPD2    H514343   1.796   4.311  14.095  0.0868 -1.1494  2.0777
    1MPD2    N114344   1.903   0.037  14.451 -0.0406 -0.0254 -0.0270
    1MPD2    H714345   1.979   0.084  14.499 -0.4476 -0.9405  1.5287
    2TMC3    C114346   1.770   0.200  14.557  0.2334  0.3251 -0.2148
    2TMC3    C214347   1.642   0.217  14.597  0.4772  0.1934 -0.3854
    2TMC3    C314348   1.578   0.333  14.558 -0.9659  0.5043  0.3422
    2TMC3    C414349   1.842   0.298  14.490 -0.3693  0.3281  1.1829
    2TMC3    C514350   1.773   0.416  14.462  1.3018 -0.3217  0.4613
    2TMC3    C614351   1.642   0.439  14.499 -0.2515 -0.4593 -0.7190
    2TMC3     C14352   1.776   0.069  14.496  0.4337 -0.7498  0.4235
    2TMC3     O14353   1.670   0.020  14.468  0.0322 -0.2018  0.5540
    2TMC3     H14354   1.597   0.145  14.665  1.5397 -0.1593 -0.0552
    2TMC3    H114355   1.937   0.272  14.445  1.5511 -0.1528  5.4461
    2TMC3    H214356   1.585   0.520  14.456 -0.1162 -0.1909 -0.3984
    2TMC3    C714357   1.844   0.521  14.385  0.0160  0.3278  0.0939
    2TMC3    C814358   1.442   0.306  14.520 -0.1877 -0.7623 -0.1189
    2TMC3    O114359   1.777   0.608  14.331  0.0136 -0.3206 -0.3030
    2TMC3    O214360   1.371   0.405  14.504  0.0876  0.2656 -0.0018
    3TCq1    O114361   3.012   0.954  14.616  0.2168 -0.0346  0.0857
    3TCq1    C114362   2.891   1.023  14.603  0.2502 -0.0419 -0.6935
    3TCq1    O214363   2.878   1.129  14.539  0.2567  0.3156  0.4480
    3TCq1    C214364   2.794   0.914  14.595 -0.2327 -0.1984 -0.6948
    3TCq1    C314365   2.808   0.813  14.684 -0.3120 -0.0078 -0.0444
    3TCq1    C414366   2.735   0.697  14.657 -0.1617  0.1906  0.4821
    3TCq1    C514367   2.637   0.688  14.567 -0.9487 -0.3847  0.4500
    3TCq1    C614368   2.619   0.800  14.489 -0.5614  0.1383 -0.0822
    3TCq1    C714369   2.702   0.906  14.499 -0.4685  0.2133 -0.3961
    3TCq1    C814370   2.497   0.819  14.406 -0.0415 -0.0209  0.6487
    3TCq1    O414371   2.480   0.930  14.360 -0.1789  0.3446  0.5772
    3TCq1    C914372   2.767   0.585  14.743  0.1209 -0.1194  0.8856
    3TCq1    O514373   2.668   0.524  14.793 -0.2223 -0.1104  0.0553
    3TCq1    O614374   2.888   0.566  14.767  0.0848  0.1162 -0.0547
    3TCq1    H114375   3.016   0.857  14.633 -1.4221  0.5735  4.0329
    3TCq1    H214376   2.871   0.812  14.773  0.1287  1.0388 -0.3451
    3TCq1    H314377   2.582   0.596  14.554 -0.8105 -0.5202  0.8479
    3TCq1    H414378   2.703   0.985  14.425 -2.4001 -0.1681 -0.8352
    4MPD2     C14379   2.263   0.775  14.229 -0.1369  0.3428  0.3803
    4MPD2    C114380   2.290   0.705  14.344 -0.2537  0.0800  0.2289
    4MPD2    C214381   2.196   0.621  14.399 -0.5670  0.1279 -0.3650
    4MPD2    C314382   2.069   0.615  14.347  0.4396 -0.0862  0.4279
    4MPD2    C414383   2.036   0.698  14.245  0.3486 -0.2039 -0.2819
    4MPD2    C514384   2.132   0.771  14.188  0.0829 -0.2969 -0.3306
    4MPD2     H14385   2.221   0.548  14.475 -0.4107  0.6936  0.1207
    4MPD2    H114386   1.936   0.709  14.203  0.9141  2.3267 -1.0035
    4MPD2    H214387   2.336   0.835  14.176  1.6374 -1.5668  0.6603
    4MPD2    H314388   2.102   0.824  14.098  1.5520 -0.5727 -0.9819
    4MPD2     N14389   1.978   0.520  14.408  1.0214 -0.1011 -0.1504
    4MPD2    H514390   2.014   0.454  14.476 -1.9910  2.1335  3.5883
    4MPD2    N114391   2.417   0.708  14.407 -0.9304  0.3249  0.1183
    4MPD2    H714392   2.437   0.624  14.460 -1.9963  0.1522  0.2479
    5TMC2    C114393   1.366   4.328  14.289 -0.4502  0.4060  0.5646
    5TMC2    C214394   1.426   4.223  14.347  0.1670 -1.2102 -0.4210
    5TMC2    C314395   1.538   4.165  14.280 -0.3556 -0.1897  0.8164
    5TMC2    C414396   1.427   4.382  14.175  0.7657  0.2006 -0.2441
    5TMC2    C514397   1.545   4.335  14.114 -0.1648 -0.1841  1.2566
    5TMC2    C614398   1.589   4.220  14.168 -0.3607  0.3685 -0.1288
    5TMC2     C14399   1.298   4.418  14.384 -0.1609  0.1173 -0.1466
    5TMC2     O14400   1.355   4.426  14.492  0.1467 -0.1567 -0.0488
    5TMC2     H14401   1.410   4.195  14.451  0.0581  0.1489 -0.0770
    5TMC2    H114402   1.391   4.481  14.149 -0.2119 -0.6119 -1.9734
    5TMC2    H214403   1.677   4.169  14.132  1.0979  1.1612  2.2986
    5TMC2    C714404   1.641   4.439  14.118  0.5215  0.3380  0.3052
    5TMC2    C814405   1.584   4.041  14.319 -0.3150 -0.1639 -0.1899
    5TMC2    O114406   1.608   4.555  14.111  0.2001  0.1416  0.4343
    5TMC2    O214407   1.687   3.990  14.277 -0.3373 -0.0049  0.6736
    5TMC2    O514408   1.482   3.979  14.384  0.4983  0.2917 -0.4668
    5TMC2    H514409   1.398   3.998  14.337 -1.0507 -2.4178  1.2446
    6MPD2     C14410   1.203   0.195  14.370 -0.4368 -0.2239 -1.1804
    6MPD2    C114411   1.298   0.120  14.432 -0.3934 -0.0669 -0.5365
    6MPD2    C214412   1.280   4.706  14.424 -0.0479  0.3021  0.1146
    6MPD2    C314413   1.190   4.633  14.357  0.7171 -0.3590  0.2253
    6MPD2    C414414   1.100   4.711  14.282  0.5324 -0.1456 -0.6668
    6MPD2    C514415   1.107   0.127  14.295  0.4255 -0.7329  0.1233
    6MPD2     H14416   1.357   4.649  14.475 -0.2009  0.7822  0.9001
    6MPD2    H114417   1.030   4.677  14.206 -0.6028  2.7576 -0.9561
    6MPD2    H214418   1.200   0.302  14.358  1.1881 -0.0118  0.3629
    6MPD2    H314419   1.053   0.184  14.221  1.5406 -2.6232 -2.1370
    6MPD2     N14420   1.208   4.498  14.320 -0.0317 -0.0042 -0.3208
    6MPD2    H514421   1.167   4.472  14.231 -1.0356 -0.2001  0.1995
    6MPD2    N114422   1.414   0.175  14.494  0.1221  0.6932  0.8013
    6MPD2    H714423   1.492   0.112  14.507 -1.1856 -0.6453  2.1896
  945NH3     N114424   3.958   2.947  15.476  0.7042  1.3577  0.2059
  945NH3     H214425   4.052   2.948  15.437  0.5177 -0.3646 -0.2735
  945NH3     H314426   3.911   2.879  15.418  2.5336  0.6176 -0.3897
  945NH3     H414427   3.930   3.039  15.442 -1.5482  0.3888 -0.5057
  946SOD     NA14428   4.093   3.573  14.607  0.4854  0.3719 -0.4437
  947SOD     NA14429   3.059   0.967  15.193 -0.5381 -0.1793 -0.3534
  948SOD     NA14430   1.675   0.386  10.321 -0.0392  0.5120 -0.4011
  949SOD     NA14431   1.639   0.694   8.660 -0.7074  0.1789  0.3947
  950SOD     NA14432   0.580   4.418   8.943 -0.0002 -0.0317 -0.0077
  951SOD     NA14433   0.699   2.939  14.399 -0.1081  0.3932  0.1378
  952SOD     NA14434   4.483   1.884   3.035  0.1228  0.0669 -0.0430
  953SOD     NA14435   1.424   1.224   2.992 -0.1195 -0.1944  0.0139
  954SOD     NA14436   3.026   4.241  12.106 -0.4194 -0.0314 -0.2319
  955SOD     NA14437   3.580   4.438  14.734 -0.1035  0.1601 -0.3051
  956SOD     NA14438   4.432   2.193   1.962  0.4049 -0.0056 -0.2418
  957SOD     NA14439   1.968   4.563   5.021 -0.2809 -0.3635  0.5327
  958SOD     NA14440   4.205   2.889  12.501 -0.2083  0.0972  0.1751
  959SOD     NA14441   3.381   3.973  13.791  0.0579 -0.5778  0.0435
  960SOD     NA14442   0.782   4.644  13.169 -0.2996  0.0069 -0.1653
  961SOD     NA14443   1.536   0.119  10.151 -0.2136  0.5156 -0.3208
  962SOD     NA14444   1.017   2.389  12.669  0.2262  0.0951 -0.0860
  963SOD     NA14445   3.602   4.612  15.044 -0.3828  0.3815 -0.0683
  964SOD     NA14446   3.068   2.552  11.214 -0.0970 -0.2762  0.5301
  965SOD     NA14447   3.407   0.520  11.735 -0.0795 -0.5014  0.5011
  966SOD     NA14448   2.349   3.564  10.368  0.0460  0.1271 -0.5585
  967SOD     NA14449   2.960   3.483  10.693 -0.1519  0.1967  0.2015
  968SOD     NA14450   4.611   4.038  16.740  0.6299 -0.0637  0.3513
  969SOD     NA14451   2.934   3.750   9.876 -0.5532 -0.4580 -0.0240
  970SOD     NA14452   3.771   0.514  11.222  0.0833  0.0428 -0.2274
  971SOD     NA14453   4.188   0.076  13.424  0.6287 -0.0233  0.3620
  972SOD     NA14454   1.170   2.042   9.831  0.0936  0.5439  0.1199
  973SOD     NA14455   2.718   4.175  11.617  0.2911  0.0333  0.0660
  974SOD     NA14456   3.387   0.606  16.240 -0.2551  0.3155 -0.2617
  975SOD     NA14457   1.182   3.321  15.073 -0.1610  0.7731 -0.2534
  976SOD     NA14458   0.926   2.643   7.528  0.6842 -0.3779  0.3125
  977SOD     NA14459   1.765   0.304  10.001 -0.3830  0.1000 -0.2706
  978SOD     NA14460   4.330   3.685   1.656 -0.1941  0.4655 -0.0556
  979SOD     NA14461   0.618   3.258  11.773  0.4273  0.4964 -0.1021
  980SOD     NA14462   4.223   3.625  15.508 -0.4288  0.1670 -0.5220
  981SOD     NA14463   0.132   1.985   1.728  0.2487 -0.0431 -0.2753
  982SOD     NA14464   1.688   4.186   0.314  0.2960 -0.2061 -0.3335
  983SOD     NA14465   2.499   3.403   4.294 -0.4422  0.0945  0.0565
  984SOD     NA14466   4.641   0.508  13.246  0.0923  0.1878 -0.0503
  985SOD     NA14467   2.311   1.819   9.689  0.2482  0.2050 -0.1821
  986SOD     NA14468   1.244   3.969  15.447  0.3726  0.0202  0.0832
  987SOD     NA14469   4.695   3.979   4.740  0.0501 -0.1659 -0.3510
  988SOD     NA14470   4.483   1.968   1.687  0.2230 -0.1079 -0.6873
  989SOD     NA14471   0.382   1.384  11.186 -0.5260  0.0878 -0.1331
  990SOD     NA14472   3.833   2.754   0.007 -0.0164 -0.0142 -0.1035
  991SOD     NA14473   4.186   3.316   0.797 -0.2965 -0.4817  0.4779
  992SOD     NA14474   2.665   0.415  14.142  0.6560 -0.2540  0.4705
  993SOD     NA14475   1.121   1.167   0.878  0.3601  0.1686 -0.4343
  994SOD     NA14476   2.857   3.918  12.041  0.3882 -0.2395 -0.1245
  995SOD     NA14477   0.230   4.216  15.504 -0.0616  0.4486 -0.0703
  996SOD     NA14478   2.245   2.212   0.914 -0.2811 -0.5304 -0.2813
  997SOD     NA14479   0.403   3.662   4.328 -0.1742  0.5655  0.1869
  998SOD     NA14480   0.798   0.367  16.511  0.2234 -0.1115  0.0689
  999SOD     NA14481   4.105   1.900  14.621 -0.4178 -0.2174  0.1744
 1000SOD     NA14482   0.092   1.713  15.546 -0.1233 -0.5446  0.0373
 1001SOD     NA14483   3.542   3.579   1.947 -0.1917  0.3698  0.0309
 1002SOD     NA14484   4.465   1.136  13.775 -0.1547 -0.0237 -0.0300
 1003SOD     NA14485   0.664   4.301   0.659 -0.0008 -0.2792 -0.1365
 1004SOD     NA14486   2.462   3.490  13.143  0.0896  0.1394  0.7250
 1005SOD     NA14487   1.855   0.682  16.637 -0.2383 -0.5763 -0.4915
 1006SOD     NA14488   3.206   1.188  11.238 -0.0984 -0.7675 -0.3782
 1007SOD     NA14489   2.419   3.812  10.167  0.1556 -0.2402 -0.2252
 1008SOD     NA14490   2.690   0.315  14.796 -0.0096 -0.3085  0.4978
 1009SOD     NA14491   3.024   2.611   9.279  0.4262 -0.1961 -0.1206
 1010SOD     NA14492   2.599   3.821  10.374 -0.3239 -0.3199 -0.2136
 1011SOD     NA14493   2.362   2.619  12.754  0.1538  0.1319 -0.1242
 1012SOL     OW14494   4.489   2.567   3.917  0.1459 -0.0449 -0.0649
 1012SOL    HW114495   4.462   2.508   3.987  1.3657  1.1559  1.4249
 1012SOL    HW214496   4.469   2.513   3.841  0.2324 -0.2905  0.0890
 1013SOL     OW14497   0.463   3.761   4.704  0.0026  0.1422  0.5178
 1013SOL    HW114498   0.502   3.792   4.786 -1.2291  2.0097  0.4008
 1013SOL    HW214499   0.457   3.670   4.731 -0.3547  0.0219  0.0272
 1014SOL     OW14500   1.379   3.430   9.313 -0.1248 -0.4072  0.0143
 1014SOL    HW114501   1.410   3.362   9.372 -2.6631  0.7856  2.7177
 1014SOL    HW214502   1.295   3.454   9.353  1.4413  1.0089  2.4537
 1015SOL     OW14503   0.775   2.134   5.083  0.7296 -0.6434  0.1664
 1015SOL    HW114504   0.792   2.088   5.001  0.7407  2.3379 -1.5155
 1015SOL    HW214505   0.854   2.187   5.095  0.0382  0.0411  1.6668
 1016SOL     OW14506   0.541   1.471   4.107 -0.3750 -0.3381  0.2921
 1016SOL    HW114507   0.462   1.477   4.052  0.3160 -0.5731 -0.7136
 1016SOL    HW214508   0.609   1.429   4.055  1.2721 -0.3652  2.4674
 1017SOL     OW14509   2.949   2.450  11.374 -0.1763 -0.0953 -0.3231
 1017SOL    HW114510   2.876   2.495  11.416  0.3483 -1.7611  2.3836
 1017SOL    HW214511   2.981   2.397  11.447 -2.7171  0.0124  0.8777
 1018SOL     OW14512   4.390   1.646   1.514 -0.4431 -0.1691  0.4671
 1018SOL    HW114513   4.363   1.669   1.602 -2.3103  1.4304 -0.5139
 1018SOL    HW214514   4.337   1.703   1.457  0.2018 -1.4094 -1.3926
 1019SOL     OW14515   4.535   4.698   9.265 -0.3945 -0.3123 -0.3610
 1019SOL    HW114516   4.447   0.004   9.290  0.3242  1.1498  0.5517
 1019SOL    HW214517   4.539   4.627   9.329  0.2737 -0.8134 -0.9531
 1020SOL     OW14518   0.479   1.587   6.343  0.0655  0.4225  0.6036
 1020SOL    HW114519   0.397   1.570   6.387  0.3563  1.0897  1.4048
 1020SOL    HW214520   0.475   1.537   6.261  0.8952 -0.7514  1.2803
 1021SOL     OW14521   0.473   2.480   3.825 -0.3654 -0.1032 -0.2068
 1021SOL    HW114522   0.403   2.491   3.889 -1.4235 -4.6223 -0.6033
 1021SOL    HW214523   0.512   2.403   3.866 -1.5517 -0.5963 -0.0137
 1022SOL     OW14524   2.153   2.717   7.967  0.1853 -0.1374  0.2524
 1022SOL    HW114525   2.233   2.768   7.955 -0.7354  1.4847  0.8615
 1022SOL    HW214526   2.091   2.776   7.923 -0.5298 -1.0020  0.0975
 1023SOL     OW14527   0.218   3.056   6.485 -0.4788 -0.1992  0.0499
 1023SOL    HW114528   0.313   3.053   6.472 -0.4339  0.7232  0.1456
 1023SOL    HW214529   0.181   2.972   6.456  1.4723 -0.7141 -0.9828
 1024SOL     OW14530   4.245   2.094   6.635  0.8693  0.5389  0.1848
 1024SOL    HW114531   4.237   2.181   6.596  0.1725  0.3973  0.0084
 1024SOL    HW214532   4.288   2.120   6.716  2.6885  2.7321 -1.4880
 1025SOL     OW14533   1.730   3.105  13.382  0.7022 -0.2317  0.0505
 1025SOL    HW114534   1.659   3.112  13.446 -0.0827 -1.2271 -0.6916
 1025SOL    HW214535   1.686   3.144  13.306  0.7237 -1.4926 -0.6114
 1026SOL     OW14536   4.478   2.973   3.442  0.8152 -0.3705  0.1216
 1026SOL    HW114537   4.463   3.067   3.452 -0.3450 -0.6434  0.8167
 1026SOL    HW214538   4.455   2.969   3.349 -0.9900 -1.5062  0.6306
 1027SOL     OW14539   1.266   3.746   3.076 -0.6855 -0.3721 -0.1236
 1027SOL    HW114540   1.270   3.771   2.984  0.6126 -2.4434 -0.6291
 1027SOL    HW214541   1.243   3.831   3.115  0.4961  0.1215 -0.5120
 1028SOL     OW14542   3.487   2.625   8.595  0.2570  0.3397  0.1209
 1028SOL    HW114543   3.513   2.713   8.622 -1.4895  0.2155  2.1787
 1028SOL    HW214544   3.436   2.605   8.673  0.1715 -0.7686 -0.2201
 1029SOL     OW14545   0.160   0.962   7.606 -0.4419 -0.3515  0.8765
 1029SOL    HW114546   0.114   0.929   7.529 -0.5243 -0.9922  1.1979
 1029SOL    HW214547   0.212   1.039   7.584 -3.3363  0.9781 -1.3304
 1030SOL     OW14548   1.369   3.254   5.723 -0.0937  0.0127  0.1894
 1030SOL    HW114549   1.389   3.276   5.632 -3.1059 -0.4543 -0.5882
 1030SOL    HW214550   1.407   3.329   5.770  0.3653  1.2242 -2.0890
 1031SOL     OW14551   1.974   1.931  17.252 -0.1114 -0.6256  0.1943
 1031SOL    HW114552   2.064   1.948  17.279 -0.7844 -2.3328  3.4682
 1031SOL    HW214553   1.993   1.857  17.195 -2.9854 -2.1078  1.1889
 1032SOL     OW14554   2.141   2.267  11.865  1.0135 -0.4894 -0.1187
 1032SOL    HW114555   2.154   2.174  11.880 -0.6070 -0.7647 -0.3928
 1032SOL    HW214556   2.204   2.297  11.931  0.6362 -1.9397  0.8951
 1033SOL     OW14557   4.518   0.939   4.817 -0.3477 -0.6553  0.6995
 1033SOL    HW114558   4.433   0.894   4.814 -1.1126  0.9893 -1.7189
 1033SOL    HW214559   4.576   0.869   4.789  0.5411  0.2899  0.1835
 1034SOL     OW14560   3.896   3.712   9.760  0.4094  0.0910  0.6994
 1034SOL    HW114561   3.886   3.618   9.745  2.3907  0.2230 -1.3875
 1034SOL    HW214562   3.851   3.730   9.843 -2.5718 -2.5967 -0.3390
 1035SOL     OW14563   2.504   1.386  12.674  0.6888  0.1233  0.2377
 1035SOL    HW114564   2.538   1.407  12.761  2.4320 -2.0795  0.0825
 1035SOL    HW214565   2.439   1.321  12.699  0.2160  0.9299  1.1320
 1036SOL     OW14566   2.616   4.569   9.113 -0.2732  0.3444 -0.2095
 1036SOL    HW114567   2.615   4.481   9.074  0.9288  0.4479 -0.4791
 1036SOL    HW214568   2.540   4.548   9.167  0.6784 -0.3420  0.8754
 1037SOL     OW14569   1.796   0.213   4.052  0.6157 -0.1842  0.1117
 1037SOL    HW114570   1.842   0.206   4.135  0.5768  1.6652  0.2954
 1037SOL    HW214571   1.846   0.285   4.013  1.8764 -1.2923 -0.3085
 1038SOL     OW14572   3.097   0.720   1.181  0.7710 -0.3876 -0.2216
 1038SOL    HW114573   3.169   0.748   1.124  1.0572 -0.3195  0.1738
 1038SOL    HW214574   3.067   0.638   1.142 -1.4347  1.4408 -2.3318
 1039SOL     OW14575   1.490   0.763  10.537 -1.0266 -0.1738 -0.1495
 1039SOL    HW114576   1.509   0.681  10.491 -2.6254 -0.7459  0.1909
 1039SOL    HW214577   1.574   0.809  10.536 -1.1214 -0.0323 -1.4989
 1040SOL     OW14578   1.873   2.130   8.182  0.3231  0.0709 -0.2690
 1040SOL    HW114579   1.894   2.048   8.138  3.5594  1.1639 -0.8178
 1040SOL    HW214580   1.960   2.160   8.209 -0.7636  1.3677  1.8092
 1041SOL     OW14581   4.679   2.266   2.968 -0.2346  0.0209  0.2096
 1041SOL    HW114582   4.659   2.345   2.919 -1.4193 -1.9100 -2.4061
 1041SOL    HW214583   0.004   2.219   2.898 -2.7718 -1.9621 -0.1376
 1042SOL     OW14584   2.803   3.804  10.051  0.0961  0.0776 -0.0130
 1042SOL    HW114585   2.824   3.733  10.113 -1.0586 -1.0269 -0.9051
 1042SOL    HW214586   2.744   3.858  10.104  0.9251  0.6009  0.3758
 1043SOL     OW14587   0.397   2.052  13.961 -0.1581  0.1031 -0.2740
 1043SOL    HW114588   0.305   2.034  13.940  0.0563 -0.4788 -0.6889
 1043SOL    HW214589   0.427   2.051  13.871  2.7343 -1.8218  0.7428
 1044SOL     OW14590   1.625   0.265   2.835  0.0926  0.5249  0.4647
 1044SOL    HW114591   1.653   0.284   2.745 -1.1553  0.7974  0.1380
 1044SOL    HW214592   1.530   0.273   2.826  0.5026  0.6518 -4.1269
 1045SOL     OW14593   0.550   1.400   2.784  0.2624  0.3794 -0.7724
 1045SOL    HW114594   0.479   1.402   2.848  0.6874  0.5676 -0.3049
 1045SOL    HW214595   0.619   1.353   2.830 -0.6489 -0.0259  0.1616
 1046SOL     OW14596   1.595   0.275   4.497  0.6419 -0.3119 -0.3414
 1046SOL    HW114597   1.504   0.281   4.471  0.7526  1.1035 -0.4253
 1046SOL    HW214598   1.585   0.312   4.585 -0.6307  1.3234 -1.1743
 1047SOL     OW14599   0.078   1.427   2.921 -0.3121 -0.1384  0.2313
 1047SOL    HW114600   0.033   1.475   2.850 -1.0584  0.1174  0.8719
 1047SOL    HW214601   0.012   1.431   2.991 -0.4467 -0.0376  0.1013
 1048SOL     OW14602   2.254   4.155   8.871 -0.4397 -0.1267 -0.2155
 1048SOL    HW114603   2.203   4.114   8.941 -1.1428  1.1618  0.0330
 1048SOL    HW214604   2.288   4.234   8.914 -0.8140  0.3585 -0.8174
 1049SOL     OW14605   1.372   1.976   4.852 -0.4173 -0.1934 -0.5406
 1049SOL    HW114606   1.321   1.895   4.849 -0.8729  0.1444 -1.9583
 1049SOL    HW214607   1.462   1.943   4.855  0.4095  2.2817  1.8277
 1050SOL     OW14608   0.752   3.131   6.431 -0.1743  0.2026  0.2964
 1050SOL    HW114609   0.830   3.171   6.471 -1.2728  3.0921 -0.4291
 1050SOL    HW214610   0.786   3.110   6.344  0.4327 -1.3876  0.9328
 1051SOL     OW14611   1.056   3.929  12.529  0.5022  0.5925  0.1694
 1051SOL    HW114612   1.064   3.862  12.461 -1.9639  1.0039 -0.5133
 1051SOL    HW214613   1.020   4.005  12.483  1.1072  0.6177 -0.2744
 1052SOL     OW14614   0.276   2.910   5.656 -0.0416  0.4924  0.0590
 1052SOL    HW114615   0.213   2.855   5.610 -0.9531  0.7369  1.0221
 1052SOL    HW214616   0.303   2.970   5.587  1.1195 -0.1935 -0.0850
 1053SOL     OW14617   1.103   2.152   3.683  0.1197 -0.2278 -0.0260
 1053SOL    HW114618   1.070   2.118   3.600  2.3889 -1.4847 -0.4001
 1053SOL    HW214619   1.066   2.089   3.744 -0.2365  0.3282  0.3376
 1054SOL     OW14620   3.778   2.736  12.956 -0.9103  0.2327  0.5190
 1054SOL    HW114621   3.871   2.713  12.955 -1.6356 -2.6267 -0.3430
 1054SOL    HW214622   3.735   2.659  12.993 -1.7040 -1.2771 -3.6216
 1055SOL     OW14623   1.663   1.467   3.231 -0.3244  0.3708  0.0908
 1055SOL    HW114624   1.706   1.432   3.309 -0.5304 -0.9266 -0.3749
 1055SOL    HW214625   1.739   1.491   3.178 -1.1767  0.1773 -1.2257
 1056SOL     OW14626   0.987   2.835  17.253 -0.1424  0.5349 -0.6476
 1056SOL    HW114627   1.068   2.877  17.282 -0.1839  1.1441 -1.3994
 1056SOL    HW214628   0.927   2.860  17.323 -0.1557  0.6024 -0.6823
 1057SOL     OW14629   2.231   3.747   5.086  0.7588 -0.1691 -0.1919
 1057SOL    HW114630   2.181   3.722   5.163  0.0047 -1.0251 -0.9531
 1057SOL    HW214631   2.220   3.672   5.027 -0.8807  0.2219 -0.3841
 1058SOL     OW14632   1.757   4.465   6.412  0.1900  0.0807  0.2531
 1058SOL    HW114633   1.664   4.486   6.423 -0.2116 -2.3063  1.4966
 1058SOL    HW214634   1.795   4.552   6.421  2.2828 -1.2323  4.0083
 1059SOL     OW14635   0.957   0.777   2.755 -0.7288 -0.3943  0.3376
 1059SOL    HW114636   0.977   0.792   2.663 -0.5728  0.8216  0.5681
 1059SOL    HW214637   0.978   0.685   2.766  2.3532  0.5352  2.1527
 1060SOL     OW14638   3.482   2.067   8.290  0.0299 -0.2422 -0.2853
 1060SOL    HW114639   3.534   2.021   8.355  1.4107  0.0252 -1.2163
 1060SOL    HW214640   3.548   2.110   8.237  0.7323  0.8529  1.4901
 1061SOL     OW14641   3.573   0.170  15.927  0.0746  0.5544 -0.0757
 1061SOL    HW114642   3.573   0.204  15.837  0.3538  1.9008  0.4275
 1061SOL    HW214643   3.556   0.252  15.974 -2.8566 -0.8218  1.2503
 1062SOL     OW14644   2.698   1.810   3.886 -0.1149  0.1643  0.0415
 1062SOL    HW114645   2.638   1.777   3.819  1.2469 -1.7192 -0.2379
 1062SOL    HW214646   2.670   1.753   3.958 -1.5256  1.6533  0.6763
 1063SOL     OW14647   2.413   2.208   9.516  0.2963  0.1750  0.0879
 1063SOL    HW114648   2.348   2.253   9.569 -0.6537 -1.3188  0.1905
 1063SOL    HW214649   2.489   2.213   9.575  2.1265 -1.0227 -2.1513
 1064SOL     OW14650   0.159   0.386   5.681 -0.0851  0.0325 -0.0780
 1064SOL    HW114651   0.223   0.390   5.751 -0.3779 -0.5860  0.2217
 1064SOL    HW214652   0.096   0.454   5.701 -1.0825 -0.5756 -1.1479
 1065SOL     OW14653   1.007   1.730   3.043  0.0620 -0.1590  0.1182
 1065SOL    HW114654   1.050   1.788   3.106 -0.3974 -1.7152  1.8833
 1065SOL    HW214655   1.043   1.757   2.959  0.1936 -1.2733 -0.1916
 1066SOL     OW14656   2.211   2.759  16.702 -0.0634 -0.0145  0.3707
 1066SOL    HW114657   2.133   2.809  16.728 -0.1430 -0.6506  1.3702
 1066SOL    HW214658   2.271   2.832  16.692  1.4206 -0.8622  3.0465
 1067SOL     OW14659   3.315   3.311   8.249  0.3248 -0.0623 -0.5200
 1067SOL    HW114660   3.321   3.265   8.332 -0.6926  1.6029  0.4763
 1067SOL    HW214661   3.292   3.401   8.275  0.3195  0.1004 -1.0745
 1068SOL     OW14662   2.607   3.687   7.972 -0.4720 -0.8074 -0.3302
 1068SOL    HW114663   2.660   3.753   7.926  1.5654 -1.8192  0.5629
 1068SOL    HW214664   2.538   3.744   8.007  0.4030 -0.0954  0.2488
 1069SOL     OW14665   1.036   2.352   9.324  0.5234  0.1664 -0.3628
 1069SOL    HW114666   0.992   2.288   9.268  2.0369 -0.9776 -0.2463
 1069SOL    HW214667   0.963   2.369   9.383 -0.5732  0.0555 -1.6673
 1070SOL     OW14668   1.855   1.987   6.335  0.2911  0.2414 -0.1430
 1070SOL    HW114669   1.900   1.903   6.333 -0.0511  0.0621 -0.3549
 1070SOL    HW214670   1.764   1.969   6.359  0.6101 -1.4695 -0.1915
 1071SOL     OW14671   3.526   0.329   6.041 -0.2655  0.3599 -0.0549
 1071SOL    HW114672   3.583   0.405   6.031 -0.8413  0.9073  0.7766
 1071SOL    HW214673   3.561   0.260   5.985  1.1226 -1.2903  2.8479
 1072SOL     OW14674   3.017   3.659   3.861  0.0837  0.1493  0.4367
 1072SOL    HW114675   3.019   3.645   3.766  1.1218  0.6239  0.3886
 1072SOL    HW214676   3.110   3.662   3.884  0.4778  2.0369 -1.4109
 1073SOL     OW14677   4.522   4.176   7.040  0.2670  0.5311  0.3887
 1073SOL    HW114678   4.473   4.179   6.957 -0.8505  0.4520  1.0432
 1073SOL    HW214679   4.534   4.082   7.057 -1.4032  0.3801  0.7378
 1074SOL     OW14680   2.090   1.946  14.821  0.9635  0.0569 -0.6311
 1074SOL    HW114681   2.030   2.009  14.780 -1.0651 -1.3066  0.2659
 1074SOL    HW214682   2.139   1.937  14.740  0.1255 -1.3573 -0.9678
 1075SOL     OW14683   1.758   3.685   5.994  0.0763  0.1080 -0.4265
 1075SOL    HW114684   1.838   3.737   5.991 -0.1678  0.5970  1.5245
 1075SOL    HW214685   1.689   3.746   6.022  2.6891  3.1897 -0.7406
 1076SOL     OW14686   2.710   0.287  10.286 -0.4949 -0.1287 -0.6970
 1076SOL    HW114687   2.723   0.226  10.358  0.3497  0.4147 -0.3908
 1076SOL    HW214688   2.801   0.304  10.262 -0.3465  1.0764  0.6885
 1077SOL     OW14689   0.458   0.752  16.447  0.6638  0.2464  0.1815
 1077SOL    HW114690   0.463   0.847  16.449 -3.1994  0.4338 -0.0803
 1077SOL    HW214691   0.473   0.737  16.541  1.4140 -2.1632 -0.3110
 1078SOL     OW14692   3.243   0.650  11.625  0.1656  0.0158  0.2940
 1078SOL    HW114693   3.199   0.613  11.549  0.1216 -1.0006  0.8063
 1078SOL    HW214694   3.221   0.742  11.614  3.3039  1.0400  2.4162
 1079SOL     OW14695   4.643   3.188   7.462  0.1704 -0.3831 -0.1458
 1079SOL    HW114696   4.720   3.199   7.519 -0.8620  4.1333  0.3056
 1079SOL    HW214697   4.607   3.113   7.511 -0.8072  1.0838  1.3969
 1080SOL     OW14698   1.208   0.508   7.667 -0.1061  0.3172  0.3311
 1080SOL    HW114699   1.234   0.600   7.657 -0.8447  0.2638 -2.1032
 1080SOL    HW214700   1.265   0.458   7.609  0.1335 -0.6129  1.3705
 1081SOL     OW14701   1.400   0.553  11.938 -0.5469  0.2134  0.1994
 1081SOL    HW114702   1.447   0.535  12.019 -1.6767 -0.3112  0.7289
 1081SOL    HW214703   1.422   0.473  11.890 -1.0588 -0.7156  1.5213
 1082SOL     OW14704   2.177   3.072   9.301  0.7763 -0.0640  0.3244
 1082SOL    HW114705   2.148   3.122   9.225  1.8175 -0.5685 -0.3966
 1082SOL    HW214706   2.228   3.134   9.353  0.4939 -0.7717  1.4277
 1083SOL     OW14707   1.516   3.813   3.893 -0.6135  0.4540  0.4938
 1083SOL    HW114708   1.478   3.801   3.806  0.2461 -1.8148  0.4238
 1083SOL    HW214709   1.491   3.904   3.909 -2.0728 -0.3358  2.6961
 1084SOL     OW14710   1.732   3.946  11.485 -0.2401  0.6831  0.0423
 1084SOL    HW114711   1.728   4.041  11.475 -0.9006  0.3714 -2.6361
 1084SOL    HW214712   1.658   3.925  11.428  3.0669 -3.2776 -2.7499
 1085SOL     OW14713   2.701   3.480   3.604 -0.5084 -0.1567 -0.9475
 1085SOL    HW114714   2.667   3.496   3.692 -0.0490 -1.4590 -0.5334
 1085SOL    HW214715   2.623   3.491   3.549 -1.8744 -1.0438  0.8380
 1086SOL     OW14716   0.319   3.339   8.049  0.2282 -0.8900  0.3036
 1086SOL    HW114717   0.391   3.276   8.051  0.5507 -0.5947 -1.8589
 1086SOL    HW214718   0.245   3.280   8.059 -0.3621  0.2630  2.7204
 1087SOL     OW14719   3.823   0.166  15.691 -0.1398  0.2717  0.6125
 1087SOL    HW114720   3.740   0.122  15.672 -0.2140  1.5654 -2.1278
 1087SOL    HW214721   3.786   0.241  15.738 -0.4523  0.9945 -0.7647
 1088SOL     OW14722   2.017   0.920   8.580 -0.6231 -0.6993 -0.3519
 1088SOL    HW114723   2.103   0.905   8.619 -0.3142 -2.7384 -1.8383
 1088SOL    HW214724   2.036   0.989   8.517 -0.4730 -0.9023 -0.5287
 1089SOL     OW14725   1.338   2.039   4.069  0.4976  0.1329 -0.2841
 1089SOL    HW114726   1.415   2.006   4.024 -1.4395 -1.3567 -2.5259
 1089SOL    HW214727   1.287   1.967   4.106 -1.1505  1.6041  0.3437
 1090SOL     OW14728   2.591   2.493   8.267  0.4236 -0.3759  0.0993
 1090SOL    HW114729   2.556   2.428   8.329  0.1282 -0.2951  0.0180
 1090SOL    HW214730   2.677   2.458   8.244 -1.2954 -3.2476 -1.9976
 1091SOL     OW14731   1.588   0.447   8.594  0.1511  0.2356  0.1802
 1091SOL    HW114732   1.620   0.379   8.653 -1.8319 -1.0379 -0.1888
 1091SOL    HW214733   1.556   0.389   8.525  0.3740  2.3563 -1.7236
 1092SOL     OW14734   0.688   0.598   8.743 -0.0427  0.2402  0.0734
 1092SOL    HW114735   0.596   0.602   8.717 -0.9522 -0.2481  3.2579
 1092SOL    HW214736   0.724   0.672   8.695 -0.8044  0.7492  0.2799
 1093SOL     OW14737   1.115   1.496   1.188 -0.0035 -0.4725 -0.1283
 1093SOL    HW114738   1.161   1.495   1.272  0.9945  2.3686 -0.6657
 1093SOL    HW214739   1.176   1.544   1.132 -0.3918  0.7138  0.4825
 1094SOL     OW14740   4.382   1.142   6.922 -0.3971 -0.1052  0.1384
 1094SOL    HW114741   4.344   1.218   6.966 -0.7034  0.1753 -0.6153
 1094SOL    HW214742   4.471   1.145   6.956 -0.5712 -1.2246  0.7018
 1095SOL     OW14743   3.819   1.734   6.978  0.4081 -0.1179 -0.3588
 1095SOL    HW114744   3.804   1.715   7.070  2.5350 -0.3429 -0.0626
 1095SOL    HW214745   3.910   1.762   6.985 -0.0755  1.8744 -2.0454
 1096SOL     OW14746   3.339   1.235   4.703 -0.3090  0.4758 -0.5463
 1096SOL    HW114747   3.263   1.294   4.703 -0.5439  0.1675  0.2020
 1096SOL    HW214748   3.384   1.260   4.784 -1.6094 -1.6244  0.8309
 1097SOL     OW14749   1.539   2.800  12.991 -0.6333 -0.4062  0.7389
 1097SOL    HW114750   1.610   2.863  13.001 -0.0154 -0.9910  0.0865
 1097SOL    HW214751   1.463   2.858  12.998  1.7127  2.3995  2.7836
 1098SOL     OW14752   3.941   3.646   1.894 -0.1844  0.2084 -0.1312
 1098SOL    HW114753   4.028   3.629   1.858 -0.4391 -2.7009  0.6628
 1098SOL    HW214754   3.967   3.668   1.984 -1.4588 -1.4308  0.6297
 1099SOL     OW14755   1.566   0.671   2.688 -0.3621 -0.0583  0.1288
 1099SOL    HW114756   1.521   0.654   2.771 -1.4745 -1.3599 -0.7276
 1099SOL    HW214757   1.608   0.756   2.695 -1.2180  0.5679 -2.2886
 1100SOL     OW14758   0.382   1.018   7.999 -0.2927 -0.1706 -0.0297
 1100SOL    HW114759   0.418   1.087   8.056  0.4601 -1.5955  1.2405
 1100SOL    HW214760   0.424   0.950   8.052  1.0734 -0.4529 -1.4851
 1101SOL     OW14761   2.856   4.489   2.334 -0.2607  0.2082 -0.5958
 1101SOL    HW114762   2.916   4.536   2.392 -1.3767  2.4263 -1.2562
 1101SOL    HW214763   2.788   4.460   2.395  1.5313 -0.6663  0.9976
 1102SOL     OW14764   1.536   0.802   2.088  0.0695 -0.0149  0.3012
 1102SOL    HW114765   1.517   0.746   2.163  2.7156  0.6975  1.5039
 1102SOL    HW214766   1.492   0.884   2.111 -0.0069 -0.0051  0.1195
 1103SOL     OW14767   2.076   2.571   7.312 -0.1337  0.0645  0.3527
 1103SOL    HW114768   2.085   2.550   7.219 -0.2955  0.0481  0.3416
 1103SOL    HW214769   2.166   2.558   7.344  0.3974 -0.2157 -1.2400
 1104SOL     OW14770   4.687   2.195   9.331  0.3614 -0.4260  0.7091
 1104SOL    HW114771   0.052   2.196   9.291  0.2088  2.0161  0.4398
 1104SOL    HW214772   4.632   2.177   9.254  1.6307 -0.7102 -0.1278
 1105SOL     OW14773   3.998   3.637   3.727  0.0312 -0.1401  0.5077
 1105SOL    HW114774   4.092   3.651   3.722  0.1547 -1.0500  0.0805
 1105SOL    HW214775   3.991   3.588   3.809  3.1834 -0.0855  0.7961
 1106SOL     OW14776   3.605   3.037  14.415  0.4775  0.3569 -0.2741
 1106SOL    HW114777   3.523   3.086  14.410 -1.0306 -2.2397 -0.9524
 1106SOL    HW214778   3.584   2.974  14.346 -0.1613  0.6737 -0.3644
 1107SOL     OW14779   4.645   3.377   3.577  0.1336 -0.3490 -0.1322
 1107SOL    HW114780   0.018   3.391   3.581  0.2406 -1.5293  1.8019
 1107SOL    HW214781   4.625   3.402   3.668  2.3110 -3.4070  1.1888
 1108SOL     OW14782   3.898   2.157   6.721 -0.0424 -0.0820 -0.0661
 1108SOL    HW114783   3.894   2.061   6.724  0.3655 -0.0888  0.4294
 1108SOL    HW214784   3.908   2.176   6.628  1.7748  0.7553  0.2912
 1109SOL     OW14785   3.544   4.637   7.085 -0.4117 -0.4193  0.5130
 1109SOL    HW114786   3.585   4.642   6.998  3.3334  1.1779  2.3783
 1109SOL    HW214787   3.512   4.546   7.082  0.4349 -0.7415  1.6992
 1110SOL     OW14788   2.907   0.036   7.000 -0.0896 -0.6571  0.5953
 1110SOL    HW114789   2.972   0.090   7.047  1.1436 -0.3424 -1.4905
 1110SOL    HW214790   2.929   4.670   7.032 -2.0300 -1.6010 -0.7294
 1111SOL     OW14791   0.994   2.674   9.367  0.3331 -0.2263  0.2005
 1111SOL    HW114792   1.058   2.702   9.432 -0.5269 -0.0091  0.9623
 1111SOL    HW214793   0.965   2.594   9.412 -1.0589 -0.6780 -1.4817
 1112SOL     OW14794   0.065   4.552  10.858  0.4452  0.3571  0.0850
 1112SOL    HW114795   0.006   4.542  10.783  0.1042  2.0370  0.1373
 1112SOL    HW214796   0.105   4.638  10.849  2.0430 -0.3759  0.2516
 1113SOL     OW14797   2.761   0.411  13.636 -0.1398 -0.3542  0.2698
 1113SOL    HW114798   2.851   0.421  13.604 -0.5884 -0.0036 -0.8552
 1113SOL    HW214799   2.719   0.452  13.561  0.7212  0.6069  0.3127
 1114SOL     OW14800   4.420   3.902   0.591 -0.3816  0.5547 -0.6105
 1114SOL    HW114801   4.458   3.989   0.602  1.1894 -0.1013 -0.9071
 1114SOL    HW214802   4.353   3.910   0.658  0.9335  0.5856  0.6909
 1115SOL     OW14803   1.618   4.719  15.240 -0.0605  0.1785  0.1577
 1115SOL    HW114804   1.635   4.640  15.190  1.4428  0.9969 -0.6298
 1115SOL    HW214805   1.707   0.033  15.251  0.0447  0.1291 -0.5197
 1116SOL     OW14806   1.465   4.630   8.786  0.2376 -0.0803 -0.5814
 1116SOL    HW114807   1.517   4.551   8.772 -0.4940 -0.7941  0.7444
 1116SOL    HW214808   1.420   4.601   8.866 -2.4148  0.9310 -1.6954
 1117SOL     OW14809   3.473   4.038  15.754  0.4619  0.0395  0.4939
 1117SOL    HW114810   3.490   3.965  15.695  0.4380 -0.4033  1.0256
 1117SOL    HW214811   3.407   4.000  15.813  0.1904  3.3233  2.2936
 1118SOL     OW14812   4.088   0.509   1.966 -0.1813  0.4934 -0.6305
 1118SOL    HW114813   4.018   0.513   1.900 -1.7152  1.6518  1.0569
 1118SOL    HW214814   4.031   0.544   2.035 -1.9635 -1.5207 -1.0547
 1119SOL     OW14815   0.863   3.766  13.681  0.1527 -0.0202 -0.3779
 1119SOL    HW114816   0.775   3.805  13.678  0.5340  0.9208  0.8121
 1119SOL    HW214817   0.854   3.706  13.607 -0.6674  0.6860 -0.8548
 1120SOL     OW14818   2.296   3.518   4.806  0.2379 -0.5584 -0.0545
 1120SOL    HW114819   2.225   3.575   4.776 -1.1880 -3.1674 -1.6252
 1120SOL    HW214820   2.359   3.555   4.743  0.8091  3.1186  2.6495
 1121SOL     OW14821   0.311   4.613   2.648 -1.2334 -0.2415  0.0785
 1121SOL    HW114822   0.339   4.523   2.666 -0.7490 -0.0869  0.1013
 1121SOL    HW214823   0.388   4.642   2.599  0.2919 -2.0165  1.4543
 1122SOL     OW14824   2.691   1.402   4.908  0.0657 -0.4293 -0.4407
 1122SOL    HW114825   2.605   1.428   4.941 -0.5936 -1.0426 -1.6690
 1122SOL    HW214826   2.683   1.442   4.821 -0.1138 -1.3628 -0.8551
 1123SOL     OW14827   3.640   2.659   7.014 -0.1221 -0.3830 -0.2605
 1123SOL    HW114828   3.676   2.748   7.013  0.1285 -0.5016 -1.6051
 1123SOL    HW214829   3.695   2.636   6.939 -0.2405 -1.7870  0.0973
 1124SOL     OW14830   4.635   3.123   0.371 -0.2324 -0.2586  0.1855
 1124SOL    HW114831   4.588   3.059   0.318 -0.5664  0.5435 -0.5055
 1124SOL    HW214832   4.591   3.133   0.455 -2.2288 -2.8186 -0.5611
 1125SOL     OW14833   0.197   0.467   7.239  0.1205  0.0268 -0.6224
 1125SOL    HW114834   0.101   0.471   7.238 -0.0078 -3.5617 -2.8578
 1125SOL    HW214835   0.211   0.417   7.320  0.5806  2.5540  0.8389
 1126SOL     OW14836   0.702   0.189  16.435 -0.3171 -0.8185  0.2511
 1126SOL    HW114837   0.611   0.185  16.466 -0.8658  1.7948 -1.0205
 1126SOL    HW214838   0.716   0.097  16.412 -0.6028 -0.5463 -1.0091
 1127SOL     OW14839   1.103   2.212   5.612  0.0390 -0.2501  0.2938
 1127SOL    HW114840   1.199   2.218   5.604 -0.0438 -2.3919 -2.0285
 1127SOL    HW214841   1.079   2.294   5.569  0.8028 -0.4660 -0.5386
 1128SOL     OW14842   0.276   0.467   7.756  0.0478 -0.4217 -0.0051
 1128SOL    HW114843   0.274   0.437   7.847 -2.4861  2.5702  0.9253
 1128SOL    HW214844   0.339   0.414   7.708 -0.7803 -0.2042 -1.3594
 1129SOL     OW14845   1.079   2.731   8.841  0.1059 -0.4705 -0.1844
 1129SOL    HW114846   1.068   2.636   8.848  1.0536 -0.6230 -0.7272
 1129SOL    HW214847   1.096   2.736   8.935  0.3143  2.1298 -0.3682
 1130SOL     OW14848   4.621   0.291   8.963  0.3636 -0.4490  0.1818
 1130SOL    HW114849   4.700   0.336   8.933 -0.3676  0.5842 -0.1840
 1130SOL    HW214850   4.556   0.357   8.939 -0.0477 -1.4300 -1.4092
 1131SOL     OW14851   1.371   0.235   5.937 -0.0334 -0.1664  0.1841
 1131SOL    HW114852   1.362   0.141   5.923  1.8717 -0.4910  1.1267
 1131SOL    HW214853   1.309   0.242   6.010  1.0632  1.3056  0.9895
 1132SOL     OW14854   1.620   4.207   4.651 -0.2315  0.3112 -0.3443
 1132SOL    HW114855   1.565   4.163   4.715  2.0015 -1.2309  0.5026
 1132SOL    HW214856   1.638   4.291   4.694 -1.1189  0.3926 -0.1514
 1133SOL     OW14857   2.399   1.998   8.563 -0.2957 -0.1913  0.1251
 1133SOL    HW114858   2.304   1.988   8.561 -0.3868  0.4560  1.4078
 1133SOL    HW214859   2.403   2.058   8.637 -0.5022 -0.6648  0.5231
 1134SOL     OW14860   3.781   3.337   4.130 -0.3784 -0.1428 -0.2929
 1134SOL    HW114861   3.718   3.355   4.199  0.7469 -2.7958  1.4449
 1134SOL    HW214862   3.763   3.243   4.119 -0.7830  0.0631 -1.3479
 1135SOL     OW14863   4.142   0.923   5.542 -0.3470  0.0427  0.1757
 1135SOL    HW114864   4.229   0.963   5.538  0.2941 -1.2632  1.1777
 1135SOL    HW214865   4.093   0.996   5.504 -0.2505 -0.1941 -0.4027
 1136SOL     OW14866   2.562   0.690   6.290  0.3461 -0.2046 -0.5513
 1136SOL    HW114867   2.537   0.724   6.376  0.0923 -0.6446 -0.4477
 1136SOL    HW214868   2.519   0.751   6.230  0.7169  1.0056  0.4032
 1137SOL     OW14869   2.472   3.880   7.330 -0.4306  0.4616  0.2427
 1137SOL    HW114870   2.474   3.975   7.323 -2.3656  0.5770  1.2455
 1137SOL    HW214871   2.564   3.861   7.314 -0.2656 -1.0425  2.9830
 1138SOL     OW14872   1.047   1.269  11.700 -0.3134 -0.2780  0.3671
 1138SOL    HW114873   1.124   1.214  11.700 -0.9301 -1.1692 -3.1568
 1138SOL    HW214874   0.981   1.217  11.746  0.2011  0.5046  1.9751
 1139SOL     OW14875   0.194   2.287  13.684  0.3323 -0.6838 -0.3639
 1139SOL    HW114876   0.130   2.357  13.668  1.0645 -0.3706 -1.9150
 1139SOL    HW214877   0.266   2.343  13.712 -1.5423  1.6173 -0.1403
 1140SOL     OW14878   3.503   1.366   5.748  0.2848  0.0333 -0.3807
 1140SOL    HW114879   3.543   1.449   5.773 -0.6565  0.4240 -0.1702
 1140SOL    HW214880   3.585   1.316   5.747 -0.4927 -1.1984 -2.8473
 1141SOL     OW14881   3.774   3.171   6.382  1.5683 -0.0108 -0.0325
 1141SOL    HW114882   3.696   3.163   6.437  0.5785 -1.7518 -1.7071
 1141SOL    HW214883   3.816   3.246   6.425  0.6264 -0.4807  1.7408
 1142SOL     OW14884   2.038   1.091  10.494 -0.2069  0.1508  0.3749
 1142SOL    HW114885   2.059   1.183  10.479  0.3286 -0.4409 -2.6112
 1142SOL    HW214886   2.109   1.074  10.556 -0.8799  1.1308  1.4069
 1143SOL     OW14887   3.475   3.923  11.324 -0.0952  0.5492  0.2041
 1143SOL    HW114888   3.549   3.905  11.382  0.7134  1.1119 -0.6472
 1143SOL    HW214889   3.519   3.974  11.256  0.2537 -0.1819 -0.1144
 1144SOL     OW14890   1.198   2.164   7.967 -0.0303  0.1551  0.0693
 1144SOL    HW114891   1.205   2.229   7.896  1.0698  1.8848  1.7730
 1144SOL    HW214892   1.257   2.091   7.950 -0.2248 -0.2758  1.2593
 1145SOL     OW14893   4.014   0.244   1.039  0.0228  0.5980 -0.1001
 1145SOL    HW114894   3.981   0.333   1.028 -0.6377  0.5945  1.8150
 1145SOL    HW214895   3.997   0.236   1.133 -1.4416  0.6077 -0.3628
 1146SOL     OW14896   1.269   0.445   7.269 -0.3396 -0.0987 -0.5575
 1146SOL    HW114897   1.308   0.390   7.200 -1.0745 -0.9392 -0.3022
 1146SOL    HW214898   1.309   0.403   7.346 -3.9572  0.0554  1.3775
 1147SOL     OW14899   2.258   2.403   0.034  0.4840 -0.6019  0.2716
 1147SOL    HW114900   2.344   2.439   0.056  1.6705 -1.6325 -2.7607
 1147SOL    HW214901   2.288   2.335  17.663  2.9609  1.2138 -0.5561
 1148SOL     OW14902   4.462   4.318   2.268  0.4691 -0.0707  0.4132
 1148SOL    HW114903   4.448   4.390   2.207 -1.3673 -0.2159  0.6536
 1148SOL    HW214904   4.555   4.300   2.258  0.8246  1.2343  1.3432
 1149SOL     OW14905   4.412   0.677   8.139  0.2410 -0.4675 -0.6129
 1149SOL    HW114906   4.348   0.729   8.188  2.3266  1.3152  0.2204
 1149SOL    HW214907   4.359   0.602   8.112  0.9107 -1.0911 -0.1832
 1150SOL     OW14908   1.840   3.639  12.571  0.1423  0.1605  0.0476
 1150SOL    HW114909   1.869   3.676  12.653 -0.3339  0.8811 -0.1074
 1150SOL    HW214910   1.916   3.657  12.516  0.9382 -0.6497  0.8904
 1151SOL     OW14911   2.546   0.249   7.292 -0.0404  0.1736  0.4251
 1151SOL    HW114912   2.637   0.276   7.304 -0.0424  1.0705 -1.4273
 1151SOL    HW214913   2.541   0.177   7.355 -2.9548 -2.0985 -2.3968
 1152SOL     OW14914   2.139   4.535   2.946  0.6454 -0.3188  0.2545
 1152SOL    HW114915   2.153   4.599   2.877  1.1182  0.1519  0.7886
 1152SOL    HW214916   2.135   4.454   2.895  0.8885 -0.2855  0.1821
 1153SOL     OW14917   3.120   4.078   0.847  0.7695 -0.5797  0.3958
 1153SOL    HW114918   3.205   4.095   0.808 -0.0020  0.7191 -0.7116
 1153SOL    HW214919   3.137   4.024   0.925  1.2785  0.2687  0.8706
 1154SOL     OW14920   3.510   2.367   7.055 -0.1786 -0.6306  0.2860
 1154SOL    HW114921   3.423   2.404   7.064  0.1967  0.0022  1.2769
 1154SOL    HW214922   3.518   2.371   6.959  0.8202  1.3030  0.4382
 1155SOL     OW14923   2.137   2.268   5.845 -0.6338  0.2594  0.4414
 1155SOL    HW114924   2.220   2.255   5.892 -0.4927  0.3574  0.2215
 1155SOL    HW214925   2.142   2.362   5.827 -0.4968  0.5043  1.7694
 1156SOL     OW14926   3.074   1.276  10.377  0.4137 -0.2079 -0.6710
 1156SOL    HW114927   3.011   1.211  10.409  1.4022 -1.0687 -0.4680
 1156SOL    HW214928   3.154   1.223  10.368 -0.0350 -0.6331 -2.0460
 1157SOL     OW14929   1.578   1.103   6.431 -0.2211  0.5440  0.1577
 1157SOL    HW114930   1.587   1.010   6.453  1.5548  0.9621  1.1344
 1157SOL    HW214931   1.520   1.103   6.355  1.4562 -0.6664 -1.1256
 1158SOL     OW14932   1.122   0.174   4.015 -0.1117 -0.0231  0.4127
 1158SOL    HW114933   1.090   0.170   3.925 -1.0975 -2.5592  0.8800
 1158SOL    HW214934   1.199   0.230   4.007 -0.3253  0.3571  1.0282
 1159SOL     OW14935   3.180   1.133   7.196 -0.0012  0.2876  0.2184
 1159SOL    HW114936   3.231   1.076   7.253 -0.1017 -0.0736 -0.0467
 1159SOL    HW214937   3.135   1.068   7.142 -0.2636  0.3330  0.3788
 1160SOL     OW14938   0.349   1.839  13.543 -0.0070 -0.1507  0.0390
 1160SOL    HW114939   0.268   1.889  13.532  0.4494  0.6292  0.2143
 1160SOL    HW214940   0.418   1.901  13.523 -0.6601  0.7199  0.4865
 1161SOL     OW14941   4.636   0.931   7.769  0.0605 -0.3796 -0.4084
 1161SOL    HW114942   4.666   0.878   7.843  0.2943  1.3489  0.7439
 1161SOL    HW214943   4.713   0.936   7.713  1.8463  0.7142  2.1180
 1162SOL     OW14944   1.481   3.101   3.400 -0.7226 -0.0617 -0.1719
 1162SOL    HW114945   1.467   3.009   3.378  2.0668 -0.2602 -1.1305
 1162SOL    HW214946   1.401   3.135   3.360  0.3230  0.9468 -1.3909
 1163SOL     OW14947   2.534   3.122   8.969 -0.3524  0.1918 -0.1049
 1163SOL    HW114948   2.492   3.040   8.994 -1.3473  0.6665 -0.2404
 1163SOL    HW214949   2.624   3.092   8.953 -1.0295 -1.7673 -0.2842
 1164SOL     OW14950   0.861   3.286   6.067 -0.4391  0.0906 -0.3765
 1164SOL    HW114951   0.798   3.277   5.995 -0.6545 -1.5038  0.0108
 1164SOL    HW214952   0.844   3.210   6.122  0.8691 -0.2729 -0.4821
 1165SOL     OW14953   0.607   2.668   0.112  0.3213 -0.0454 -0.3478
 1165SOL    HW114954   0.689   2.676   0.161 -0.2299  2.8737  0.0504
 1165SOL    HW214955   0.580   2.758   0.100  0.6228  0.0766 -0.1199
 1166SOL     OW14956   1.313   3.392   6.166  0.5966  0.5426  0.0523
 1166SOL    HW114957   1.386   3.385   6.104  1.0166  1.4606  0.4455
 1166SOL    HW214958   1.243   3.354   6.113 -0.8742  0.9046  1.7162
 1167SOL     OW14959   4.159   1.614   4.282  0.2391 -0.2911 -0.4168
 1167SOL    HW114960   4.127   1.677   4.347 -1.5085 -0.9350 -0.6557
 1167SOL    HW214961   4.091   1.547   4.294 -1.3523  2.0304  3.8323
 1168SOL     OW14962   3.464   0.003   5.123  0.0088  0.1436 -0.1455
 1168SOL    HW114963   3.378   0.022   5.086 -1.4617 -3.7265  1.2835
 1168SOL    HW214964   3.500   0.091   5.109 -1.3998  0.7440 -0.0523
 1169SOL     OW14965   3.091   2.165   3.379 -0.0558  0.0375 -0.1614
 1169SOL    HW114966   3.169   2.148   3.326  1.8823 -0.4044  2.8327
 1169SOL    HW214967   3.098   2.254   3.415 -1.0067 -0.3626  1.0096
 1170SOL     OW14968   3.533   1.559   6.600 -0.4858 -0.1949 -0.5985
 1170SOL    HW114969   3.608   1.512   6.563 -0.0428 -0.6648  0.9039
 1170SOL    HW214970   3.571   1.646   6.586 -1.7329  0.6452  1.2116
 1171SOL     OW14971   0.180   4.601  15.293  0.3908 -0.2984 -0.4510
 1171SOL    HW114972   0.189   4.592  15.198 -1.2175 -0.0349 -0.6256
 1171SOL    HW214973   0.095   4.644  15.293 -0.2798 -1.6100  0.1467
 1172SOL     OW14974   2.169   3.718  15.553  0.0675  0.4904  0.2548
 1172SOL    HW114975   2.234   3.741  15.618  0.8555 -0.3638 -0.2358
 1172SOL    HW214976   2.223   3.683  15.483  0.9506  0.7546  0.8120
 1173SOL     OW14977   4.208   2.476   2.797  0.0328  0.1398 -0.2868
 1173SOL    HW114978   4.211   2.551   2.856 -0.6900  0.3059 -0.4679
 1173SOL    HW214979   4.188   2.526   2.718  0.6332 -2.6727 -2.2303
 1174SOL     OW14980   2.961   2.722   9.069 -0.2137  0.3963  0.3406
 1174SOL    HW114981   2.966   2.807   9.027 -0.5230  0.4576  0.4241
 1174SOL    HW214982   2.876   2.693   9.035 -0.2398 -0.3071  1.0064
 1175SOL     OW14983   1.454   0.968   3.691 -0.4505 -0.5450  0.2169
 1175SOL    HW114984   1.474   1.022   3.768 -0.1812  0.6233 -0.6599
 1175SOL    HW214985   1.514   1.007   3.627 -1.4383 -2.4924 -1.8872
 1176SOL     OW14986   2.543   1.170  14.400  0.5815  0.2119 -0.1755
 1176SOL    HW114987   2.514   1.082  14.376 -0.0637  0.6109 -0.8391
 1176SOL    HW214988   2.461   1.216  14.420 -1.0436 -2.3362 -0.9105
 1177SOL     OW14989   1.810   1.242   3.976 -0.1800  0.1006 -0.0577
 1177SOL    HW114990   1.796   1.220   3.884 -1.8593  1.1395 -0.0604
 1177SOL    HW214991   1.783   1.164   4.025  0.5851  1.6174  2.7864
 1178SOL     OW14992   2.191   0.564  10.328  0.4735 -0.0922  0.3295
 1178SOL    HW114993   2.202   0.495  10.262 -1.5289  0.2369 -0.3592
 1178SOL    HW214994   2.249   0.544  10.402 -2.1599 -0.7628  2.2220
 1179SOL     OW14995   2.763   2.544   9.702  0.2060  0.7106  0.2140
 1179SOL    HW114996   2.808   2.626   9.724  0.8546 -0.0260  1.6013
 1179SOL    HW214997   2.669   2.564   9.697 -0.0394 -0.4691  0.0541
 1180SOL     OW14998   4.028   2.500   2.138  0.1289  0.3854  0.5327
 1180SOL    HW114999   3.972   2.466   2.207 -0.2585 -2.3973 -1.1651
 1180SOL    HW215000   3.966   2.568   2.114 -1.1696 -0.3178  1.8652
 1181SOL     OW15001   1.275   0.397   6.429 -0.3964 -0.5276  0.0253
 1181SOL    HW115002   1.191   0.427   6.395 -0.3876 -1.1772 -0.5539
 1181SOL    HW215003   1.286   0.466   6.495  0.6401  0.4241 -1.1321
 1182SOL     OW15004   1.609   0.260   0.452 -0.3572 -0.2139  0.1638
 1182SOL    HW115005   1.624   0.265   0.546  0.6022  3.0050 -0.1901
 1182SOL    HW215006   1.698   0.280   0.424 -0.3293 -0.5915 -0.0320
 1183SOL     OW15007   3.111   2.861   8.509  0.1213 -0.0607 -0.3148
 1183SOL    HW115008   3.136   2.919   8.581 -0.8153 -1.6446  1.2615
 1183SOL    HW215009   3.089   2.927   8.444  1.4606  2.5162  1.8469
 1184SOL     OW15010   0.559   2.522   5.382 -0.0986  0.0189 -0.0956
 1184SOL    HW115011   0.465   2.532   5.396 -0.3962 -2.2404 -0.5048
 1184SOL    HW215012   0.570   2.460   5.454  0.8244  0.6383  0.2879
 1185SOL     OW15013   0.546   0.330   6.898 -0.6976 -0.1912  0.1506
 1185SOL    HW115014   0.599   0.402   6.866 -1.1948  0.1419  0.0888
 1185SOL    HW215015   0.456   0.363   6.904  0.1588  2.1534 -0.2041
 1186SOL     OW15016   3.589   0.747  14.619  0.0793 -0.0114 -0.2188
 1186SOL    HW115017   3.678   0.717  14.638 -0.2879  0.5959  2.4852
 1186SOL    HW215018   3.561   0.667  14.575  1.1526 -0.1075 -0.7470
 1187SOL     OW15019   3.108   2.666  17.017  0.0658  0.1739  0.2479
 1187SOL    HW115020   3.065   2.702  17.094  0.9031  0.5304  0.5545
 1187SOL    HW215021   3.164   2.734  16.979  1.2872 -1.0700 -0.2093
 1188SOL     OW15022   4.688   2.797   7.432 -0.0704 -0.2241  0.6488
 1188SOL    HW115023   4.610   2.843   7.463  1.3295  2.7619 -0.3093
 1188SOL    HW215024   4.697   2.840   7.347 -1.0151 -1.1738  0.0664
 1189SOL     OW15025   3.987   3.245   6.823  0.1807 -0.1948 -0.4984
 1189SOL    HW115026   3.931   3.177   6.786 -0.0244 -0.9085  1.1235
 1189SOL    HW215027   4.033   3.275   6.744 -0.3581  1.3766 -0.2306
 1190SOL     OW15028   3.796   1.640  13.552 -0.0300  0.4469 -0.1937
 1190SOL    HW115029   3.838   1.725  13.567  0.7200  0.1468 -0.5519
 1190SOL    HW215030   3.720   1.651  13.609  1.1689 -0.6659  1.6250
 1191SOL     OW15031   1.787   2.809   5.171 -0.4084  0.4832  0.1444
 1191SOL    HW115032   1.737   2.781   5.094 -0.5641  0.2240  0.3378
 1191SOL    HW215033   1.744   2.894   5.176 -0.5880  0.4574 -1.1092
 1192SOL     OW15034   3.366   2.419   2.231  0.2750 -0.1714 -0.5148
 1192SOL    HW115035   3.319   2.498   2.255  0.2745 -0.6637  1.1266
 1192SOL    HW215036   3.307   2.366   2.284  0.0965  0.8720  0.3201
 1193SOL     OW15037   3.582   4.183   3.515  0.1758  0.3795 -0.1369
 1193SOL    HW115038   3.624   4.238   3.581 -1.2472 -1.6756  2.5131
 1193SOL    HW215039   3.640   4.107   3.504 -2.4371 -1.2603 -2.5456
 1194SOL     OW15040   3.211   4.455   4.923 -0.3350  0.3011  0.4831
 1194SOL    HW115041   3.242   4.531   4.874 -1.5597  0.1812 -0.4830
 1194SOL    HW215042   3.301   4.422   4.933 -0.5703 -0.6423 -0.5308
 1195SOL     OW15043   1.962   3.389   4.312 -0.0661  0.4024  0.1604
 1195SOL    HW115044   1.939   3.299   4.335  1.7664 -0.1910 -0.2316
 1195SOL    HW215045   1.903   3.415   4.241  0.5456  1.0597 -0.1130
 1196SOL     OW15046   1.797   0.182   3.186  0.1122  0.0017 -0.3753
 1196SOL    HW115047   1.754   0.111   3.138 -0.6284 -0.6975  1.3110
 1196SOL    HW215048   1.723   0.233   3.218 -0.1124 -1.2663  1.1581
 1197SOL     OW15049   4.412   1.605   4.931  0.1894  0.2527  0.5417
 1197SOL    HW115050   4.382   1.545   4.999 -0.6097 -0.5321 -0.4988
 1197SOL    HW215051   4.398   1.562   4.847  1.8798 -2.1913  1.5434
 1198SOL     OW15052   0.314   1.685   5.475  0.0706 -0.0105 -0.2960
 1198SOL    HW115053   0.282   1.596   5.464  0.4984 -0.1312 -0.5590
 1198SOL    HW215054   0.382   1.683   5.407  1.3510  0.7722  0.9480
 1199SOL     OW15055   1.788   0.015   7.353 -0.3536  0.5675 -0.7770
 1199SOL    HW115056   1.792   4.685   7.434  1.8195  1.9085 -0.0467
 1199SOL    HW215057   1.881   0.034   7.343  0.0458  0.2738  2.2276
 1200SOL     OW15058   2.571   1.817  10.291 -0.0454  0.4703  0.0851
 1200SOL    HW115059   2.549   1.789  10.380 -2.4010 -0.0764 -0.6653
 1200SOL    HW215060   2.666   1.821  10.288 -0.1171  1.4005 -1.0147
 1201SOL     OW15061   3.144   3.181   4.618  0.0759  0.3284 -0.2084
 1201SOL    HW115062   3.137   3.124   4.694 -0.3815  0.6472 -0.0132
 1201SOL    HW215063   3.093   3.252   4.657  0.5339 -0.3965  1.7131
 1202SOL     OW15064   2.296   2.263  10.432  0.3758  0.2544  0.2108
 1202SOL    HW115065   2.349   2.340  10.452  1.4261  0.1306 -2.0700
 1202SOL    HW215066   2.254   2.283  10.348  0.0099  0.7499  0.5168
 1203SOL     OW15067   1.281   1.034   6.472  0.7580  0.3886 -0.4301
 1203SOL    HW115068   1.225   1.108   6.447  0.0763 -0.7536 -2.2428
 1203SOL    HW215069   1.313   1.016   6.384 -1.2029  0.0517 -1.0748
 1204SOL     OW15070   3.529   0.052   7.351 -0.2560 -0.6987 -0.0352
 1204SOL    HW115071   3.444   0.007   7.350 -1.1583  0.9914  0.1595
 1204SOL    HW215072   3.562   4.716   7.282 -0.9781 -1.6670  0.4153
 1205SOL     OW15073   0.702   2.091   5.339  0.0129 -0.2510 -0.0771
 1205SOL    HW115074   0.725   2.184   5.344  0.9472 -0.4996  0.2293
 1205SOL    HW215075   0.718   2.077   5.245 -0.8731  2.4826 -0.6426
 1206SOL     OW15076   1.414   2.492   5.054  0.5880 -0.0584 -0.8349
 1206SOL    HW115077   1.479   2.516   5.120  1.2902  0.1382 -1.6057
 1206SOL    HW215078   1.440   2.400   5.045 -1.2311 -0.4273 -2.3350
 1207SOL     OW15079   4.315   0.804   7.470 -0.6494 -0.4810  0.4726
 1207SOL    HW115080   4.369   0.734   7.505 -0.8586 -1.4654 -1.1823
 1207SOL    HW215081   4.305   0.858   7.548  1.1120  2.4710 -1.3301
 1208SOL     OW15082   2.092   2.486   3.351  0.5539 -0.2713 -0.1999
 1208SOL    HW115083   1.999   2.482   3.370  0.4624  0.2817 -0.5188
 1208SOL    HW215084   2.126   2.401   3.379  0.5498  0.2283  1.3370
 1209SOL     OW15085   0.418   4.300   3.333 -0.7262  1.0029  0.4170
 1209SOL    HW115086   0.478   4.228   3.315 -1.6135  0.4921 -0.4972
 1209SOL    HW215087   0.331   4.260   3.325  0.9072 -2.8463  1.8944
 1210SOL     OW15088   2.638   2.301   9.048 -0.0236 -0.4671 -0.0996
 1210SOL    HW115089   2.636   2.214   9.009  0.0537 -0.6401  0.2877
 1210SOL    HW215090   2.638   2.277   9.140 -0.8528 -0.9099 -0.2217
 1211SOL     OW15091   0.378   0.094   2.084 -0.1328 -0.5976  0.1994
 1211SOL    HW115092   0.457   0.075   2.134  0.7395  0.1216 -0.9333
 1211SOL    HW215093   0.394   0.187   2.074 -1.2139 -0.3867  0.3601
 1212SOL     OW15094   4.246   3.653   3.419  0.2472  0.1162  0.1220
 1212SOL    HW115095   4.338   3.651   3.445 -0.1357 -1.5127  1.3416
 1212SOL    HW215096   4.238   3.749   3.423 -1.7036 -0.0457  0.4677
 1213SOL     OW15097   1.362   3.199  17.279  0.4237 -0.2596  0.5149
 1213SOL    HW115098   1.410   3.261  17.335  1.1133 -1.1377  0.8868
 1213SOL    HW215099   1.436   3.187  17.219  0.1733 -1.9854  0.5567
 1214SOL     OW15100   2.089   2.274   4.656  0.2592 -0.1062  0.6116
 1214SOL    HW115101   2.099   2.295   4.563 -0.0597 -1.3687  0.2849
 1214SOL    HW215102   2.008   2.222   4.662  1.0833 -1.5913 -1.0167
 1215SOL     OW15103   0.389   0.422   0.134 -0.0040 -0.3925  0.1213
 1215SOL    HW115104   0.320   0.356   0.140  0.1063 -0.5733 -0.6928
 1215SOL    HW215105   0.412   0.421   0.041  0.8594  1.5320  0.3001
 1216SOL     OW15106   3.791   2.584  13.302 -0.0655  0.2180 -0.1941
 1216SOL    HW115107   3.748   2.562  13.219 -1.0665 -0.8048  0.6007
 1216SOL    HW215108   3.758   2.674  13.307  1.0782  0.5516  1.2915
 1217SOL     OW15109   1.641   0.672   9.358 -0.4964 -0.2476  0.5398
 1217SOL    HW115110   1.622   0.579   9.346  1.2094 -0.9612  3.3633
 1217SOL    HW215111   1.652   0.700   9.267 -0.4417 -0.6425  0.4213
 1218SOL     OW15112   0.221   1.138  16.825 -0.4412  0.6361 -0.7967
 1218SOL    HW115113   0.227   1.221  16.873  1.0344  1.7275 -2.8514
 1218SOL    HW215114   0.127   1.123  16.815 -0.3202 -1.1124  0.7614
 1219SOL     OW15115   2.634   4.560   1.562 -0.6788 -0.0689 -0.0124
 1219SOL    HW115116   2.683   4.482   1.536  0.4911  0.0571  1.7955
 1219SOL    HW215117   2.683   4.577   1.643  0.2922  1.4265 -0.9115
 1220SOL     OW15118   3.378   3.754   8.512  0.7489 -0.7677  0.3627
 1220SOL    HW115119   3.347   3.710   8.434 -0.4478  0.2123  0.2976
 1220SOL    HW215120   3.433   3.679   8.537  1.0412 -0.3705  0.9249
 1221SOL     OW15121   0.897   2.469   7.387  0.2687  0.8667  0.1427
 1221SOL    HW115122   0.957   2.440   7.318  0.8661  1.6222  0.3349
 1221SOL    HW215123   0.813   2.426   7.368  0.3594  0.4313  0.7495
 1222SOL     OW15124   1.354   4.568   5.118 -0.3275  0.1382  0.5854
 1222SOL    HW115125   1.406   4.492   5.092  2.4971  1.6654  1.7355
 1222SOL    HW215126   1.418   4.624   5.162  1.6630 -0.2511 -1.8294
 1223SOL     OW15127   1.206   3.910   3.981  0.7437 -0.0719 -0.3935
 1223SOL    HW115128   1.219   3.933   3.889  0.2108 -1.6510 -0.8667
 1223SOL    HW215129   1.229   3.817   3.983 -0.5851 -0.4187 -1.1740
 1224SOL     OW15130   1.617   3.022   1.170  0.2818 -0.4983  0.5327
 1224SOL    HW115131   1.573   3.107   1.175  1.7405  0.2097  1.3753
 1224SOL    HW215132   1.561   2.976   1.232 -0.4593 -1.1300 -0.6043
 1225SOL     OW15133   4.613   1.664   1.340 -0.0302  0.1185 -0.0739
 1225SOL    HW115134   4.667   1.635   1.414 -0.1981 -1.0245 -0.3997
 1225SOL    HW215135   4.542   1.697   1.395  0.4278  0.2303  0.4491
 1226SOL     OW15136   4.108   4.194   8.744  0.7187 -0.0669  0.7941
 1226SOL    HW115137   4.163   4.119   8.770 -0.2512 -0.6878  1.0377
 1226SOL    HW215138   4.073   4.227   8.827  1.7723 -0.1910  1.2895
 1227SOL     OW15139   2.645   1.791   8.924 -0.1521 -0.1535 -0.0500
 1227SOL    HW115140   2.613   1.744   9.002 -0.2140  1.8317  1.1281
 1227SOL    HW215141   2.590   1.744   8.862  0.8655  0.5209 -1.4466
 1228SOL     OW15142   4.042   1.237   6.428 -0.1643  0.2261  0.4232
 1228SOL    HW115143   4.052   1.180   6.505 -0.8622  1.2521  1.2685
 1228SOL    HW215144   4.115   1.195   6.381 -0.2362  0.1136  0.4107
 1229SOL     OW15145   4.556   4.096  12.984 -0.4912 -0.0703 -0.1833
 1229SOL    HW115146   4.639   4.091  12.937  1.3203  2.5063  2.7077
 1229SOL    HW215147   4.546   4.017  13.036  1.4298  1.5213  2.6088
 1230SOL     OW15148   2.592   1.221  15.368  0.4207 -0.8405  0.2125
 1230SOL    HW115149   2.584   1.134  15.408 -1.9631  0.2451  2.0882
 1230SOL    HW215150   2.594   1.279  15.444 -0.1367 -0.4175 -0.0948
 1231SOL     OW15151   1.442   0.192   5.111  0.6472 -0.1460  0.3089
 1231SOL    HW115152   1.383   0.158   5.043  0.0291  1.1660  0.1758
 1231SOL    HW215153   1.382   0.215   5.182  0.6182 -0.0863  0.2648
 1232SOL     OW15154   0.200   0.849   1.467  0.1338  0.1548 -1.1398
 1232SOL    HW115155   0.290   0.820   1.480  0.2486  0.1019 -2.0842
 1232SOL    HW215156   0.179   0.848   1.374  1.6088  1.8382 -1.4810
 1233SOL     OW15157   1.339   2.621  11.089 -0.0905  0.1355 -0.1183
 1233SOL    HW115158   1.271   2.681  11.058 -0.0206  0.9151  1.2667
 1233SOL    HW215159   1.396   2.642  11.015 -1.7361  0.9397 -1.1746
 1234SOL     OW15160   4.016   3.622   0.288 -0.3688 -0.4540 -0.2572
 1234SOL    HW115161   3.977   3.535   0.298 -1.6014  0.0175 -1.0186
 1234SOL    HW215162   4.105   3.611   0.323  0.2148 -0.7302 -1.8661
 1235SOL     OW15163   1.376   1.159   9.842 -0.5614  0.5488  0.4884
 1235SOL    HW115164   1.399   1.079   9.794  1.7690  1.3054  0.3170
 1235SOL    HW215165   1.441   1.156   9.912  0.9344  2.1331 -0.8298
 1236SOL     OW15166   1.604   2.183  12.917 -0.2344  0.3477  0.4378
 1236SOL    HW115167   1.662   2.242  12.869 -0.1059  0.8489  1.2115
 1236SOL    HW215168   1.665   2.173  12.990  0.6441  0.6113 -0.2596
 1237SOL     OW15169   0.156   0.801   8.319 -0.2610 -0.2904  0.0252
 1237SOL    HW115170   0.228   0.864   8.326  0.8347 -1.5128 -0.0391
 1237SOL    HW215171   0.122   0.806   8.408  0.1142 -0.3378  0.1710
 1238SOL     OW15172   2.882   1.449   5.934 -0.1609  0.1980 -0.0407
 1238SOL    HW115173   2.952   1.393   5.902  1.3849  2.1557 -0.0334
 1238SOL    HW215174   2.887   1.426   6.027  1.2362 -1.7303 -0.5974
 1239SOL     OW15175   2.686   0.487  12.485  0.3481 -0.0511  0.2002
 1239SOL    HW115176   2.726   0.421  12.541  2.3535 -0.3314 -1.5731
 1239SOL    HW215177   2.629   0.428  12.435 -1.5077  2.2295 -0.3734
 1240SOL     OW15178   4.543   4.625   4.847  0.1698  0.7286  0.1097
 1240SOL    HW115179   4.455   4.587   4.850  0.3924  0.3288  1.6538
 1240SOL    HW215180   4.604   4.559   4.881  2.7296  3.4070  0.7462
 1241SOL     OW15181   4.713   1.432  11.920  0.1163 -0.6771 -0.1640
 1241SOL    HW115182   4.674   1.494  11.858  0.1157  0.6547  1.1732
 1241SOL    HW215183   0.040   1.379  11.857 -0.9408 -1.0741 -0.6459
 1242SOL     OW15184   1.733   3.029   1.758  0.5369 -0.1871 -0.1387
 1242SOL    HW115185   1.737   3.082   1.679 -0.8684 -0.1944 -0.2140
 1242SOL    HW215186   1.826   3.019   1.778  0.6766  0.6229 -0.3713
 1243SOL     OW15187   1.161   2.783   9.557  0.2928 -0.0175 -0.6123
 1243SOL    HW115188   1.201   2.784   9.644 -0.7693  1.0658 -0.1238
 1243SOL    HW215189   1.219   2.843   9.509 -1.5842  1.0443 -1.5833
 1244SOL     OW15190   3.296   4.067   7.665 -0.2631 -0.0803 -0.0455
 1244SOL    HW115191   3.389   4.081   7.683 -0.3069  1.3510 -0.9357
 1244SOL    HW215192   3.271   3.992   7.718  0.2295  0.9125  1.6008
 1245SOL     OW15193   3.226   0.914  10.089  0.2159 -0.1387  0.0880
 1245SOL    HW115194   3.295   0.891  10.152 -0.0307  1.4042  0.9383
 1245SOL    HW215195   3.157   0.937  10.151  1.6245  0.2209  1.5329
 1246SOL     OW15196   0.070   1.859   4.542 -0.1785  0.5522 -0.4427
 1246SOL    HW115197   0.128   1.831   4.471  0.7774  1.6375 -0.0768
 1246SOL    HW215198   0.046   1.946   4.510 -0.4478  0.1940 -1.2093
 1247SOL     OW15199   1.309   4.026   2.309  0.8252 -0.4275 -1.0401
 1247SOL    HW115200   1.397   3.992   2.294  1.2345  0.3149 -0.3250
 1247SOL    HW215201   1.325   4.117   2.332 -0.2293 -1.2444  2.8883
 1248SOL     OW15202   2.004   2.678   8.970  0.0486 -0.0197 -0.5885
 1248SOL    HW115203   1.924   2.624   8.965  0.0183 -0.0284 -0.0140
 1248SOL    HW215204   2.043   2.626   9.039  0.6061  0.6035 -0.4388
 1249SOL     OW15205   0.369   2.135   9.051 -0.8262  0.4484  0.1186
 1249SOL    HW115206   0.292   2.162   9.002  0.7743  1.1454 -2.0041
 1249SOL    HW215207   0.363   2.194   9.126 -0.4491  1.2068 -0.4552
 1250SOL     OW15208   1.302   1.595   1.039 -0.0395 -0.6239 -0.2521
 1250SOL    HW115209   1.350   1.673   1.012 -1.0759  0.7979  1.9791
 1250SOL    HW215210   1.364   1.537   1.083  0.0334 -0.4675 -0.1510
 1251SOL     OW15211   4.192   1.753   6.353 -0.3680 -0.7491 -0.6687
 1251SOL    HW115212   4.147   1.818   6.407 -0.6198  0.0822 -1.8601
 1251SOL    HW215213   4.164   1.671   6.393  1.9718 -0.7506  0.9543
 1252SOL     OW15214   2.950   2.079   9.036  0.3136 -0.5345 -0.1653
 1252SOL    HW115215   2.863   2.084   8.996  0.6636  0.0709 -0.8664
 1252SOL    HW215216   3.002   2.140   8.983 -0.6186 -1.4672 -2.1471
 1253SOL     OW15217   3.570   2.225  15.791 -0.2822  0.2338  0.1089
 1253SOL    HW115218   3.632   2.254  15.724  0.5986 -1.7793  0.0363
 1253SOL    HW215219   3.608   2.248  15.875 -0.1955 -0.7545  0.3442
 1254SOL     OW15220   3.549   1.265   6.791 -0.3317 -0.9719  0.0431
 1254SOL    HW115221   3.525   1.205   6.862  1.4592 -1.6868  0.0736
 1254SOL    HW215222   3.473   1.276   6.735  0.1988  1.7261 -0.1431
 1255SOL     OW15223   1.561   1.678  17.392 -0.1858  0.2117  0.3503
 1255SOL    HW115224   1.605   1.625  17.458  2.2927 -1.7960 -2.9105
 1255SOL    HW215225   1.469   1.653  17.394  0.6417 -2.7894  0.0884
 1256SOL     OW15226   0.469   0.284   1.886 -0.4251 -0.1627  0.3028
 1256SOL    HW115227   0.411   0.340   1.834  0.0567 -0.4854 -0.5709
 1256SOL    HW215228   0.469   0.204   1.834 -0.5744  0.4755 -0.6702
 1257SOL     OW15229   2.228   1.259   1.883  0.4652 -0.4474  0.0070
 1257SOL    HW115230   2.246   1.174   1.922  0.0278 -1.2750 -1.6277
 1257SOL    HW215231   2.184   1.297   1.959  1.3654  1.3306 -0.3393
 1258SOL     OW15232   3.751   4.236   1.740 -0.3673 -0.2133  0.1971
 1258SOL    HW115233   3.705   4.307   1.785 -0.0185  0.0637  0.1167
 1258SOL    HW215234   3.770   4.279   1.656 -0.5489 -1.0219 -0.2516
 1259SOL     OW15235   1.057   4.386   8.328  0.1939 -0.2869 -0.5961
 1259SOL    HW115236   1.024   4.426   8.247 -0.0869 -2.0047 -1.3268
 1259SOL    HW215237   1.048   4.460   8.389  1.1778 -2.0272  1.6471
 1260SOL     OW15238   2.882   2.261   2.737 -0.5185  0.3763 -0.0567
 1260SOL    HW115239   2.939   2.338   2.745 -0.5492  0.2612  1.2309
 1260SOL    HW215240   2.908   2.205   2.810 -0.5898 -0.0979 -0.3959
 1261SOL     OW15241   4.594   4.387   7.922  0.1539  0.4327  0.6852
 1261SOL    HW115242   4.684   4.365   7.897  0.7946  2.9330  0.8317
 1261SOL    HW215243   4.599   4.482   7.914 -0.1424  0.3216 -0.8612
 1262SOL     OW15244   3.372   4.289   1.676 -0.4082  0.4481  0.4793
 1262SOL    HW115245   3.299   4.289   1.738 -0.7769  0.9727  0.0443
 1262SOL    HW215246   3.443   4.280   1.739  0.3467 -1.2724 -0.5887
 1263SOL     OW15247   1.103   1.464   7.736 -0.5575  0.2733 -0.2786
 1263SOL    HW115248   1.047   1.494   7.665 -0.4202 -0.0352 -0.5149
 1263SOL    HW215249   1.039   1.411   7.783 -0.0970  0.0916  0.1393
 1264SOL     OW15250   3.749   1.209   5.032 -0.4076 -0.4444 -0.3997
 1264SOL    HW115251   3.805   1.276   4.991 -0.4835  0.4189  0.9015
 1264SOL    HW215252   3.796   1.127   5.017  0.0345 -0.7564  2.5807
 1265SOL     OW15253   1.462   2.331  17.238 -0.1899  0.2279 -0.0347
 1265SOL    HW115254   1.517   2.341  17.160  2.7835 -2.0856  1.7611
 1265SOL    HW215255   1.442   2.422  17.261 -0.0452  0.6583 -1.6012
 1266SOL     OW15256   4.479   3.849   5.104  0.0173 -0.5967  0.1334
 1266SOL    HW115257   4.571   3.871   5.117 -0.2444  0.3953  0.3565
 1266SOL    HW215258   4.425   3.913   5.150  2.6572  2.0014 -0.3967
 1267SOL     OW15259   2.357   3.600  14.949  0.2455 -0.1985 -0.0050
 1267SOL    HW115260   2.292   3.568  14.887  0.9646 -0.7519 -0.4814
 1267SOL    HW215261   2.313   3.647  15.019 -0.4675  0.0590 -0.6343
 1268SOL     OW15262   1.221   1.890   9.669 -0.1056 -0.7822 -0.4553
 1268SOL    HW115263   1.194   1.865   9.581 -4.4724  0.7321  0.4170
 1268SOL    HW215264   1.311   1.860   9.674  0.4854  0.9167 -1.1686
 1269SOL     OW15265   1.270   4.616  16.026 -0.3888  0.5649 -0.7071
 1269SOL    HW115266   1.218   4.693  16.006 -0.6415  0.7380  0.6815
 1269SOL    HW215267   1.306   4.640  16.111  1.3940 -2.1988 -0.6581
 1270SOL     OW15268   3.415   1.257   3.978 -0.2793  0.0571 -0.4589
 1270SOL    HW115269   3.384   1.284   4.065 -2.9384  1.1401 -1.7516
 1270SOL    HW215270   3.418   1.162   3.990 -0.7339  0.1930  0.7936
 1271SOL     OW15271   1.257   2.303   3.400 -0.0631 -0.0403 -0.1347
 1271SOL    HW115272   1.262   2.312   3.496  0.7280  0.3838 -0.2127
 1271SOL    HW215273   1.262   2.395   3.376  2.1325  0.5027  2.3328
 1272SOL     OW15274   4.463   0.569  11.765  0.0423  0.4931 -0.4210
 1272SOL    HW115275   4.402   0.569  11.839 -0.8186 -0.7347 -1.1430
 1272SOL    HW215276   4.422   0.617  11.693  1.2741  1.6880 -0.3361
 1273SOL     OW15277   3.141   4.510   0.566 -0.0326  0.3142 -0.0163
 1273SOL    HW115278   3.074   4.453   0.526  1.0441 -0.0745 -1.2499
 1273SOL    HW215279   3.171   4.459   0.641  0.9767 -0.0454 -0.6652
 1274SOL     OW15280   2.999   3.016  17.637  0.6047 -0.3324 -0.1219
 1274SOL    HW115281   2.953   2.932  17.630 -2.5785  1.3188  0.8553
 1274SOL    HW215282   3.009   3.018   0.045  0.4287 -1.1299 -0.0812
 1275SOL     OW15283   3.637   0.963   2.046 -0.1962 -0.4410 -0.3000
 1275SOL    HW115284   3.587   0.953   1.965  0.6578  1.8807 -1.0943
 1275SOL    HW215285   3.708   1.017   2.013 -0.8660 -0.1283 -1.2319
 1276SOL     OW15286   0.569   4.404   6.666  0.3470 -0.3623 -0.0616
 1276SOL    HW115287   0.501   4.436   6.726  0.2733 -2.1034  0.7680
 1276SOL    HW215288   0.628   4.345   6.711  1.3905  0.5286 -0.2621
 1277SOL     OW15289   0.615   2.321   7.666  0.2858  0.0461 -0.3675
 1277SOL    HW115290   0.635   2.281   7.750 -2.3497  2.6227  1.5052
 1277SOL    HW215291   0.648   2.262   7.598  1.7205  0.1715  0.2407
 1278SOL     OW15292   0.150   0.736   2.413 -0.7001 -0.0137  0.0833
 1278SOL    HW115293   0.097   0.669   2.369 -0.2605  0.3495 -1.0115
 1278SOL    HW215294   0.161   0.804   2.346  1.0725 -0.4864 -0.1110
 1279SOL     OW15295   2.548   0.805   7.829 -0.6425 -0.0143 -0.2850
 1279SOL    HW115296   2.624   0.851   7.866  0.4004 -2.4622  0.5864
 1279SOL    HW215297   2.577   0.716   7.850 -1.9219  0.3506  2.9664
 1280SOL     OW15298   3.416   4.262   6.642  0.6283 -0.1539 -0.4261
 1280SOL    HW115299   3.422   4.304   6.556 -1.9757 -0.5827 -0.8290
 1280SOL    HW215300   3.494   4.299   6.683  0.6704 -0.7481  0.0253
 1281SOL     OW15301   4.182   3.589  13.750 -0.3966 -0.1308 -0.4969
 1281SOL    HW115302   4.139   3.573  13.834 -0.5435 -0.9070 -0.7205
 1281SOL    HW215303   4.227   3.671  13.774 -0.7706 -0.4138  1.1861
 1282SOL     OW15304   4.001   0.227   2.493 -0.1205  0.3298 -0.1715
 1282SOL    HW115305   4.011   0.133   2.502 -0.5487  0.2491 -0.5492
 1282SOL    HW215306   3.938   0.240   2.422  0.9818  2.9389 -0.6950
 1283SOL     OW15307   2.006   2.864   4.691 -0.6536  0.0749  0.0969
 1283SOL    HW115308   2.057   2.887   4.613 -0.2365  0.6814  0.5490
 1283SOL    HW215309   2.017   2.770   4.695 -1.4550 -0.0272  0.0756
 1284SOL     OW15310   1.834   0.890   0.527  0.1229  0.3299 -0.0867
 1284SOL    HW115311   1.850   0.965   0.584 -0.7444  0.3378  0.1405
 1284SOL    HW215312   1.761   0.916   0.471 -0.7406 -0.8867  0.5038
 1285SOL     OW15313   3.613   1.017   0.927  0.4132  0.0659  0.7855
 1285SOL    HW115314   3.608   1.110   0.948  2.5697  0.3344  0.1706
 1285SOL    HW215315   3.707   0.997   0.933  0.8101  2.2967  1.8204
 1286SOL     OW15316   4.083   2.195   4.446 -0.5536 -0.3973  0.0307
 1286SOL    HW115317   4.008   2.157   4.493  0.7939 -1.8989  0.9694
 1286SOL    HW215318   4.042   2.187   4.360  0.1536 -2.0795 -0.1523
 1287SOL     OW15319   0.196   2.030   3.233 -0.5499  0.1442 -0.3497
 1287SOL    HW115320   0.244   2.093   3.179  1.1467  0.7603  1.8792
 1287SOL    HW215321   0.243   2.053   3.313  0.2460 -2.1250 -0.1522
 1288SOL     OW15322   4.291   0.883   2.027  0.6555  0.1428  0.5959
 1288SOL    HW115323   4.383   0.909   2.037  1.2546 -1.8279  0.0625
 1288SOL    HW215324   4.295   0.816   1.959  0.9575  0.0107  0.7448
 1289SOL     OW15325   3.617   1.656  10.311  0.5221  0.5267  0.7044
 1289SOL    HW115326   3.564   1.653  10.232 -0.1178  2.2408  1.0538
 1289SOL    HW215327   3.647   1.566  10.306  0.7887  0.6382  0.2436
 1290SOL     OW15328   3.802   0.265   3.180 -0.1431  0.0081 -0.3200
 1290SOL    HW115329   3.822   0.281   3.272  1.4013  1.3999 -0.9049
 1290SOL    HW215330   3.778   0.350   3.145 -2.9654 -1.8876 -3.0335
 1291SOL     OW15331   1.841   4.337   0.362 -0.0434 -0.1654  0.1683
 1291SOL    HW115332   1.874   4.410   0.309  0.9505 -1.0391 -0.4163
 1291SOL    HW215333   1.914   4.289   0.400  0.1696 -0.5098 -0.6848
 1292SOL     OW15334   4.038   1.514   6.989 -0.8808  0.4377  0.2224
 1292SOL    HW115335   3.953   1.473   7.006  0.1671 -1.9369 -0.2307
 1292SOL    HW215336   4.010   1.573   6.920  1.7788  2.4946  0.8654
 1293SOL     OW15337   4.125   3.339   5.648  0.4814  0.4920 -0.1951
 1293SOL    HW115338   4.086   3.390   5.577  2.2986 -0.1806 -1.7041
 1293SOL    HW215339   4.149   3.410   5.708 -1.1299  0.4596  0.4909
 1294SOL     OW15340   0.423   2.738   5.903  0.6806  0.0276 -0.2312
 1294SOL    HW115341   0.371   2.776   5.832 -0.2034  1.1276  0.9992
 1294SOL    HW215342   0.458   2.664   5.855 -1.5833 -2.6116  2.1508
 1295SOL     OW15343   2.378   0.557   2.545 -0.1327  0.3238 -0.1022
 1295SOL    HW115344   2.302   0.575   2.601 -1.6157 -1.6303 -1.4861
 1295SOL    HW215345   2.414   0.643   2.524  1.4420 -0.3998 -0.3415
 1296SOL     OW15346   0.788   1.310   2.914 -0.3316 -0.0145  0.3475
 1296SOL    HW115347   0.802   1.261   2.995  1.8219 -0.2887 -0.1740
 1296SOL    HW215348   0.810   1.399   2.942 -0.6964  1.0339 -2.6586
 1297SOL     OW15349   2.949   2.507  10.215  0.5413 -0.6550 -0.1061
 1297SOL    HW115350   3.018   2.456  10.258 -0.7297 -0.9497  1.5992
 1297SOL    HW215351   2.930   2.460  10.134 -0.6200 -1.6244  0.7299
 1298SOL     OW15352   3.562   1.536  12.042 -0.3530 -0.0752  0.5717
 1298SOL    HW115353   3.641   1.586  12.063 -0.8360  0.3868  1.3198
 1298SOL    HW215354   3.593   1.474  11.976 -0.8505 -0.5066  0.7424
 1299SOL     OW15355   4.543   3.536   4.667  0.6746  0.0522 -0.0223
 1299SOL    HW115356   4.528   3.485   4.588 -1.4242  0.7778 -0.0958
 1299SOL    HW215357   4.613   3.476   4.693 -1.9526 -1.8110  2.7269
 1300SOL     OW15358   3.204   0.821   5.717 -0.3471  0.0005 -0.1408
 1300SOL    HW115359   3.115   0.788   5.728 -0.1319 -0.3513  0.5726
 1300SOL    HW215360   3.253   0.765   5.778 -0.4917  0.7553  0.6624
 1301SOL     OW15361   3.700   4.637   2.259  0.0244  0.4148 -0.4924
 1301SOL    HW115362   3.629   4.623   2.321  0.5582  0.9682  0.2520
 1301SOL    HW215363   3.725   4.550   2.226  0.1826  0.3847 -0.2976
 1302SOL     OW15364   4.088   0.983   7.704  0.0893 -0.4725 -0.3155
 1302SOL    HW115365   4.179   1.001   7.730 -0.3430 -0.2297  1.0159
 1302SOL    HW215366   4.080   1.052   7.638 -3.4497  0.4473  1.1172
 1303SOL     OW15367   0.713   3.984   7.443 -0.0924  0.5834  0.0712
 1303SOL    HW115368   0.709   3.969   7.537  0.8838 -0.1378  0.0039
 1303SOL    HW215369   0.805   4.006   7.431  0.3281 -0.1744  2.0655
 1304SOL     OW15370   2.785   0.709   6.907  0.1577 -0.0689  0.4337
 1304SOL    HW115371   2.825   0.681   6.990  2.6959  1.9045 -0.1033
 1304SOL    HW215372   2.692   0.709   6.930 -0.0663  0.9349 -0.4287
 1305SOL     OW15373   2.473   3.501  16.422  0.5749  0.5323 -0.0894
 1305SOL    HW115374   2.421   3.537  16.494 -0.1907 -0.6362 -0.0722
 1305SOL    HW215375   2.502   3.417  16.458  1.0913  1.7379  2.3415
 1306SOL     OW15376   0.175   0.072   8.115  0.1881  0.0589 -0.0211
 1306SOL    HW115377   0.264   0.040   8.130  0.4918  1.7206  1.6325
 1306SOL    HW215378   0.124   0.020   8.177  2.0952  1.4035  2.6684
 1307SOL     OW15379   2.655   2.125   8.230 -0.1498  0.4090  0.3736
 1307SOL    HW115380   2.681   2.041   8.267 -0.6467  0.1370  0.1075
 1307SOL    HW215381   2.685   2.189   8.295  2.6748 -0.4886 -0.0427
 1308SOL     OW15382   2.011   3.085   3.090  0.1008  0.0546  0.5119
 1308SOL    HW115383   2.068   3.019   3.130 -2.0509 -1.4132  1.1797
 1308SOL    HW215384   1.955   3.028   3.037  0.0593 -1.4090  2.1191
 1309SOL     OW15385   3.258   0.166   5.371 -0.1995 -0.2057  0.1593
 1309SOL    HW115386   3.270   0.071   5.371 -2.0072 -0.4324 -1.0892
 1309SOL    HW215387   3.216   0.193   5.453  1.0746  1.4366  0.2671
 1310SOL     OW15388   3.416   0.989  15.302  0.7113  0.1109  1.0917
 1310SOL    HW115389   3.494   1.033  15.334  0.2360  1.4438  0.4025
 1310SOL    HW215390   3.437   0.896  15.294  1.4811  0.4864 -1.1148
 1311SOL     OW15391   0.892   3.045   3.725  0.7149 -0.9211 -0.0642
 1311SOL    HW115392   0.804   3.047   3.762  0.3635  1.4483 -1.0815
 1311SOL    HW215393   0.935   3.015   3.805  0.4344  0.3818  0.5548
 1312SOL     OW15394   0.820   2.154   2.251  0.4022  0.5444 -0.0152
 1312SOL    HW115395   0.818   2.179   2.344  0.6965  2.6081 -0.5479
 1312SOL    HW215396   0.749   2.091   2.260  0.8944  0.4055  2.9470
 1313SOL     OW15397   2.590   0.885  12.006  0.5194  0.1007 -0.2711
 1313SOL    HW115398   2.566   0.918  12.093  1.0891  1.9009 -0.8077
 1313SOL    HW215399   2.607   0.791  12.019 -2.7289 -0.4056  0.4193
 1314SOL     OW15400   2.446   3.660   2.721 -0.3264  0.0310  0.4248
 1314SOL    HW115401   2.477   3.594   2.659 -1.4891  0.1341 -0.2697
 1314SOL    HW215402   2.404   3.600   2.784  0.4225 -2.6540 -1.6088
 1315SOL     OW15403   0.821   3.919   9.618 -0.1421 -0.5031  0.0958
 1315SOL    HW115404   0.822   3.867   9.698  0.0997  1.3101  1.2698
 1315SOL    HW215405   0.896   3.891   9.565  0.3377  2.2795 -0.6863
 1316SOL     OW15406   3.399   3.220  15.851 -0.1800  0.2866 -0.0554
 1316SOL    HW115407   3.331   3.233  15.917  0.2153 -0.9827  0.6102
 1316SOL    HW215408   3.397   3.129  15.821  1.0649  0.1789  0.1694
 1317SOL     OW15409   4.064   1.039   6.650 -0.1413 -0.4036  0.6203
 1317SOL    HW115410   4.041   1.108   6.712 -1.2881  1.0193 -1.3786
 1317SOL    HW215411   4.152   1.026   6.685  0.2448  0.3434 -0.0952
 1318SOL     OW15412   3.328   2.957   8.676  0.2166 -0.0338 -0.3643
 1318SOL    HW115413   3.298   2.922   8.759 -1.4642 -2.7626 -2.1440
 1318SOL    HW215414   3.418   2.923   8.674 -0.2140 -1.2249  0.8000
 1319SOL     OW15415   0.418   4.001   7.505 -0.2112 -0.0107  0.3136
 1319SOL    HW115416   0.511   3.979   7.499 -0.2031  0.9157 -2.7564
 1319SOL    HW215417   0.419   4.097   7.506 -2.1404  0.0153  0.2786
 1320SOL     OW15418   2.265   1.120  12.842  0.4100 -0.1512  0.0176
 1320SOL    HW115419   2.254   1.066  12.920  0.0040  0.0534  0.0993
 1320SOL    HW215420   2.360   1.124  12.835  0.5538 -2.0189  0.7445
 1321SOL     OW15421   2.472   2.858   4.115  0.2958  0.2879  0.5489
 1321SOL    HW115422   2.414   2.851   4.039  2.4070 -0.5304 -0.9918
 1321SOL    HW215423   2.544   2.809   4.075 -0.7397 -0.2374 -0.6480
 1322SOL     OW15424   3.224   3.520  10.367  0.0917  0.2255  0.5184
 1322SOL    HW115425   3.218   3.515  10.462 -1.4092  0.2350  0.4246
 1322SOL    HW215426   3.150   3.580  10.361 -0.2470 -0.2090  0.3282
 1323SOL     OW15427   3.156   0.576   6.743  0.0482  0.3808 -0.0117
 1323SOL    HW115428   3.192   0.645   6.687 -0.7209  1.7390  1.1473
 1323SOL    HW215429   3.063   0.573   6.719  0.5173  2.9128 -2.0897
 1324SOL     OW15430   1.120   1.433   6.794 -0.1244  0.0242  0.4431
 1324SOL    HW115431   1.138   1.384   6.875  0.1369  0.3778  0.6005
 1324SOL    HW215432   1.179   1.508   6.794 -0.8892  0.6299 -0.5156
 1325SOL     OW15433   2.726   3.313   6.173 -0.0472 -0.2787 -0.7051
 1325SOL    HW115434   2.708   3.282   6.261  1.9791 -0.8699 -0.4816
 1325SOL    HW215435   2.703   3.404   6.189  1.3966 -0.1027  0.4435
 1326SOL     OW15436   1.814   3.691   7.445 -0.0170  0.0176 -0.4232
 1326SOL    HW115437   1.735   3.715   7.492 -0.2724 -1.9202  0.1417
 1326SOL    HW215438   1.794   3.599   7.427 -0.7657  0.4058 -1.6182
 1327SOL     OW15439   3.371   4.208   3.355  0.2997  0.4606 -0.2383
 1327SOL    HW115440   3.314   4.265   3.407 -0.3118 -0.5842  0.2539
 1327SOL    HW215441   3.442   4.191   3.416  0.1440  2.8158  0.6133
 1328SOL     OW15442   2.838   0.035  10.706 -0.2645 -0.1529  0.4406
 1328SOL    HW115443   2.915   0.037  10.762  1.3312 -2.1537 -1.6547
 1328SOL    HW215444   2.771   0.047  10.773 -2.2371  1.5589 -1.8251
 1329SOL     OW15445   1.375   1.626   2.165 -0.3335  0.8300 -0.2268
 1329SOL    HW115446   1.432   1.703   2.174  0.1402  0.6541 -1.7297
 1329SOL    HW215447   1.422   1.570   2.227 -1.1596  1.2715  0.7988
 1330SOL     OW15448   1.196   1.783  12.437  0.0715 -0.2930  0.2806
 1330SOL    HW115449   1.212   1.854  12.499 -0.1231  0.4559 -0.5283
 1330SOL    HW215450   1.135   1.821  12.373  0.9519  0.4849 -0.1042
 1331SOL     OW15451   0.774   0.808   4.578 -0.7303  0.3889  0.0078
 1331SOL    HW115452   0.706   0.874   4.565  1.3366  2.4419 -0.1546
 1331SOL    HW215453   0.784   0.777   4.488  2.5159  0.9781  0.1692
 1332SOL     OW15454   2.980   2.774   6.532  0.2800  0.3689  0.3028
 1332SOL    HW115455   2.984   2.867   6.509 -4.1534  0.5505  0.3511
 1332SOL    HW215456   2.890   2.758   6.561  0.0675  2.0769  0.5934
 1333SOL     OW15457   4.127   1.001   8.034 -0.1974  0.1996  0.1992
 1333SOL    HW115458   4.163   1.045   7.957 -1.0904 -1.9942 -1.4902
 1333SOL    HW215459   4.047   1.054   8.041 -0.5835 -0.3066 -0.3505
 1334SOL     OW15460   3.356   2.677   6.121  0.5490 -0.1690  0.1074
 1334SOL    HW115461   3.421   2.648   6.186 -2.0803 -0.9406  2.3975
 1334SOL    HW215462   3.425   2.707   6.061  1.1392  1.0328  1.3665
 1335SOL     OW15463   1.615   0.804   9.850 -0.3592 -0.4535 -0.1038
 1335SOL    HW115464   1.648   0.796   9.939 -2.1239 -1.9445  0.4132
 1335SOL    HW215465   1.668   0.735   9.811 -0.4911 -1.4732  1.5401
 1336SOL     OW15466   3.710   2.414   5.817 -0.1840  0.3818 -0.1264
 1336SOL    HW115467   3.762   2.395   5.895  0.0351  1.4167 -0.0201
 1336SOL    HW215468   3.737   2.348   5.753  1.7772 -0.1866  1.2865
 1337SOL     OW15469   2.612   1.916   2.602 -0.6227 -0.1817  0.5961
 1337SOL    HW115470   2.561   1.936   2.523  2.4234  0.9665 -1.0733
 1337SOL    HW215471   2.695   1.961   2.586 -1.1744  1.0844  1.2857
 1338SOL     OW15472   3.562   2.326   6.781  0.5152  0.0345 -0.6860
 1338SOL    HW115473   3.615   2.281   6.716  0.6820 -0.3978 -0.2582
 1338SOL    HW215474   3.480   2.276   6.783  0.7406 -0.2815  1.0737
 1339SOL     OW15475   0.844   0.773  12.146 -0.3671  0.2596 -0.1174
 1339SOL    HW115476   0.892   0.835  12.202 -1.1128  0.2258  0.5548
 1339SOL    HW215477   0.881   0.801  12.062 -0.9860  0.2914 -0.3735
 1340SOL     OW15478   1.592   0.338   3.321 -0.0051  0.8041 -0.3195
 1340SOL    HW115479   1.505   0.377   3.330 -0.1093 -0.4765  4.3337
 1340SOL    HW215480   1.638   0.375   3.397  5.0077 -1.9912 -2.0077
 1341SOL     OW15481   4.249   0.941   3.536 -0.0363  0.0471 -0.4532
 1341SOL    HW115482   4.280   1.031   3.534 -2.0795  0.7592 -0.1054
 1341SOL    HW215483   4.327   0.894   3.567 -0.4647  0.6807  1.5947
 1342SOL     OW15484   2.990   4.451  10.874  0.8462 -0.0909 -0.5590
 1342SOL    HW115485   2.958   4.432  10.786 -2.5961  4.0740 -0.2164
 1342SOL    HW215486   2.969   4.544  10.872 -0.8671 -0.5070 -1.9939
 1343SOL     OW15487   2.264   3.003   6.718 -0.5518 -0.4591 -0.3804
 1343SOL    HW115488   2.299   3.086   6.751 -1.5123 -0.5283  0.7926
 1343SOL    HW215489   2.192   3.037   6.664 -0.8408 -0.1769  0.1829
 1344SOL     OW15490   3.558   1.058   3.641 -0.1188  0.1570  0.0764
 1344SOL    HW115491   3.635   1.020   3.682 -1.2589  0.6965  2.6718
 1344SOL    HW215492   3.592   1.130   3.588  0.2439  0.0164  0.1210
 1345SOL     OW15493   3.355   0.392  17.540  0.0747  0.7845  0.0274
 1345SOL    HW115494   3.305   0.346  17.607  0.1505 -1.9262 -1.7735
 1345SOL    HW215495   3.438   0.345  17.540 -0.9521 -1.0648 -2.0677
 1346SOL     OW15496   3.605   2.065   0.033 -0.8521  0.0677  0.2258
 1346SOL    HW115497   3.619   1.980   0.074  2.7670  0.8026  0.5095
 1346SOL    HW215498   3.680   2.116   0.065  0.7166 -1.4927 -1.0068
 1347SOL     OW15499   3.181   0.396   1.468  0.2480  0.5238 -0.1379
 1347SOL    HW115500   3.117   0.459   1.502  2.1429  2.9573 -1.0636
 1347SOL    HW215501   3.259   0.412   1.521  1.5615 -0.8225 -1.6723
 1348SOL     OW15502   3.411   3.365   9.378 -0.6447  0.0336 -0.1950
 1348SOL    HW115503   3.323   3.327   9.374 -0.8853  0.4192  1.6324
 1348SOL    HW215504   3.467   3.324   9.312 -1.6052 -0.5379 -0.6541
 1349SOL     OW15505   2.709   1.513   4.641  0.0818  0.7504  0.3710
 1349SOL    HW115506   2.647   1.555   4.581 -0.2002  1.3197  1.0733
 1349SOL    HW215507   2.766   1.466   4.580 -1.1616  1.2739 -1.1891
 1350SOL     OW15508   1.396   3.168   1.484 -0.2209  0.3148  0.2341
 1350SOL    HW115509   1.488   3.176   1.511  0.3737 -1.6597 -1.1967
 1350SOL    HW215510   1.409   3.080   1.449 -2.0184  0.2456 -0.2534
 1351SOL     OW15511   0.822   2.896   3.507  0.0112 -0.2884  1.2797
 1351SOL    HW115512   0.796   2.980   3.544  2.2184  1.3231 -0.8096
 1351SOL    HW215513   0.905   2.894   3.554  1.2383  1.7262 -0.8031
 1352SOL     OW15514   4.148   1.396   7.755  0.3687  0.4569  0.5584
 1352SOL    HW115515   4.202   1.392   7.677 -0.9155  2.9922 -0.4521
 1352SOL    HW215516   4.078   1.456   7.730  3.3816  3.9289  0.4383
 1353SOL     OW15517   3.628   1.792   1.840 -0.0767  0.1115 -0.5241
 1353SOL    HW115518   3.675   1.711   1.861 -1.0138 -0.7293 -1.6077
 1353SOL    HW215519   3.538   1.764   1.822  0.5317 -1.8513 -0.6013
 1354SOL     OW15520   4.587   1.994   6.533 -0.0992 -0.9486  0.3204
 1354SOL    HW115521   4.584   1.923   6.596  0.4961  1.0804  2.6500
 1354SOL    HW215522   4.619   2.066   6.588  2.5382 -2.4111  0.7093
 1355SOL     OW15523   0.830   2.056  10.432  0.1900 -0.8866  0.0386
 1355SOL    HW115524   0.813   1.999  10.356  0.4447  0.1871 -0.8107
 1355SOL    HW215525   0.760   2.024  10.490 -0.0998 -0.3447 -0.0124
 1356SOL     OW15526   1.378   1.256   6.177  0.5441 -0.2053  0.6324
 1356SOL    HW115527   1.345   1.181   6.227  2.1902 -0.4829  1.3007
 1356SOL    HW215528   1.359   1.222   6.090  0.9536  2.3051 -0.4404
 1357SOL     OW15529   2.307   2.768   7.455  0.1519  0.4280  0.7344
 1357SOL    HW115530   2.354   2.795   7.376 -0.5555  0.0014  0.1652
 1357SOL    HW215531   2.224   2.814   7.443  0.7869  1.5221  0.5223
 1358SOL     OW15532   3.750   0.151  11.855 -0.0894  0.4370 -0.1220
 1358SOL    HW115533   3.721   0.166  11.945  0.5964 -1.8031  0.4707
 1358SOL    HW215534   3.687   0.204  11.806  0.9980  1.0533 -0.8777
 1359SOL     OW15535   2.075   1.761   9.773  0.2390 -0.4154 -0.1054
 1359SOL    HW115536   2.001   1.815   9.744 -0.1556 -1.2128 -0.6067
 1359SOL    HW215537   2.037   1.680   9.737 -1.9439  1.4871 -2.1014
 1360SOL     OW15538   0.904   2.396   8.079  0.3431 -0.0564  0.0202
 1360SOL    HW115539   0.915   2.374   7.987  1.0798  2.1848 -0.4240
 1360SOL    HW215540   0.988   2.360   8.108 -0.4478 -1.4387  0.5924
 1361SOL     OW15541   1.169   2.767   7.975 -0.0950  0.6577  0.5667
 1361SOL    HW115542   1.189   2.704   7.906  0.5075  0.3715  1.0029
 1361SOL    HW215543   1.179   2.710   8.051 -2.8970 -1.7399 -0.8623
 1362SOL     OW15544   4.023   2.338  10.456  0.1576 -0.0234  0.3607
 1362SOL    HW115545   4.089   2.301  10.514 -1.1376  0.5644  2.2135
 1362SOL    HW215546   4.047   2.431  10.466  1.3305 -0.3789  0.8916
 1363SOL     OW15547   3.253   0.502   4.038  0.3216 -0.1328  0.1917
 1363SOL    HW115548   3.272   0.433   3.973  1.3893  1.4462 -1.1560
 1363SOL    HW215549   3.172   0.469   4.077  1.5668 -1.3342  1.7623
 1364SOL     OW15550   3.767   3.446  10.880  0.1945 -0.1738  0.0837
 1364SOL    HW115551   3.724   3.478  10.801  1.9527  0.6921 -0.5224
 1364SOL    HW215552   3.855   3.478  10.862  0.8126 -2.1816 -0.5124
 1365SOL     OW15553   1.759   4.051   7.995 -0.1538  0.6414 -0.3797
 1365SOL    HW115554   1.757   4.098   8.078 -0.1001 -0.2372  0.1145
 1365SOL    HW215555   1.849   4.020   7.981 -0.1701  0.3045  0.2448
 1366SOL     OW15556   2.212   4.244  11.613  0.2136  0.4307 -0.1608
 1366SOL    HW115557   2.292   4.296  11.603 -0.4550  1.6580  1.0483
 1366SOL    HW215558   2.237   4.208  11.698  1.6330  0.5470 -0.5269
 1367SOL     OW15559   1.390   0.186   7.172  0.1985  0.3393  0.3323
 1367SOL    HW115560   1.429   0.100   7.188 -0.3546  0.1412  0.6036
 1367SOL    HW215561   1.468   0.237   7.150  0.3579  0.1930  0.5529
 1368SOL     OW15562   3.669   3.308  17.302  0.1290  0.2354  0.1663
 1368SOL    HW115563   3.671   3.398  17.336 -3.4639 -0.4596  2.2118
 1368SOL    HW215564   3.580   3.283  17.327  1.0833 -3.4845 -0.1882
 1369SOL     OW15565   3.481   0.719   1.619  0.4087  0.1163 -0.5187
 1369SOL    HW115566   3.442   0.747   1.536 -0.1525 -4.5643 -1.8073
 1369SOL    HW215567   3.446   0.630   1.624 -1.4979  0.8044 -1.6454
 1370SOL     OW15568   3.349   0.107   7.093  0.4599  0.5135  0.0397
 1370SOL    HW115569   3.343   0.077   7.003  1.4363 -0.3240  0.2593
 1370SOL    HW215570   3.438   0.084   7.118 -0.1065 -1.6693 -0.0262
 1371SOL     OW15571   1.018   4.077   9.189  0.8120 -0.7997 -0.1867
 1371SOL    HW115572   1.102   4.032   9.193  2.2319  1.8917  0.2384
 1371SOL    HW215573   1.059   4.163   9.181 -0.2487 -0.3715 -1.1507
 1372SOL     OW15574   1.888   1.641  10.497  0.1695  0.2849 -0.8252
 1372SOL    HW115575   1.826   1.705  10.464 -0.4374  0.6686  1.0219
 1372SOL    HW215576   1.925   1.672  10.580  1.8776 -0.9373 -1.1162
 1373SOL     OW15577   3.040   0.712   7.787  0.1292  0.4922 -0.1814
 1373SOL    HW115578   3.098   0.727   7.861  1.0563 -1.4616 -0.5118
 1373SOL    HW215579   3.093   0.662   7.726 -1.9597 -1.6770 -0.2357
 1374SOL     OW15580   1.747   1.842   2.966  0.0820  0.0665 -0.2501
 1374SOL    HW115581   1.774   1.770   3.023 -2.7975 -0.4063  0.5122
 1374SOL    HW215582   1.812   1.840   2.896 -0.8119  0.0988 -1.0774
 1375SOL     OW15583   0.330   3.622   6.076  0.4941 -0.3993  0.1109
 1375SOL    HW115584   0.264   3.626   6.007  0.8289 -0.5800 -0.2172
 1375SOL    HW215585   0.302   3.543   6.122  0.2444 -0.9597 -1.0211
 1376SOL     OW15586   2.926   1.009  15.380  0.1210  0.0987  0.1904
 1376SOL    HW115587   2.835   0.980  15.383  0.3105 -0.2954  1.9775
 1376SOL    HW215588   2.911   1.101  15.403  1.4766  0.3800 -0.0945
 1377SOL     OW15589   0.937   0.573  13.764  0.2305 -0.1329  0.0896
 1377SOL    HW115590   0.973   0.555  13.851 -0.0844  1.0399  0.4609
 1377SOL    HW215591   0.858   0.627  13.773 -0.3440 -1.1062  0.9404
 1378SOL     OW15592   3.767   3.716  17.163 -0.3800 -0.3130  0.1959
 1378SOL    HW115593   3.794   3.651  17.229  0.3303  0.2836  0.4855
 1378SOL    HW215594   3.681   3.683  17.136 -1.1354  1.4109  0.4909
 1379SOL     OW15595   4.498   4.699   8.253  0.0562  0.2309 -0.1884
 1379SOL    HW115596   4.428   4.648   8.294  0.2125 -0.5978 -0.9472
 1379SOL    HW215597   4.487   4.675   8.161 -0.8390 -1.5955  0.3844
 1380SOL     OW15598   1.281   1.388   0.867 -0.3264 -0.2941  0.0227
 1380SOL    HW115599   1.272   1.426   0.780  1.2278  1.0985  0.4725
 1380SOL    HW215600   1.276   1.464   0.924 -1.9706 -0.4596  0.1052
 1381SOL     OW15601   0.485   0.645   1.827 -0.4057 -0.0093 -0.0861
 1381SOL    HW115602   0.558   0.625   1.769 -0.1452  3.1053 -0.7983
 1381SOL    HW215603   0.489   0.569   1.886 -0.2471 -0.9672 -1.3433
 1382SOL     OW15604   2.257   3.296   1.001  0.5010  0.4005 -0.5645
 1382SOL    HW115605   2.189   3.287   0.935 -0.1771 -0.5734  0.2592
 1382SOL    HW215606   2.202   3.303   1.079 -0.5974 -3.2055 -1.0273
 1383SOL     OW15607   1.906   0.611   3.435  0.5637  0.4460 -0.2794
 1383SOL    HW115608   1.964   0.551   3.482  0.6349  0.8538  0.1547
 1383SOL    HW215609   1.819   0.577   3.453  1.1797 -0.0949  1.6717
 1384SOL     OW15610   2.235   4.423   1.810 -0.3080 -0.0081  0.0661
 1384SOL    HW115611   2.212   4.449   1.900  0.8609 -1.8802  0.9200
 1384SOL    HW215612   2.282   4.499   1.775 -0.7937  0.9965  1.5957
 1385SOL     OW15613   1.749   3.606   1.429  0.3607 -0.1919 -0.1149
 1385SOL    HW115614   1.701   3.674   1.476  0.8723 -0.4883  0.8314
 1385SOL    HW215615   1.823   3.655   1.393  0.0980 -0.4986 -1.0487
 1386SOL     OW15616   3.439   4.624   0.282  0.3309  0.3571  0.3529
 1386SOL    HW115617   3.353   4.636   0.243  1.3664 -0.8317 -2.3047
 1386SOL    HW215618   3.441   4.686   0.355  0.8776  0.6669  0.0757
 1387SOL     OW15619   2.697   2.641   4.685  0.4047 -0.3628  0.0309
 1387SOL    HW115620   2.769   2.581   4.703  0.6327 -0.2902 -0.6488
 1387SOL    HW215621   2.742   2.721   4.658  2.7474 -0.8956  2.3247
 1388SOL     OW15622   2.809   2.633   5.260 -0.0121  1.1759  0.1771
 1388SOL    HW115623   2.805   2.611   5.167 -0.1191 -1.0540  0.7096
 1388SOL    HW215624   2.777   2.723   5.262  0.0814  1.2237 -0.4348
 1389SOL     OW15625   3.753   4.599   7.581 -0.1930 -0.2676  0.7224
 1389SOL    HW115626   3.702   4.590   7.662 -1.8068 -0.7043 -0.3541
 1389SOL    HW215627   3.764   4.694   7.583 -2.5883 -0.0102  1.4712
 1390SOL     OW15628   1.151   0.554  16.217  0.0496  0.2933  0.5083
 1390SOL    HW115629   1.147   0.502  16.137  4.5105  0.7399  0.0069
 1390SOL    HW215630   1.087   0.623  16.202  0.6961  1.0704  1.3972
 1391SOL     OW15631   0.814   1.075   1.392  0.3811 -0.2168 -0.0845
 1391SOL    HW115632   0.761   1.008   1.437  0.6864 -0.3341  0.1015
 1391SOL    HW215633   0.790   1.065   1.300  2.7015 -2.0425 -0.5059
 1392SOL     OW15634   1.909   3.293   8.874  0.3920  0.3000 -0.4632
 1392SOL    HW115635   1.968   3.320   8.943 -0.2095  2.0835 -0.6360
 1392SOL    HW215636   1.859   3.373   8.857  0.4162  0.5430  0.6313
 1393SOL     OW15637   1.983   2.038  10.543 -0.1436  0.3050 -0.8301
 1393SOL    HW115638   1.909   2.030  10.483  1.0636 -0.1682 -2.2727
 1393SOL    HW215639   2.023   2.115  10.501 -0.0245 -0.7080 -2.5922
 1394SOL     OW15640   0.585   4.039   9.995  0.0939  0.2032  0.3743
 1394SOL    HW115641   0.677   4.052   9.971  0.5844 -1.1615  1.5138
 1394SOL    HW215642   0.562   3.964   9.940  1.0535 -0.5740  1.0328
 1395SOL     OW15643   1.823   2.434   7.435  0.1860 -0.3308 -0.1712
 1395SOL    HW115644   1.841   2.366   7.371  2.9185 -0.4548  0.7119
 1395SOL    HW215645   1.848   2.515   7.392  1.3675 -1.2675 -1.2432
 1396SOL     OW15646   2.589   2.446   0.141  0.0669 -0.0374  0.4681
 1396SOL    HW115647   2.684   2.438   0.152 -0.3326 -1.4904  3.0053
 1396SOL    HW215648   2.555   2.403   0.063  1.0208  2.3404 -1.2570
 1397SOL     OW15649   3.155   1.995   6.103  0.1172 -0.5375  0.1208
 1397SOL    HW115650   3.124   1.920   6.052 -0.9712 -0.5274  0.7613
 1397SOL    HW215651   3.080   2.009   6.160 -0.7330 -3.8867 -0.1634
 1398SOL     OW15652   1.455   3.615   8.960 -0.2002  0.5203  0.1290
 1398SOL    HW115653   1.498   3.677   9.019 -4.5696  1.0340  2.7577
 1398SOL    HW215654   1.375   3.599   9.009 -0.7815 -0.7294 -1.2270
 1399SOL     OW15655   0.131   0.404  15.830 -0.4418 -0.2101 -0.2689
 1399SOL    HW115656   0.109   0.469  15.763  1.8298  0.1015 -0.7394
 1399SOL    HW215657   0.208   0.440  15.875 -0.1605  0.9606 -1.6544
 1400SOL     OW15658   2.779   3.865  13.496  0.0105  0.0127 -0.0760
 1400SOL    HW115659   2.763   3.775  13.525 -0.2178 -0.3096 -1.2021
 1400SOL    HW215660   2.829   3.860  13.414  1.1550  0.1197  0.6139
 1401SOL     OW15661   3.320   4.039   6.464  0.0527 -0.2005 -0.0364
 1401SOL    HW115662   3.227   4.057   6.447  0.1896 -0.2993 -0.8947
 1401SOL    HW215663   3.358   4.089   6.392  1.3663  1.3420  1.7323
 1402SOL     OW15664   4.000   4.481   2.694 -0.3546 -0.3366  0.0087
 1402SOL    HW115665   4.087   4.487   2.733 -0.3072  1.7361 -0.4000
 1402SOL    HW215666   4.021   4.523   2.611 -0.2918  1.0548  0.7275
 1403SOL     OW15667   2.612   1.469   0.823 -0.4751 -0.3800 -0.2397
 1403SOL    HW115668   2.630   1.463   0.729  0.4227  1.3124 -0.1726
 1403SOL    HW215669   2.668   1.546   0.836 -0.2817 -0.5424 -0.1080
 1404SOL     OW15670   1.611   3.803   1.545  0.1313  0.7116 -0.3221
 1404SOL    HW115671   1.531   3.802   1.492  0.2684 -0.6152 -0.4975
 1404SOL    HW215672   1.644   3.893   1.539 -1.5989  1.2682 -1.4293
 1405SOL     OW15673   2.464   0.728  17.128  0.0066  0.3131  0.3074
 1405SOL    HW115674   2.466   0.810  17.178  0.4036  1.5550 -1.7647
 1405SOL    HW215675   2.374   0.720  17.095 -1.4714  1.8280  3.9714
 1406SOL     OW15676   0.194   3.413   2.887  0.4217  0.1852  0.6158
 1406SOL    HW115677   0.180   3.500   2.849 -0.6131 -0.8020 -1.2430
 1406SOL    HW215678   0.260   3.381   2.826  0.5981 -0.3699  1.1017
 1407SOL     OW15679   4.713   4.042  11.701  0.2927  0.3430 -0.0605
 1407SOL    HW115680   4.699   4.094  11.780 -0.8228  1.5843 -1.0688
 1407SOL    HW215681   0.073   3.997  11.723 -0.5571 -0.1500  2.1049
 1408SOL     OW15682   4.038   3.050   5.139  0.1675 -0.5238  0.0621
 1408SOL    HW115683   4.009   3.087   5.223 -2.8981 -0.9457 -0.8151
 1408SOL    HW215684   4.129   3.034   5.165  0.0159 -1.4053  0.0636
 1409SOL     OW15685   2.557   3.837   3.028  0.2624 -0.5117  0.0625
 1409SOL    HW115686   2.493   3.875   2.967 -0.2870 -1.9121 -0.2325
 1409SOL    HW215687   2.497   3.780   3.076  3.0468 -2.9847  0.5501
 1410SOL     OW15688   3.856   2.323  12.978 -0.5904 -0.5926  0.1984
 1410SOL    HW115689   3.935   2.360  12.939  0.6982 -1.5868  1.8664
 1410SOL    HW215690   3.871   2.334  13.072  1.6506 -2.9792  0.1177
 1411SOL     OW15691   0.431   2.944   4.279  0.2925  0.1134 -0.1125
 1411SOL    HW115692   0.462   2.932   4.369 -1.0449 -0.2508  0.3029
 1411SOL    HW215693   0.409   2.856   4.247  0.4147  0.2537 -0.5719
 1412SOL     OW15694   2.088   2.534   1.169 -0.4175  0.4967  0.5900
 1412SOL    HW115695   2.154   2.505   1.105  0.5703  1.0259  1.3617
 1412SOL    HW215696   2.145   2.549   1.244  1.4513  1.4489 -0.9945
 1413SOL     OW15697   1.102   3.636   6.271 -0.0198 -0.1372  0.0129
 1413SOL    HW115698   1.099   3.731   6.287 -1.3825 -0.0369 -0.8386
 1413SOL    HW215699   1.035   3.626   6.203 -1.5208  0.1172  1.4726
 1414SOL     OW15700   2.986   0.415   8.300 -0.7221 -0.4399  0.5842
 1414SOL    HW115701   2.915   0.465   8.341  0.1871  1.1118  0.2322
 1414SOL    HW215702   2.967   0.423   8.207 -3.0644 -0.1136  1.0717
 1415SOL     OW15703   0.759   2.779   5.588 -0.0270  0.6624 -0.5170
 1415SOL    HW115704   0.761   2.870   5.617 -0.5848  0.8392 -1.0172
 1415SOL    HW215705   0.680   2.775   5.534  1.6726 -1.0985 -2.8559
 1416SOL     OW15706   2.527   3.991   1.289  0.4562  0.1794 -0.2149
 1416SOL    HW115707   2.585   3.915   1.291 -0.8505 -0.7439  1.7518
 1416SOL    HW215708   2.584   4.059   1.252  1.4792 -1.1044 -0.9839
 1417SOL     OW15709   2.187   4.437   0.908  0.3677 -1.0895  0.0688
 1417SOL    HW115710   2.265   4.387   0.881 -0.4196 -2.5415  0.4666
 1417SOL    HW215711   2.219   4.480   0.987 -1.1805 -1.0442  0.6566
 1418SOL     OW15712   1.233   2.664  12.902 -0.2151  0.0131  0.6432
 1418SOL    HW115713   1.306   2.712  12.863  0.2797 -0.5533  0.8693
 1418SOL    HW215714   1.268   2.608  12.971  0.6437 -1.5209 -1.0383
 1419SOL     OW15715   1.826   4.296  12.089 -0.3023 -0.4673 -0.0772
 1419SOL    HW115716   1.854   4.306  12.179 -0.2995 -1.4136  0.0254
 1419SOL    HW215717   1.903   4.282  12.034 -1.0944 -1.0355 -1.0531
 1420SOL     OW15718   3.667   0.188   5.575  0.7660  0.2859 -0.3419
 1420SOL    HW115719   3.699   0.275   5.598 -1.4461  0.9944 -0.0045
 1420SOL    HW215720   3.607   0.212   5.504  0.5042 -0.5007 -0.3853
 1421SOL     OW15721   4.665   1.075  16.837 -0.1330  0.2183 -0.1570
 1421SOL    HW115722   4.599   1.016  16.873 -0.4616  1.2399  0.8991
 1421SOL    HW215723   4.670   1.133  16.913  1.6104  0.6663 -0.5986
 1422SOL     OW15724   3.762   1.167  12.886  0.0174 -0.1752 -0.3070
 1422SOL    HW115725   3.744   1.256  12.916  1.2694  0.1008 -0.3437
 1422SOL    HW215726   3.671   1.139  12.886 -0.4263  1.2195  0.8704
 1423SOL     OW15727   3.127   3.350   8.597 -0.7721 -1.1953  0.1481
 1423SOL    HW115728   3.173   3.434   8.595 -0.0828 -1.5355  1.5072
 1423SOL    HW215729   3.040   3.382   8.625 -0.1396  1.3930 -0.8361
 1424SOL     OW15730   1.288   3.441   5.188  0.3744 -0.4007 -0.4316
 1424SOL    HW115731   1.312   3.402   5.272  1.9783 -0.6534 -1.0106
 1424SOL    HW215732   1.359   3.501   5.165 -1.5354  1.7823 -0.6778
 1425SOL     OW15733   3.820   4.314  14.891  0.7183 -0.1910 -0.4948
 1425SOL    HW115734   3.840   4.331  14.983  1.3884 -0.8640 -0.5141
 1425SOL    HW215735   3.771   4.396  14.882 -1.9644 -1.8926 -1.4654
 1426SOL     OW15736   0.212   3.086   3.491 -0.2441  0.5903  0.9850
 1426SOL    HW115737   0.170   3.050   3.569  0.1711  1.0422  1.4228
 1426SOL    HW215738   0.280   3.019   3.481  0.2948  1.3666 -0.5191
 1427SOL     OW15739   3.949   0.619   2.188 -0.3401  0.0945 -0.2554
 1427SOL    HW115740   3.950   0.631   2.283  1.8604 -0.7750 -0.1867
 1427SOL    HW215741   3.870   0.673   2.178  0.4374  1.0906 -0.9571
 1428SOL     OW15742   0.487   3.833   4.453 -0.4455 -0.2790  0.4731
 1428SOL    HW115743   0.538   3.913   4.467 -0.1263 -0.5766  0.9907
 1428SOL    HW215744   0.476   3.811   4.545 -2.0692 -0.0822  0.3228
 1429SOL     OW15745   2.037   2.297   2.258  0.1282  0.1305 -0.2233
 1429SOL    HW115746   2.126   2.331   2.245  0.4808 -0.7230 -0.0695
 1429SOL    HW215747   2.015   2.340   2.341 -1.3264 -1.6187  0.3082
 1430SOL     OW15748   2.203   3.074   6.037 -0.2299  0.9411 -0.1758
 1430SOL    HW115749   2.155   3.027   6.105  0.6358  0.0428 -0.1906
 1430SOL    HW215750   2.250   3.001   5.997 -0.9938  1.3761 -1.8966
 1431SOL     OW15751   3.361   1.662   8.780  0.0364 -0.0692  0.3414
 1431SOL    HW115752   3.317   1.718   8.716 -0.6288 -0.3776  0.5338
 1431SOL    HW215753   3.452   1.684   8.761  0.1868 -2.0389 -1.2001
 1432SOL     OW15754   2.995   1.675   1.584 -0.0589 -0.0741  0.1181
 1432SOL    HW115755   3.005   1.582   1.600 -0.4604 -0.8335 -4.0504
 1432SOL    HW215756   2.904   1.682   1.614 -0.3677  1.1087 -1.0758
 1433SOL     OW15757   0.477   3.307   2.207  0.0339 -0.4754  0.0814
 1433SOL    HW115758   0.570   3.284   2.211  0.4906  1.0666 -2.1539
 1433SOL    HW215759   0.453   3.280   2.118 -1.5527  0.4118  0.2469
 1434SOL     OW15760   3.729   1.550   1.912 -0.0291 -0.3236 -0.2203
 1434SOL    HW115761   3.636   1.551   1.936 -0.6065 -1.2478 -2.4292
 1434SOL    HW215762   3.747   1.456   1.917  0.6249 -0.2602 -1.3754
 1435SOL     OW15763   0.535   0.507   6.158 -0.1278 -0.1473  0.6051
 1435SOL    HW115764   0.464   0.515   6.222 -2.1545 -1.9107 -1.4823
 1435SOL    HW215765   0.506   0.550   6.078  0.3731 -1.8595 -0.4776
 1436SOL     OW15766   0.088   3.130   7.658 -0.3468 -0.3560 -0.5968
 1436SOL    HW115767   0.158   3.143   7.722  0.1056  2.8958 -1.7570
 1436SOL    HW215768   0.038   3.057   7.694 -0.6727 -0.5377 -1.4088
 1437SOL     OW15769   4.064   1.600   9.420  0.2775  0.6025  0.0996
 1437SOL    HW115770   4.104   1.658   9.355  1.7514 -0.8166 -0.2527
 1437SOL    HW215771   4.123   1.601   9.495  0.6110 -0.8112 -0.1509
 1438SOL     OW15772   3.210   1.134  15.215 -1.0401 -0.3292 -0.0951
 1438SOL    HW115773   3.277   1.080  15.257  0.7571  0.2182 -2.2649
 1438SOL    HW215774   3.261   1.207  15.182  0.3974 -1.3918 -0.2332
 1439SOL     OW15775   4.122   2.619  14.533 -0.2958  0.1965  0.2605
 1439SOL    HW115776   4.151   2.527  14.534  0.0236  0.2794 -0.8966
 1439SOL    HW215777   4.042   2.618  14.480 -1.1287  1.2348  1.5085
 1440SOL     OW15778   1.785   3.338   0.554  0.2008 -0.7205 -0.1108
 1440SOL    HW115779   1.730   3.262   0.570  1.7293 -1.1045  3.2514
 1440SOL    HW215780   1.717   3.390   0.510  0.3888  0.2076  0.6930
 1441SOL     OW15781   4.658   3.476   0.333 -0.9305  0.2647  0.1268
 1441SOL    HW115782   4.717   3.434   0.271 -1.6382 -0.0822 -0.3104
 1441SOL    HW215783   4.687   3.428   0.410 -0.7393 -2.6809 -1.7859
 1442SOL     OW15784   2.603   1.595   7.212  0.6247  0.4331  0.2967
 1442SOL    HW115785   2.609   1.515   7.161 -3.1024 -0.3609  1.1238
 1442SOL    HW215786   2.682   1.644   7.188  0.5140  0.2695 -0.3750
 1443SOL     OW15787   3.978   1.419   0.368  0.1241  0.0514  0.0824
 1443SOL    HW115788   4.011   1.443   0.455  0.1265  2.4328 -0.5696
 1443SOL    HW215789   4.048   1.371   0.325  0.7761  0.5710  0.5576
 1444SOL     OW15790   2.344   3.947  15.294  0.1532  0.1324 -0.0661
 1444SOL    HW115791   2.335   3.865  15.343 -1.3967 -0.2029 -0.9357
 1444SOL    HW215792   2.432   3.976  15.318  0.1276 -1.2290  1.7283
 1445SOL     OW15793   4.260   3.880   5.927 -0.0702 -0.0268  0.0857
 1445SOL    HW115794   4.301   3.849   6.008  1.8757  0.7971 -0.6023
 1445SOL    HW215795   4.318   3.951   5.902  0.0055  0.0807  0.5555
 1446SOL     OW15796   4.094   0.186   6.222 -0.1374  0.2955  0.7863
 1446SOL    HW115797   4.151   0.250   6.180 -2.1923  0.1115 -2.2456
 1446SOL    HW215798   4.161   0.137   6.270 -0.3208 -0.1487  0.5860
 1447SOL     OW15799   1.756   2.541   8.961  0.0693 -0.1035  0.3844
 1447SOL    HW115800   1.718   2.603   8.899 -0.3667  0.6186  1.3710
 1447SOL    HW215801   1.682   2.494   9.000  1.0337 -2.1533 -0.2610
 1448SOL     OW15802   1.324   2.241   6.442 -0.5693  0.0520 -0.0200
 1448SOL    HW115803   1.248   2.191   6.411 -1.0966  1.3168 -0.7718
 1448SOL    HW215804   1.391   2.208   6.382 -1.2270 -1.1713 -0.0783
 1449SOL     OW15805   1.587   0.398  17.668  0.5964  0.4563 -0.2989
 1449SOL    HW115806   1.653   0.392   0.049 -1.9327  3.4063  2.3891
 1449SOL    HW215807   1.532   0.321  17.684 -0.1573  0.8490 -0.9895
 1450SOL     OW15808   2.632   2.410   4.314  0.1259  0.1606  0.2440
 1450SOL    HW115809   2.600   2.357   4.387 -0.0919 -0.1370 -0.0717
 1450SOL    HW215810   2.715   2.372   4.284 -0.4022 -1.5426  0.8950
 1451SOL     OW15811   0.719   1.067  11.227  0.2146 -0.5079  0.8585
 1451SOL    HW115812   0.761   1.153  11.240 -2.7417  0.5514  3.5284
 1451SOL    HW215813   0.701   1.066  11.134  0.2773 -0.7371  0.8490
 1452SOL     OW15814   2.988   0.806  11.189  0.0746  0.1175 -0.0920
 1452SOL    HW115815   3.037   0.773  11.265 -0.0807 -0.8915 -0.4256
 1452SOL    HW215816   3.013   0.897  11.175  1.0097  0.2437  2.3568
 1453SOL     OW15817   3.881   3.539  17.319  0.5189 -0.4364 -0.0631
 1453SOL    HW115818   3.919   3.452  17.305 -1.5791 -1.3145 -0.3125
 1453SOL    HW215819   3.965   3.569  17.352  0.7717 -1.4054  0.1832
 1454SOL     OW15820   4.163   3.553   3.167  0.3305  0.0963 -0.3155
 1454SOL    HW115821   4.160   3.568   3.262  1.9474 -0.3837 -0.1875
 1454SOL    HW215822   4.151   3.644   3.137 -0.0363  0.0307 -0.3702
 1455SOL     OW15823   3.198   4.314  11.005  0.4279 -0.4559  0.2416
 1455SOL    HW115824   3.133   4.349  10.944 -0.6459 -3.7549 -0.5246
 1455SOL    HW215825   3.260   4.386  11.012 -1.8977  1.9408 -3.4145
 1456SOL     OW15826   2.321   3.542   4.339  0.0730  0.4593 -0.0897
 1456SOL    HW115827   2.265   3.522   4.414  1.3682 -1.0093  0.5037
 1456SOL    HW215828   2.258   3.594   4.289 -0.1097  0.3511  0.0268
 1457SOL     OW15829   0.306   2.743   6.213  0.0805 -0.0501  0.0927
 1457SOL    HW115830   0.393   2.717   6.185  0.0582  1.0010 -0.9318
 1457SOL    HW215831   0.293   2.824   6.163  0.9360 -0.0186 -0.0665
 1458SOL     OW15832   4.198   1.323  15.084  0.2509  0.5114  0.5953
 1458SOL    HW115833   4.179   1.387  15.153 -0.8794 -1.6356  2.2472
 1458SOL    HW215834   4.182   1.249  15.142  0.0891  0.3635  0.3622
 1459SOL     OW15835   2.377   3.481  10.847 -0.4308 -0.6651  0.0951
 1459SOL    HW115836   2.292   3.495  10.805 -0.2953  1.5558  0.5427
 1459SOL    HW215837   2.404   3.573  10.838 -1.9683 -0.1904  0.2341
 1460SOL     OW15838   0.869   0.966   3.299 -0.7292  0.5301  0.3062
 1460SOL    HW115839   0.779   0.987   3.274 -0.3822 -1.1628 -2.4207
 1460SOL    HW215840   0.877   0.875   3.270 -0.8501  1.0679 -1.4303
 1461SOL     OW15841   4.204   0.084   5.072 -0.0420 -0.4493  0.5426
 1461SOL    HW115842   4.128   0.037   5.106 -1.7634  0.2080 -2.3922
 1461SOL    HW215843   4.266   0.031   5.121 -0.5346 -3.0632 -1.6829
 1462SOL     OW15844   1.811   0.020   4.644  0.0636 -0.0758  0.1067
 1462SOL    HW115845   1.718   4.720   4.657  0.2795 -0.9423  0.2122
 1462SOL    HW215846   1.824   0.098   4.697 -1.5849  0.7525 -0.6933
 1463SOL     OW15847   0.179   1.438   5.401 -0.2242  0.6008 -0.2118
 1463SOL    HW115848   0.102   1.448   5.458  0.6337 -2.2715  1.4916
 1463SOL    HW215849   0.142   1.460   5.316  0.5243  1.4350 -0.3152
 1464SOL     OW15850   4.173   0.756  17.210  0.6684 -0.0181 -0.0857
 1464SOL    HW115851   4.197   0.821  17.276  2.1851  0.5825 -1.2262
 1464SOL    HW215852   4.080   0.763  17.187 -0.2193  0.6363  3.8010
 1465SOL     OW15853   1.682   1.717   9.505 -0.1436  0.1246  0.1511
 1465SOL    HW115854   1.675   1.766   9.423  1.8213  0.1956  0.0162
 1465SOL    HW215855   1.636   1.640   9.471  2.1166 -1.4625  0.6890
 1466SOL     OW15856   4.257   3.124   5.531  0.1391  0.6388 -0.6120
 1466SOL    HW115857   4.232   3.197   5.589  1.3390  1.5698 -1.2532
 1466SOL    HW215858   4.178   3.134   5.478 -0.4503 -0.0782  0.1329
 1467SOL     OW15859   0.259   4.196   2.224  0.5142 -0.0255 -0.3862
 1467SOL    HW115860   0.188   4.208   2.161  1.0277 -1.0221 -1.1427
 1467SOL    HW215861   0.283   4.104   2.212 -1.0113 -0.5889  0.7516
 1468SOL     OW15862   2.147   0.758   4.818  0.0718 -0.6456  0.2520
 1468SOL    HW115863   2.166   0.737   4.727  2.0408 -1.8139  0.9482
 1468SOL    HW215864   2.227   0.802   4.845 -1.2134  0.4541  2.2834
 1469SOL     OW15865   0.698   1.683   5.962  0.1410 -0.0402  0.1347
 1469SOL    HW115866   0.604   1.699   5.975  0.2654  0.6028  0.2131
 1469SOL    HW215867   0.730   1.764   6.001 -0.8975 -0.2647  1.4738
 1470SOL     OW15868   3.331   3.857  17.000 -0.1982 -0.6825  0.8722
 1470SOL    HW115869   3.388   3.809  17.061  1.6788  0.9743  0.3878
 1470SOL    HW215870   3.249   3.814  17.025 -0.4325  0.4006  1.9486
 1471SOL     OW15871   3.177   4.619   6.055 -0.0581  0.0804  0.0705
 1471SOL    HW115872   3.125   4.564   6.114 -3.0921  3.3820  0.4948
 1471SOL    HW215873   3.220   4.555   5.998  0.5115 -2.0812  2.9142
 1472SOL     OW15874   2.821   4.656   3.801 -1.1231  0.3019  0.2655
 1472SOL    HW115875   2.729   4.681   3.810 -1.1249 -0.2177  1.6544
 1472SOL    HW215876   2.841   4.685   3.890 -0.5223 -1.3813  0.6751
 1473SOL     OW15877   2.612   3.010   4.578  0.1799  0.1248 -0.3823
 1473SOL    HW115878   2.677   2.996   4.647 -1.2772  1.2023  1.1943
 1473SOL    HW215879   2.555   2.937   4.603 -0.3042  0.4318 -0.5843
 1474SOL     OW15880   3.622   0.438   0.486 -0.5787 -0.2906  0.1148
 1474SOL    HW115881   3.640   0.355   0.531  0.8869  0.0901  0.2587
 1474SOL    HW215882   3.546   0.465   0.537 -0.4983  0.1841 -0.0192
 1475SOL     OW15883   1.597   4.701   5.201 -0.0495  0.4118 -0.3593
 1475SOL    HW115884   1.682   0.023   5.201 -0.7247  1.7044  0.9608
 1475SOL    HW215885   1.537   0.046   5.167 -1.3954 -0.0726  1.0547
 1476SOL     OW15886   2.627   1.872   8.514 -0.6449  0.6322  0.5446
 1476SOL    HW115887   2.578   1.807   8.565 -1.9821  0.5290 -0.8904
 1476SOL    HW215888   2.570   1.947   8.531  0.3745  1.9760 -1.9068
 1477SOL     OW15889   0.967   0.017   7.732  0.0573  0.2837  1.0607
 1477SOL    HW115890   1.006   0.092   7.776 -1.1146  1.1397  0.6455
 1477SOL    HW215891   0.893   0.001   7.791  0.2155  0.1790  1.2291
 1478SOL     OW15892   2.277   2.778   2.139  0.5204 -0.1442 -0.2682
 1478SOL    HW115893   2.367   2.808   2.122  0.2461  0.6080 -0.3769
 1478SOL    HW215894   2.235   2.790   2.054 -0.5575 -3.1069 -0.1476
 1479SOL     OW15895   3.951   4.186   7.298  0.2413  0.1457 -0.1644
 1479SOL    HW115896   3.869   4.233   7.307 -0.2434 -0.5022 -1.1625
 1479SOL    HW215897   4.001   4.211   7.376  1.0908 -0.5471 -0.4689
 1480SOL     OW15898   0.790   1.371   0.219  0.6700 -0.4309  0.2104
 1480SOL    HW115899   0.783   1.466   0.217  0.8584 -0.4019  0.9167
 1480SOL    HW215900   0.722   1.342   0.281  0.4792 -1.3196 -0.4078
 1481SOL     OW15901   0.309   0.066  13.708  0.5539 -0.0116  0.3846
 1481SOL    HW115902   0.223   0.084  13.669 -0.2720 -2.2382  1.2052
 1481SOL    HW215903   0.297   4.693  13.710  1.4731 -0.1348 -0.0190
 1482SOL     OW15904   1.645   1.179  11.024 -0.3678 -0.7416 -0.0801
 1482SOL    HW115905   1.653   1.110  11.090 -1.3523 -0.2480  0.5645
 1482SOL    HW215906   1.556   1.169  10.989 -0.5533  1.6083 -0.2837
 1483SOL     OW15907   0.706   2.024   8.964 -0.0675  0.5083 -0.8875
 1483SOL    HW115908   0.622   1.987   8.938 -0.1819 -0.5996  1.0404
 1483SOL    HW215909   0.695   2.117   8.980  0.1162  0.6071 -1.3519
 1484SOL     OW15910   1.107   2.992  13.787  0.2154  0.3288  0.5645
 1484SOL    HW115911   1.072   2.962  13.871  0.3485 -1.6840 -0.1149
 1484SOL    HW215912   1.037   3.010  13.725  0.8821 -1.6624 -0.7225
 1485SOL     OW15913   2.998   1.984   6.352  0.1935  0.5253 -0.5799
 1485SOL    HW115914   3.040   1.899   6.341 -0.9724 -0.0815 -0.3763
 1485SOL    HW215915   2.994   1.994   6.447  1.0307 -1.4373 -0.3501
 1486SOL     OW15916   0.936   3.944  16.813 -0.0246 -0.0501  0.0017
 1486SOL    HW115917   1.009   3.925  16.753  0.5549  0.6423  0.4758
 1486SOL    HW215918   0.962   3.919  16.901 -2.0806 -2.0219  0.0316
 1487SOL     OW15919   1.484   2.541   0.431  0.6057  0.4477 -0.3642
 1487SOL    HW115920   1.412   2.516   0.489  0.2397 -1.4598 -1.6254
 1487SOL    HW215921   1.516   2.451   0.423  1.8120  0.6673  1.9858
 1488SOL     OW15922   3.704   4.076  14.949 -0.4195 -0.2759 -0.3289
 1488SOL    HW115923   3.674   4.113  15.032 -0.7789  1.4174 -1.2118
 1488SOL    HW215924   3.751   4.153  14.916 -1.0835  0.3168  0.1145
 1489SOL     OW15925   3.069   1.257   5.890  0.6816 -0.0017  0.1202
 1489SOL    HW115926   3.025   1.205   5.823 -0.4370  1.4178 -0.2387
 1489SOL    HW215927   3.133   1.192   5.919  0.0666 -0.6051  0.1085
 1490SOL     OW15928   1.824   4.112   4.540  0.6706 -0.3398  0.1853
 1490SOL    HW115929   1.745   4.151   4.578  0.2129  1.0420 -2.2194
 1490SOL    HW215930   1.858   4.180   4.483  4.6605 -0.0309  2.9286
 1491SOL     OW15931   1.890   1.486   5.266 -0.1776 -0.1629  0.5688
 1491SOL    HW115932   1.850   1.571   5.248 -0.5522 -0.3732  0.3934
 1491SOL    HW215933   1.835   1.452   5.337 -0.3473  1.6202  1.2805
 1492SOL     OW15934   2.732   1.493   8.189 -0.0285  0.3262 -0.0628
 1492SOL    HW115935   2.718   1.410   8.144  3.1240 -1.1024  1.5973
 1492SOL    HW215936   2.681   1.547   8.129  0.5113 -0.4367 -1.1930
 1493SOL     OW15937   1.916   2.125   2.800  0.1102 -0.0406 -0.2375
 1493SOL    HW115938   1.832   2.098   2.836 -0.5242  0.1737 -1.6047
 1493SOL    HW215939   1.927   2.212   2.840  1.6192 -1.4640  2.4459
 1494SOL     OW15940   1.581   1.933   3.147  0.4765 -0.1130 -0.7181
 1494SOL    HW115941   1.635   1.976   3.214  0.7352  0.0810 -1.0484
 1494SOL    HW215942   1.644   1.894   3.086  1.6327  0.8049 -0.1244
 1495SOL     OW15943   2.130   2.505   5.755  0.3105 -0.1826 -0.3891
 1495SOL    HW115944   2.050   2.551   5.727 -0.0632 -1.3610 -1.2536
 1495SOL    HW215945   2.154   2.569   5.822 -0.3812  0.5580 -0.8470
 1496SOL     OW15946   0.085   2.267   0.947  0.3274  0.1119 -0.4027
 1496SOL    HW115947   0.043   2.220   0.875 -0.2242 -1.0663  0.6975
 1496SOL    HW215948   0.156   2.207   0.967  1.0448  0.1395 -2.7890
 1497SOL     OW15949   1.413   3.731   4.279 -0.8753 -0.2624 -0.6157
 1497SOL    HW115950   1.340   3.705   4.223 -0.1632  0.2448 -1.7706
 1497SOL    HW215951   1.414   3.820   4.245  1.0816 -0.0513 -0.0613
 1498SOL     OW15952   4.445   2.235   7.933 -0.3198  0.4608 -0.0303
 1498SOL    HW115953   4.466   2.278   8.016 -3.2802  1.1525  0.3724
 1498SOL    HW215954   4.350   2.237   7.928 -0.2012  1.2828 -1.6460
 1499SOL     OW15955   0.567   0.061   3.544  0.0150 -0.2302 -0.6261
 1499SOL    HW115956   0.586   0.138   3.491  1.2816 -0.3431 -0.3244
 1499SOL    HW215957   0.471   0.066   3.546 -0.0312 -0.7223 -1.4090
 1500SOL     OW15958   1.584   0.356   9.330 -0.3826  1.0517  0.0638
 1500SOL    HW115959   1.676   0.381   9.320 -0.0898 -0.5884 -1.5336
 1500SOL    HW215960   1.570   0.369   9.423  1.0480  3.0953 -0.0292
 1501SOL     OW15961   2.638   0.940  15.434  0.7918 -0.4149  0.7814
 1501SOL    HW115962   2.668   0.896  15.513  0.5580 -0.2168  0.9824
 1501SOL    HW215963   2.566   0.888  15.398  0.7341 -0.4623  0.9645
 1502SOL     OW15964   1.416   0.791   5.887 -0.1228 -0.3435 -0.2764
 1502SOL    HW115965   1.476   0.768   5.957 -0.6869  0.5435  0.4863
 1502SOL    HW215966   1.418   0.708   5.839  0.8475 -0.3811 -0.1771
 1503SOL     OW15967   0.428   0.660   3.096  0.6723 -0.0879  0.1253
 1503SOL    HW115968   0.345   0.660   3.050  0.8402  0.5109 -0.1805
 1503SOL    HW215969   0.486   0.638   3.023  1.6824  1.5968  0.4256
 1504SOL     OW15970   1.721   0.026   2.923  0.0599  0.1034 -0.5593
 1504SOL    HW115971   1.679   0.002   2.841 -2.2270  0.8444  0.3987
 1504SOL    HW215972   1.702   0.119   2.915  2.4599  0.5471 -1.0249
 1505SOL     OW15973   2.696   3.791   2.164 -0.1325 -0.0839 -0.2107
 1505SOL    HW115974   2.650   3.861   2.118 -1.5066  0.0516  1.3661
 1505SOL    HW215975   2.775   3.783   2.111  0.6643 -0.4861  1.0324
 1506SOL     OW15976   2.998   4.620   4.666  0.0708  0.4091 -0.2550
 1506SOL    HW115977   3.079   4.638   4.714 -0.8121  2.7388  0.4071
 1506SOL    HW215978   2.946   4.587   4.739 -0.6747 -2.1806 -1.9712
 1507SOL     OW15979   1.567   1.205   0.530 -0.1776  0.0729  0.1586
 1507SOL    HW115980   1.649   1.165   0.501  0.7498  2.2776 -0.2220
 1507SOL    HW215981   1.515   1.128   0.554 -3.9795  2.0516 -1.7435
 1508SOL     OW15982   4.102   1.140   7.493 -0.0451 -0.5529 -0.5327
 1508SOL    HW115983   4.067   1.182   7.415 -0.0826  2.0050  0.8539
 1508SOL    HW215984   4.166   1.205   7.522  1.1289 -2.3162  0.7729
 1509SOL     OW15985   2.805   0.041   9.077 -0.1459  0.5688  0.1136
 1509SOL    HW115986   2.755   4.687   9.107  0.9866 -1.6132 -3.4817
 1509SOL    HW215987   2.888   0.033   9.124  0.6388  0.8625 -1.2351
 1510SOL     OW15988   2.234   3.645   5.412  0.7030  0.2750 -0.6261
 1510SOL    HW115989   2.233   3.586   5.337 -1.6422 -0.4720  0.0123
 1510SOL    HW215990   2.216   3.578   5.477  1.8704 -0.6227 -1.2396
 1511SOL     OW15991   0.841   0.979   3.877  0.2658  0.2515  0.5191
 1511SOL    HW115992   0.756   0.950   3.909  0.3292 -2.9465 -2.1498
 1511SOL    HW215993   0.804   1.036   3.810  0.5568 -1.0748 -0.7789
 1512SOL     OW15994   4.664   3.692   9.052  0.6342  0.0457 -0.3021
 1512SOL    HW115995   0.016   3.654   9.005  0.0585  0.0552 -1.2115
 1512SOL    HW215996   4.654   3.626   9.121 -0.8397  0.9862  0.3809
 1513SOL     OW15997   3.985   2.469   3.089 -0.1737 -0.2143 -0.0355
 1513SOL    HW115998   4.015   2.554   3.056 -2.0687  0.4285 -0.1346
 1513SOL    HW215999   4.000   2.420   3.009 -0.5508  0.0040 -0.2406
 1514SOL     OW16000   0.052   2.012   5.042 -0.3919  0.1217  0.2073
 1514SOL    HW116001   4.681   1.988   5.034 -1.1220  2.9090  0.5100
 1514SOL    HW216002   0.094   1.936   5.001 -2.1186 -0.6247 -0.1832
 1515SOL     OW16003   0.792   2.530   3.464  0.2091 -0.0962 -0.3895
 1515SOL    HW116004   0.737   2.538   3.386 -0.2389  2.7784  0.2242
 1515SOL    HW216005   0.873   2.568   3.430  0.2035  0.1624 -0.1099
 1516SOL     OW16006   0.067   4.575   7.783 -0.2284 -0.4736  0.6290
 1516SOL    HW116007   0.152   4.604   7.751 -0.1357 -1.4605 -0.0336
 1516SOL    HW216008   0.013   4.653   7.797  0.1547  0.4239 -2.9282
 1517SOL     OW16009   1.292   3.426   7.285  0.5284 -0.5173  0.2171
 1517SOL    HW116010   1.218   3.408   7.343  0.8043 -0.6444  0.5361
 1517SOL    HW216011   1.330   3.338   7.295 -0.1769 -1.0184 -1.6275
 1518SOL     OW16012   3.975   3.202  13.784  0.3068 -0.6058 -0.1098
 1518SOL    HW116013   3.988   3.296  13.779 -1.2987 -0.2379  2.7145
 1518SOL    HW216014   4.062   3.184  13.820 -0.1989 -1.2359  0.7942
 1519SOL     OW16015   2.944   3.020   6.195 -0.1135  0.1495 -0.2145
 1519SOL    HW116016   2.878   2.971   6.146  1.9085 -2.0150 -0.7505
 1519SOL    HW216017   3.028   3.002   6.154 -0.6975 -0.3558 -1.2004
 1520SOL     OW16018   2.747   3.083   2.340 -0.3861  0.3001  0.1209
 1520SOL    HW116019   2.717   3.151   2.280 -0.0897 -1.1022 -1.6248
 1520SOL    HW216020   2.839   3.079   2.315  0.4160 -1.5217  3.3343
 1521SOL     OW16021   0.930   3.305  15.392 -0.5542 -0.2971 -0.1092
 1521SOL    HW116022   0.917   3.389  15.347  0.1284 -0.7990 -1.2322
 1521SOL    HW216023   0.931   3.244  15.318  0.3929  0.2803 -0.5731
 1522SOL     OW16024   1.219   3.694  16.914 -0.2413 -0.2088  0.3950
 1522SOL    HW116025   1.250   3.604  16.916  2.3887  0.6914 -0.8537
 1522SOL    HW216026   1.162   3.689  16.837  1.1786 -0.9726 -0.5929
 1523SOL     OW16027   1.397   0.864   0.530 -0.1490 -0.2644  0.9292
 1523SOL    HW116028   1.318   0.892   0.485 -0.7635 -2.2209  0.7747
 1523SOL    HW216029   1.456   0.836   0.460 -0.7500  1.3333 -0.1930
 1524SOL     OW16030   0.517   4.492  16.233  0.7781 -0.1650 -0.1730
 1524SOL    HW116031   0.490   4.412  16.189  0.7283 -0.5423  0.5582
 1524SOL    HW216032   0.479   4.487  16.320  1.3960  0.5007  0.1313
 1525SOL     OW16033   3.503   2.034   2.465  0.2264 -0.5163 -0.1497
 1525SOL    HW116034   3.561   2.025   2.389 -3.0560 -2.8534 -2.3980
 1525SOL    HW216035   3.418   2.041   2.420  1.5499 -0.4367 -2.6126
 1526SOL     OW16036   0.597   4.268   6.152 -0.2024 -0.0958 -0.0181
 1526SOL    HW116037   0.634   4.317   6.225 -1.0017  2.5777 -1.3761
 1526SOL    HW216038   0.506   4.264   6.183 -0.2260  0.0759 -0.0612
 1527SOL     OW16039   3.614   3.621  10.700  0.1190  0.4757 -0.4787
 1527SOL    HW116040   3.676   3.692  10.683  1.6012  0.2095  3.6898
 1527SOL    HW216041   3.589   3.614  10.608 -0.4631  0.7032 -0.3355
 1528SOL     OW16042   0.888   2.123   8.314  0.5816 -0.1318 -0.5805
 1528SOL    HW116043   0.816   2.182   8.338  1.5105  0.6858  0.1628
 1528SOL    HW216044   0.879   2.051   8.376 -0.4606 -0.1913 -0.8003
 1529SOL     OW16045   4.527   0.350   1.327  0.7609  0.4682  0.9760
 1529SOL    HW116046   4.471   0.425   1.305  0.0437 -0.4472 -0.2697
 1529SOL    HW216047   4.544   0.308   1.243 -0.5421  2.1140 -0.1135
 1530SOL     OW16048   2.241   1.058   2.089 -0.7100  0.1958  0.0055
 1530SOL    HW116049   2.308   1.119   2.119  0.2737 -0.6306 -0.4731
 1530SOL    HW216050   2.252   0.986   2.152 -0.5542  0.0052 -0.2380
 1531SOL     OW16051   2.916   2.801   5.821  0.3610  0.0663 -0.3530
 1531SOL    HW116052   2.982   2.773   5.757  1.7906  1.9675  0.2679
 1531SOL    HW216053   2.989   2.828   5.877 -0.1904  1.5496 -0.3475
 1532SOL     OW16054   3.670   0.945  16.439 -0.2709  0.3675  0.2865
 1532SOL    HW116055   3.729   0.960  16.513 -1.2045  2.3110  0.6474
 1532SOL    HW216056   3.682   1.024  16.388  1.9488  0.5824  1.1489
 1533SOL     OW16057   3.351   1.734   3.157 -0.3288 -0.0140  0.2146
 1533SOL    HW116058   3.361   1.639   3.157 -1.6359 -0.1545 -1.5471
 1533SOL    HW216059   3.364   1.747   3.063  0.9653 -0.3549  0.3466
 1534SOL     OW16060   0.588   1.004   2.837  0.5991 -0.2141  0.1436
 1534SOL    HW116061   0.610   1.077   2.778 -0.7480  0.1939  0.1358
 1534SOL    HW216062   0.672   0.988   2.880  1.0318 -0.6498 -0.8691
 1535SOL     OW16063   1.257   0.522   9.152 -0.3358 -0.4408  0.3249
 1535SOL    HW116064   1.182   0.518   9.092  2.2071 -2.4553 -2.6930
 1535SOL    HW216065   1.279   0.430   9.161  1.8610  0.1294  0.7579
 1536SOL     OW16066   2.635   1.997   5.083  0.4353 -0.1443  0.1677
 1536SOL    HW116067   2.717   1.983   5.035  1.0735  3.0307  0.2947
 1536SOL    HW216068   2.658   2.071   5.140 -2.4839  0.4911  0.5193
 1537SOL     OW16069   0.935   2.436  12.443  0.1887 -0.1311 -0.1999
 1537SOL    HW116070   0.942   2.448  12.348 -3.7100 -1.2159 -0.6298
 1537SOL    HW216071   0.849   2.394  12.450 -0.2694  1.2745  2.7340
 1538SOL     OW16072   2.556   0.210   8.628 -0.4113  0.2077  0.1925
 1538SOL    HW116073   2.645   0.174   8.622 -0.2232  0.7132 -0.0691
 1538SOL    HW216074   2.502   0.141   8.591 -0.1478 -1.1722  2.3823
 1539SOL     OW16075   2.928   0.524   6.076  0.5830 -0.4148  0.0791
 1539SOL    HW116076   2.944   0.448   6.133  0.0654 -0.6045 -0.0272
 1539SOL    HW216077   2.948   0.484   5.992 -1.5697 -0.2050 -0.5215
 1540SOL     OW16078   0.373   0.457  15.094 -0.5627 -0.2584  0.9579
 1540SOL    HW116079   0.419   0.441  15.012 -0.4327  0.9515  0.7923
 1540SOL    HW216080   0.330   0.539  15.070 -0.5805 -1.1354 -1.9226
 1541SOL     OW16081   2.134   2.273  11.563 -0.1117  0.2034 -0.0782
 1541SOL    HW116082   2.210   2.265  11.620 -0.9385 -1.3359  0.7861
 1541SOL    HW216083   2.117   2.181  11.544  0.0871  0.1519 -0.0035
 1542SOL     OW16084   1.671   3.948  16.246 -0.3010  0.3388 -0.0686
 1542SOL    HW116085   1.605   4.015  16.227 -0.5985  0.4900  1.5302
 1542SOL    HW216086   1.670   3.947  16.342  2.1272  0.9433 -0.0502
 1543SOL     OW16087   4.368   4.452   4.198  0.1905 -0.1528  0.2101
 1543SOL    HW116088   4.424   4.481   4.125 -1.7358  0.2082 -1.1331
 1543SOL    HW216089   4.434   4.456   4.267 -0.1148  0.2090  0.4827
 1544SOL     OW16090   2.036   4.279   6.767 -0.0746 -0.5647  0.9521
 1544SOL    HW116091   2.015   4.283   6.860  0.4805 -1.8971  1.1314
 1544SOL    HW216092   2.130   4.270   6.758 -0.0957  0.0188  0.0993
 1545SOL     OW16093   4.006   1.071   4.520  0.1352 -0.0821 -0.6517
 1545SOL    HW116094   3.987   1.153   4.475  2.2304  0.8259  0.1201
 1545SOL    HW216095   3.922   1.026   4.523  0.2175 -0.2516 -0.9332
 1546SOL     OW16096   3.156   3.959   2.410  0.4318  0.7044 -0.2064
 1546SOL    HW116097   3.149   3.933   2.502 -1.4593  2.1983  0.0896
 1546SOL    HW216098   3.161   3.881   2.355 -0.1862 -0.6257  1.6235
 1547SOL     OW16099   0.915   3.752   8.499  0.2027 -0.8111 -0.1463
 1547SOL    HW116100   1.007   3.732   8.479  0.0973 -0.1013 -1.3850
 1547SOL    HW216101   0.879   3.749   8.410  1.1897 -0.2395 -0.5798
 1548SOL     OW16102   2.562   2.561   2.221  0.2297 -0.1383  0.5911
 1548SOL    HW116103   2.565   2.475   2.180  2.9575  0.4068 -0.3634
 1548SOL    HW216104   2.531   2.542   2.310  0.3257  2.0991  1.1170
 1549SOL     OW16105   4.256   1.182   0.782 -0.8064  0.8764  0.0316
 1549SOL    HW116106   4.193   1.211   0.849 -2.8213 -0.4777 -1.2555
 1549SOL    HW216107   4.319   1.136   0.837 -0.2402  1.1212 -0.4145
 1550SOL     OW16108   4.054   2.546   5.813  0.3829  0.4048 -0.6064
 1550SOL    HW116109   4.028   2.455   5.823 -0.9277  0.7100 -1.1718
 1550SOL    HW216110   4.026   2.590   5.894  0.8578 -1.0182  0.3224
 1551SOL     OW16111   4.047   2.983   0.771  0.3751 -0.9511 -0.3213
 1551SOL    HW116112   4.119   3.045   0.758 -0.6814  0.5821  1.1431
 1551SOL    HW216113   4.062   2.922   0.699  1.3636 -0.1972 -0.7620
 1552SOL     OW16114   0.508   1.666   0.961  0.2421 -0.1021 -0.1312
 1552SOL    HW116115   0.471   1.578   0.958  1.8053 -0.7626  0.3779
 1552SOL    HW216116   0.449   1.710   0.899  1.3782  1.3011 -0.2255
 1553SOL     OW16117   2.041   4.092   9.681  0.1620  0.2388  0.3899
 1553SOL    HW116118   2.066   4.000   9.684  0.1422  0.2689  1.5586
 1553SOL    HW216119   2.021   4.120   9.771 -2.8399 -1.4882  0.2480
 1554SOL     OW16120   1.517   0.147   8.205  0.2035 -0.8506  0.1657
 1554SOL    HW116121   1.574   0.128   8.279  0.7072 -2.6352 -0.6778
 1554SOL    HW216122   1.556   0.227   8.171 -1.9042  0.2932  0.4778
 1555SOL     OW16123   3.319   1.252   6.586 -0.5294  0.4084 -0.9698
 1555SOL    HW116124   3.277   1.181   6.634  2.6335 -1.7813 -1.4197
 1555SOL    HW216125   3.372   1.195   6.530  0.7988 -0.3859  1.0983
 1556SOL     OW16126   4.582   2.664   4.641  0.1819  0.4724 -0.5788
 1556SOL    HW116127   4.503   2.658   4.695  0.2941 -1.4349 -0.6127
 1556SOL    HW216128   4.555   2.612   4.566  0.1592 -1.5604  0.8304
 1557SOL     OW16129   4.692   0.845   5.204  0.0920  0.4215  0.3457
 1557SOL    HW116130   0.050   0.793   5.222  1.1645  2.4575  1.4858
 1557SOL    HW216131   4.674   0.805   5.119 -2.5335 -0.8651  1.5115
 1558SOL     OW16132   3.974   1.764   3.825 -0.1753  0.2986 -0.2252
 1558SOL    HW116133   3.969   1.696   3.891 -1.0699  0.0695 -0.5364
 1558SOL    HW216134   4.068   1.784   3.824 -0.1930  0.3572 -0.7449
 1559SOL     OW16135   2.556   1.861   7.037 -0.7497  0.1275 -0.4899
 1559SOL    HW116136   2.602   1.780   7.061  0.5640  1.5917  2.0264
 1559SOL    HW216137   2.582   1.878   6.947 -0.7351  2.5717 -0.0317
 1560SOL     OW16138   1.664   2.898   8.132 -0.5545 -0.1007 -0.3792
 1560SOL    HW116139   1.672   2.970   8.069 -1.4244 -0.4914 -0.9462
 1560SOL    HW216140   1.731   2.932   8.191 -1.0758  0.9104 -0.3794
 1561SOL     OW16141   2.649   0.196  14.208  0.2592  0.2035 -0.2652
 1561SOL    HW116142   2.678   0.169  14.296  0.1026 -0.9749 -0.5695
 1561SOL    HW216143   2.602   0.119  14.176 -0.5984  0.8321 -0.4956
 1562SOL     OW16144   0.403   1.452   5.919  0.5795  0.0176  0.2963
 1562SOL    HW116145   0.432   1.532   5.963  0.6791 -1.1815  2.4020
 1562SOL    HW216146   0.437   1.389   5.982 -0.0431 -1.1820 -0.5634
 1563SOL     OW16147   0.556   4.636   4.380 -0.0161 -0.5503  0.5420
 1563SOL    HW116148   0.502   4.713   4.361  2.2235  1.3989  2.1218
 1563SOL    HW216149   0.643   4.657   4.347  0.2097 -1.5859  0.4763
 1564SOL     OW16150   2.406   2.647  17.568  0.2808 -0.1413  0.1410
 1564SOL    HW116151   2.449   2.568  17.536 -1.7817 -0.5938 -1.5559
 1564SOL    HW216152   2.462   2.686  17.636  1.7410 -2.0048 -0.0068
 1565SOL     OW16153   4.640   3.795   4.847  0.5272 -0.0927  0.0296
 1565SOL    HW116154   4.602   3.766   4.930 -0.1762 -1.7402 -0.8646
 1565SOL    HW216155   4.608   3.727   4.789  1.2300  0.2284 -0.7368
 1566SOL     OW16156   2.703   0.158   6.567  0.2399 -0.0227 -0.4474
 1566SOL    HW116157   2.654   0.105   6.630 -0.4266  1.5841  0.3986
 1566SOL    HW216158   2.710   0.107   6.486 -2.2853 -0.1876 -0.5823
 1567SOL     OW16159   3.350   0.639   5.848 -0.0965 -0.3695 -0.5996
 1567SOL    HW116160   3.419   0.607   5.790  0.9530 -0.9250  0.9664
 1567SOL    HW216161   3.401   0.639   5.928 -2.3321 -0.1813  0.8328
 1568SOL     OW16162   3.618   0.021   3.574 -1.0312 -0.7766 -0.0213
 1568SOL    HW116163   3.668   4.664   3.552 -1.6019 -1.0541 -0.3493
 1568SOL    HW216164   3.684   0.082   3.606 -0.6527 -1.4746  0.5309
 1569SOL     OW16165   2.163   0.749   1.333  0.0161  0.5911 -0.4195
 1569SOL    HW116166   2.150   0.807   1.408  0.4031 -1.6306  1.3721
 1569SOL    HW216167   2.116   0.801   1.268  1.1726  0.7990 -1.0861
 1570SOL     OW16168   3.225   4.028   5.919 -0.1426 -0.2769 -0.2531
 1570SOL    HW116169   3.169   4.021   5.996  0.8086 -2.4604  0.2556
 1570SOL    HW216170   3.282   3.963   5.961  1.5247  0.4166 -1.4442
 1571SOL     OW16171   1.982   2.667  16.494 -0.2943 -0.1766 -0.0294
 1571SOL    HW116172   2.067   2.703  16.520 -0.0733 -1.0478  0.4358
 1571SOL    HW216173   1.949   2.716  16.418  1.9180 -1.3880 -1.7689
 1572SOL     OW16174   1.569   1.130   0.881  0.1245  0.4886  0.1616
 1572SOL    HW116175   1.617   1.052   0.854 -0.0950  0.4256 -0.0419
 1572SOL    HW216176   1.642   1.177   0.922  0.2823 -1.6346  2.3177
 1573SOL     OW16177   0.271   0.438  16.109 -0.4885 -0.6375  0.7768
 1573SOL    HW116178   0.218   0.464  16.184 -3.2651 -0.0873 -1.3542
 1573SOL    HW216179   0.294   0.348  16.130  0.6204 -0.1343  1.7176
 1574SOL     OW16180   3.954   2.217   4.201  0.4252  0.1003  0.1412
 1574SOL    HW116181   4.002   2.287   4.157 -0.9020 -0.6016 -2.4362
 1574SOL    HW216182   3.940   2.152   4.132  0.1750  0.5833 -0.2649
 1575SOL     OW16183   2.551   4.323   4.041 -0.1102  0.4169  0.0503
 1575SOL    HW116184   2.554   4.416   4.016 -0.2011  0.2538 -0.5687
 1575SOL    HW216185   2.503   4.290   3.965 -1.7184  1.8868  0.4404
 1576SOL     OW16186   1.396   3.169   7.304  0.5279 -0.6173 -0.2773
 1576SOL    HW116187   1.466   3.130   7.357  1.0186 -0.2356 -0.6433
 1576SOL    HW216188   1.442   3.148   7.222  2.6262  1.3210  0.4131
 1577SOL     OW16189   0.239   4.250   2.519  0.2644 -0.1563  0.5555
 1577SOL    HW116190   0.151   4.279   2.497  0.4548 -0.3489 -0.4715
 1577SOL    HW216191   0.262   4.218   2.431 -0.7588  1.3762 -0.2589
 1578SOL     OW16192   4.493   4.672   4.075  0.5679 -0.2318  0.3266
 1578SOL    HW116193   4.552   4.599   4.054 -0.7097 -1.0368 -0.4972
 1578SOL    HW216194   4.442   4.673   3.994  1.7512 -0.6621 -0.4252
 1579SOL     OW16195   4.313   2.221  15.860  0.0769  0.0171 -0.2349
 1579SOL    HW116196   4.397   2.237  15.817  1.1379 -1.6539  1.2368
 1579SOL    HW216197   4.263   2.176  15.792 -0.3675 -0.3286  0.3204
 1580SOL     OW16198   4.161   2.132   2.750 -0.1682  0.8726 -0.2379
 1580SOL    HW116199   4.186   2.068   2.684  0.1025  0.2453  0.4699
 1580SOL    HW216200   4.246   2.174   2.759 -0.0945  0.4948  0.7806
 1581SOL     OW16201   4.349   1.386   8.145 -0.0718  0.5348 -0.0067
 1581SOL    HW116202   4.363   1.301   8.186 -0.7208  1.1696  1.5396
 1581SOL    HW216203   4.265   1.379   8.100  0.5046  0.6685 -1.0895
 1582SOL     OW16204   0.475   3.481   1.302 -0.7854 -0.0152 -0.7660
 1582SOL    HW116205   0.495   3.428   1.226  3.5716 -0.1877  0.5328
 1582SOL    HW216206   0.419   3.545   1.259  1.7634  1.4267 -1.9015
 1583SOL     OW16207   2.091   0.326  13.309 -0.0615 -0.0780 -0.4252
 1583SOL    HW116208   2.131   0.285  13.233 -1.3407 -1.1781 -0.4988
 1583SOL    HW216209   2.126   0.415  13.309 -0.3215  0.0261  0.0491
 1584SOL     OW16210   2.935   3.620   3.571  0.3315 -0.1834 -0.4102
 1584SOL    HW116211   2.997   3.560   3.528  2.2733  2.3034 -1.0854
 1584SOL    HW216212   2.850   3.582   3.547  1.1010 -1.2050 -1.5222
 1585SOL     OW16213   0.170   3.280  16.324 -0.1109 -0.3300  0.5438
 1585SOL    HW116214   0.165   3.216  16.253  0.4681 -0.4189  0.5859
 1585SOL    HW216215   0.256   3.318  16.305 -0.8044 -0.2057 -2.4251
 1586SOL     OW16216   4.561   2.935   3.825 -0.4512  0.4031  0.2220
 1586SOL    HW116217   4.484   2.886   3.798  3.1133 -4.9810 -0.2763
 1586SOL    HW216218   4.622   2.911   3.754 -0.8345 -1.0210  0.3795
 1587SOL     OW16219   1.584   3.443   0.421 -0.0531 -0.1428  0.1947
 1587SOL    HW116220   1.523   3.452   0.494  0.8761 -0.3235  0.9845
 1587SOL    HW216221   1.590   3.529   0.379 -1.6160  0.9545  2.2338
 1588SOL     OW16222   0.699   1.098   5.055  0.1523  0.2956  0.0993
 1588SOL    HW116223   0.757   1.161   5.097 -0.2808  1.3384 -0.8959
 1588SOL    HW216224   0.744   1.017   5.078  1.2278  0.3179 -1.8914
 1589SOL     OW16225   1.206   3.812   4.874 -0.1229  0.0329  0.5821
 1589SOL    HW116226   1.165   3.761   4.944 -0.7768  0.3213  0.4150
 1589SOL    HW216227   1.182   3.902   4.897  1.0595  1.0076 -2.0205
 1590SOL     OW16228   0.614   4.189   5.565 -0.4931  0.0293 -0.1327
 1590SOL    HW116229   0.647   4.142   5.642  0.4448  0.1775 -0.4436
 1590SOL    HW216230   0.545   4.232   5.615  0.5926  0.8883  0.6180
 1591SOL     OW16231   2.845   1.630  10.837 -0.2288 -0.1708 -0.1584
 1591SOL    HW116232   2.900   1.628  10.916  0.3503 -0.5713 -0.5724
 1591SOL    HW216233   2.903   1.673  10.773  0.0214 -0.2737 -0.0011
 1592SOL     OW16234   0.185   2.076   3.962  0.5478  0.2371 -0.2465
 1592SOL    HW116235   0.150   1.987   3.955 -2.6056  1.4502  0.2522
 1592SOL    HW216236   0.132   2.103   4.037  0.6777  0.9831 -0.4266
 1593SOL     OW16237   2.884   2.263   0.642 -0.1135 -0.4371 -0.1592
 1593SOL    HW116238   2.855   2.317   0.569  0.0205  0.9140  0.7897
 1593SOL    HW216239   2.955   2.212   0.603  1.3004  1.4503 -0.0683
 1594SOL     OW16240   3.064   2.592  17.486  0.2702  0.0594  0.3603
 1594SOL    HW116241   3.086   2.509  17.527  2.9513 -0.2230 -1.6334
 1594SOL    HW216242   3.120   2.651  17.535  0.1125 -0.4576  1.1697
 1595SOL     OW16243   4.632   1.633   7.404 -0.2261 -0.0126 -0.2910
 1595SOL    HW116244   4.665   1.678   7.326  0.7983  0.0978  0.1990
 1595SOL    HW216245   4.556   1.688   7.421  0.7994  1.4787 -0.4831
 1596SOL     OW16246   1.701   0.961   8.571  0.4374  0.8412  0.0441
 1596SOL    HW116247   1.791   0.946   8.542  0.3095  0.4503 -0.1568
 1596SOL    HW216248   1.715   1.044   8.616 -1.9548  1.3362 -0.1124
 1597SOL     OW16249   0.985   0.772   6.993 -0.1417  0.4509 -0.1581
 1597SOL    HW116250   0.975   0.781   7.088 -1.4393  1.8554 -0.4247
 1597SOL    HW216251   1.073   0.733   6.995 -1.1672 -1.6673  3.0318
 1598SOL     OW16252   1.626   4.227   4.172  0.0341  0.1473  0.0660
 1598SOL    HW116253   1.666   4.303   4.131  0.3733 -0.3784 -0.5655
 1598SOL    HW216254   1.563   4.268   4.232 -2.3816 -0.9876 -1.6901
 1599SOL     OW16255   0.315   4.049   5.714 -0.4886  0.1099  0.5168
 1599SOL    HW116256   0.230   4.031   5.754  0.6775 -1.4289  2.3323
 1599SOL    HW216257   0.348   3.959   5.707  0.1891  0.2467  1.9068
 1600SOL     OW16258   1.856   1.327   9.086 -0.2517 -0.2973 -0.3064
 1600SOL    HW116259   1.827   1.310   9.175 -2.6700  0.1051 -1.0199
 1600SOL    HW216260   1.931   1.382   9.109 -1.3370  0.5178  1.2822
 1601SOL     OW16261   3.323   3.480  16.495 -0.3455 -0.0494 -0.2165
 1601SOL    HW116262   3.330   3.390  16.466  1.3958  0.2012 -0.5211
 1601SOL    HW216263   3.338   3.465  16.589 -0.5309  0.4611 -0.1012
 1602SOL     OW16264   0.210   3.733  13.616 -0.5781  0.0994  0.3368
 1602SOL    HW116265   0.278   3.737  13.683 -0.9804 -1.4575  0.8227
 1602SOL    HW216266   0.135   3.766  13.664 -0.2569  1.4823 -0.1048
 1603SOL     OW16267   0.802   2.428   1.393 -0.2825  0.4800  0.0507
 1603SOL    HW116268   0.829   2.381   1.314 -1.6932 -1.2281  0.5936
 1603SOL    HW216269   0.889   2.450   1.427  0.5029 -0.5862 -1.2554
 1604SOL     OW16270   3.971   4.272   5.078  0.3957 -0.4845  0.5496
 1604SOL    HW116271   3.924   4.294   5.159 -0.6728  0.8102 -0.4212
 1604SOL    HW216272   3.910   4.210   5.039 -1.7744  1.8641  0.1741
 1605SOL     OW16273   0.531   4.270   8.017 -0.2419 -0.5910  0.3461
 1605SOL    HW116274   0.548   4.323   8.095 -1.3376 -0.7569  0.6939
 1605SOL    HW216275   0.452   4.311   7.983  0.2884 -0.1008 -0.2721
 1606SOL     OW16276   1.620   2.521   6.353 -0.0013 -0.2578 -0.4539
 1606SOL    HW116277   1.548   2.492   6.297 -1.9829  1.6357  1.1045
 1606SOL    HW216278   1.661   2.596   6.309  0.4967 -0.9046 -1.0817
 1607SOL     OW16279   1.544   2.281   4.275  0.5283 -0.0994  0.5747
 1607SOL    HW116280   1.548   2.186   4.279  1.9862 -0.0820 -0.9372
 1607SOL    HW216281   1.466   2.293   4.330 -0.5726 -0.9987 -0.7885
 1608SOL     OW16282   2.544   1.624   4.469 -0.2799 -0.3325  0.4147
 1608SOL    HW116283   2.572   1.712   4.445  1.0698 -0.4300  1.6984
 1608SOL    HW216284   2.466   1.604   4.417  0.8269  0.0835 -1.3844
 1609SOL     OW16285   4.205   1.256  14.470  0.2912 -0.2704  0.1906
 1609SOL    HW116286   4.262   1.198  14.520  0.3158 -1.1519 -0.8580
 1609SOL    HW216287   4.118   1.240  14.507  0.3267  0.8144  0.7573
 1610SOL     OW16288   1.514   0.777  14.409  0.8382 -0.2891 -0.0294
 1610SOL    HW116289   1.468   0.736  14.336  0.3779 -1.3163  0.8198
 1610SOL    HW216290   1.601   0.738  14.397  0.5630 -1.4449  1.6253
 1611SOL     OW16291   0.123   1.085   7.915  0.1562 -0.3549 -0.5707
 1611SOL    HW116292   0.215   1.063   7.930  0.7100  3.0726  1.0784
 1611SOL    HW216293   0.102   1.075   8.007  1.9102  0.1609 -0.1141
 1612SOL     OW16294   2.899   4.304   2.080  0.2422 -0.1962 -0.0944
 1612SOL    HW116295   2.829   4.251   2.117  0.1862 -0.0057  0.0707
 1612SOL    HW216296   2.972   4.266   2.129  1.9458  0.5367 -2.0141
 1613SOL     OW16297   3.964   2.442  12.472 -0.4869  0.1279 -0.3715
 1613SOL    HW116298   3.975   2.414  12.381 -3.4202 -1.6052 -0.2141
 1613SOL    HW216299   3.891   2.387  12.501  0.3426  0.1690  1.8259
 1614SOL     OW16300   0.941   4.024   8.201  0.5889 -0.9637 -0.0511
 1614SOL    HW116301   0.907   4.104   8.160 -1.9099 -0.9807  1.9430
 1614SOL    HW216302   1.012   4.064   8.251 -0.3126  0.3019  0.2394
 1615SOL     OW16303   2.327   3.502   5.861  0.3618  0.3808 -0.4815
 1615SOL    HW116304   2.252   3.448   5.838  0.1950 -0.2821  1.6351
 1615SOL    HW216305   2.280   3.586   5.861 -0.6326 -0.1842 -0.6804
 1616SOL     OW16306   2.965   1.999   7.413  0.0331  0.4603 -0.1032
 1616SOL    HW116307   2.926   2.073   7.460  0.5352  0.4879  0.2630
 1616SOL    HW216308   2.892   1.937   7.416  1.3707 -1.1219 -0.3643
 1617SOL     OW16309   4.298   2.432   5.742  0.1108 -0.2043 -0.0549
 1617SOL    HW116310   4.284   2.347   5.699  0.2302 -0.1790 -0.1425
 1617SOL    HW216311   4.209   2.464   5.756 -0.7085 -2.4713 -0.0918
 1618SOL     OW16312   0.607   4.495  13.252  0.5390  0.4303  0.0740
 1618SOL    HW116313   0.530   4.500  13.310  1.1155 -0.1597  0.8909
 1618SOL    HW216314   0.673   4.493  13.321  0.3152  1.9565  0.3378
 1619SOL     OW16315   0.434   3.052   9.714  0.0506 -0.3273  0.0818
 1619SOL    HW116316   0.500   3.080   9.650 -2.3299  1.0194 -1.7679
 1619SOL    HW216317   0.474   3.075   9.798 -1.0344 -0.7303  0.7118
 1620SOL     OW16318   1.013   1.988   8.104  0.5808 -0.1213 -0.2140
 1620SOL    HW116319   0.985   2.037   8.181  1.6138  0.0528  0.0590
 1620SOL    HW216320   1.062   2.052   8.053 -0.2300  1.8723  1.5318
 1621SOL     OW16321   3.604   0.870   7.518 -1.0157  0.0686 -0.3826
 1621SOL    HW116322   3.602   0.774   7.525 -0.5904  0.1596  0.8809
 1621SOL    HW216323   3.684   0.878   7.570 -1.2037  1.2658 -0.2833
 1622SOL     OW16324   3.108   0.105   5.845 -0.0007 -0.1941 -0.2120
 1622SOL    HW116325   3.167   0.166   5.890 -0.4244  0.4275 -0.4962
 1622SOL    HW216326   3.114   0.028   5.901  0.6984  0.0765  0.0821
 1623SOL     OW16327   4.141   3.139   2.837  0.4203 -0.2755 -0.2496
 1623SOL    HW116328   4.160   3.217   2.889  1.8256  0.8884 -2.5312
 1623SOL    HW216329   4.219   3.134   2.782  0.8360  0.0742  0.3101
 1624SOL     OW16330   3.209   2.543   5.423  0.3438  0.2180  0.2581
 1624SOL    HW116331   3.198   2.579   5.335 -0.1386  0.1072  0.2740
 1624SOL    HW216332   3.296   2.579   5.443  0.3790  1.2362 -1.6772
 1625SOL     OW16333   0.705   1.047  17.552 -0.0338 -0.0812 -0.0184
 1625SOL    HW116334   0.797   1.034  17.575 -0.0649  1.7126  1.1400
 1625SOL    HW216335   0.680   1.131  17.591 -1.7439 -0.7730  0.4036
 1626SOL     OW16336   3.368   2.131  10.560  0.4164  0.6837 -0.5550
 1626SOL    HW116337   3.408   2.045  10.546 -1.3452 -0.1989 -0.2398
 1626SOL    HW216338   3.322   2.136  10.476  2.2797  0.6017 -1.5734
 1627SOL     OW16339   4.720   3.835  16.553 -0.9332 -0.1451 -0.4982
 1627SOL    HW116340   0.036   3.879  16.629 -0.4868 -0.1068 -0.7414
 1627SOL    HW216341   0.013   3.742  16.571 -0.8703 -0.1554 -0.6080
 1628SOL     OW16342   0.600   3.989   3.111  0.5306  0.0872  0.0661
 1628SOL    HW116343   0.694   3.975   3.124  0.4218 -1.1805 -0.5514
 1628SOL    HW216344   0.598   3.998   3.016 -0.3184 -1.0296 -0.0159
 1629SOL     OW16345   1.746   2.246   3.134  0.2052  0.9264 -0.1915
 1629SOL    HW116346   1.702   2.200   3.063 -2.2672  0.2882  1.7552
 1629SOL    HW216347   1.774   2.183   3.201  0.6385  0.7216 -0.5660
 1630SOL     OW16348   3.701   3.685  10.012  0.0119 -0.1182  0.1723
 1630SOL    HW116349   3.719   3.774  10.044  1.4381 -0.6510  0.8666
 1630SOL    HW216350   3.614   3.707   9.979  0.1645 -0.5294 -0.5092
 1631SOL     OW16351   2.738   3.245   6.481  0.2215  0.2082 -0.1803
 1631SOL    HW116352   2.642   3.237   6.484  0.2731 -0.1279  0.4876
 1631SOL    HW216353   2.748   3.332   6.521  1.2345  0.6103 -1.2987
 1632SOL     OW16354   3.700   1.053  12.633 -0.0283  0.3775 -0.2901
 1632SOL    HW116355   3.745   1.074  12.715  0.3964 -1.8720  0.0383
 1632SOL    HW216356   3.672   1.140  12.603 -0.7946 -0.2630 -1.4240
 1633SOL     OW16357   3.903   1.548   3.671 -0.1267 -0.1820  0.0090
 1633SOL    HW116358   3.944   1.634   3.679 -1.1526  0.2837  0.2347
 1633SOL    HW216359   3.898   1.546   3.576 -1.9086  0.5898  0.0963
 1634SOL     OW16360   2.522   3.354   9.103 -0.0308  0.1490 -0.7721
 1634SOL    HW116361   2.525   3.276   9.048 -2.1220  0.6794 -1.6373
 1634SOL    HW216362   2.504   3.430   9.048  1.0205  1.3039  0.4771
 1635SOL     OW16363   2.836   1.938   8.664 -0.4735  0.0744 -0.2342
 1635SOL    HW116364   2.764   1.923   8.603 -0.4815  1.4638 -0.5620
 1635SOL    HW216365   2.828   2.032   8.680 -2.0237 -0.1228  0.1198
 1636SOL     OW16366   1.038   3.164   4.458  0.2448  0.3416 -0.3874
 1636SOL    HW116367   1.054   3.252   4.425  0.7319  1.4095  2.6343
 1636SOL    HW216368   0.952   3.162   4.417  0.0683 -0.4012  0.0142
 1637SOL     OW16369   1.230   3.763   4.598  0.1038  0.1810 -0.2344
 1637SOL    HW116370   1.277   3.841   4.567  4.5641 -1.6655  1.8997
 1637SOL    HW216371   1.213   3.781   4.690  2.6408 -1.3770  0.5415
 1638SOL     OW16372   2.104   4.211   4.732  0.3367 -0.4674 -0.1217
 1638SOL    HW116373   2.193   4.177   4.735  0.0028 -1.2618  1.0066
 1638SOL    HW216374   2.127   4.303   4.726 -0.8263 -0.1583  0.0486
 1639SOL     OW16375   2.069   1.142   2.489 -0.1102 -0.1777 -0.2327
 1639SOL    HW116376   2.163   1.125   2.489  0.2304  1.8093  0.2834
 1639SOL    HW216377   2.064   1.202   2.415  1.4446 -1.6603 -1.5564
 1640SOL     OW16378   1.222   0.415  15.996  1.0229 -0.0870 -0.6167
 1640SOL    HW116379   1.249   0.395  15.906  1.0211 -1.8175 -0.2278
 1640SOL    HW216380   1.209   0.327  16.030  0.3466  1.2995  2.6629
 1641SOL     OW16381   1.750   3.012   9.413  0.4286 -0.0240  1.0039
 1641SOL    HW116382   1.803   3.018   9.333  0.2059  0.4535  0.8924
 1641SOL    HW216383   1.659   3.010   9.383  1.4185 -1.0047 -1.9183
 1642SOL     OW16384   4.524   0.598   8.889  0.5523 -0.2897 -0.0966
 1642SOL    HW116385   4.565   0.681   8.915 -1.5582  0.9871 -0.8088
 1642SOL    HW216386   4.455   0.594   8.955  0.5273 -0.1812 -0.1154
 1643SOL     OW16387   3.052   2.400  11.047  0.0891 -0.6768 -0.0328
 1643SOL    HW116388   3.088   2.363  10.966  0.0891  0.5470 -0.5965
 1643SOL    HW216389   2.968   2.437  11.021  1.0001  1.1662 -0.3096
 1644SOL     OW16390   4.384   4.367   7.502 -0.1730 -0.2844 -0.1047
 1644SOL    HW116391   4.478   4.351   7.509 -0.3342 -1.6810 -1.0547
 1644SOL    HW216392   4.352   4.337   7.587 -1.6361  0.4108 -0.4072
 1645SOL     OW16393   2.677   2.138   1.880 -0.1470 -0.2711  0.7087
 1645SOL    HW116394   2.721   2.187   1.811 -3.1010  0.4707 -0.6691
 1645SOL    HW216395   2.607   2.098   1.829  0.1886  0.2188 -0.1319
 1646SOL     OW16396   1.097   4.044  15.847 -0.5644 -1.4331  0.1095
 1646SOL    HW116397   1.095   4.060  15.753 -1.9169  0.4478  0.4741
 1646SOL    HW216398   1.175   3.988  15.851 -2.0565 -3.6351 -1.3034
 1647SOL     OW16399   0.959   0.898  14.028  0.3739 -0.0592  0.0729
 1647SOL    HW116400   0.988   0.983  13.994 -0.0272  1.7351  4.1928
 1647SOL    HW216401   1.048   0.865  14.038 -0.2241 -1.3424  1.0836
 1648SOL     OW16402   2.171   3.509   7.546 -0.1364  0.4872 -0.5835
 1648SOL    HW116403   2.078   3.502   7.567 -0.6379 -1.4186 -3.4800
 1648SOL    HW216404   2.184   3.435   7.486  0.6994 -0.5506  0.8890
 1649SOL     OW16405   2.653   3.158   8.672  0.0119 -0.0166 -0.3085
 1649SOL    HW116406   2.642   3.105   8.593  0.2944 -2.1357  1.0561
 1649SOL    HW216407   2.562   3.171   8.701  0.1581 -1.1265  0.6620
 1650SOL     OW16408   1.338   4.495   2.814 -0.3827  0.3694  0.0149
 1650SOL    HW116409   1.320   4.414   2.862 -1.2439  0.2257 -0.5542
 1650SOL    HW216410   1.304   4.558   2.878  0.3325  0.5308  0.2372
 1651SOL     OW16411   2.355   0.630   9.221 -0.0812  0.2196  0.0574
 1651SOL    HW116412   2.354   0.625   9.126  0.5591  2.4283 -0.0541
 1651SOL    HW216413   2.412   0.557   9.245 -1.9252 -1.3014 -0.1913
 1652SOL     OW16414   3.147   4.457  12.136  0.0676  0.1233  0.0875
 1652SOL    HW116415   3.165   4.486  12.226 -2.0709  0.6291  0.3427
 1652SOL    HW216416   3.232   4.427  12.105  0.7794  0.4192  1.7154
 1653SOL     OW16417   2.648   1.477   3.200 -0.7447  0.1133 -0.0367
 1653SOL    HW116418   2.574   1.513   3.249 -1.1118  1.0071 -1.2263
 1653SOL    HW216419   2.605   1.397   3.169 -0.3942  0.0764 -0.4334
 1654SOL     OW16420   1.761   2.570   5.809 -0.3701  0.4131 -0.3981
 1654SOL    HW116421   1.675   2.604   5.836  1.2386  1.3840  3.4349
 1654SOL    HW216422   1.767   2.491   5.863 -2.2543  0.3730 -0.2551
 1655SOL     OW16423   4.535   3.906   3.622  0.1416 -0.5106 -0.6614
 1655SOL    HW116424   4.535   3.981   3.562  0.6696 -0.1102 -0.1635
 1655SOL    HW216425   4.613   3.917   3.675 -0.6806  2.7939 -0.1211
 1656SOL     OW16426   0.968   3.262   6.480 -0.0868 -0.4001  0.3681
 1656SOL    HW116427   1.007   3.264   6.568  1.8299  0.3171 -0.4875
 1656SOL    HW216428   0.979   3.351   6.445 -2.5543  1.1562  3.5879
 1657SOL     OW16429   0.829   1.216  13.077  0.0450  0.4889 -0.6413
 1657SOL    HW116430   0.803   1.255  13.161 -1.1885 -0.5903 -0.5287
 1657SOL    HW216431   0.883   1.290  13.050 -0.6369  0.3146 -2.4948
 1658SOL     OW16432   0.421   3.343   2.742 -0.8284 -0.4389  0.5053
 1658SOL    HW116433   0.376   3.280   2.686 -0.2144 -1.7251  1.4477
 1658SOL    HW216434   0.453   3.281   2.807  2.2509  0.2248 -0.3733
 1659SOL     OW16435   4.371   4.511   5.121  0.1130  0.5605  0.0251
 1659SOL    HW116436   4.345   4.508   5.029 -1.6177  0.5001  0.5141
 1659SOL    HW216437   4.322   4.439   5.161  0.9358  0.3496  0.6599
 1660SOL     OW16438   0.806   3.538   2.445 -0.5224 -0.1110 -0.2341
 1660SOL    HW116439   0.830   3.596   2.518  3.4711 -1.9477 -0.0722
 1660SOL    HW216440   0.714   3.561   2.440 -0.9324 -1.5203  0.7795
 1661SOL     OW16441   3.622   3.894   4.499  0.2429 -0.4913  0.3241
 1661SOL    HW116442   3.567   3.819   4.523 -0.2777 -0.8017 -1.8018
 1661SOL    HW216443   3.678   3.856   4.431  0.5713 -1.9915  1.4327
 1662SOL     OW16444   4.015   0.344   8.458  0.0156  0.1729  0.4725
 1662SOL    HW116445   4.008   0.249   8.460  0.0752  0.1604  0.0417
 1662SOL    HW216446   4.045   0.357   8.548 -0.0682 -1.8671  0.7967
 1663SOL     OW16447   2.133   0.714   6.388 -0.2525 -0.1256 -0.2712
 1663SOL    HW116448   2.197   0.686   6.453 -1.4413 -2.1549  0.0142
 1663SOL    HW216449   2.181   0.792   6.358 -0.9625  0.8847  1.2295
 1664SOL     OW16450   3.039   3.328   6.307 -0.0357 -0.1456 -0.4370
 1664SOL    HW116451   2.968   3.272   6.276  0.0826 -1.5376  1.8102
 1664SOL    HW216452   3.043   3.394   6.238  1.2391 -0.6276 -0.8273
 1665SOL     OW16453   0.771   2.419   6.019  0.6176  0.3967 -0.5274
 1665SOL    HW116454   0.748   2.489   6.080  0.9400  2.5593 -2.8701
 1665SOL    HW216455   0.747   2.446   5.930 -0.8572  0.2928 -0.1625
 1666SOL     OW16456   1.397   3.180   2.585  0.5979  0.3708 -0.1498
 1666SOL    HW116457   1.490   3.161   2.577  0.4489 -0.4078 -0.0293
 1666SOL    HW216458   1.377   3.186   2.492 -0.4592  0.1778  0.0704
 1667SOL     OW16459   3.296   3.824   8.182 -0.0985  0.2989  0.4011
 1667SOL    HW116460   3.389   3.818   8.201 -0.2873 -0.9027  0.9580
 1667SOL    HW216461   3.275   3.913   8.152 -2.5203 -1.4958 -3.1288
 1668SOL     OW16462   3.999   2.631   7.095 -0.1065  0.7274 -0.1354
 1668SOL    HW116463   3.962   2.701   7.149 -0.9746 -0.2493  0.5558
 1668SOL    HW216464   4.027   2.567   7.161 -3.2732  1.7574  2.2433
 1669SOL     OW16465   0.439   2.655   2.089 -0.3504 -0.0179  0.2889
 1669SOL    HW116466   0.392   2.608   2.021  2.0839 -0.2449 -1.2664
 1669SOL    HW216467   0.526   2.625   2.063 -0.6184  0.1640 -0.8197
 1670SOL     OW16468   0.394   2.573   3.427 -0.3331  0.2813  0.4343
 1670SOL    HW116469   0.314   2.624   3.434  0.0759  0.9241  0.4083
 1670SOL    HW216470   0.418   2.606   3.340 -1.3063  1.6420  0.6879
 1671SOL     OW16471   3.107   2.310   9.614 -0.3045  0.3637  0.5877
 1671SOL    HW116472   3.111   2.263   9.697 -0.0761 -1.5781 -0.5276
 1671SOL    HW216473   3.161   2.254   9.558 -0.9496 -1.5781  1.9268
 1672SOL     OW16474   2.383   1.798   5.628  0.0645  0.4401 -0.2630
 1672SOL    HW116475   2.413   1.862   5.564  0.8298  0.8005  0.4425
 1672SOL    HW216476   2.392   1.723   5.569  2.9201  0.1280  0.5637
 1673SOL     OW16477   3.268   4.372   4.224  0.3557 -0.3907 -0.2204
 1673SOL    HW116478   3.181   4.394   4.191 -0.3766 -1.0029  1.2920
 1673SOL    HW216479   3.326   4.425   4.170  0.6804 -1.4921 -0.9575
 1674SOL     OW16480   1.213   0.969  11.930 -0.2658  0.0203  0.0186
 1674SOL    HW116481   1.165   0.986  12.011  0.9810 -3.4113  1.4784
 1674SOL    HW216482   1.301   0.976  11.967  0.4490 -2.3002 -1.2653
 1675SOL     OW16483   0.551   2.625  16.703 -0.2009  0.0878 -0.5209
 1675SOL    HW116484   0.597   2.563  16.647 -1.2227 -0.6813 -0.5064
 1675SOL    HW216485   0.605   2.704  16.693  0.6107 -0.8461 -3.6932
 1676SOL     OW16486   3.717   1.850   5.161 -0.0727  0.7294  0.4377
 1676SOL    HW116487   3.715   1.944   5.180 -0.8263  1.1480 -1.7395
 1676SOL    HW216488   3.767   1.817   5.236 -0.2233  0.6088  0.4840
 1677SOL     OW16489   3.944   3.936  15.420  0.1947 -0.0474  0.3793
 1677SOL    HW116490   3.983   3.871  15.479  1.7290 -0.6101 -1.2335
 1677SOL    HW216491   4.023   3.953  15.368  0.7193  1.3688  1.6360
 1678SOL     OW16492   4.153   3.867   7.951  0.4733  0.1955  0.0844
 1678SOL    HW116493   4.124   3.888   8.040  2.2953  1.6534  0.3136
 1678SOL    HW216494   4.098   3.790   7.932  0.5309 -0.2148  1.5702
 1679SOL     OW16495   1.695   2.752   4.908 -0.0661 -0.8159  0.6541
 1679SOL    HW116496   1.688   2.808   4.831  0.6198 -0.3508  0.9333
 1679SOL    HW216497   1.783   2.716   4.898 -0.9415 -2.1949 -2.2315
 1680SOL     OW16498   1.878   2.605   8.462 -0.2473 -0.3029 -0.5400
 1680SOL    HW116499   1.841   2.680   8.509 -1.4716 -1.7560  0.7684
 1680SOL    HW216500   1.809   2.541   8.447  0.1001 -0.6203 -0.7868
 1681SOL     OW16501   2.439   1.283  15.159 -0.2817 -0.2531  0.0654
 1681SOL    HW116502   2.396   1.328  15.232 -0.9178 -0.5126 -0.1550
 1681SOL    HW216503   2.497   1.221  15.204  0.8061  0.8458  0.2125
 1682SOL     OW16504   0.714   1.065  16.826  0.0573  0.2959  0.2971
 1682SOL    HW116505   0.696   0.996  16.890 -0.0115  1.1212  1.1636
 1682SOL    HW216506   0.636   1.120  16.815  0.3637  1.0791  2.1404
 1683SOL     OW16507   1.590   3.682   0.286 -0.0723 -0.1373  0.3155
 1683SOL    HW116508   1.534   3.703   0.212  0.7126  2.3191  0.4085
 1683SOL    HW216509   1.671   3.707   0.241  0.6294 -0.1116  1.5923
 1684SOL     OW16510   1.359   0.266  11.762 -0.2943 -0.0752 -0.0847
 1684SOL    HW116511   1.450   0.278  11.735 -0.3486 -1.3871 -0.8146
 1684SOL    HW216512   1.348   0.180  11.721 -1.3957  1.1340 -2.3181
 1685SOL     OW16513   1.264   3.052   8.406  0.2092 -0.2465 -0.1002
 1685SOL    HW116514   1.226   3.005   8.333 -1.0001  1.5293 -0.6062
 1685SOL    HW216515   1.189   3.051   8.465 -1.9860 -0.9906 -2.9032
 1686SOL     OW16516   4.470   2.417  16.953  0.1725 -0.0657  0.0792
 1686SOL    HW116517   4.457   2.331  16.994 -0.0439  0.2639  0.7046
 1686SOL    HW216518   4.455   2.472  17.030 -1.0203 -0.1078 -0.1237
 1687SOL     OW16519   1.289   0.559  10.083 -0.1981 -0.2607  0.4265
 1687SOL    HW116520   1.303   0.651  10.105 -0.0270 -1.0190  3.5164
 1687SOL    HW216521   1.316   0.547   9.992  1.8876  0.4733  0.9504
 1688SOL     OW16522   1.010   3.708   9.665  0.7828  0.0688 -0.1909
 1688SOL    HW116523   1.035   3.660   9.587  0.5296 -0.2709 -0.0657
 1688SOL    HW216524   1.092   3.706   9.715  0.0554 -0.9016  0.9673
 1689SOL     OW16525   2.045   0.004   7.243 -0.0433  0.0115  0.2564
 1689SOL    HW116526   2.029   0.098   7.232 -2.2692 -0.3552  0.3033
 1689SOL    HW216527   2.140   4.720   7.245 -0.1183 -0.9494  1.7145
 1690SOL     OW16528   2.635   2.872   3.767 -0.8114 -0.8574  0.4712
 1690SOL    HW116529   2.587   2.815   3.827 -0.6571 -0.4646  0.9684
 1690SOL    HW216530   2.657   2.946   3.824  1.1308 -0.5183 -0.7155
 1691SOL     OW16531   0.477   0.772  14.152 -0.9427  0.3208  0.1648
 1691SOL    HW116532   0.552   0.742  14.101  0.2522 -0.0664  2.1466
 1691SOL    HW216533   0.521   0.806  14.230  0.0672  1.0472 -0.7185
 1692SOL     OW16534   2.124   4.390   4.990 -0.3101 -0.0473  0.1506
 1692SOL    HW116535   2.134   4.347   5.075 -1.4874  1.4212  1.0292
 1692SOL    HW216536   2.162   4.320   4.936 -1.0242  0.8544 -1.5430
 1693SOL     OW16537   0.025   2.696   7.690 -0.4093  0.3836 -0.2557
 1693SOL    HW116538   0.063   2.618   7.649  1.6179  1.5318 -0.5836
 1693SOL    HW216539   4.704   2.736   7.614  2.7335  2.1855 -1.0839
 1694SOL     OW16540   2.453   2.322   3.129  0.1120  0.4135  0.4742
 1694SOL    HW116541   2.451   2.342   3.222 -1.6521 -0.7853  0.6975
 1694SOL    HW216542   2.361   2.300   3.110  0.5319  0.3353 -1.5280
 1695SOL     OW16543   4.481   3.750  14.695  0.1435 -0.1101 -0.8101
 1695SOL    HW116544   4.569   3.764  14.729 -0.4687  0.5781  0.5240
 1695SOL    HW216545   4.491   3.768  14.602  1.5538 -0.4710 -0.7164
 1696SOL     OW16546   2.553   3.456   7.837  0.1996 -0.2629 -0.2369
 1696SOL    HW116547   2.468   3.451   7.880  0.7952 -2.9807  0.6148
 1696SOL    HW216548   2.572   3.546   7.863 -0.2190 -0.0057 -0.8158
 1697SOL     OW16549   2.217   3.472   3.809 -0.0396  0.2676 -0.4972
 1697SOL    HW116550   2.122   3.457   3.808  0.1463 -0.9325  0.5941
 1697SOL    HW216551   2.254   3.391   3.843  1.9257  1.6469  0.6276
 1698SOL     OW16552   2.836   3.790   7.584  0.5167  0.5157 -0.6682
 1698SOL    HW116553   2.805   3.816   7.497  0.6706  0.8982 -0.6096
 1698SOL    HW216554   2.800   3.702   7.587 -3.8238  2.4131  3.9210
 1699SOL     OW16555   0.820   3.884  16.469 -0.6625  0.0054 -0.1326
 1699SOL    HW116556   0.738   3.856  16.511  0.1663  0.0799  1.5418
 1699SOL    HW216557   0.801   3.903  16.377  0.7070 -0.1827 -0.4477
 1700SOL     OW16558   2.694   1.756  12.521 -0.1353 -0.6022  0.2735
 1700SOL    HW116559   2.605   1.786  12.500 -0.9729 -1.7708  2.1328
 1700SOL    HW216560   2.681   1.662  12.512 -0.0499 -0.5937  0.0587
 1701SOL     OW16561   3.652   2.115  14.335 -0.0374  0.5512 -0.2657
 1701SOL    HW116562   3.747   2.101  14.335  0.0782  1.2917  1.8045
 1701SOL    HW216563   3.631   2.116  14.242 -0.2026 -1.1380 -0.2380
 1702SOL     OW16564   1.718   0.309   7.371  0.0846 -0.0078 -0.2600
 1702SOL    HW116565   1.757   0.225   7.346 -1.6612 -0.8206 -0.2076
 1702SOL    HW216566   1.722   0.356   7.287  1.4954  1.8018  0.8049
 1703SOL     OW16567   1.884   4.128  15.885 -0.0467 -0.1835 -0.0261
 1703SOL    HW116568   1.978   4.110  15.878  0.0855  0.2902  0.5441
 1703SOL    HW216569   1.854   4.047  15.844 -0.0210  0.1049 -0.6214
 1704SOL     OW16570   2.436   3.261   4.460  0.3131  0.0426  0.2203
 1704SOL    HW116571   2.361   3.276   4.517  0.3459 -3.3895  1.1838
 1704SOL    HW216572   2.474   3.184   4.503  0.3345  0.5410  1.1132
 1705SOL     OW16573   2.384   1.502   0.216  0.5039  1.2419  0.8491
 1705SOL    HW116574   2.364   1.442   0.288  3.4246 -1.0413 -0.2558
 1705SOL    HW216575   2.452   1.447   0.178 -1.4851 -0.9475  0.4059
 1706SOL     OW16576   3.983   0.716   5.497 -0.2600  0.9451 -0.4863
 1706SOL    HW116577   3.911   0.764   5.455 -1.2358  1.6156  1.9436
 1706SOL    HW216578   4.057   0.776   5.499 -0.4635  1.1428  0.5695
 1707SOL     OW16579   2.622   3.567   4.179 -0.2409 -0.2779 -0.3434
 1707SOL    HW116580   2.620   3.660   4.155 -0.2686  0.3723  2.1984
 1707SOL    HW216581   2.711   3.545   4.149  0.3024  0.9243  0.3922
 1708SOL     OW16582   3.117   0.347   7.794  0.6456  0.4722 -0.4027
 1708SOL    HW116583   3.184   0.368   7.858  1.3807 -1.9386 -0.3639
 1708SOL    HW216584   3.140   0.255   7.776  2.6654  0.8704  0.1166
 1709SOL     OW16585   0.591   0.773  16.692  0.2321 -0.2049  0.5096
 1709SOL    HW116586   0.675   0.817  16.704  0.3492  0.0498 -1.2548
 1709SOL    HW216587   0.531   0.847  16.688  1.8633  0.9855 -1.5318
 1710SOL     OW16588   1.484   1.072  10.250  0.6060  0.1012  0.2866
 1710SOL    HW116589   1.539   1.068  10.329 -0.1381  0.6697  0.8323
 1710SOL    HW216590   1.435   1.153  10.263  1.7281  0.8704 -0.2438
 1711SOL     OW16591   3.128   4.560   6.541 -0.1165 -0.0039  0.0534
 1711SOL    HW116592   3.089   4.640   6.578  1.5474  0.7011  0.2824
 1711SOL    HW216593   3.216   4.577   6.575 -0.2295 -0.7423  0.7043
 1712SOL     OW16594   2.332   3.795  16.251 -0.5623  0.5162 -0.4990
 1712SOL    HW116595   2.305   3.796  16.343  0.8864 -1.4631 -0.0551
 1712SOL    HW216596   2.261   3.739  16.222  0.4043 -0.9643  0.0045
 1713SOL     OW16597   0.629   3.916  13.638  0.1629  0.0365  0.6313
 1713SOL    HW116598   0.661   3.974  13.569 -0.6903  0.5731  0.6883
 1713SOL    HW216599   0.541   3.948  13.656 -0.4978 -2.1374  1.2512
 1714SOL     OW16600   4.301   0.201  13.562  0.6276  0.0835  0.5987
 1714SOL    HW116601   4.315   0.296  13.564 -1.2881  0.4027 -1.7581
 1714SOL    HW216602   4.393   0.174  13.558  0.8744  0.9786  0.2103
 1715SOL     OW16603   2.241   2.765  10.636 -0.1319  0.3850  0.1223
 1715SOL    HW116604   2.238   2.814  10.718 -0.1573 -1.1152  1.0200
 1715SOL    HW216605   2.285   2.824  10.575  1.4677 -0.1549  0.7632
 1716SOL     OW16606   2.312   2.859   3.889  0.1689 -0.3546  0.6235
 1716SOL    HW116607   2.228   2.822   3.864 -0.8726  0.5526  2.8041
 1716SOL    HW216608   2.335   2.927   3.826 -1.4670 -1.9891 -1.7183
 1717SOL     OW16609   2.859   2.599   2.632 -0.0879 -0.5237  0.5554
 1717SOL    HW116610   2.859   2.684   2.675 -0.4618 -0.5487  0.6023
 1717SOL    HW216611   2.775   2.559   2.655 -0.7056 -1.0824 -2.6383
 1718SOL     OW16612   2.348   4.232   4.211 -0.4327 -0.1112  0.1519
 1718SOL    HW116613   2.423   4.222   4.152 -0.1259  0.6534  0.4098
 1718SOL    HW216614   2.341   4.148   4.256  0.9212 -0.7741 -0.8668
 1719SOL     OW16615   3.450   2.770   5.752 -0.0427 -0.7802  0.0192
 1719SOL    HW116616   3.456   2.679   5.783  2.4009  0.3456  2.9404
 1719SOL    HW216617   3.462   2.814   5.837 -1.2535  0.8299 -0.6514
 1720SOL     OW16618   1.147   3.003   4.195 -0.4175 -0.0408  0.4144
 1720SOL    HW116619   1.171   2.911   4.209 -0.4699 -0.2774 -1.1292
 1720SOL    HW216620   1.107   3.028   4.279 -0.8150  3.1272 -0.7357
 1721SOL     OW16621   2.291   2.261   5.142 -0.4892  0.4296 -0.0865
 1721SOL    HW116622   2.244   2.271   5.059 -1.1269 -1.4498  0.0467
 1721SOL    HW216623   2.276   2.346   5.182  0.6653 -0.4278  2.1534
 1722SOL     OW16624   1.054   0.429   6.616  0.1344 -0.1624  0.7124
 1722SOL    HW116625   1.002   0.508   6.600 -0.5074 -0.5173  1.0587
 1722SOL    HW216626   1.100   0.433   6.700  0.5116 -0.3421  0.5163
 1723SOL     OW16627   2.362   0.790   3.560  0.0317 -0.3446 -0.6977
 1723SOL    HW116628   2.395   0.713   3.607 -0.0714  0.9813  1.5415
 1723SOL    HW216629   2.444   0.828   3.528 -0.6890  1.6518 -0.1563
 1724SOL     OW16630   0.889   1.601   5.387 -0.1325  0.8225  0.1710
 1724SOL    HW116631   0.884   1.651   5.469  0.4734 -0.1877  0.8267
 1724SOL    HW216632   0.824   1.533   5.407  1.2435 -0.1642  1.3866
 1725SOL     OW16633   2.907   3.106  10.978 -0.0337 -0.5217 -0.2048
 1725SOL    HW116634   2.849   3.031  10.964 -0.7375  0.1107 -0.6777
 1725SOL    HW216635   2.988   3.082  10.932  0.1629 -0.4748  0.1152
 1726SOL     OW16636   2.622   1.780   2.860 -0.0974  0.3459  0.2918
 1726SOL    HW116637   2.554   1.716   2.839  0.6547 -0.4992  0.4202
 1726SOL    HW216638   2.614   1.855   2.802 -4.1084 -0.5505 -0.3070
 1727SOL     OW16639   1.043   0.179   3.769  0.2284 -0.3355 -0.4188
 1727SOL    HW116640   1.049   0.101   3.713 -0.9576  0.1253 -1.1883
 1727SOL    HW216641   0.978   0.234   3.725  1.0583 -0.1375 -1.3982
 1728SOL     OW16642   4.111   3.908   0.482  0.1933 -0.3417 -0.1099
 1728SOL    HW116643   4.084   3.925   0.392  0.6031 -0.8720 -0.3319
 1728SOL    HW216644   4.200   3.942   0.481 -0.5991  1.8321  2.1527
 1729SOL     OW16645   1.465   1.646   7.636 -0.0012 -0.8282 -0.3693
 1729SOL    HW116646   1.545   1.658   7.688  1.1940 -0.8688 -2.1804
 1729SOL    HW216647   1.503   1.669   7.551 -2.0689  1.5680 -0.6280
 1730SOL     OW16648   4.487   4.354   8.172 -0.7140  0.3482  0.3549
 1730SOL    HW116649   4.513   4.366   8.081 -0.0706 -0.1052  0.4724
 1730SOL    HW216650   4.544   4.282   8.199  1.4307  0.9322 -2.7143
 1731SOL     OW16651   2.339   1.493  15.719  0.3850 -0.0982  0.1015
 1731SOL    HW116652   2.283   1.565  15.690 -1.0821 -1.7408 -1.1534
 1731SOL    HW216653   2.294   1.418  15.680 -1.6346  1.2608 -0.1857
 1732SOL     OW16654   0.199   3.898  11.787 -0.1348  0.0206  0.2206
 1732SOL    HW116655   0.270   3.933  11.841 -0.5055 -0.1995  0.8449
 1732SOL    HW216656   0.246   3.873  11.707  1.2360 -1.3949  1.4626
 1733SOL     OW16657   4.660   2.255   2.014  0.0026 -0.6378 -0.3729
 1733SOL    HW116658   0.019   2.215   1.981  1.0690  1.1106  0.1233
 1733SOL    HW216659   4.683   2.348   2.012  0.5434 -0.7816 -0.8646
 1734SOL     OW16660   1.659   0.743  13.142  0.4140 -0.1377 -0.3562
 1734SOL    HW116661   1.749   0.732  13.109  0.6119 -0.9166  0.4341
 1734SOL    HW216662   1.617   0.800  13.078 -1.1927  2.3777  2.9729
 1735SOL     OW16663   3.843   2.168   3.361 -0.1341  0.0199 -0.1136
 1735SOL    HW116664   3.923   2.128   3.327 -0.3962  0.2438 -1.0044
 1735SOL    HW216665   3.818   2.227   3.290  3.1967  0.2146 -1.0870
 1736SOL     OW16666   2.959   1.750   5.557  0.6932 -0.5439  0.0721
 1736SOL    HW116667   2.878   1.702   5.575  0.3806  0.9006  2.4147
 1736SOL    HW216668   2.953   1.821   5.620 -1.1952  1.0190 -1.8251
 1737SOL     OW16669   1.503   1.908  15.890  0.0878  0.1486 -0.4668
 1737SOL    HW116670   1.571   1.863  15.840 -1.3542 -2.4031 -0.0960
 1737SOL    HW216671   1.505   1.852  15.968  0.7624 -0.4369 -0.9095
 1738SOL     OW16672   2.494   2.376  10.793 -0.1594 -0.4802 -0.2391
 1738SOL    HW116673   2.462   2.438  10.859  1.5476  2.3550 -2.1260
 1738SOL    HW216674   2.445   2.412  10.719 -0.2119 -0.1508 -0.0430
 1739SOL     OW16675   4.649   3.708   7.621 -0.1846 -0.8564  0.6593
 1739SOL    HW116676   0.005   3.751   7.657  0.4434 -1.3445 -0.0992
 1739SOL    HW216677   4.669   3.620   7.654  1.1664 -1.0106 -0.5317
 1740SOL     OW16678   0.163   0.890   5.717  0.3522  0.0837  0.4462
 1740SOL    HW116679   0.199   0.923   5.799 -1.4771 -2.4028  2.2290
 1740SOL    HW216680   0.117   0.968   5.685  1.9846  1.5264  1.5777
 1741SOL     OW16681   1.254   2.729   4.309  0.0031 -0.1344  0.0602
 1741SOL    HW116682   1.268   2.809   4.360 -1.1708  0.4640 -0.5567
 1741SOL    HW216683   1.213   2.674   4.376 -0.2161 -0.2300 -0.1504
 1742SOL     OW16684   1.880   1.100   5.537 -0.0499 -0.0804 -0.3094
 1742SOL    HW116685   1.871   1.154   5.459 -2.6516 -1.5844 -1.0542
 1742SOL    HW216686   1.792   1.121   5.569 -0.1706  0.2951 -0.8790
 1743SOL     OW16687   3.734   4.707  17.540 -0.0191  0.0109  0.4195
 1743SOL    HW116688   3.781   4.648  17.599 -1.2089 -1.2482  0.1054
 1743SOL    HW216689   3.787   0.066  17.544  0.6905 -0.4981  1.2357
 1744SOL     OW16690   0.656   3.342  15.777 -0.1412 -0.7407 -0.1250
 1744SOL    HW116691   0.684   3.323  15.687 -1.2546  0.7973 -0.7945
 1744SOL    HW216692   0.579   3.289  15.794 -2.6108  2.5750 -0.9808
 1745SOL     OW16693   4.470   2.397   5.925  0.1267  0.0847  0.5381
 1745SOL    HW116694   4.398   2.432   5.874  0.8684 -1.1205 -1.3332
 1745SOL    HW216695   4.547   2.440   5.890  0.0291  1.2386  1.7389
 1746SOL     OW16696   2.236   2.094   6.772  0.0967  0.0436 -0.2373
 1746SOL    HW116697   2.228   2.004   6.740 -0.7853  0.2134 -0.4990
 1746SOL    HW216698   2.318   2.127   6.736 -1.1732  2.1687 -1.2101
 1747SOL     OW16699   0.492   1.482   9.199  0.3867  0.1946  0.0710
 1747SOL    HW116700   0.553   1.530   9.143  1.0644 -2.9386 -1.9011
 1747SOL    HW216701   0.443   1.419   9.145  0.4623 -0.5437  0.8558
 1748SOL     OW16702   4.513   1.841   5.029  0.4958 -0.1339 -0.3147
 1748SOL    HW116703   4.509   1.764   4.973 -0.7994  0.1275 -0.5718
 1748SOL    HW216704   4.423   1.872   5.024 -0.1391 -1.9670  0.0044
 1749SOL     OW16705   4.408   1.842  15.661 -0.6358  0.5032  0.7702
 1749SOL    HW116706   4.444   1.921  15.702  0.6885  0.5847 -0.5714
 1749SOL    HW216707   4.317   1.871  15.649 -0.7159  0.3305  0.9738
 1750SOL     OW16708   1.671   0.731   9.082  0.3531 -0.6477  0.0995
 1750SOL    HW116709   1.676   0.677   9.003  0.8669 -1.4652  0.6855
 1750SOL    HW216710   1.733   0.799   9.054  0.3185 -1.2934 -1.5345
 1751SOL     OW16711   0.754   3.615   7.781 -0.2714  0.2975 -0.8413
 1751SOL    HW116712   0.812   3.640   7.852 -0.8539  0.6628 -0.4913
 1751SOL    HW216713   0.728   3.528   7.813  0.9974  0.6044  0.9730
 1752SOL     OW16714   2.691   2.538  13.687 -0.3133 -0.0881 -0.1811
 1752SOL    HW116715   2.704   2.561  13.595  1.9025  0.6411  0.3141
 1752SOL    HW216716   2.619   2.477  13.675 -0.3682 -0.1884  0.6421
 1753SOL     OW16717   2.311   4.007   9.758  0.1174 -0.7702 -0.4795
 1753SOL    HW116718   2.375   4.022   9.828  1.2765  0.2015 -1.7412
 1753SOL    HW216719   2.265   4.091   9.756  0.2927 -0.6230  1.6464
 1754SOL     OW16720   0.172   3.741   5.537 -0.3948  0.4007 -0.5665
 1754SOL    HW116721   0.160   3.672   5.602  1.1564  0.9833  0.3310
 1754SOL    HW216722   0.256   3.765   5.576 -0.2154 -0.5354 -0.3740
 1755SOL     OW16723   2.071   2.612   4.338 -0.0473 -0.1097 -0.1645
 1755SOL    HW116724   2.039   2.614   4.248  1.5735  0.4589 -0.7350
 1755SOL    HW216725   2.092   2.520   4.351  1.1485 -0.3312 -3.5172
 1756SOL     OW16726   1.078   1.401   0.285 -0.4564 -0.1965 -0.1276
 1756SOL    HW116727   0.993   1.371   0.252  0.1745 -1.9494 -0.1337
 1756SOL    HW216728   1.082   1.473   0.222  0.2785 -0.0841  0.0469
 1757SOL     OW16729   2.037   2.508  15.538 -0.1842  0.0789  0.2294
 1757SOL    HW116730   2.127   2.519  15.570 -0.9067  2.0186  1.6369
 1757SOL    HW216731   2.063   2.459  15.460  2.1685  1.2814  0.2400
 1758SOL     OW16732   0.962   0.387   3.273 -0.2438  0.7857 -0.0916
 1758SOL    HW116733   0.872   0.366   3.248 -0.4525  0.5025  0.9095
 1758SOL    HW216734   1.010   0.305   3.258 -0.0562  0.9619 -0.4750
 1759SOL     OW16735   2.885   2.719  14.021 -0.1650 -0.1091  0.0552
 1759SOL    HW116736   2.809   2.665  14.043 -0.3632 -0.6809 -1.9946
 1759SOL    HW216737   2.857   2.748  13.934  0.7039 -1.8786 -0.8236
 1760SOL     OW16738   2.604   3.546   8.626  0.1236  0.1565 -0.2439
 1760SOL    HW116739   2.564   3.574   8.543 -2.3334  1.5449  1.4119
 1760SOL    HW216740   2.683   3.495   8.605  0.4264 -0.0021  1.3182
 1761SOL     OW16741   0.233   3.256   2.555  0.3172 -0.3407  0.2055
 1761SOL    HW116742   0.147   3.292   2.535 -0.0496 -1.9628 -1.0841
 1761SOL    HW216743   0.235   3.186   2.490 -0.3205 -0.1098 -0.0659
 1762SOL     OW16744   1.989   2.983   4.109 -0.1652 -0.1934  0.1517
 1762SOL    HW116745   2.004   2.914   4.045 -1.6522 -0.6526  0.2977
 1762SOL    HW216746   2.076   3.018   4.129 -0.6961  1.3501 -0.2219
 1763SOL     OW16747   1.475   0.196   6.480  0.3916 -0.1174 -0.5245
 1763SOL    HW116748   1.403   0.247   6.442  1.9640  1.4949 -1.3341
 1763SOL    HW216749   1.479   0.135   6.406 -4.8282  2.2093 -2.7490
 1764SOL     OW16750   2.871   0.970   4.668  0.2736 -0.1452  0.6040
 1764SOL    HW116751   2.963   0.995   4.671  0.3115 -0.1931 -0.1613
 1764SOL    HW216752   2.838   1.022   4.741  0.3684  2.4466 -1.2226
 1765SOL     OW16753   2.308   0.992   1.749 -0.4000  0.1840 -0.0005
 1765SOL    HW116754   2.306   0.910   1.799 -4.8926  0.3562  0.0892
 1765SOL    HW216755   2.388   1.030   1.785  1.4211 -0.6043 -3.1668
 1766SOL     OW16756   3.529   1.208   2.227  0.0497 -0.1940  0.0217
 1766SOL    HW116757   3.435   1.224   2.223  0.1459  0.9649  2.7176
 1766SOL    HW216758   3.530   1.113   2.241 -1.3787 -0.2201 -0.0967
 1767SOL     OW16759   3.611   0.528   8.082  0.1944  0.2618 -0.3157
 1767SOL    HW116760   3.703   0.532   8.058  0.8067 -1.1756  1.7220
 1767SOL    HW216761   3.608   0.454   8.143  0.9148 -1.5308 -2.4969
 1768SOL     OW16762   2.362   1.162   9.264 -0.9155 -0.1675 -0.2108
 1768SOL    HW116763   2.269   1.184   9.266 -0.3900  2.0277 -0.0227
 1768SOL    HW216764   2.364   1.079   9.217  0.4871 -0.0694 -0.3280
 1769SOL     OW16765   4.675   3.980   8.989  0.0019  0.4380 -0.5569
 1769SOL    HW116766   4.668   3.900   9.041 -1.6871  0.9599  0.0384
 1769SOL    HW216767   0.006   3.949   8.915  0.8111 -3.0959  1.5211
 1770SOL     OW16768   3.464   1.915  11.779 -0.4386 -0.0502  0.1877
 1770SOL    HW116769   3.516   1.974  11.725  0.1444 -2.1586 -1.5529
 1770SOL    HW216770   3.500   1.931  11.866  3.0633  2.4228 -1.7493
 1771SOL     OW16771   2.691   2.761   6.279  0.0025  0.3634 -0.2790
 1771SOL    HW116772   2.702   2.812   6.198 -1.6929  2.1058  0.5904
 1771SOL    HW216773   2.742   2.682   6.262 -0.2597  0.3922 -1.2014
 1772SOL     OW16774   4.568   3.046  16.219 -0.5364 -0.1242  0.4677
 1772SOL    HW116775   4.562   3.106  16.145 -1.1452 -0.6908  0.0510
 1772SOL    HW216776   4.518   3.093  16.286 -1.0509 -1.1993  0.8531
 1773SOL     OW16777   1.555   1.211   6.850 -0.1709 -0.8989  0.0120
 1773SOL    HW116778   1.483   1.174   6.798 -0.3614 -0.7367  0.1622
 1773SOL    HW216779   1.522   1.289   6.893 -0.2547 -1.5606  1.1610
 1774SOL     OW16780   4.669   3.045   4.160 -0.1168  0.0311 -0.6340
 1774SOL    HW116781   4.617   3.100   4.102 -0.8932 -1.6666 -1.5535
 1774SOL    HW216782   4.654   3.102   4.236 -1.4196 -1.9321  0.5874
 1775SOL     OW16783   0.683   1.300  13.319  0.4011  0.0390 -0.4422
 1775SOL    HW116784   0.651   1.341  13.399 -0.0417  0.0231 -0.6086
 1775SOL    HW216785   0.628   1.221  13.317 -0.4517  0.6052  0.5575
 1776SOL     OW16786   1.127   0.325  16.780  0.1741 -0.6061 -0.2599
 1776SOL    HW116787   1.184   0.263  16.825  1.2745  0.7095  0.1584
 1776SOL    HW216788   1.166   0.411  16.766  2.0668 -1.3303  0.6838
 1777SOL     OW16789   3.226   3.613   4.399 -0.4197 -0.3348 -0.0675
 1777SOL    HW116790   3.140   3.655   4.400 -0.5229 -0.5101 -1.3258
 1777SOL    HW216791   3.194   3.523   4.396  1.2582 -0.9357 -0.1918
 1778SOL     OW16792   2.553   2.935  10.815  0.6590  0.4911  0.5656
 1778SOL    HW116793   2.595   2.908  10.734  0.2789  0.6722  0.3125
 1778SOL    HW216794   2.529   3.025  10.795 -2.6940 -1.0249 -2.2854
 1779SOL     OW16795   2.097   0.454   5.755 -0.3065 -0.7411 -0.5713
 1779SOL    HW116796   2.009   0.428   5.729 -0.7599  0.0206  0.2333
 1779SOL    HW216797   2.097   0.545   5.725  0.5331 -1.1564 -1.8408
 1780SOL     OW16798   3.523   1.647   6.083  0.0510  0.1697 -0.4599
 1780SOL    HW116799   3.582   1.681   6.150  0.5105 -1.6541  0.0358
 1780SOL    HW216800   3.576   1.617   6.009 -0.4643  0.0132 -0.7681
 1781SOL     OW16801   2.125   1.989  11.801 -0.0853 -0.2461 -0.1679
 1781SOL    HW116802   2.079   2.012  11.720 -1.5835 -0.9642  0.4967
 1781SOL    HW216803   2.178   1.912  11.780  1.5061  1.6601 -3.1498
 1782SOL     OW16804   2.673   2.459   3.047 -0.0185 -0.2623  0.5287
 1782SOL    HW116805   2.602   2.410   3.089  1.6704 -1.5326  1.8849
 1782SOL    HW216806   2.708   2.500   3.126  3.2031 -1.1367 -0.4250
 1783SOL     OW16807   3.688   1.170   8.377  0.1551  0.1901 -0.3635
 1783SOL    HW116808   3.702   1.231   8.448 -2.9079 -0.1255  0.4831
 1783SOL    HW216809   3.759   1.192   8.316  0.9631  0.6562  0.7364
 1784SOL     OW16810   0.378   2.902   7.212 -0.5032  0.2589 -0.5613
 1784SOL    HW116811   0.436   2.974   7.189 -1.7609  0.9184 -1.6588
 1784SOL    HW216812   0.388   2.886   7.306 -1.0397  0.3659 -0.4881
 1785SOL     OW16813   0.371   1.206   0.373  0.2684 -0.3162 -0.1215
 1785SOL    HW116814   0.282   1.180   0.396  0.3017 -2.4756 -2.3851
 1785SOL    HW216815   0.383   1.150   0.297 -1.0400  0.4366 -0.8983
 1786SOL     OW16816   4.476   0.432  10.963 -0.1949 -0.2681 -0.6439
 1786SOL    HW116817   4.482   0.381  10.883  0.9126 -3.7929  1.6618
 1786SOL    HW216818   4.512   0.368  11.025  1.5011  2.4183  1.1344
 1787SOL     OW16819   0.491   2.094  17.234 -0.3298  0.1348  0.1989
 1787SOL    HW116820   0.560   2.036  17.266 -0.3700 -0.3659 -0.6295
 1787SOL    HW216821   0.518   2.184  17.253  0.4910 -0.0840  0.0563
 1788SOL     OW16822   3.668   4.280  15.521 -0.0116 -0.0676 -0.6607
 1788SOL    HW116823   3.628   4.345  15.464 -0.7919  0.6317  0.6859
 1788SOL    HW216824   3.691   4.210  15.459  0.4213  0.2654 -0.8806
 1789SOL     OW16825   4.563   2.948   5.090  0.4178  0.4019 -0.0109
 1789SOL    HW116826   4.599   2.983   5.009 -0.0548 -1.5923 -1.0826
 1789SOL    HW216827   4.644   2.924   5.135  0.4309 -0.8272 -0.6934
 1790SOL     OW16828   3.746   1.607   5.544  0.2072  0.4070  0.8998
 1790SOL    HW116829   3.665   1.581   5.501  0.7706 -1.9796  1.3041
 1790SOL    HW216830   3.791   1.525   5.528  1.3373  1.1819  0.1588
 1791SOL     OW16831   1.959   1.198   9.515 -0.1490 -0.2804  0.8412
 1791SOL    HW116832   1.905   1.136   9.465  0.9183  0.2274 -0.9772
 1791SOL    HW216833   1.933   1.161   9.599 -2.8079 -0.2518  0.0451
 1792SOL     OW16834   4.418   0.636   7.137  0.0149 -0.0067 -0.3918
 1792SOL    HW116835   4.389   0.593   7.057 -0.5070  1.8201 -1.1684
 1792SOL    HW216836   4.387   0.725   7.125 -2.1839 -0.6521  0.4925
 1793SOL     OW16837   3.115   0.084   9.876  0.1202 -0.0048  0.4380
 1793SOL    HW116838   3.131   4.719   9.914  0.6850  0.4169  1.1550
 1793SOL    HW216839   3.052   0.113   9.943  1.3231  0.7469  1.2299
 1794SOL     OW16840   3.014   0.461  12.012 -0.0206  0.0829  0.4406
 1794SOL    HW116841   2.949   0.485  12.079 -2.0044 -2.4328 -0.5934
 1794SOL    HW216842   2.952   0.433  11.945  0.4207  0.0213  0.0605
 1795SOL     OW16843   0.964   1.462  17.608  0.3087 -0.2037 -0.0461
 1795SOL    HW116844   0.901   1.520  17.651  1.8591 -0.2054  2.2008
 1795SOL    HW216845   0.958   1.498  17.519  1.4248  0.7677  0.2731
 1796SOL     OW16846   3.373   4.557   2.198  0.5354  0.2790 -0.2366
 1796SOL    HW116847   3.405   4.584   2.284 -0.4390 -2.0495  0.8567
 1796SOL    HW216848   3.290   4.516   2.219  0.2964  0.1928 -1.3208
 1797SOL     OW16849   2.400   2.187   5.956 -0.2671  0.7400  0.0366
 1797SOL    HW116850   2.451   2.260   5.992  2.3736 -1.2618  0.3604
 1797SOL    HW216851   2.467   2.124   5.932  1.6547  2.2348  1.4416
 1798SOL     OW16852   2.680   1.275   3.823 -0.5811 -0.1089 -0.5535
 1798SOL    HW116853   2.722   1.359   3.844  1.2266 -1.0613 -0.3363
 1798SOL    HW216854   2.761   1.224   3.814 -1.0022 -1.2137  1.9254
 1799SOL     OW16855   1.802   1.839  11.964  0.2235 -0.5353  0.3495
 1799SOL    HW116856   1.826   1.772  11.900  0.2573  0.2481 -0.4630
 1799SOL    HW216857   1.753   1.792  12.031 -1.4202 -0.5870 -0.8823
 1800SOL     OW16858   2.557   1.592   9.090 -0.3249 -0.2989  0.0131
 1800SOL    HW116859   2.483   1.580   9.148 -2.2535  1.2459 -2.1191
 1800SOL    HW216860   2.629   1.551   9.138  0.6781  1.3003 -0.1104
 1801SOL     OW16861   2.677   3.582   0.108  0.0680  0.2277 -0.3511
 1801SOL    HW116862   2.727   3.503   0.125 -1.3954 -0.6622 -0.1872
 1801SOL    HW216863   2.742   3.649   0.088 -1.1995  1.5446 -0.1390
 1802SOL     OW16864   1.417   0.173   8.717 -0.2556  0.5652 -0.1783
 1802SOL    HW116865   1.427   0.078   8.727 -0.4157  0.4915 -0.6821
 1802SOL    HW216866   1.507   0.195   8.691 -0.1767  1.9295  1.2909
 1803SOL     OW16867   2.426   2.955   1.602 -0.4750 -0.1435 -0.4135
 1803SOL    HW116868   2.467   3.040   1.613 -0.6430 -0.4624  2.8198
 1803SOL    HW216869   2.404   2.967   1.510 -3.0189  0.8207  0.3142
 1804SOL     OW16870   0.330   3.805   8.285 -0.2390  0.2861 -0.2534
 1804SOL    HW116871   0.325   3.726   8.230  1.5740 -3.2604  4.6630
 1804SOL    HW216872   0.258   3.805   8.348 -1.2498  1.6600 -1.4033
 1805SOL     OW16873   4.639   0.609   1.558  0.5499  0.1021 -0.0450
 1805SOL    HW116874   4.709   0.660   1.517  0.8377  1.3259  1.9635
 1805SOL    HW216875   4.651   0.632   1.650 -1.1510 -1.0863  0.4619
 1806SOL     OW16876   4.717   0.272  16.229  0.3213 -0.6319 -0.1432
 1806SOL    HW116877   4.691   0.295  16.139 -0.3575 -0.0371  0.2066
 1806SOL    HW216878   0.044   0.349  16.257  0.4735 -1.2094  1.1925
 1807SOL     OW16879   0.344   0.501   6.374  0.0187  0.2778 -0.1449
 1807SOL    HW116880   0.366   0.534   6.461 -0.0351 -3.0820  1.1737
 1807SOL    HW216881   0.267   0.445   6.384 -0.6918  1.5825  1.6912
 1808SOL     OW16882   1.671   0.754   7.003  0.4224 -0.5986  0.0933
 1808SOL    HW116883   1.739   0.789   7.061  0.0312 -0.9141  0.7448
 1808SOL    HW216884   1.717   0.673   6.980 -2.1679 -2.3611  1.1502
 1809SOL     OW16885   2.364   0.767   9.446  0.5143 -0.2927 -0.0194
 1809SOL    HW116886   2.368   0.724   9.360 -1.4949  0.7094 -0.6241
 1809SOL    HW216887   2.283   0.816   9.428  0.2279  0.8640  4.5589
 1810SOL     OW16888   4.363   3.834   6.179  0.1250  0.4406 -0.1050
 1810SOL    HW116889   4.383   3.754   6.229  0.1077 -0.0981 -0.9506
 1810SOL    HW216890   4.294   3.874   6.232  0.6407  0.5683  0.4734
 1811SOL     OW16891   2.910   3.987   2.715 -0.0748 -0.0849  0.4815
 1811SOL    HW116892   2.899   4.008   2.808 -0.0242  0.5122  0.3549
 1811SOL    HW216893   2.865   3.904   2.703 -2.6743  1.3989  0.0283
 1812SOL     OW16894   4.668   3.170   8.879  0.2574  0.2432 -0.1542
 1812SOL    HW116895   0.028   3.216   8.901 -0.0403  0.2586  0.9167
 1812SOL    HW216896   4.625   3.240   8.829 -0.7572  0.5314  1.1230
 1813SOL     OW16897   3.280   1.609   5.183  0.8660  0.8460  0.2938
 1813SOL    HW116898   3.268   1.610   5.278 -0.9455 -1.6862  0.0923
 1813SOL    HW216899   3.374   1.627   5.184  0.8684  0.8993 -2.9249
 1814SOL     OW16900   0.135   1.883   1.544  0.0357 -0.2105 -0.2762
 1814SOL    HW116901   0.177   1.816   1.491 -0.7637 -0.8279 -0.1222
 1814SOL    HW216902   0.066   1.894   1.478  0.3996 -0.9818 -0.7771
 1815SOL     OW16903   3.634   3.861   8.070 -0.5471  0.0237 -0.2074
 1815SOL    HW116904   3.688   3.925   8.116 -0.2572 -1.1289  1.0287
 1815SOL    HW216905   3.604   3.807   8.143  0.9816  0.6891  0.8919
 1816SOL     OW16906   0.505   3.796   9.839  0.0702  0.7750  0.1082
 1816SOL    HW116907   0.452   3.764   9.766  0.4368  1.1771 -0.3358
 1816SOL    HW216908   0.574   3.730   9.833  1.2154  2.0854 -1.2522
 1817SOL     OW16909   3.506   1.221   9.654 -0.0214  1.2107 -0.2907
 1817SOL    HW116910   3.593   1.233   9.694  0.0993  1.7079 -0.6991
 1817SOL    HW216911   3.516   1.276   9.576 -0.3232  1.2946 -0.2693
 1818SOL     OW16912   3.580   3.059   2.780  0.2382  0.1762 -0.1900
 1818SOL    HW116913   3.490   3.038   2.801  0.1265  1.1480  0.3181
 1818SOL    HW216914   3.615   3.111   2.852  0.0587 -0.7460  0.5511
 1819SOL     OW16915   0.285   0.401   5.428 -1.0474 -0.0416  0.2970
 1819SOL    HW116916   0.336   0.477   5.458  0.9183 -0.9331 -0.7649
 1819SOL    HW216917   0.244   0.388   5.513 -3.2218 -0.6541 -0.8474
 1820SOL     OW16918   1.867   0.833  10.017  0.4483 -0.4326 -0.2659
 1820SOL    HW116919   1.916   0.786  10.085 -0.2182  0.3164  0.7353
 1820SOL    HW216920   1.902   0.919  10.042  1.0595 -0.5661 -0.6543
 1821SOL     OW16921   3.568   3.038   2.296 -0.4458 -0.5517  0.4543
 1821SOL    HW116922   3.582   3.079   2.381 -1.8639  1.2898 -0.2034
 1821SOL    HW216923   3.642   2.977   2.298  1.4168  1.6358 -0.8459
 1822SOL     OW16924   0.765   3.077   1.396  0.1024  0.2126  0.1493
 1822SOL    HW116925   0.678   3.038   1.397 -0.7833  2.2152  0.1147
 1822SOL    HW216926   0.823   3.004   1.419  0.2401  0.0265 -0.7746
 1823SOL     OW16927   3.211   1.878  11.781 -0.0803 -0.6573 -0.3799
 1823SOL    HW116928   3.204   1.790  11.819  0.0026 -1.1099 -1.3920
 1823SOL    HW216929   3.306   1.886  11.771  0.1571  1.6430  3.7572
 1824SOL     OW16930   3.094   4.485   3.182  0.3587  0.3885  0.1584
 1824SOL    HW116931   3.178   4.478   3.138  0.9235  0.9681  1.1557
 1824SOL    HW216932   3.123   4.518   3.267 -0.2479 -0.9237  0.8878
 1825SOL     OW16933   2.775   2.454  17.115  0.6138 -0.5799 -0.3533
 1825SOL    HW116934   2.715   2.456  17.041  0.0239 -0.4739  0.1338
 1825SOL    HW216935   2.746   2.542  17.140  1.0367 -0.0275 -1.8305
 1826SOL     OW16936   0.452   2.827   4.555  0.2084 -0.0689 -0.4988
 1826SOL    HW116937   0.379   2.873   4.597  0.6405  0.3246 -0.1740
 1826SOL    HW216938   0.426   2.737   4.570 -0.0628  0.0011 -0.5565
 1827SOL     OW16939   4.066   0.954   3.041 -0.3120  0.4704 -0.7537
 1827SOL    HW116940   4.023   1.011   2.977  0.8250  1.1046 -0.9621
 1827SOL    HW216941   4.131   1.013   3.079 -0.2978  0.8526 -1.3655
 1828SOL     OW16942   0.169   3.448   6.952  0.6478  0.3782 -0.0720
 1828SOL    HW116943   0.105   3.378   6.962  1.4691 -0.3236  0.3376
 1828SOL    HW216944   0.167   3.468   6.859  0.5404 -2.4738 -0.6690
 1829SOL     OW16945   4.547   3.505   6.874  0.2393 -0.1079 -0.2462
 1829SOL    HW116946   4.518   3.480   6.961  2.1508  1.0042  0.7054
 1829SOL    HW216947   4.576   3.593   6.897  1.9688 -1.0291  0.9896
 1830SOL     OW16948   3.291   2.065   2.219  0.2319  0.3690 -0.8675
 1830SOL    HW116949   3.226   2.007   2.180 -2.1354  0.5354  2.7955
 1830SOL    HW216950   3.233   2.122   2.270 -0.5414 -0.6322 -0.6169
 1831SOL     OW16951   1.762   1.147  12.261  0.4884  0.1195  0.3340
 1831SOL    HW116952   1.714   1.227  12.241 -1.1370 -1.1332 -0.7778
 1831SOL    HW216953   1.712   1.100  12.327  0.9575 -0.3021  0.3890
 1832SOL     OW16954   1.124   0.573  13.983 -0.1279 -0.3254 -0.2589
 1832SOL    HW116955   1.160   0.629  14.052  0.7052 -0.4265 -0.6166
 1832SOL    HW216956   1.181   0.605  13.913 -1.1316  2.9029  0.3674
 1833SOL     OW16957   3.248   1.395  12.184 -0.1568 -0.2584  0.2282
 1833SOL    HW116958   3.286   1.452  12.117 -2.3884  1.8210  0.7553
 1833SOL    HW216959   3.202   1.329  12.132 -0.9811 -2.2302  3.4861
 1834SOL     OW16960   2.353   3.693   9.194  0.5760  0.7218 -0.8002
 1834SOL    HW116961   2.406   3.733   9.124 -1.3932  4.1382 -0.3133
 1834SOL    HW216962   2.263   3.690   9.161  0.4491  1.0379 -0.4812
 1835SOL     OW16963   4.588   2.080   7.766  0.1915 -0.5415  0.4313
 1835SOL    HW116964   4.535   2.117   7.836 -0.4791  0.1487 -0.4571
 1835SOL    HW216965   4.559   2.129   7.690 -2.0452 -1.9335  0.3929
 1836SOL     OW16966   4.086   0.122   8.708 -0.0369 -0.0170  0.0878
 1836SOL    HW116967   4.126   0.206   8.688  0.1534 -0.5857 -1.8931
 1836SOL    HW216968   4.143   0.060   8.663  1.1361  2.0064 -1.1690
 1837SOL     OW16969   0.278   0.188  12.172  0.0114  0.1641 -0.0520
 1837SOL    HW116970   0.330   0.256  12.129  1.4020  0.1264  1.5666
 1837SOL    HW216971   0.289   0.218  12.262  0.7140  1.0390 -0.4265
 1838SOL     OW16972   0.201   3.174  10.184 -0.2393  0.2316  0.1826
 1838SOL    HW116973   0.178   3.239  10.117 -2.3376 -1.0732 -0.3525
 1838SOL    HW216974   0.269   3.231  10.219  0.9606 -0.7792 -0.5247
 1839SOL     OW16975   0.480   3.547  10.803 -0.1109  0.5609 -0.4672
 1839SOL    HW116976   0.557   3.490  10.806  0.7654  1.7664  0.0483
 1839SOL    HW216977   0.473   3.579  10.893  0.7665  0.9667 -0.5494
 1840SOL     OW16978   3.604   2.728  15.071 -0.2503 -0.3535  0.0561
 1840SOL    HW116979   3.652   2.788  15.012  0.6249 -0.6290  0.4865
 1840SOL    HW216980   3.588   2.673  14.994 -0.2988  1.2517 -1.1073
 1841SOL     OW16981   1.105   3.396   4.338  0.3886  0.3278 -0.6182
 1841SOL    HW116982   1.130   3.461   4.404  1.2333 -0.9923  0.3553
 1841SOL    HW216983   1.185   3.397   4.285 -1.1000 -2.8796 -2.9265
 1842SOL     OW16984   0.531   4.346   5.291  0.2112 -0.3000  0.0917
 1842SOL    HW116985   0.482   4.357   5.210 -0.8718 -0.3122  0.7531
 1842SOL    HW216986   0.468   4.362   5.360  0.2278 -2.6052  0.6139
 1843SOL     OW16987   3.917   1.664   2.104 -0.6331 -0.5521 -0.4167
 1843SOL    HW116988   3.847   1.722   2.134 -1.0859 -0.2580 -2.0212
 1843SOL    HW216989   3.885   1.619   2.026 -1.5751  1.2587 -1.0855
 1844SOL     OW16990   0.999   1.151   8.681  0.1164  0.4958 -0.2506
 1844SOL    HW116991   1.054   1.142   8.759  1.4542  2.5553 -0.9562
 1844SOL    HW216992   0.947   1.226   8.709 -2.5638 -1.1224 -0.9214
 1845SOL     OW16993   4.711   4.445   4.994  0.3942  0.8094 -0.0349
 1845SOL    HW116994   0.031   4.464   5.079  1.3529  2.9770 -0.9972
 1845SOL    HW216995   4.641   4.384   5.019  1.3666 -0.5055 -0.5009
 1846SOL     OW16996   1.691   2.192   0.567 -0.3160 -0.3598 -0.1075
 1846SOL    HW116997   1.785   2.179   0.553 -0.5025  0.1409 -1.8820
 1846SOL    HW216998   1.658   2.103   0.577 -1.4128  0.0532  0.0247
 1847SOL     OW16999   2.407   3.874   8.011  0.3278 -0.0960  0.0101
 1847SOL    HW117000   2.457   3.950   7.981 -0.3138 -0.0114 -0.8455
 1847SOL    HW217001   2.345   3.864   7.938  0.0343 -0.4705  0.3148
 1848SOL     OW17002   1.199   1.723   9.452  0.0866  0.2884 -0.0771
 1848SOL    HW117003   1.183   1.666   9.376 -1.1298 -1.0649  1.2203
 1848SOL    HW217004   1.215   1.659   9.521  1.1821  1.0973  0.4232
 1849SOL     OW17005   2.331   4.197   0.629 -0.3847  0.3416 -0.4033
 1849SOL    HW117006   2.370   4.249   0.558 -1.7586 -0.0216 -1.4134
 1849SOL    HW217007   2.342   4.257   0.703  3.0941 -0.9457  0.1276
 1850SOL     OW17008   1.540   2.524  17.049 -0.0947 -0.1420  0.6992
 1850SOL    HW117009   1.632   2.500  17.049 -0.5221 -1.7953 -2.1176
 1850SOL    HW217010   1.541   2.587  16.976 -0.5952  0.6345  1.3587
 1851SOL     OW17011   0.355   3.516  13.055 -0.2050 -0.1895 -0.3887
 1851SOL    HW117012   0.362   3.423  13.077 -2.1867 -0.0562  0.8187
 1851SOL    HW217013   0.261   3.529  13.067  0.3899  3.4441  0.3392
 1852SOL     OW17014   4.257   0.961   5.910  0.0345  0.0074  0.0954
 1852SOL    HW117015   4.328   1.012   5.871 -0.2400 -0.6372 -1.2678
 1852SOL    HW217016   4.247   1.008   5.993 -1.4932  1.3323 -0.8524
 1853SOL     OW17017   0.016   3.805   8.208  0.0588 -0.2492  0.0052
 1853SOL    HW117018   4.718   3.886   8.254 -0.9997 -0.2580 -0.4175
 1853SOL    HW217019   0.092   3.827   8.153 -1.9978  1.3669 -2.2020
 1854SOL     OW17020   0.416   2.086   4.072  0.0376  0.2977 -0.0792
 1854SOL    HW117021   0.340   2.105   4.017 -1.6744 -2.1991  1.3924
 1854SOL    HW217022   0.419   1.991   4.058 -0.4464  0.4756 -1.3523
 1855SOL     OW17023   4.366   1.481   3.851  0.1389  0.0233  0.2602
 1855SOL    HW117024   4.410   1.397   3.837  2.8757  1.0381  2.8565
 1855SOL    HW217025   4.360   1.510   3.760  0.9355  1.4957  0.6655
 1856SOL     OW17026   3.998   4.226   8.267  0.4365 -0.2883 -0.5739
 1856SOL    HW117027   4.092   4.220   8.254  0.4766 -1.3905  0.2147
 1856SOL    HW217028   3.999   4.260   8.357  1.6878 -3.1501  0.5076
 1857SOL     OW17029   2.071   3.977   8.538  0.0083 -0.0373  0.0642
 1857SOL    HW117030   2.113   3.911   8.594 -1.8240 -2.9677 -2.0472
 1857SOL    HW217031   2.087   4.054   8.593  4.6506 -0.6473 -0.4356
 1858SOL     OW17032   2.792   2.079   4.210  0.1317  0.0075  0.1296
 1858SOL    HW117033   2.726   2.123   4.158 -0.1738  2.3502  2.5234
 1858SOL    HW217034   2.855   2.063   4.140  1.2668  1.6426  0.7810
 1859SOL     OW17035   2.405   2.434   8.564 -0.0532  0.0109  0.2088
 1859SOL    HW117036   2.394   2.420   8.658 -1.8183 -2.1520 -0.3265
 1859SOL    HW217037   2.324   2.483   8.549 -0.4698  0.3171  3.4530
 1860SOL     OW17038   1.660   1.335   1.339 -0.1333  0.3761 -0.9696
 1860SOL    HW117039   1.682   1.282   1.416  0.6647  1.7549 -0.2565
 1860SOL    HW217040   1.729   1.322   1.273 -0.7698 -0.6094 -1.4539
 1861SOL     OW17041   2.324   2.363   1.356 -0.8512 -0.4054  0.1852
 1861SOL    HW117042   2.360   2.420   1.288 -1.4389  1.7073  1.6293
 1861SOL    HW217043   2.387   2.291   1.353  0.9438  1.1733  0.0399
 1862SOL     OW17044   4.536   1.315   5.172  0.4022  0.2386 -0.2103
 1862SOL    HW117045   4.589   1.239   5.197  0.1434  0.2031  0.2277
 1862SOL    HW217046   4.607   1.378   5.175  1.0987 -0.5726  0.2700
 1863SOL     OW17047   1.085   1.858   1.167  0.3733 -0.2084 -0.7297
 1863SOL    HW117048   1.007   1.809   1.139 -0.2252  0.7001 -0.6727
 1863SOL    HW217049   1.116   1.882   1.080  0.0484  1.0983 -0.4902
 1864SOL     OW17050   4.298   0.655   5.169  0.4648  0.1947  0.0286
 1864SOL    HW117051   4.350   0.725   5.208  0.2456  0.0709  0.5423
 1864SOL    HW217052   4.348   0.632   5.091 -1.3365 -1.1362 -0.7313
 1865SOL     OW17053   2.748   4.446   1.034 -0.4831 -0.8718 -0.0486
 1865SOL    HW117054   2.657   4.429   1.056 -0.5228  0.9731  1.2315
 1865SOL    HW217055   2.748   4.540   1.053  1.9186 -1.2001  1.5749
 1866SOL     OW17056   3.091   2.702  11.898  0.4499  0.4937 -0.0827
 1866SOL    HW117057   3.007   2.702  11.942 -0.1902 -1.0787 -1.2846
 1866SOL    HW217058   3.072   2.674  11.808  1.0824 -2.6221  0.7555
 1867SOL     OW17059   1.338   2.055   3.277  0.0814  0.1502  0.1097
 1867SOL    HW117060   1.386   2.005   3.343  1.5132  1.9953  0.4686
 1867SOL    HW217061   1.341   2.144   3.312 -0.8542  0.1996  0.0442
 1868SOL     OW17062   2.824   2.599   2.372  0.4501 -0.3969  0.4183
 1868SOL    HW117063   2.731   2.593   2.349  0.4205 -0.4327  0.5472
 1868SOL    HW217064   2.831   2.600   2.468 -0.0283  1.2479  0.4335
 1869SOL     OW17065   0.923   4.420   3.420 -0.2719 -0.1264  0.1965
 1869SOL    HW117066   0.833   4.451   3.430 -0.5046  0.0835 -2.7105
 1869SOL    HW217067   0.911   4.345   3.362 -1.1596 -0.4376  0.7799
 1870SOL     OW17068   4.073   2.260  16.567 -0.3590 -0.3000 -0.2401
 1870SOL    HW117069   4.111   2.346  16.547  1.3982 -0.4932  2.1640
 1870SOL    HW217070   3.986   2.268  16.530  0.0906 -2.4590 -1.7351
 1871SOL     OW17071   1.611   1.836  16.951 -0.5320 -1.0827  0.1246
 1871SOL    HW117072   1.626   1.823  17.045 -2.1407 -0.8849  0.4049
 1871SOL    HW217073   1.584   1.928  16.946 -2.5628 -1.5361  2.8718
 1872SOL     OW17074   3.153   0.072   4.118 -0.1568 -0.3622  0.2669
 1872SOL    HW117075   3.194   0.028   4.044 -0.6725 -4.2775  2.3189
 1872SOL    HW217076   3.073   0.106   4.077  1.5496  1.4090 -1.5573
 1873SOL     OW17077   0.577   2.324   2.215  0.3236 -0.8078 -0.0005
 1873SOL    HW117078   0.600   2.345   2.125 -2.0582  3.0670  0.2993
 1873SOL    HW217079   0.621   2.402   2.248  0.1981 -1.1291  0.9549
 1874SOL     OW17080   0.058   3.397  10.657  0.4328  0.5863  0.5443
 1874SOL    HW117081   0.095   3.474  10.702 -0.9354  0.5660  1.7037
 1874SOL    HW217082   0.132   3.339  10.638  1.9268  2.1750  1.4733
 1875SOL     OW17083   3.836   1.595   3.968  0.6644 -0.1748  0.2623
 1875SOL    HW117084   3.913   1.539   3.963  0.8055 -0.0574  1.1699
 1875SOL    HW217085   3.764   1.533   3.980  0.1941  0.5018  0.9184
 1876SOL     OW17086   1.390   2.414   5.436 -0.0834 -0.3396 -0.0001
 1876SOL    HW117087   1.387   2.505   5.408 -0.4235 -0.2135  0.4529
 1876SOL    HW217088   1.469   2.414   5.490 -0.3978 -0.1290  0.4592
 1877SOL     OW17089   0.342   4.223   3.745  0.2040  0.2481  0.3266
 1877SOL    HW117090   0.383   4.157   3.689  1.3503  2.1041 -1.0125
 1877SOL    HW217091   0.406   4.294   3.747  1.7506 -1.2053  2.0668
 1878SOL     OW17092   2.080   4.245   0.502 -0.2158  0.3416  0.4520
 1878SOL    HW117093   2.172   4.225   0.521 -0.2273  2.2332  2.5875
 1878SOL    HW217094   2.062   4.304   0.575 -0.4893 -1.1435  1.5983
 1879SOL     OW17095   3.821   1.489   5.195  0.1454 -0.1548  0.0964
 1879SOL    HW117096   3.730   1.515   5.181 -0.3282 -1.5049  0.6569
 1879SOL    HW217097   3.840   1.443   5.113 -0.3629  0.0985 -0.1626
 1880SOL     OW17098   0.356   2.215  15.711 -0.3903  0.1143  0.1257
 1880SOL    HW117099   0.300   2.175  15.778 -0.4325 -0.9366 -0.5448
 1880SOL    HW217100   0.333   2.175  15.627  1.3378 -0.2043 -0.1870
 1881SOL     OW17101   4.294   4.716   1.279  0.4305  0.1823  0.1365
 1881SOL    HW117102   4.211   4.708   1.232  1.5723 -2.0383 -1.4828
 1881SOL    HW217103   4.331   0.060   1.220  0.0256  0.2357 -0.0546
 1882SOL     OW17104   2.484   1.653   8.193  0.2977  0.5489  0.0617
 1882SOL    HW117105   2.440   1.580   8.236 -1.8568  1.2368 -0.9263
 1882SOL    HW217106   2.487   1.632   8.100  0.2637  0.6172  0.0449
 1883SOL     OW17107   3.264   2.981  11.429  0.2367  0.7707 -0.1391
 1883SOL    HW117108   3.355   2.970  11.400 -0.4787  0.5926 -2.3226
 1883SOL    HW217109   3.261   3.044  11.500 -3.2831 -3.8190  3.7860
 1884SOL     OW17110   3.946   4.356   6.804  0.2497  0.3014  0.5832
 1884SOL    HW117111   4.015   4.318   6.859  1.3519 -1.0364 -1.7180
 1884SOL    HW217112   3.872   4.313   6.846  0.0022  1.0130  0.8683
 1885SOL     OW17113   0.927   0.778  16.422 -0.2502  0.7885  0.2590
 1885SOL    HW117114   0.935   0.683  16.421  0.2978  0.8633 -1.4856
 1885SOL    HW217115   0.894   0.789  16.511  1.0520 -0.6999  0.9262
 1886SOL     OW17116   0.741   1.000   9.568  0.6978 -0.5191 -0.0797
 1886SOL    HW117117   0.812   1.051   9.529 -1.3415  1.3408 -1.3156
 1886SOL    HW217118   0.705   0.967   9.486 -0.2794 -0.5991  0.3774
 1887SOL     OW17119   0.032   2.052   8.579  0.3968  0.3557 -0.4741
 1887SOL    HW117120   4.706   1.977   8.617 -1.0882  2.1218  1.1287
 1887SOL    HW217121   0.058   2.107   8.653  2.1437 -1.4589  0.2562
 1888SOL     OW17122   1.205   3.129   5.371  0.0526  0.8561  0.1604
 1888SOL    HW117123   1.225   3.196   5.436  1.3040  1.1463 -0.5086
 1888SOL    HW217124   1.289   3.119   5.325  0.3366 -1.4654  1.2182
 1889SOL     OW17125   3.304   1.280   7.896 -0.4598 -0.1223  0.0061
 1889SOL    HW117126   3.229   1.293   7.954 -1.4577  2.0626 -1.7874
 1889SOL    HW217127   3.256   1.224   7.835  1.4552 -0.1134 -1.5128
 1890SOL     OW17128   2.428   0.959   8.434 -0.0130 -0.1619 -0.0632
 1890SOL    HW117129   2.475   1.036   8.466 -2.2630  1.1331  0.1630
 1890SOL    HW217130   2.384   0.938   8.517  1.0973  1.0161  0.8246
 1891SOL     OW17131   0.648   3.282   4.729  0.0813  0.6516  0.2649
 1891SOL    HW117132   0.744   3.289   4.735  0.2798 -0.0226 -1.9372
 1891SOL    HW217133   0.637   3.293   4.634 -0.8595 -0.8678  0.2070
 1892SOL     OW17134   4.454   3.083   7.262  0.0517  0.1127  0.3886
 1892SOL    HW117135   4.378   3.120   7.307 -0.6969  0.9152 -1.5509
 1892SOL    HW217136   4.517   3.126   7.319 -0.6696 -1.2059  2.1792
 1893SOL     OW17137   3.239   1.141   8.934 -0.0321  0.1334  0.3057
 1893SOL    HW117138   3.297   1.191   8.877  0.2830 -0.5939 -0.0131
 1893SOL    HW217139   3.173   1.204   8.963  0.4432  1.1273 -0.7884
 1894SOL     OW17140   4.045   4.380   1.940  0.0725  0.4184  0.0950
 1894SOL    HW117141   3.958   4.409   1.913  0.8416  1.6432 -1.1168
 1894SOL    HW217142   4.102   4.456   1.925  1.0694 -0.3660 -0.0430
 1895SOL     OW17143   1.438   4.104  16.519 -0.3869 -0.2797 -0.3009
 1895SOL    HW117144   1.373   4.045  16.481  1.6846 -3.1828  0.6923
 1895SOL    HW217145   1.495   4.035  16.552  0.7609  0.3723 -0.9162
 1896SOL     OW17146   1.794   4.166   0.114 -0.5767  1.1064  0.2676
 1896SOL    HW117147   1.778   4.155   0.021 -0.0355 -2.1055  0.5647
 1896SOL    HW217148   1.888   4.183   0.123  0.0892 -1.6770 -1.2887
 1897SOL     OW17149   3.342   3.786  11.930 -0.2714 -0.3234 -0.4547
 1897SOL    HW117150   3.322   3.877  11.952  1.9307  0.4540 -1.7247
 1897SOL    HW217151   3.404   3.796  11.858 -0.4299 -0.9711 -0.6784
 1898SOL     OW17152   4.653   1.647   8.464 -0.2671 -0.0387 -0.6602
 1898SOL    HW117153   4.636   1.578   8.400  3.2561  0.3723 -1.9972
 1898SOL    HW217154   4.719   1.616   8.526  0.4105  1.3967 -0.6618
 1899SOL     OW17155   2.757   0.652   1.408 -0.0380 -0.0430  0.5404
 1899SOL    HW117156   2.705   0.637   1.487  0.3371  0.3875  0.8719
 1899SOL    HW217157   2.693   0.686   1.345  0.1342 -1.6817 -0.5183
 1900SOL     OW17158   2.487   2.775   4.615  0.1964 -0.9180 -0.3213
 1900SOL    HW117159   2.563   2.723   4.642  0.6958  0.9083  1.8063
 1900SOL    HW217160   2.478   2.752   4.523  1.3643 -0.0173 -0.6639
 1901SOL     OW17161   3.979   0.370  14.375  0.0400  0.5387 -0.0170
 1901SOL    HW117162   4.063   0.329  14.394  0.1200  0.0402 -1.4465
 1901SOL    HW217163   3.913   0.302  14.392 -0.0698  1.7438  4.4297
 1902SOL     OW17164   1.642   0.556  13.336  0.1567 -0.3869  0.0879
 1902SOL    HW117165   1.603   0.478  13.296  0.2894 -0.4868  0.1532
 1902SOL    HW217166   1.619   0.621  13.269  3.3830 -0.0650 -0.7363
 1903SOL     OW17167   0.876   3.859   5.119 -0.4178  0.2564  0.6306
 1903SOL    HW117168   0.961   3.815   5.113 -1.5710 -2.2082  2.1912
 1903SOL    HW217169   0.903   3.940   5.162 -1.6410  0.9063  0.1917
 1904SOL     OW17170   0.864   1.775   5.583  0.2643  0.1345  0.0937
 1904SOL    HW117171   0.820   1.800   5.664  0.8156  0.7563  0.2036
 1904SOL    HW217172   0.941   1.832   5.584 -0.5537  1.2620 -1.1525
 1905SOL     OW17173   3.930   3.134   2.674 -0.2922  0.3364 -0.0306
 1905SOL    HW117174   4.002   3.135   2.736 -0.0554 -1.5398 -0.2676
 1905SOL    HW217175   3.960   3.187   2.600  1.1305  0.1874  0.4539
 1906SOL     OW17176   2.251   1.125   5.219 -0.2926  0.6058 -0.0097
 1906SOL    HW117177   2.200   1.150   5.142  0.8523 -0.4377 -1.1078
 1906SOL    HW217178   2.332   1.102   5.173 -1.2257  0.3726 -1.5087
 1907SOL     OW17179   1.127   4.488  10.043  0.4741  0.6729 -0.1598
 1907SOL    HW117180   1.110   4.566  10.096 -2.8515  0.3933 -0.8407
 1907SOL    HW217181   1.221   4.499  10.028  0.7557  0.3712  1.3909
 1908SOL     OW17182   4.380   3.296  15.796 -0.1136 -0.4145 -0.6148
 1908SOL    HW117183   4.359   3.238  15.722  0.4214  2.3179 -2.9144
 1908SOL    HW217184   4.293   3.327  15.821 -0.2630  0.9405 -2.7759
 1909SOL     OW17185   0.092   3.989   5.842 -0.2608  0.1238  0.3059
 1909SOL    HW117186   0.006   4.021   5.814 -0.7103  0.5169  2.1475
 1909SOL    HW217187   0.116   4.046   5.915  0.7246 -1.3283  1.0985
 1910SOL     OW17188   1.405   0.794   0.797  0.0158 -0.6939 -0.6829
 1910SOL    HW117189   1.425   0.704   0.771  1.2419  0.2816 -3.1708
 1910SOL    HW217190   1.403   0.834   0.709  2.5552  0.2581 -0.3063
 1911SOL     OW17191   3.473   0.224   8.583  0.5008  0.1717  0.1450
 1911SOL    HW117192   3.487   0.204   8.490  2.6467 -1.2651  0.7614
 1911SOL    HW217193   3.420   0.303   8.576 -0.0706 -0.3064 -0.8912
 1912SOL     OW17194   1.385   0.790   6.777  0.6782 -0.2825  0.4324
 1912SOL    HW117195   1.370   0.856   6.845 -2.7653  1.6544 -2.2428
 1912SOL    HW217196   1.314   0.818   6.720  0.4406 -0.4799  0.6267
 1913SOL     OW17197   3.852   1.824   4.343  0.4116  0.2982 -0.1205
 1913SOL    HW117198   3.777   1.796   4.395  1.1081  0.3681  0.9289
 1913SOL    HW217199   3.820   1.838   4.254  1.2626 -1.8972 -0.7654
 1914SOL     OW17200   3.228   0.233   0.065  0.3134 -0.5177 -0.3273
 1914SOL    HW117201   3.164   0.303   0.077  0.7188 -0.2790  0.4846
 1914SOL    HW217202   3.267   0.245   0.151 -1.6852  0.4059  0.4520
 1915SOL     OW17203   2.440   2.043  10.492  0.4776  0.4404 -0.2377
 1915SOL    HW117204   2.384   2.121  10.499  1.3548  1.1870 -1.4843
 1915SOL    HW217205   2.518   2.089  10.458 -0.2982  1.4527 -0.6564
 1916SOL     OW17206   1.869   2.825  10.068  0.0327  0.3231  0.4024
 1916SOL    HW117207   1.789   2.876  10.081 -0.5273 -0.4968  0.1417
 1916SOL    HW217208   1.833   2.737  10.058 -1.2352  0.9538 -0.6296
 1917SOL     OW17209   2.810   0.688  12.650  0.0003  0.2215 -0.7489
 1917SOL    HW117210   2.874   0.720  12.586 -1.1472  2.0305 -0.9818
 1917SOL    HW217211   2.797   0.604  12.607  0.6305  0.0191 -0.5456
 1918SOL     OW17212   0.247   0.235   7.129  0.0941  0.3084  0.0187
 1918SOL    HW117213   0.231   0.317   7.174 -2.2835 -0.3681  0.4187
 1918SOL    HW217214   0.173   0.246   7.068 -0.9676  0.1259  1.2687
 1919SOL     OW17215   0.192   2.787   6.892  0.0899  0.2323 -0.4574
 1919SOL    HW117216   0.277   2.779   6.935 -0.1090 -0.7758 -0.2396
 1919SOL    HW217217   0.197   2.880   6.871 -0.8529  0.1839 -0.9014
 1920SOL     OW17218   1.573   4.043  15.710  0.1117  0.2853  0.5284
 1920SOL    HW117219   1.574   4.035  15.615 -0.1564 -0.3728  0.5770
 1920SOL    HW217220   1.664   4.022  15.730  0.3196  2.6576  2.1438
 1921SOL     OW17221   1.041   1.766   3.541 -0.3413  0.2252  0.2214
 1921SOL    HW117222   0.971   1.810   3.493 -0.6676 -1.2410 -0.6214
 1921SOL    HW217223   1.088   1.727   3.468 -0.7320 -1.9257  1.1178
 1922SOL     OW17224   3.717   2.631   4.347  0.0586 -0.6048  0.2026
 1922SOL    HW117225   3.701   2.641   4.253 -0.7042 -0.7529  0.3210
 1922SOL    HW217226   3.701   2.537   4.352  0.7681 -0.6678  1.4412
 1923SOL     OW17227   4.381   2.773   6.130 -0.3142  0.0961 -0.1803
 1923SOL    HW117228   4.452   2.741   6.076 -0.6174 -0.4328 -0.2637
 1923SOL    HW217229   4.396   2.868   6.129 -1.4507  0.2875  0.4362
 1924SOL     OW17230   1.566   4.193  11.752  0.4578  0.6625 -0.1305
 1924SOL    HW117231   1.534   4.173  11.665 -0.0916 -0.0432  0.2276
 1924SOL    HW217232   1.491   4.230  11.798  0.5787 -0.3455  0.9018
 1925SOL     OW17233   0.942   2.331   7.825  0.0796 -0.3622 -0.2789
 1925SOL    HW117234   0.951   2.240   7.798 -0.1623  0.2552 -2.4173
 1925SOL    HW217235   0.976   2.379   7.749  2.2917 -2.7467 -0.7746
 1926SOL     OW17236   3.046   0.900   4.051 -0.4501  0.6165  0.0670
 1926SOL    HW117237   3.072   0.965   4.117  0.7425  0.1853  0.0242
 1926SOL    HW217238   3.082   0.937   3.970 -0.5564  0.7073  0.0613
 1927SOL     OW17239   2.707   0.599   5.276 -0.2094  0.1938  0.0038
 1927SOL    HW117240   2.783   0.544   5.297  1.1539  1.6339 -1.0869
 1927SOL    HW217241   2.635   0.541   5.299  0.6894 -0.3367  1.5264
 1928SOL     OW17242   2.858   2.900   2.972  0.4229  0.6160  0.2541
 1928SOL    HW117243   2.763   2.897   2.986  0.2662 -1.4828 -1.1853
 1928SOL    HW217244   2.860   2.880   2.878 -0.5005  2.5319 -0.1525
 1929SOL     OW17245   2.949   1.071   3.419 -0.4709 -0.4583 -0.6721
 1929SOL    HW117246   2.949   1.003   3.486 -0.2771  1.5733  1.3767
 1929SOL    HW217247   2.993   1.027   3.346  0.8030 -0.6112  0.1774
 1930SOL     OW17248   4.566   2.498   4.423 -0.0390 -0.1958 -0.9693
 1930SOL    HW117249   4.471   2.499   4.411 -0.3269 -1.2219  1.2534
 1930SOL    HW217250   4.604   2.488   4.336 -0.5323  2.8589 -1.5346
 1931SOL     OW17251   1.479   1.502   3.044  0.1523 -0.5916 -0.3874
 1931SOL    HW117252   1.556   1.497   3.100  0.7898  2.0646 -0.9839
 1931SOL    HW217253   1.441   1.577   3.090 -1.5499 -1.7937  0.1307
 1932SOL     OW17254   3.272   1.545   6.152  0.3006 -0.4566 -0.1152
 1932SOL    HW117255   3.228   1.539   6.067  1.2111 -1.5624 -0.5111
 1932SOL    HW217256   3.356   1.583   6.124 -0.4916  0.9944 -0.5605
 1933SOL     OW17257   3.803   2.037   1.976 -0.3014 -0.0449 -0.0728
 1933SOL    HW117258   3.841   2.060   1.891 -1.3734  0.6026 -0.3880
 1933SOL    HW217259   3.737   1.983   1.932 -0.8822 -0.1530  0.9219
 1934SOL     OW17260   2.481   2.233   9.907 -0.5672  0.4842 -0.8502
 1934SOL    HW117261   2.536   2.190   9.842 -0.8681 -1.3754  0.1339
 1934SOL    HW217262   2.410   2.268   9.853 -1.2549 -1.0581 -0.9448
 1935SOL     OW17263   3.638   0.433   2.377 -0.4515 -0.4152 -0.4534
 1935SOL    HW117264   3.678   0.347   2.362 -0.6128 -0.5080 -0.3442
 1935SOL    HW217265   3.570   0.431   2.310 -1.1631 -0.0514  0.2595
 1936SOL     OW17266   3.120   0.208   8.450 -0.4688  0.2225  0.3854
 1936SOL    HW117267   3.101   0.292   8.408 -0.1299 -0.3581 -0.9080
 1936SOL    HW217268   3.135   0.236   8.541 -1.6112 -1.9149  1.2408
 1937SOL     OW17269   4.498   3.315   6.216  0.3874  0.3470 -0.4846
 1937SOL    HW117270   4.433   3.384   6.203  2.6959  2.9277  1.5021
 1937SOL    HW217271   4.550   3.355   6.286  2.9341 -3.1117 -0.4159
 1938SOL     OW17272   2.859   0.203   0.122 -0.2915  0.4904 -0.8375
 1938SOL    HW117273   2.806   0.279   0.143  0.2626  0.4259  0.7828
 1938SOL    HW217274   2.856   0.204   0.026  0.9741  2.9901 -0.8456
 1939SOL     OW17275   1.999   0.261   7.313 -0.2354  0.1599 -0.3389
 1939SOL    HW117276   1.992   0.306   7.397  1.3338  2.0845 -1.2509
 1939SOL    HW217277   2.090   0.286   7.295  0.3190 -1.2369  0.4592
 1940SOL     OW17278   4.004   3.173   3.901 -0.3605  0.3037 -0.0361
 1940SOL    HW117279   3.981   3.199   3.812  0.5405  3.2039  0.5968
 1940SOL    HW217280   3.915   3.153   3.928  0.5986 -3.1820  0.5534
 1941SOL     OW17281   0.725   3.086   1.734 -0.0566 -0.2672 -0.4969
 1941SOL    HW117282   0.663   3.130   1.793 -0.3454 -0.4178 -0.6888
 1941SOL    HW217283   0.719   3.143   1.658 -1.1950  0.5636  0.2236
 1942SOL     OW17284   0.877   3.345  17.459 -0.2835 -0.3119  0.3282
 1942SOL    HW117285   0.935   3.274  17.487  1.3521  0.4042 -1.2565
 1942SOL    HW217286   0.875   3.322  17.366 -0.7310 -0.6496  0.4237
 1943SOL     OW17287   1.882   3.362   1.384 -0.1187 -0.1824 -0.1034
 1943SOL    HW117288   1.832   3.444   1.381  0.2821  0.1728  2.4359
 1943SOL    HW217289   1.868   3.325   1.297  2.6312 -2.2331  0.3215
 1944SOL     OW17290   1.739   0.841  11.228  0.4300 -0.1915 -0.2226
 1944SOL    HW117291   1.676   0.866  11.160 -0.4692 -0.8969  0.3558
 1944SOL    HW217292   1.716   0.750  11.247 -2.1791  0.6499  0.7010
 1945SOL     OW17293   1.947   4.535   4.784 -0.0637 -0.3246  0.2413
 1945SOL    HW117294   2.032   4.513   4.746 -0.7145 -1.1155 -0.7455
 1945SOL    HW217295   1.916   4.599   4.719 -1.7587  0.2907  1.6581
 1946SOL     OW17296   0.142   2.406   3.314  0.3946  0.6272  0.2879
 1946SOL    HW117297   0.174   2.447   3.234 -0.4291  1.0993  0.1977
 1946SOL    HW217298   0.203   2.436   3.382 -1.2441  1.7670  1.2580
 1947SOL     OW17299   1.904   4.141  14.032 -0.1369 -0.3997  0.1071
 1947SOL    HW117300   1.903   4.055  13.990 -3.1050  0.6842 -2.0408
 1947SOL    HW217301   1.971   4.124  14.097 -0.7693  1.5866  1.2802
 1948SOL     OW17302   3.843   2.079   4.516  0.4738 -0.5520 -0.1574
 1948SOL    HW117303   3.776   2.016   4.489 -0.7917  0.9104 -0.3808
 1948SOL    HW217304   3.809   2.164   4.489  1.4205 -0.3564 -0.7145
 1949SOL     OW17305   2.707   2.056   7.300  0.6598 -0.5228 -0.3149
 1949SOL    HW117306   2.623   2.093   7.272 -0.6827 -3.0931  0.3527
 1949SOL    HW217307   2.733   1.995   7.231 -1.4295 -1.0440 -0.6404
 1950SOL     OW17308   2.051   2.019  15.083  0.0232 -0.1851  0.3884
 1950SOL    HW117309   2.036   1.975  15.000  0.0551 -1.6796  1.1754
 1950SOL    HW217310   2.123   2.076  15.057  0.2518 -1.6085 -2.0777
 1951SOL     OW17311   2.536   3.578   3.817 -0.2820 -0.1341  0.3621
 1951SOL    HW117312   2.464   3.638   3.832  0.3166  0.5423  0.5496
 1951SOL    HW217313   2.514   3.510   3.881  0.2817 -1.7963 -1.1791
 1952SOL     OW17314   3.926   4.265  16.416  0.3983  0.5046 -0.6205
 1952SOL    HW117315   3.978   4.216  16.352  1.3197 -0.7708  1.1250
 1952SOL    HW217316   3.883   4.204  16.475  2.9917  0.7618  1.4891
 1953SOL     OW17317   0.553   4.196  16.970 -0.0873 -0.3616 -0.4280
 1953SOL    HW117318   0.560   4.128  16.903 -0.2024  0.5449 -1.3621
 1953SOL    HW217319   0.499   4.150  17.034  1.3703 -1.1187  0.2554
 1954SOL     OW17320   0.778   1.509  13.149  0.2486 -0.2000  0.7149
 1954SOL    HW117321   0.729   1.457  13.213 -2.9304  2.2115  0.2939
 1954SOL    HW217322   0.823   1.568  13.209 -2.4349  0.6502  1.8986
 1955SOL     OW17323   0.959   2.411   2.998 -0.1311 -0.4413  0.3140
 1955SOL    HW117324   0.966   2.424   3.093 -4.0613  1.1985  0.3781
 1955SOL    HW217325   0.871   2.447   2.988 -0.8821 -2.3343  0.3003
 1956SOL     OW17326   1.585   3.181   8.272  0.1169 -0.2017 -0.3621
 1956SOL    HW117327   1.510   3.170   8.330 -0.2170 -1.7018 -1.0820
 1956SOL    HW217328   1.650   3.221   8.330  0.6149 -0.6885 -0.5900
 1957SOL     OW17329   1.490   4.519   6.403  0.2551 -0.0028 -0.5821
 1957SOL    HW117330   1.454   4.443   6.448  1.0047  0.0238  0.0599
 1957SOL    HW217331   1.417   4.581   6.407 -1.6816 -2.2899 -0.3834
 1958SOL     OW17332   1.383   2.756   9.727  0.2401 -0.4844  0.0987
 1958SOL    HW117333   1.462   2.797   9.691 -0.9340  1.5562 -0.1833
 1958SOL    HW217334   1.387   2.673   9.680  0.4376 -0.7977  0.6590
 1959SOL     OW17335   0.183   4.674  14.722  0.0447  0.1014  0.2693
 1959SOL    HW117336   0.209   4.676  14.815  0.0430 -0.7701  0.2935
 1959SOL    HW217337   0.203   0.038  14.684  2.1287  0.9934  3.3428
 1960SOL     OW17338   3.502   2.369  15.215 -0.2440  0.3652  0.0799
 1960SOL    HW117339   3.543   2.307  15.275  1.1916  0.1582 -1.1278
 1960SOL    HW217340   3.516   2.451  15.262 -0.5550  1.4695 -1.7705
 1961SOL     OW17341   1.510   4.605   2.063 -0.9005 -0.7688 -0.0819
 1961SOL    HW117342   1.563   4.654   2.000 -1.1979  1.0341  1.0873
 1961SOL    HW217343   1.516   4.654   2.145  0.3640 -1.0824  0.0195
 1962SOL     OW17344   3.443   4.571  17.548  0.4819 -0.0244  0.7195
 1962SOL    HW117345   3.369   4.630  17.565  0.8992  0.0359  2.2342
 1962SOL    HW217346   3.511   4.637  17.557 -0.6285  1.1532  0.5862
 1963SOL     OW17347   2.189   1.593   6.231 -0.2378  0.3241 -0.0817
 1963SOL    HW117348   2.226   1.515   6.191 -3.0587 -0.1401 -1.7282
 1963SOL    HW217349   2.100   1.571   6.258 -1.2641 -0.3610 -4.1233
 1964SOL     OW17350   1.793   4.064   3.817 -0.7208  0.0393  0.0451
 1964SOL    HW117351   1.820   3.997   3.880  0.3801 -0.5311 -1.0461
 1964SOL    HW217352   1.874   4.116   3.815 -0.2545 -0.8148 -2.7269
 1965SOL     OW17353   2.368   1.537   3.348  0.3571 -0.1949 -0.1255
 1965SOL    HW117354   2.350   1.625   3.315 -0.1060 -0.5325 -0.7673
 1965SOL    HW217355   2.338   1.548   3.438  2.4413 -1.7822  0.7676
 1966SOL     OW17356   4.539   3.676   5.473  0.0974 -0.2623 -0.2808
 1966SOL    HW117357   4.484   3.648   5.400  0.2479  3.3038 -1.7957
 1966SOL    HW217358   4.509   3.767   5.480 -1.1611 -0.7860  1.0981
 1967SOL     OW17359   4.053   4.651  17.533  0.2199  0.1597  0.1391
 1967SOL    HW117360   4.034   4.690  17.619  0.0922  0.6821 -0.1240
 1967SOL    HW217361   4.021   0.005  17.483 -0.1307 -0.3385 -0.3794
 1968SOL     OW17362   1.950   3.348   6.021  0.5852 -0.7970  0.5515
 1968SOL    HW117363   1.940   3.419   6.084  2.8538  1.8170 -2.0355
 1968SOL    HW217364   1.863   3.307   6.016 -0.2126  0.9551  0.1927
 1969SOL     OW17365   1.726   4.328  16.270  0.1897  0.1329  0.0210
 1969SOL    HW117366   1.771   4.413  16.277  1.5531 -0.6565  0.7704
 1969SOL    HW217367   1.719   4.325  16.175 -1.2639 -0.8700  0.1660
 1970SOL     OW17368   2.781   1.974   2.086  1.5994  0.2348 -0.5642
 1970SOL    HW117369   2.752   2.013   2.003  1.2060 -1.9231 -1.4495
 1970SOL    HW217370   2.862   2.024   2.102  1.2804  0.7386 -0.5255
 1971SOL     OW17371   2.988   3.000  16.932 -0.1476  0.0920  0.1536
 1971SOL    HW117372   2.983   2.998  16.837 -0.7829  3.7956  0.1318
 1971SOL    HW217373   2.900   3.032  16.949  1.3593  3.7025  1.1080
 1972SOL     OW17374   2.325   0.579   1.189  0.1365  0.4386 -0.4319
 1972SOL    HW117375   2.275   0.656   1.214  0.4896  0.2381  0.9013
 1972SOL    HW217376   2.315   0.513   1.258 -0.7895  1.6386  0.5868
 1973SOL     OW17377   0.822   1.134  11.521  0.1590 -0.0197  0.7497
 1973SOL    HW117378   0.890   1.174  11.466 -0.1914 -0.0708  0.2787
 1973SOL    HW217379   0.844   1.042  11.531 -0.7051 -0.4015 -0.8338
 1974SOL     OW17380   2.509   2.864   6.729 -0.1404  0.1101  0.1045
 1974SOL    HW117381   2.564   2.913   6.668  0.8811  0.4893  1.3398
 1974SOL    HW217382   2.424   2.909   6.722  1.4910  3.3258  0.9147
 1975SOL     OW17383   4.109   1.936  13.431  0.7242 -0.0101  0.1334
 1975SOL    HW117384   4.162   1.980  13.364  0.5058  0.5727  0.3461
 1975SOL    HW217385   4.120   1.843  13.415 -2.8421  0.1528 -3.2292
 1976SOL     OW17386   2.575   4.585   0.764  0.2672  0.3113  0.2787
 1976SOL    HW117387   2.662   4.545   0.758  0.8467  1.3690  1.6186
 1976SOL    HW217388   2.527   4.508   0.795 -0.6662  0.9354  0.3935
 1977SOL     OW17389   0.870   3.542   0.328 -0.1871  0.2551 -0.8113
 1977SOL    HW117390   0.898   3.612   0.387  0.6625  1.6582 -2.8744
 1977SOL    HW217391   0.825   3.494   0.397  2.6721  0.0432  0.9179
 1978SOL     OW17392   0.778   3.032   7.937  0.2942 -0.0487  0.1231
 1978SOL    HW117393   0.869   3.056   7.954  0.6990  0.3615 -2.5983
 1978SOL    HW217394   0.795   2.938   7.949  0.9770  0.1361  0.5912
 1979SOL     OW17395   2.469   4.003  13.267 -0.0059  0.0663  0.1961
 1979SOL    HW117396   2.432   3.951  13.195 -1.2962  0.7101  0.4016
 1979SOL    HW217397   2.560   4.017  13.240 -0.6982  1.0746 -1.6128
 1980SOL     OW17398   2.155   3.956   8.263 -0.8356  0.0616  0.0026
 1980SOL    HW117399   2.099   3.995   8.330 -4.1654 -2.2336 -1.4779
 1980SOL    HW217400   2.222   4.025   8.259  0.9560 -1.5590  2.1360
 1981SOL     OW17401   1.235   0.010   9.278  0.4741 -0.3315  0.0559
 1981SOL    HW117402   1.218   0.103   9.292 -1.0125 -0.3140 -1.7989
 1981SOL    HW217403   1.329   0.001   9.259  0.7864  3.0397 -0.0034
 1982SOL     OW17404   1.840   0.926   7.130 -0.2282  0.1766  0.1910
 1982SOL    HW117405   1.870   0.971   7.051  0.7990 -1.1325 -0.1661
 1982SOL    HW217406   1.913   0.949   7.188  0.2595  0.6203 -0.6025
 1983SOL     OW17407   2.097   4.324   3.210 -0.7077 -0.1007  0.4700
 1983SOL    HW117408   2.099   4.379   3.132 -0.4024 -1.5485 -0.5587
 1983SOL    HW217409   2.189   4.300   3.209 -0.2450  1.7297  0.1171
 1984SOL     OW17410   2.599   0.073   3.872 -0.3167 -0.0243 -0.1198
 1984SOL    HW117411   2.515   0.061   3.916 -0.4703  1.6477  0.0558
 1984SOL    HW217412   2.580   0.146   3.813 -1.4905 -1.1721 -1.1749
 1985SOL     OW17413   3.284   2.045   6.609 -0.2827  0.4959 -0.2374
 1985SOL    HW117414   3.317   1.971   6.660  1.7216  0.3451 -1.7481
 1985SOL    HW217415   3.341   2.037   6.532 -0.6627 -0.1117 -0.4526
 1986SOL     OW17416   3.056   0.210   3.232  0.2670 -0.1075 -0.1768
 1986SOL    HW117417   3.102   0.228   3.314  2.4443  0.3128 -1.4784
 1986SOL    HW217418   3.103   0.138   3.190 -2.5610 -0.8184 -2.0949
 1987SOL     OW17419   0.563   0.381   5.800 -0.2524  0.0813 -0.2826
 1987SOL    HW117420   0.516   0.461   5.776  0.6429  0.5168 -0.5930
 1987SOL    HW217421   0.636   0.395   5.741  1.0410 -2.1508  0.7783
 1988SOL     OW17422   0.773   2.238   3.340 -0.6728  1.0466  0.2632
 1988SOL    HW117423   0.854   2.256   3.291 -1.2183 -0.9439 -1.3840
 1988SOL    HW217424   0.723   2.312   3.305 -0.3337  0.7092 -0.9558
 1989SOL     OW17425   2.748   2.073   3.287 -0.2515  0.2869  0.5588
 1989SOL    HW117426   2.718   2.034   3.369 -1.1876 -0.9397 -0.3600
 1989SOL    HW217427   2.710   2.007   3.229  0.5936  0.5040 -0.2396
 1990SOL     OW17428   4.719   0.151   2.952 -0.4747 -0.0309 -0.2564
 1990SOL    HW117429   4.690   0.225   2.899 -1.2775  0.8877  1.4776
 1990SOL    HW217430   0.031   0.100   2.878 -1.0811  0.1976 -0.6854
 1991SOL     OW17431   3.020   0.175   2.824  0.0965  0.1645 -0.4003
 1991SOL    HW117432   2.927   0.175   2.799  0.0117  0.7729 -0.0934
 1991SOL    HW217433   3.018   0.237   2.897 -5.0039  1.7423 -1.8575
 1992SOL     OW17434   3.178   4.713   8.285  0.7150  0.0040 -0.5141
 1992SOL    HW117435   3.198   4.673   8.370 -2.4861  2.6015  1.4722
 1992SOL    HW217436   3.178   0.082   8.318  0.6608 -0.9981  2.2574
 1993SOL     OW17437   1.801   1.551   7.311  0.1395 -0.5281  0.1119
 1993SOL    HW117438   1.812   1.517   7.222  0.0434  0.2083 -0.1870
 1993SOL    HW217439   1.868   1.499   7.354  1.2078 -0.1137 -1.0444
 1994SOL     OW17440   1.467   4.097  16.172 -0.1167 -0.6690  0.4604
 1994SOL    HW117441   1.427   4.086  16.086 -1.1350 -1.7127  1.0581
 1994SOL    HW217442   1.434   4.182  16.201  1.0112 -0.3740  0.8572
 1995SOL     OW17443   0.554   2.279   4.543  0.0961 -0.2539 -0.4927
 1995SOL    HW117444   0.497   2.246   4.474  0.2400 -1.1995 -0.1526
 1995SOL    HW217445   0.629   2.221   4.531  0.2190 -0.0850 -0.5530
 1996SOL     OW17446   0.853   3.896   2.684 -0.3981 -0.1220 -0.0494
 1996SOL    HW117447   0.840   3.972   2.739 -1.8958  0.1396 -0.7550
 1996SOL    HW217448   0.826   3.928   2.598  1.8610 -0.2830 -0.8097
 1997SOL     OW17449   3.748   1.346   8.032  0.4083 -0.0075 -0.4122
 1997SOL    HW117450   3.768   1.439   8.020 -1.0379  0.5718  1.7582
 1997SOL    HW217451   3.656   1.357   8.056  1.0794  4.6459  0.0236
 1998SOL     OW17452   3.789   0.394   2.108 -0.1191 -0.1326  0.1172
 1998SOL    HW117453   3.719   0.434   2.055  0.9441 -0.8395 -1.8207
 1998SOL    HW217454   3.848   0.465   2.130 -0.4525  0.1658  0.0569
 1999SOL     OW17455   2.629   0.273   2.280 -0.0227 -0.4776  0.2782
 1999SOL    HW117456   2.554   0.326   2.308 -0.1305  0.1677 -1.2398
 1999SOL    HW217457   2.660   0.232   2.360 -0.1666 -0.0542  0.5482
 2000SOL     OW17458   0.021   2.167  13.326  0.2159 -0.0450  0.4217
 2000SOL    HW117459   0.022   2.169  13.231 -1.8932 -3.5261  0.3434
 2000SOL    HW217460   4.654   2.193  13.351 -0.0125  1.0203 -1.5116
 2001SOL     OW17461   0.890   0.062  16.918 -0.2236 -0.2677  0.2810
 2001SOL    HW117462   0.851   4.696  16.922 -0.2813 -0.1931  1.3366
 2001SOL    HW217463   0.878   0.109  17.001 -1.2749  0.5188 -0.3144
 2002SOL     OW17464   1.904   4.340   2.236  0.4418  0.6385  0.3007
 2002SOL    HW117465   1.894   4.245   2.239 -0.8747  0.7107 -1.9007
 2002SOL    HW217466   1.831   4.354   2.176  0.1207  0.6277  0.6918
 2003SOL     OW17467   3.077   2.150   9.836 -0.3865 -0.3046 -0.9671
 2003SOL    HW117468   2.994   2.107   9.817  0.9945 -3.0263 -0.8773
 2003SOL    HW217469   3.126   2.069   9.853  0.4281  0.5654  0.9031
 2004SOL     OW17470   2.022   2.845  13.055  0.1757 -0.1286  0.8425
 2004SOL    HW117471   1.929   2.858  13.072  0.4355  2.2041  0.5808
 2004SOL    HW217472   2.060   2.923  13.096 -1.6703  0.8183  0.7255
 2005SOL     OW17473   1.207   3.355   2.029 -0.2126 -0.7114 -0.7750
 2005SOL    HW117474   1.246   3.314   2.106  0.1517  2.4397  0.6843
 2005SOL    HW217475   1.115   3.356   2.053  0.1180 -1.9434  0.5862
 2006SOL     OW17476   4.149   2.062  16.344  0.0520  0.5097  0.3288
 2006SOL    HW117477   4.137   2.143  16.392 -2.6417  0.6676 -0.5676
 2006SOL    HW217478   4.158   2.105  16.259 -0.3339 -0.5566 -0.2593
 2007SOL     OW17479   3.025   4.530   7.115 -0.6771  0.2556 -0.0824
 2007SOL    HW117480   3.103   4.509   7.064 -0.0166 -1.5171  1.6677
 2007SOL    HW217481   3.065   4.575   7.189 -1.5749  2.4009 -0.8893
 2008SOL     OW17482   2.631   1.967  14.082  0.2961  0.4100  0.0515
 2008SOL    HW117483   2.701   2.019  14.043 -1.0500 -0.4064 -3.4557
 2008SOL    HW217484   2.553   2.006  14.042  0.0488  1.3387  1.4377
 2009SOL     OW17485   3.876   3.969   6.761 -0.0967  0.1811  0.1937
 2009SOL    HW117486   3.795   3.923   6.780 -0.2091 -0.5795 -2.0243
 2009SOL    HW217487   3.888   4.039   6.825  0.1854 -0.3847  0.7630
 2010SOL     OW17488   3.211   1.449   8.841  0.2578  0.0549 -0.4856
 2010SOL    HW117489   3.245   1.538   8.829  2.4556 -0.8553 -0.9718
 2010SOL    HW217490   3.285   1.398   8.811  1.9788  2.0252  0.4422
 2011SOL     OW17491   2.922   1.706   6.080  0.1243 -0.4604 -0.4751
 2011SOL    HW117492   2.890   1.620   6.053 -1.8510 -0.4613  1.9056
 2011SOL    HW217493   2.880   1.754   6.008  0.2867  1.5373  0.7472
 2012SOL     OW17494   3.719   4.064   3.042  0.1750 -0.1010 -0.3227
 2012SOL    HW117495   3.656   4.061   2.970  0.2695 -0.2662 -0.3999
 2012SOL    HW217496   3.657   4.037   3.109  1.3212 -0.5682  0.5520
 2013SOL     OW17497   0.124   1.885  10.185  0.1778  0.0815  0.2689
 2013SOL    HW117498   0.121   1.981  10.190 -1.1715  0.1687 -2.1536
 2013SOL    HW217499   0.093   1.872  10.095  3.2815 -1.2556 -0.5897
 2014SOL     OW17500   2.515   2.660   4.357 -0.3779  0.6769  0.1160
 2014SOL    HW117501   2.543   2.575   4.322  0.1867  1.4742 -1.3743
 2014SOL    HW217502   2.494   2.713   4.280 -0.5429  2.4098  1.3752
 2015SOL     OW17503   3.421   3.847   4.223 -0.0860 -0.3771 -0.0402
 2015SOL    HW117504   3.423   3.935   4.187  0.7442 -1.3072 -2.2753
 2015SOL    HW217505   3.394   3.854   4.315  1.4136 -0.6423  0.4298
 2016SOL     OW17506   3.390   0.213   4.191  0.0735  0.5118  0.7126
 2016SOL    HW117507   3.338   0.145   4.148 -1.1037  3.6229 -2.7125
 2016SOL    HW217508   3.331   0.280   4.223 -3.9932 -2.1043 -1.3237
 2017SOL     OW17509   3.341   4.051  11.982  0.0524 -0.4319  0.2642
 2017SOL    HW117510   3.418   4.103  11.959 -0.4350  1.4062  2.6466
 2017SOL    HW217511   3.356   4.039  12.076  0.0992 -0.0208  0.3114
 2018SOL     OW17512   1.245   0.742   3.997  0.9367  0.1063 -0.0720
 2018SOL    HW117513   1.263   0.668   3.939 -1.5079 -0.2705 -0.3544
 2018SOL    HW217514   1.183   0.793   3.945 -0.7566 -0.1094  1.7723
 2019SOL     OW17515   4.093   2.705  12.407  0.0823  0.3719 -0.2225
 2019SOL    HW117516   4.037   2.629  12.426 -2.0196  1.5006 -1.9218
 2019SOL    HW217517   4.057   2.727  12.321 -1.2800  1.5204  0.6577
 2020SOL     OW17518   0.158   4.581   4.816 -0.2000 -0.3560  0.0759
 2020SOL    HW117519   0.119   4.667   4.802 -0.9588 -0.8009 -0.5200
 2020SOL    HW217520   0.087   4.546   4.870  1.5300 -0.1692  2.5068
 2021SOL     OW17521   3.265   1.046   7.712 -0.2277 -0.0510 -0.3123
 2021SOL    HW117522   3.233   1.118   7.658 -1.7827 -1.7433 -1.6235
 2021SOL    HW217523   3.251   0.965   7.663 -0.2855 -0.5045  0.4656
 2022SOL     OW17524   2.215   4.559  15.102 -0.0261  0.1172  0.4193
 2022SOL    HW117525   2.265   4.481  15.125  0.8090 -0.1656 -2.3273
 2022SOL    HW217526   2.197   4.557  15.008 -1.5270  0.9875  0.6847
 2023SOL     OW17527   2.002   3.243   7.010  0.1146 -0.2169  0.3245
 2023SOL    HW117528   2.032   3.166   6.962  0.9817 -0.7942  1.7823
 2023SOL    HW217529   1.956   3.203   7.083  0.7718  0.5086  1.1382
 2024SOL     OW17530   2.783   4.302   3.245  0.2944 -0.1469  0.2850
 2024SOL    HW117531   2.764   4.257   3.328  1.8626  0.2806  0.8721
 2024SOL    HW217532   2.715   4.369   3.239  0.7892  0.3361  0.1198
 2025SOL     OW17533   4.581   4.507   2.460 -0.0462 -0.1724 -0.1668
 2025SOL    HW117534   4.555   4.534   2.548 -1.9018  0.3658 -0.8716
 2025SOL    HW217535   4.515   4.561   2.415  1.7073  2.3991  0.3271
 2026SOL     OW17536   0.586   2.241   3.936  0.3667  0.4728  0.6461
 2026SOL    HW117537   0.534   2.180   3.988  0.4392  1.9123  2.4313
 2026SOL    HW217538   0.676   2.208   3.939 -0.0245 -0.7041 -0.8348
 2027SOL     OW17539   0.473   1.554   3.428  0.0329 -0.0190  0.9386
 2027SOL    HW117540   0.548   1.495   3.422  0.3934  0.5900 -0.5354
 2027SOL    HW217541   0.520   1.634   3.450 -0.9551  0.9910 -0.6373
 2028SOL     OW17542   3.279   0.011   3.329  0.5885  0.3662  0.4113
 2028SOL    HW117543   3.253   0.049   3.413 -0.5771 -0.2230  0.3093
 2028SOL    HW217544   3.332   0.087   3.305 -0.8411  1.0305 -0.5833
 2029SOL     OW17545   4.263   1.140   7.842 -0.2269  0.2831 -0.4917
 2029SOL    HW117546   4.342   1.175   7.884 -0.8394 -1.8306  2.4446
 2029SOL    HW217547   4.224   1.221   7.810 -0.1137  0.7025  0.4087
 2030SOL     OW17548   4.140   0.743   2.914  0.3129 -0.7548  0.1880
 2030SOL    HW117549   4.153   0.793   2.834  1.2366  1.6916  1.8746
 2030SOL    HW217550   4.097   0.803   2.974 -1.6935 -0.9251 -1.1134
 2031SOL     OW17551   1.019   2.939   8.295  0.0515  0.5602 -0.4057
 2031SOL    HW117552   1.050   2.939   8.204 -1.0894  1.5865 -0.7942
 2031SOL    HW217553   1.005   2.852   8.332 -0.6286  0.4219 -0.9747
 2032SOL     OW17554   1.275   0.807  15.052 -0.6719  0.7082 -0.3943
 2032SOL    HW117555   1.306   0.720  15.076 -2.8113  0.5516  1.8184
 2032SOL    HW217556   1.315   0.823  14.967  1.7492 -0.1254  0.6008
 2033SOL     OW17557   4.461   2.437  13.792 -0.1858 -0.6191  0.5767
 2033SOL    HW117558   4.447   2.502  13.723 -0.7447  0.7088  1.9585
 2033SOL    HW217559   4.370   2.413  13.808 -0.5917  1.2819  1.1135
 2034SOL     OW17560   0.701   1.274   8.085  0.0348  0.5377  0.6783
 2034SOL    HW117561   0.676   1.199   8.031 -1.9377  1.1331  0.7678
 2034SOL    HW217562   0.709   1.339   8.016 -1.6374 -0.1998 -0.2230
 2035SOL     OW17563   3.537   4.605   3.105  0.0692  0.6658  0.1238
 2035SOL    HW117564   3.631   4.609   3.087  0.2725  3.9646  1.8302
 2035SOL    HW217565   3.505   4.683   3.061 -1.3794 -0.4164 -0.7179
 2036SOL     OW17566   2.529   0.227  15.652  0.1786 -0.6353 -0.1572
 2036SOL    HW117567   2.601   0.191  15.703  0.2615 -1.1149 -0.6210
 2036SOL    HW217568   2.526   0.172  15.574 -2.7655 -0.5807 -0.0956
 2037SOL     OW17569   0.408   1.150   7.759 -0.4526  0.0854 -0.1795
 2037SOL    HW117570   0.407   1.104   7.843 -0.1388  1.5134  0.5960
 2037SOL    HW217571   0.318   1.135   7.729 -0.0884  1.4489 -1.9612
 2038SOL     OW17572   3.868   1.166   3.071  0.1066  0.4651  0.1494
 2038SOL    HW117573   3.777   1.151   3.096 -0.2060  0.7699 -0.7842
 2038SOL    HW217574   3.878   1.148   2.977 -2.2801 -2.1116  0.4033
 2039SOL     OW17575   0.784   2.850   2.578  0.1174 -0.0018 -0.9525
 2039SOL    HW117576   0.801   2.838   2.485  0.6801 -2.9238 -0.4797
 2039SOL    HW217577   0.836   2.929   2.589  1.0212 -0.7508  0.1790
 2040SOL     OW17578   3.875   1.821   5.405 -0.0081  0.6180 -0.0082
 2040SOL    HW117579   3.826   1.758   5.458  0.1503  0.9307  0.5105
 2040SOL    HW217580   3.896   1.882   5.476 -0.7177  0.7260  0.1101
 2041SOL     OW17581   2.135   3.814   2.336  0.5364  0.1250  0.1019
 2041SOL    HW117582   2.115   3.720   2.337  1.2025 -0.0477 -2.0223
 2041SOL    HW217583   2.203   3.821   2.402 -0.1623  0.7744  0.7515
 2042SOL     OW17584   4.582   0.573   2.621  0.1358 -0.7861  0.4872
 2042SOL    HW117585   4.536   0.641   2.571  0.3727 -0.7263  0.3478
 2042SOL    HW217586   4.617   0.518   2.552 -0.0792 -0.6922  0.3049
 2043SOL     OW17587   0.163   3.980   4.885  0.1861 -0.1688 -0.1954
 2043SOL    HW117588   0.236   3.923   4.859 -0.0421 -1.1783  1.3681
 2043SOL    HW217589   0.114   3.913   4.934  2.6145 -2.1164 -0.4165
 2044SOL     OW17590   0.434   4.010   5.172  0.1633  0.1223 -0.1663
 2044SOL    HW117591   0.410   4.084   5.227 -0.9738  0.2694 -0.8687
 2044SOL    HW217592   0.397   3.940   5.226 -1.2903  1.7171  0.8912
 2045SOL     OW17593   3.059   3.306  10.581 -0.2997  0.2493 -0.8662
 2045SOL    HW117594   3.022   3.284  10.496 -0.1914  2.0563 -1.3689
 2045SOL    HW217595   3.051   3.222  10.626  1.4307  0.2896 -0.5011
 2046SOL     OW17596   2.400   4.701   3.370  0.4733  0.4997 -0.2955
 2046SOL    HW117597   2.365   0.025   3.293 -3.0380 -0.4270  0.8068
 2046SOL    HW217598   2.432   0.053   3.423 -1.4921  0.7172  0.5753
 2047SOL     OW17599   1.964   2.209   6.168  0.3632 -0.7451  0.0545
 2047SOL    HW117600   1.929   2.125   6.196  0.7604  0.0173  2.7712
 2047SOL    HW217601   2.053   2.181   6.149  1.3706  1.8586  0.9022
 2048SOL     OW17602   0.248   1.988   9.320 -0.5376  0.1610 -0.1807
 2048SOL    HW117603   0.295   1.907   9.301 -2.7330 -1.3337  0.7806
 2048SOL    HW217604   0.314   2.057   9.320 -2.7304  2.2500 -0.4739
 2049SOL     OW17605   3.156   2.198   1.759  0.1899 -1.1596  0.3365
 2049SOL    HW117606   3.081   2.203   1.700  1.5138 -1.2336 -1.3633
 2049SOL    HW217607   3.212   2.146   1.702  1.4183  1.9724 -1.3370
 2050SOL     OW17608   1.395   1.829   5.344  0.6057  0.3842 -0.3420
 2050SOL    HW117609   1.433   1.878   5.416 -0.6293 -0.6316  1.0127
 2050SOL    HW217610   1.410   1.886   5.269  1.0056  1.2705  0.4176
 2051SOL     OW17611   2.430   3.650   9.640 -0.3229 -0.8590 -0.8798
 2051SOL    HW117612   2.442   3.660   9.545  1.7877 -0.2453 -0.5301
 2051SOL    HW217613   2.474   3.727   9.674  2.5878 -2.5528 -0.7747
 2052SOL     OW17614   2.127   2.233   8.231 -0.1655  0.0447 -0.3234
 2052SOL    HW117615   2.221   2.227   8.249 -0.3193 -2.1860 -0.2119
 2052SOL    HW217616   2.134   2.300   8.163  0.3148  2.0988  1.7678
 2053SOL     OW17617   1.511   3.785   8.342  0.4070  0.1254 -0.2277
 2053SOL    HW117618   1.504   3.705   8.395 -1.4401  0.7371  0.4123
 2053SOL    HW217619   1.605   3.773   8.326  0.4229  2.3737 -1.6735
 2054SOL     OW17620   1.481   0.508   5.835 -0.5650 -0.2480  0.1433
 2054SOL    HW117621   1.472   0.422   5.875 -2.6269  0.5598  1.4499
 2054SOL    HW217622   1.539   0.491   5.761 -1.2515 -2.4221  0.1066
 2055SOL     OW17623   2.260   1.701   8.526  0.4308 -0.1526 -0.1896
 2055SOL    HW117624   2.292   1.741   8.445 -0.5199  2.1623  0.5804
 2055SOL    HW217625   2.300   1.614   8.523  0.5717 -0.0258 -2.0833
 2056SOL     OW17626   2.943   1.662   8.258  0.0016 -0.0920 -0.5796
 2056SOL    HW117627   2.960   1.691   8.348 -0.2925  1.9827 -1.2047
 2056SOL    HW217628   2.858   1.619   8.253 -0.0490 -0.1982  1.0512
 2057SOL     OW17629   0.216   1.272   0.697 -0.7230 -0.4231 -0.1065
 2057SOL    HW117630   0.182   1.358   0.671 -0.4607  0.2029  1.6422
 2057SOL    HW217631   0.187   1.226   0.618 -1.0590  0.7267 -0.6432
 2058SOL     OW17632   3.412   4.532   3.460  0.1494 -0.3388 -0.0907
 2058SOL    HW117633   3.357   4.601   3.423  2.2900  1.8251  0.7288
 2058SOL    HW217634   3.490   4.588   3.462  0.5230 -0.8613  0.1887
 2059SOL     OW17635   0.839   4.232  15.522 -0.3409  0.3850 -0.1018
 2059SOL    HW117636   0.837   4.247  15.428 -1.5843  0.6670 -0.0226
 2059SOL    HW217637   0.755   4.275  15.539 -1.2444 -1.0072 -1.0295
 2060SOL     OW17638   3.236   4.136   6.824  0.5759 -0.0826  0.6306
 2060SOL    HW117639   3.223   4.167   6.914  0.7281  1.0201  0.2796
 2060SOL    HW217640   3.314   4.182   6.793 -1.3554  2.0302 -1.1937
 2061SOL     OW17641   0.118   0.308   8.767  0.5130  0.6601 -0.2421
 2061SOL    HW117642   0.181   0.268   8.826 -0.2150  0.1762  0.2105
 2061SOL    HW217643   0.091   0.248   8.697 -0.4307  4.1748 -2.9304
 2062SOL     OW17644   2.957   1.833  12.461  0.1935  0.2054  0.1707
 2062SOL    HW117645   3.010   1.780  12.520 -2.1394  0.0350  2.1419
 2062SOL    HW217646   2.873   1.787  12.465  0.6219 -0.6914 -1.3909
 2063SOL     OW17647   0.632   3.097   1.106  0.1475 -0.0982  0.1521
 2063SOL    HW117648   0.672   3.116   1.191  2.3482 -0.4322 -0.8189
 2063SOL    HW217649   0.553   3.152   1.105  1.1446  1.2855 -1.7555
 2064SOL     OW17650   2.597   4.010  15.397 -0.1483 -0.3662  0.1365
 2064SOL    HW117651   2.609   4.105  15.400  1.5902 -0.5411 -0.7198
 2064SOL    HW217652   2.685   3.983  15.370 -0.7428 -1.4783 -0.6948
 2065SOL     OW17653   4.064   0.910  15.381 -0.5449 -0.4565  0.4238
 2065SOL    HW117654   4.074   0.925  15.475  0.6461 -0.6469  0.3278
 2065SOL    HW217655   3.975   0.880  15.364  0.0352 -0.4360 -2.5581
 2066SOL     OW17656   3.915   1.221   6.755  0.2290  0.4081 -0.5859
 2066SOL    HW117657   3.883   1.199   6.843  1.2124  1.6218  0.0752
 2066SOL    HW217658   3.955   1.307   6.771  0.8793  0.0918 -0.5252
 2067SOL     OW17659   0.040   2.536   4.815 -0.1821  0.7760 -0.4940
 2067SOL    HW117660   4.704   2.556   4.742 -1.2737  1.6686  0.6136
 2067SOL    HW217661   0.020   2.444   4.834  2.0156 -0.5502 -4.5202
 2068SOL     OW17662   0.236   0.310   7.992 -0.3138  0.4795 -0.2812
 2068SOL    HW117663   0.243   0.356   8.075  0.9986  1.7754 -1.1068
 2068SOL    HW217664   0.208   0.223   8.021  0.6001  0.1290 -0.4454
 2069SOL     OW17665   4.543   1.968   9.200 -0.2964 -0.2671  0.3872
 2069SOL    HW117666   4.486   2.040   9.230  1.5013 -0.2372  3.7653
 2069SOL    HW217667   4.474   1.905   9.177 -0.2317  0.1201 -0.8773
 2070SOL     OW17668   4.646   1.007   7.042 -0.1152  0.1615  0.4285
 2070SOL    HW117669   4.685   1.094   7.052  0.4645 -0.4052  3.0125
 2070SOL    HW217670   4.595   0.991   7.121 -0.8756  0.0296 -0.0845
 2071SOL     OW17671   2.024   0.219   2.980  0.3893  0.4843 -0.6809
 2071SOL    HW117672   2.050   0.298   3.027  0.6453 -0.5356  0.8852
 2071SOL    HW217673   1.930   0.207   2.996  0.8334 -0.1419  1.4114
 2072SOL     OW17674   2.949   2.241   9.342 -0.7221  0.0777 -0.4440
 2072SOL    HW117675   2.854   2.253   9.343 -0.6010  0.9696  1.0828
 2072SOL    HW217676   2.964   2.242   9.437 -0.2012  0.6704 -0.5361
 2073SOL     OW17677   0.449   2.218  10.889 -0.0160  0.5995  1.0988
 2073SOL    HW117678   0.459   2.206  10.795 -2.3633 -0.4762  0.9821
 2073SOL    HW217679   0.433   2.312  10.897  1.5345  0.9192  0.3150
 2074SOL     OW17680   3.903   1.936   7.291  0.1598 -0.4451  0.3535
 2074SOL    HW117681   3.826   1.989   7.270  2.1476  2.4557  0.3042
 2074SOL    HW217682   3.939   1.900   7.210  1.9943  1.6629  0.2210
 2075SOL     OW17683   2.801   1.803   9.692  0.2404  0.0435  0.5057
 2075SOL    HW117684   2.755   1.779   9.772  1.2166 -1.6856  0.5545
 2075SOL    HW217685   2.891   1.820   9.720  0.1512  0.2824  0.6524
 2076SOL     OW17686   2.696   2.068  17.483 -0.1513  0.2362  0.0715
 2076SOL    HW117687   2.757   2.127  17.527  0.8064 -1.3099  0.7927
 2076SOL    HW217688   2.614   2.085  17.531  0.5415 -0.5230  1.5189
 2077SOL     OW17689   0.794   0.919  12.422  0.0034  0.2881  0.5780
 2077SOL    HW117690   0.732   0.856  12.460  0.8554  0.0704  1.5889
 2077SOL    HW217691   0.833   0.949  12.504 -0.5470  1.3463  0.4565
 2078SOL     OW17692   2.482   3.615   4.625 -0.4328 -0.2906 -0.0526
 2078SOL    HW117693   2.529   3.563   4.561 -1.2227 -0.5335 -0.4250
 2078SOL    HW217694   2.552   3.660   4.673  0.2934 -1.0640 -0.3836
 2079SOL     OW17695   2.270   3.082   7.678  0.2460 -0.3444  0.4744
 2079SOL    HW117696   2.240   3.095   7.588  0.4856  2.2203  0.7670
 2079SOL    HW217697   2.353   3.126   7.694 -0.9041  2.4279 -1.2305
 2080SOL     OW17698   2.503   3.204   7.710  0.3274  0.0179 -0.7370
 2080SOL    HW117699   2.547   3.142   7.768  1.5228 -0.2692 -1.9701
 2080SOL    HW217700   2.529   3.288   7.748 -3.9737  0.6932  0.7964
 2081SOL     OW17701   1.163   0.277   8.729  0.4932 -0.4896 -0.2376
 2081SOL    HW117702   1.196   0.204   8.782  1.0746 -0.5805 -0.7272
 2081SOL    HW217703   1.247   0.305   8.693 -0.2570  0.9630 -0.8231
 2082SOL     OW17704   4.326   2.992   2.656  0.3230  0.1878  0.5081
 2082SOL    HW117705   4.386   3.011   2.584  0.4139  0.5080  0.6700
 2082SOL    HW217706   4.272   2.928   2.610  1.1829  1.6350 -2.5646
 2083SOL     OW17707   1.896   3.189   4.948  0.3066 -0.7018 -0.2611
 2083SOL    HW117708   1.897   3.179   4.852 -1.4193 -0.5654 -0.2967
 2083SOL    HW217709   1.831   3.260   4.948  0.4970 -0.5455  1.3578
 2084SOL     OW17710   2.857   1.456  11.213  0.1359  0.7423  0.3071
 2084SOL    HW117711   2.817   1.390  11.156 -0.9526 -0.7333  2.7874
 2084SOL    HW217712   2.787   1.517  11.238  2.5960  2.9401  1.7993
 2085SOL     OW17713   1.981   0.725   6.049  0.4302 -0.2904  0.1440
 2085SOL    HW117714   1.922   0.653   6.028 -0.2071 -0.4312  2.5029
 2085SOL    HW217715   1.959   0.755   6.137 -2.2261 -3.2058  0.4529
 2086SOL     OW17716   2.007   0.458   6.358 -0.1692  0.5746 -0.2531
 2086SOL    HW117717   2.039   0.479   6.270  0.9848  0.0103  0.0408
 2086SOL    HW217718   2.014   0.540   6.407 -0.9579  0.5003 -0.0151
 2087SOL     OW17719   3.074   4.252   7.798  0.8233 -0.0269  0.1256
 2087SOL    HW117720   3.154   4.219   7.757 -0.6743 -0.9182 -2.1099
 2087SOL    HW217721   3.069   4.197   7.876 -2.1840  0.7312  0.4496
 2088SOL     OW17722   1.138   3.268   0.884 -0.0284  0.2512 -0.4351
 2088SOL    HW117723   1.047   3.238   0.892  0.3676 -0.8179 -0.1125
 2088SOL    HW217724   1.147   3.290   0.791 -1.3250 -2.3696 -1.1807
 2089SOL     OW17725   0.711   3.105  16.516 -0.1111  0.2015  0.4109
 2089SOL    HW117726   0.620   3.130  16.529  0.3080  1.8474  0.2041
 2089SOL    HW217727   0.725   3.142  16.429 -1.8920 -0.3600 -0.1152
 2090SOL     OW17728   3.275   1.489  10.462 -0.3130  0.0141  0.0379
 2090SOL    HW117729   3.192   1.446  10.441 -0.0082 -0.3230 -0.4730
 2090SOL    HW217730   3.309   1.510  10.375  2.4763  0.6844  1.3216
 2091SOL     OW17731   2.237   0.836  10.831 -0.4221  0.7354 -0.1175
 2091SOL    HW117732   2.147   0.822  10.857  0.0677  0.6757  1.5512
 2091SOL    HW217733   2.239   0.806  10.740 -0.7076 -1.2314  0.5356
 2092SOL     OW17734   1.237   1.995  12.584 -0.1257  0.4930 -0.0688
 2092SOL    HW117735   1.197   2.079  12.559  0.2705  0.2370 -1.5707
 2092SOL    HW217736   1.308   2.026  12.641 -0.9981  1.1738  0.6449
 2093SOL     OW17737   4.147   1.042   2.176  0.3754 -0.4544 -0.6546
 2093SOL    HW117738   4.188   0.971   2.126 -0.0121 -0.1063 -1.4721
 2093SOL    HW217739   4.101   1.088   2.106  1.1275  0.2985 -0.6532
 2094SOL     OW17740   1.764   1.597   1.530 -0.7572  0.1586  0.1698
 2094SOL    HW117741   1.721   1.539   1.468 -3.7129  1.3097  1.1627
 2094SOL    HW217742   1.806   1.657   1.469 -2.5063  1.1475 -0.0511
 2095SOL     OW17743   3.183   3.177  17.529  0.1233  0.2644 -0.6846
 2095SOL    HW117744   3.219   3.190  17.617 -2.2467 -2.6932  0.7164
 2095SOL    HW217745   3.113   3.122  17.565  0.9017  0.3179  0.8874
 2096SOL     OW17746   3.022   4.007   6.113  0.2468 -0.6027  0.6696
 2096SOL    HW117747   2.950   4.010   6.050  2.9016  0.9824 -2.3391
 2096SOL    HW217748   2.973   3.996   6.194 -0.5241  0.8122  0.4019
 2097SOL     OW17749   2.126   2.729   9.988 -0.1646 -0.1570 -0.5431
 2097SOL    HW117750   2.164   2.814   9.966  0.3883 -0.2243  0.1591
 2097SOL    HW217751   2.063   2.755  10.055  0.3382  2.7246 -1.2090
 2098SOL     OW17752   4.123   4.081   2.852 -0.6844 -0.0932  0.0517
 2098SOL    HW117753   4.127   3.987   2.832  2.0612  0.5352 -2.2951
 2098SOL    HW217754   4.032   4.106   2.833  0.1201  3.5733  1.0659
 2099SOL     OW17755   3.842   2.780  15.662 -0.5978 -0.5164 -0.1775
 2099SOL    HW117756   3.758   2.827  15.660 -0.3916 -0.2321 -2.6001
 2099SOL    HW217757   3.896   2.845  15.617  0.1036  0.6078  2.3163
 2100SOL     OW17758   1.644   3.694  11.533  0.4657 -0.3426 -0.3009
 2100SOL    HW117759   1.578   3.702  11.464 -0.3719 -1.4364  0.3762
 2100SOL    HW217760   1.695   3.775  11.537 -1.1064  0.6683 -0.9498
 2101SOL     OW17761   1.419   1.086   8.662  0.1060  0.0299  0.3015
 2101SOL    HW117762   1.484   1.028   8.702  1.2094  2.2588  1.7492
 2101SOL    HW217763   1.408   1.040   8.579 -0.5185 -0.3248  0.5869
 2102SOL     OW17764   1.044   0.317   2.348 -0.3821  0.0384  0.1238
 2102SOL    HW117765   1.100   0.246   2.379 -0.8377  0.1019  1.1015
 2102SOL    HW217766   0.971   0.303   2.409 -0.5072 -3.0723 -0.7301
 2103SOL     OW17767   0.367   1.641   0.537  0.4821 -0.2303 -0.1630
 2103SOL    HW117768   0.290   1.598   0.575 -0.5941  2.0327  0.2671
 2103SOL    HW217769   0.370   1.716   0.597  0.2765  0.4466 -0.9913
 2104SOL     OW17770   3.274   1.425   1.842  0.2293  0.1947 -0.3605
 2104SOL    HW117771   3.213   1.373   1.788  0.9642  0.9695 -1.9416
 2104SOL    HW217772   3.318   1.483   1.781  0.4264  0.1276 -0.2814
 2105SOL     OW17773   0.460   1.038   5.174  0.4838 -0.0330  0.6526
 2105SOL    HW117774   0.422   0.995   5.097  0.3029  2.7614 -0.8071
 2105SOL    HW217775   0.548   1.065   5.147  0.7896 -4.4664 -2.8202
 2106SOL     OW17776   3.948   0.116  11.322  0.0003 -0.2731 -0.4461
 2106SOL    HW117777   4.025   0.082  11.368  0.1275  0.5847 -0.0383
 2106SOL    HW217778   3.873   0.088  11.374 -0.7306  0.0896 -1.3080
 2107SOL     OW17779   1.860   2.253   7.662  0.0575  0.2585  0.4727
 2107SOL    HW117780   1.951   2.231   7.641 -0.2782 -1.1735  0.5092
 2107SOL    HW217781   1.842   2.316   7.593 -1.1525 -1.3224 -0.6587
 2108SOL     OW17782   1.937   4.529   3.657  0.9265 -0.2858 -0.1025
 2108SOL    HW117783   1.898   4.477   3.586 -0.8047  1.3626 -0.3825
 2108SOL    HW217784   2.031   4.533   3.640  0.7905  0.7817 -0.6204
 2109SOL     OW17785   3.959   0.565  10.220 -0.4749  0.0134  0.8439
 2109SOL    HW117786   3.923   0.636  10.167  2.0522 -0.5640 -1.6573
 2109SOL    HW217787   3.987   0.610  10.300  1.4874  2.7908 -1.4187
 2110SOL     OW17788   3.020   3.319  17.376  0.0448 -0.5272  0.3587
 2110SOL    HW117789   3.083   3.266  17.426 -0.5730 -0.6605  1.0026
 2110SOL    HW217790   3.028   3.278  17.290 -0.4534  0.9723 -0.4088
 2111SOL     OW17791   0.674   1.886   6.793  0.0455  0.0723  0.1489
 2111SOL    HW117792   0.678   1.916   6.702  0.4880 -0.8824 -0.1466
 2111SOL    HW217793   0.761   1.850   6.809  0.5838  1.9606  1.4402
 2112SOL     OW17794   2.818   1.303  12.360  0.4286  0.3576 -0.5990
 2112SOL    HW117795   2.891   1.298  12.421 -0.2580 -1.5787  0.0580
 2112SOL    HW217796   2.803   1.216  12.324  2.7028 -1.1863  2.2262
 2113SOL     OW17797   2.359   1.704  11.618  0.3343 -0.7034  0.0255
 2113SOL    HW117798   2.452   1.682  11.615  0.7729  0.9413  1.0640
 2113SOL    HW217799   2.355   1.776  11.555  0.7386  0.4488  1.3007
 2114SOL     OW17800   4.246   3.654   2.051  0.0985 -0.1960  0.3535
 2114SOL    HW117801   4.264   3.639   2.144  1.2619 -1.5170 -0.0873
 2114SOL    HW217802   4.166   3.707   2.052 -0.2082 -0.6233 -1.5447
 2115SOL     OW17803   1.673   1.889   7.111  0.1436  0.1646 -0.3980
 2115SOL    HW117804   1.756   1.857   7.144  0.0747 -0.1247 -0.5001
 2115SOL    HW217805   1.656   1.951   7.182 -1.1528  1.0574 -1.4683
 2116SOL     OW17806   4.226   4.324   7.043 -0.2978  0.1412  0.5832
 2116SOL    HW117807   4.265   4.281   7.119 -1.5842 -0.7792  0.7286
 2116SOL    HW217808   4.258   4.259   6.980 -3.7578 -1.6592  0.6866
 2117SOL     OW17809   3.175   1.191  11.651  0.0210 -0.6237 -0.0090
 2117SOL    HW117810   3.227   1.243  11.589  0.6758 -2.1733 -0.7466
 2117SOL    HW217811   3.104   1.254  11.663  2.2982  1.9142  0.4497
 2118SOL     OW17812   3.401   4.504  11.002  0.5261 -0.1895 -0.1167
 2118SOL    HW117813   3.396   4.593  11.036  1.7428 -0.6554  1.2978
 2118SOL    HW217814   3.493   4.488  11.024  0.6243 -0.6874 -0.8752
 2119SOL     OW17815   1.537   3.392   3.181 -0.0016 -0.0296  0.4605
 2119SOL    HW117816   1.610   3.357   3.128  0.4714  1.5073  0.1083
 2119SOL    HW217817   1.505   3.459   3.120  1.1823 -0.0696 -0.2206
 2120SOL     OW17818   0.534   1.082  16.388 -0.0120 -0.3795 -0.7276
 2120SOL    HW117819   0.527   1.076  16.293 -0.3463 -1.5209 -0.6250
 2120SOL    HW217820   0.618   1.126  16.400 -0.8080  0.7231  0.8403
 2121SOL     OW17821   2.295   0.603  11.997  0.2735 -0.5565 -0.5157
 2121SOL    HW117822   2.337   0.591  11.912  0.6487  3.2253 -0.8787
 2121SOL    HW217823   2.203   0.608  11.970 -0.6521  0.6508  2.8733
 2122SOL     OW17824   2.568   0.106  17.513  0.1394 -0.4843 -0.1523
 2122SOL    HW117825   2.565   0.044  17.439  1.7064 -0.3739 -0.3184
 2122SOL    HW217826   2.549   0.047  17.585  1.9946 -0.5633  0.2793
 2123SOL     OW17827   1.029   1.446  16.841  0.7267  0.2156 -0.4418
 2123SOL    HW117828   0.990   1.508  16.902 -1.0170 -2.4040  1.1169
 2123SOL    HW217829   0.994   1.363  16.873 -1.3067  0.3917 -2.2587
 2124SOL     OW17830   1.645   1.841   1.205 -0.3092  0.5809 -0.1870
 2124SOL    HW117831   1.582   1.869   1.272 -1.9744  1.0321 -1.9541
 2124SOL    HW217832   1.578   1.817   1.142 -1.0782 -0.0650  0.8865
 2125SOL     OW17833   2.006   3.912  12.936  0.4311 -0.0085 -0.0800
 2125SOL    HW117834   1.970   3.996  12.907  3.7355  1.4213 -0.0298
 2125SOL    HW217835   1.932   3.852  12.926  0.1324  0.2790  0.4111
 2126SOL     OW17836   4.701   3.116   2.819  0.5970 -0.5390 -0.3682
 2126SOL    HW117837   4.610   3.122   2.848  1.0420  4.9450 -0.0954
 2126SOL    HW217838   4.696   3.199   2.772 -0.2072 -0.4325 -0.0984
 2127SOL     OW17839   4.017   1.095   5.374 -0.2258 -0.5370 -0.7189
 2127SOL    HW117840   4.075   1.049   5.314 -1.5373 -1.2874 -1.4102
 2127SOL    HW217841   4.019   1.185   5.342  1.1451 -0.7336 -1.1901
 2128SOL     OW17842   2.128   4.006   1.483 -0.4086  0.2968 -0.2511
 2128SOL    HW117843   2.090   4.075   1.428  1.1133  1.2162 -0.1493
 2128SOL    HW217844   2.158   4.062   1.554  0.2434  1.4071 -1.4085
 2129SOL     OW17845   1.205   2.598   0.910 -0.1089 -0.6964 -0.3857
 2129SOL    HW117846   1.245   2.655   0.976  1.2257 -1.4147 -0.5672
 2129SOL    HW217847   1.116   2.626   0.927  0.7042  0.0735  2.7233
 2130SOL     OW17848   0.302   0.851   5.017  0.3459  0.3045  0.1182
 2130SOL    HW117849   0.233   0.849   5.084  0.1073 -1.0253 -0.1757
 2130SOL    HW217850   0.325   0.761   4.994 -0.0468 -0.1420  1.4389
 2131SOL     OW17851   1.004   4.250  14.174  0.0862  0.3110 -0.4720
 2131SOL    HW117852   1.010   4.263  14.079 -0.5067  1.9093 -0.2820
 2131SOL    HW217853   0.933   4.308  14.201  0.7601  0.4403  1.0088
 2132SOL     OW17854   4.713   2.533   4.185  0.5513 -0.2412 -0.4707
 2132SOL    HW117855   4.717   2.623   4.152 -2.1503  0.5522  1.3274
 2132SOL    HW217856   0.078   2.525   4.225  0.0369  0.8902  0.8575
 2133SOL     OW17857   4.250   3.203   3.985  0.8185 -0.2267 -0.4746
 2133SOL    HW117858   4.276   3.119   4.023 -2.2719 -0.9500 -0.0028
 2133SOL    HW217859   4.172   3.181   3.935  0.3248 -2.2165  1.1648
 2134SOL     OW17860   2.248   3.496   6.400  0.1442 -0.4672  0.1044
 2134SOL    HW117861   2.222   3.460   6.485  0.5128 -0.1606  0.3500
 2134SOL    HW217862   2.245   3.422   6.340 -0.6186 -1.3051  1.1691
 2135SOL     OW17863   0.557   4.560   4.862  0.0451 -0.3174 -0.5395
 2135SOL    HW117864   0.546   4.555   4.767 -0.1518  0.7749 -0.5747
 2135SOL    HW217865   0.642   4.518   4.874 -0.2227 -0.5821  0.4927
 2136SOL     OW17866   0.527   3.122   8.000  0.1812 -0.1139  0.0283
 2136SOL    HW117867   0.617   3.095   7.982  0.0076 -0.2507 -0.6234
 2136SOL    HW217868   0.535   3.119   8.095  0.2195 -0.1754  0.0226
 2137SOL     OW17869   3.462   0.850   0.753  0.2425  0.7998 -0.4888
 2137SOL    HW117870   3.511   0.903   0.815 -0.3968 -1.3919  1.9123
 2137SOL    HW217871   3.516   0.863   0.675  1.0558  0.4203  0.0153
 2138SOL     OW17872   4.031   3.706   5.392  0.1144  0.1524 -0.5495
 2138SOL    HW117873   4.098   3.728   5.327 -2.3814  3.1412 -2.1047
 2138SOL    HW217874   3.965   3.763   5.351 -0.2141  0.0477 -0.1555
 2139SOL     OW17875   0.808   1.586   8.137 -0.1642  0.1217 -0.6517
 2139SOL    HW117876   0.812   1.682   8.130 -1.3173  0.1610 -0.7846
 2139SOL    HW217877   0.800   1.552   8.047  2.0050  1.1283 -1.2294
 2140SOL     OW17878   1.447   2.055  12.741  0.5298 -0.2028 -0.1155
 2140SOL    HW117879   1.505   2.115  12.788  1.2077 -0.8672 -0.1000
 2140SOL    HW217880   1.487   1.970  12.759 -0.0688 -0.3751  0.3929
 2141SOL     OW17881   2.838   2.297   9.610 -0.2680  0.6904 -0.2469
 2141SOL    HW117882   2.925   2.305   9.649 -0.0942  0.5758 -0.6055
 2141SOL    HW217883   2.812   2.389   9.603 -0.1608  0.8585  1.6945
 2142SOL     OW17884   1.611   3.097   7.124  0.9912 -0.3985  0.2644
 2142SOL    HW117885   1.622   3.165   7.057 -1.3532  0.6072  0.9234
 2142SOL    HW217886   1.693   3.115   7.170  0.7582  0.8760  0.1889
 2143SOL     OW17887   4.035   3.962  14.938 -0.1941  0.3250 -0.4860
 2143SOL    HW117888   4.101   3.947  15.006  1.7149  0.5495 -2.3021
 2143SOL    HW217889   3.999   4.033  14.991 -0.8222 -0.9709  0.8266
 2144SOL     OW17890   2.635   0.350   5.095 -0.2278  0.0199  0.3189
 2144SOL    HW117891   2.637   0.263   5.134  0.6007  0.0296  0.2846
 2144SOL    HW217892   2.540   0.358   5.103 -0.2748 -0.5763  0.3838
 2145SOL     OW17893   2.009   0.191   1.423 -0.0176  0.8892 -0.5117
 2145SOL    HW117894   2.086   0.138   1.444 -1.3980  0.1542  2.8014
 2145SOL    HW217895   1.948   0.169   1.493  0.6930  0.4349 -0.0293
 2146SOL     OW17896   1.115   0.104   7.146 -0.1024  0.2364  0.1810
 2146SOL    HW117897   1.143   0.092   7.236 -1.8338  1.4204  0.8667
 2146SOL    HW217898   1.185   0.160   7.112 -0.7640 -0.3953 -2.2234
 2147SOL     OW17899   4.640   1.285   2.463  0.0657  0.0033  0.6769
 2147SOL    HW117900   4.652   1.378   2.484 -0.6018  0.1012  0.6419
 2147SOL    HW217901   4.556   1.291   2.418 -0.1816 -1.1831  0.9731
 2148SOL     OW17902   3.957   2.577  15.755 -0.4672  0.1874 -0.2723
 2148SOL    HW117903   4.039   2.568  15.706 -0.1129 -0.6483  0.4600
 2148SOL    HW217904   3.920   2.660  15.726  0.1841  0.2075 -1.0279
 2149SOL     OW17905   4.310   4.242   1.727 -0.0558 -0.8442 -0.1147
 2149SOL    HW117906   4.362   4.193   1.664 -0.3278 -0.4142 -0.6765
 2149SOL    HW217907   4.266   4.298   1.664 -0.9747  0.5220  1.7287
 2150SOL     OW17908   2.907   2.493   8.308  0.3018 -0.6542  0.5795
 2150SOL    HW117909   2.950   2.560   8.255 -2.5206  0.5143 -0.2259
 2150SOL    HW217910   2.929   2.425   8.244 -0.4241 -0.9481  0.6432
 2151SOL     OW17911   4.289   4.278   5.497  0.6864  0.2759  0.3304
 2151SOL    HW117912   4.374   4.307   5.463  0.8467 -0.9441 -0.3271
 2151SOL    HW217913   4.247   4.248   5.416 -1.3624  1.0580  1.0955
 2152SOL     OW17914   0.904   3.876  12.184  0.6198  0.0481  0.4858
 2152SOL    HW117915   0.895   3.916  12.271 -0.4849  2.2886 -0.6951
 2152SOL    HW217916   0.850   3.931  12.128 -0.2659  0.8065  2.0823
 2153SOL     OW17917   2.105   1.167   3.949  0.0770 -0.9796 -0.5170
 2153SOL    HW117918   2.192   1.208   3.949 -0.7068  0.6546  0.7149
 2153SOL    HW217919   2.058   1.220   4.013  1.5302 -0.2729 -0.0167
 2154SOL     OW17920   3.530   2.737  11.565  0.0525 -0.3874 -0.2256
 2154SOL    HW117921   3.440   2.737  11.595  0.8278 -0.2290  2.0819
 2154SOL    HW217922   3.563   2.827  11.565  0.6646 -0.6081  0.2797
 2155SOL     OW17923   1.594   3.260   8.670  0.4612  0.4756  0.8001
 2155SOL    HW117924   1.638   3.293   8.748  1.5797 -0.9087  0.7754
 2155SOL    HW217925   1.671   3.246   8.614 -0.1648 -1.1135  0.3440
 2156SOL     OW17926   1.600   3.492   2.249 -0.0924  0.0232 -0.5930
 2156SOL    HW117927   1.507   3.514   2.250 -0.3519 -1.0978  0.2492
 2156SOL    HW217928   1.636   3.553   2.186  2.5409  1.4589  2.3189
 2157SOL     OW17929   2.324   1.991   3.913  0.0018 -0.8771 -0.2159
 2157SOL    HW117930   2.387   2.062   3.926 -2.2198  0.6954  1.8885
 2157SOL    HW217931   2.322   1.956   4.002 -1.4195  2.7087  1.1670
 2158SOL     OW17932   1.723   1.650   4.532  0.1677 -0.0530 -0.0125
 2158SOL    HW117933   1.747   1.739   4.504  2.0212 -0.2361  1.0244
 2158SOL    HW217934   1.809   1.616   4.555  1.1668  0.6567 -2.6229
 2159SOL     OW17935   1.529   2.829   1.756  0.2629 -0.5648 -0.2342
 2159SOL    HW117936   1.447   2.855   1.715 -0.3526 -2.1025  0.0252
 2159SOL    HW217937   1.595   2.890   1.722 -2.2494  1.3466 -1.5966
 2160SOL     OW17938   2.887   2.590   6.192 -0.4431  0.0138 -0.0145
 2160SOL    HW117939   2.969   2.557   6.156 -1.2419 -0.0577 -1.7452
 2160SOL    HW217940   2.836   2.585   6.112  3.1496 -0.2042 -2.2902
 2161SOL     OW17941   1.907   0.480   2.373  0.7999  0.9371  0.0589
 2161SOL    HW117942   1.812   0.491   2.368  0.6323  0.3861  1.9791
 2161SOL    HW217943   1.920   0.389   2.345 -0.9398  0.3615  1.0892
 2162SOL     OW17944   0.959   3.645   2.705 -0.2815 -0.1690 -0.1812
 2162SOL    HW117945   0.917   3.610   2.784 -0.9541 -0.8409 -0.8263
 2162SOL    HW217946   0.928   3.735   2.705 -0.4621 -0.2359 -1.1151
 2163SOL     OW17947   1.298   0.589   1.982  0.0675  0.2479 -0.2023
 2163SOL    HW117948   1.313   0.604   2.075 -2.4735 -2.5120  0.6516
 2163SOL    HW217949   1.329   0.672   1.944  1.8059 -0.5348 -0.5316
 2164SOL     OW17950   2.459   4.039   1.568  0.4511  0.3611  0.7912
 2164SOL    HW117951   2.447   3.944   1.579  0.1059  0.5855  2.3251
 2164SOL    HW217952   2.477   4.029   1.475 -0.5687 -2.7396  0.9058
 2165SOL     OW17953   1.572   2.205  10.052  0.0527 -0.3402 -0.2155
 2165SOL    HW117954   1.541   2.143  10.118  0.8185 -0.4468  0.0394
 2165SOL    HW217955   1.647   2.243  10.098 -0.4977  0.2692  0.1812
 2166SOL     OW17956   1.972   2.434   5.476 -0.3146 -0.1129  0.2184
 2166SOL    HW117957   1.935   2.522   5.469 -1.8877 -0.9882 -2.5919
 2166SOL    HW217958   2.032   2.429   5.401  0.5390  1.9878  0.7794
 2167SOL     OW17959   1.260   0.559  10.939 -0.3256  0.1657 -0.0690
 2167SOL    HW117960   1.262   0.482  10.881 -0.9478 -0.2913  0.5191
 2167SOL    HW217961   1.252   0.519  11.026  0.9192 -0.2230 -0.1236
 2168SOL     OW17962   2.761   1.960  16.350 -0.0051 -0.9512 -0.4829
 2168SOL    HW117963   2.696   1.954  16.280 -2.3990  0.9055  1.5732
 2168SOL    HW217964   2.712   1.971  16.432  1.7039  0.4130  0.3516
 2169SOL     OW17965   3.711   3.152   9.802  0.2926  0.3504 -0.6074
 2169SOL    HW117966   3.713   3.248   9.809  2.7102  0.2389  0.1690
 2169SOL    HW217967   3.669   3.123   9.883  0.3060 -3.1143 -1.8334
 2170SOL     OW17968   1.441   0.417  15.447  0.0623 -0.5304  0.3192
 2170SOL    HW117969   1.436   0.333  15.492 -3.1563 -0.8471 -0.6573
 2170SOL    HW217970   1.351   0.436  15.420  0.1261 -1.8684 -0.8207
 2171SOL     OW17971   1.526   1.955   8.026 -0.2421  0.2302 -0.4027
 2171SOL    HW117972   1.468   1.977   7.953  0.0654 -0.4046 -0.8396
 2171SOL    HW217973   1.511   2.036   8.074 -1.0991 -0.5023  0.5533
 2172SOL     OW17974   1.787   4.613   7.601  0.0124 -0.1982 -0.1045
 2172SOL    HW117975   1.752   4.682   7.657  3.4687  0.6791  0.9673
 2172SOL    HW217976   1.781   4.525   7.639  0.5902  0.0865  0.6308
 2173SOL     OW17977   3.579   4.197   2.179 -0.1758 -0.4386 -0.2522
 2173SOL    HW117978   3.541   4.212   2.266  0.1408  0.6365 -0.2986
 2173SOL    HW217979   3.501   4.230   2.133 -0.8629 -0.8161  0.6454
 2174SOL     OW17980   0.893   1.523   9.031 -0.2962  0.2536 -0.1375
 2174SOL    HW117981   0.817   1.565   9.071  0.0847  1.6096 -0.8547
 2174SOL    HW217982   0.969   1.580   9.047 -0.4910  0.6480 -0.6230
 2175SOL     OW17983   3.667   3.603   5.172  0.4074 -0.5925  0.3990
 2175SOL    HW117984   3.597   3.539   5.180 -0.8820  0.5574 -1.5313
 2175SOL    HW217985   3.610   3.679   5.158  0.5914 -0.2294  1.6010
 2176SOL     OW17986   0.559   0.413   8.109  0.1035  0.9951  0.0293
 2176SOL    HW117987   0.573   0.445   8.020  1.6879  0.1463 -0.0392
 2176SOL    HW217988   0.565   0.493   8.161 -0.7190  0.3129  1.1711
 2177SOL     OW17989   0.890   4.439   4.697  0.0534  0.2181  0.7930
 2177SOL    HW117990   0.838   4.500   4.645 -1.4610 -0.2333  1.7615
 2177SOL    HW217991   0.917   4.480   4.779  2.7391 -1.1991  0.6045
 2178SOL     OW17992   0.853   1.141  15.063 -0.1068  0.1796  0.4027
 2178SOL    HW117993   0.790   1.161  15.133  1.3598  1.0056  1.4977
 2178SOL    HW217994   0.863   1.226  15.020  1.1372 -0.1862 -0.0172
 2179SOL     OW17995   1.650   2.274   4.017  0.0161  0.0025  0.2153
 2179SOL    HW117996   1.603   2.342   3.969 -1.8478  0.0087  1.9990
 2179SOL    HW217997   1.628   2.294   4.108  0.1525 -0.3963  0.3332
 2180SOL     OW17998   0.623   0.496  16.598 -0.4272  0.3614 -0.4773
 2180SOL    HW117999   0.624   0.457  16.685 -3.5948 -0.7520 -0.9475
 2180SOL    HW218000   0.629   0.591  16.607 -0.1865  0.1864  1.1723
 2181SOL     OW18001   0.072   0.228  14.357 -0.4375 -0.2285 -0.2134
 2181SOL    HW118002   0.053   0.141  14.321  0.9112 -0.1157 -1.1956
 2181SOL    HW218003   0.147   0.214  14.415 -0.4838  0.7796  0.0850
 2182SOL     OW18004   2.427   1.501   6.002  0.3964  0.1077  0.4697
 2182SOL    HW118005   2.511   1.485   5.958  0.6654  0.2440  0.9282
 2182SOL    HW218006   2.372   1.431   5.966  0.0312 -0.1384  1.5269
 2183SOL     OW18007   3.523   3.429   3.670 -0.1110  0.3134  0.0323
 2183SOL    HW118008   3.557   3.497   3.612  0.2357  0.1161  0.0079
 2183SOL    HW218009   3.566   3.453   3.752 -1.8585  1.1716  0.7166
 2184SOL     OW18010   4.570   0.928   2.054 -0.0767 -0.6287 -0.0593
 2184SOL    HW118011   4.619   1.010   2.053 -0.0414 -0.6426  0.4331
 2184SOL    HW218012   4.582   0.903   2.145 -1.5216  0.3702  0.3923
 2185SOL     OW18013   4.081   4.457   8.108 -0.4984  0.0660  0.6423
 2185SOL    HW118014   4.136   4.494   8.178  1.6713 -0.3939 -0.8019
 2185SOL    HW218015   4.017   4.405   8.156  0.5093 -0.0033  1.9316
 2186SOL     OW18016   2.234   4.430   2.323  0.3009  0.1062  0.0501
 2186SOL    HW118017   2.168   4.363   2.308  1.3151 -0.4141 -2.1439
 2186SOL    HW218018   2.312   4.375   2.313 -0.3549 -1.0793  1.4563
 2187SOL     OW18019   3.363   0.181   4.634  0.0120  0.9223  0.7228
 2187SOL    HW118020   3.351   0.229   4.716  2.0964  0.7916  1.1096
 2187SOL    HW218021   3.454   0.200   4.611  0.6510 -1.7784  0.9907
 2188SOL     OW18022   0.086   1.211  15.941 -0.7057  0.1997 -0.2332
 2188SOL    HW118023   0.005   1.262  15.942 -1.0479 -0.3382 -1.0983
 2188SOL    HW218024   0.135   1.241  15.864 -1.5886 -0.5843 -1.0974
 2189SOL     OW18025   0.108   2.575   6.297 -0.2407  0.1545 -0.2100
 2189SOL    HW118026   0.147   2.488   6.305  0.3100  0.2665 -1.6475
 2189SOL    HW218027   0.187   2.619   6.265  0.0495 -0.1590  0.0726
 2190SOL     OW18028   3.734   3.242  15.424 -0.2005  0.2075  0.1851
 2190SOL    HW118029   3.661   3.187  15.454  0.2075 -0.2422  0.3588
 2190SOL    HW218030   3.715   3.251  15.331  2.2465  1.2497 -0.2164
 2191SOL     OW18031   0.390   1.325  11.413 -0.1425 -0.0232  0.5359
 2191SOL    HW118032   0.459   1.259  11.418  1.4239  1.5530 -0.4123
 2191SOL    HW218033   0.316   1.269  11.437  0.5077 -1.2594 -0.3521
 2192SOL     OW18034   3.333   3.144   5.939 -0.1499  0.1911  0.0818
 2192SOL    HW118035   3.292   3.180   6.017  1.9756  0.2916  1.1597
 2192SOL    HW218036   3.403   3.207   5.925  0.7495 -0.8307 -0.0709
 2193SOL     OW18037   1.062   4.205   3.194  0.7856  0.1949  0.0846
 2193SOL    HW118038   0.967   4.210   3.182  0.7028  1.4516  1.2281
 2193SOL    HW218039   1.099   4.239   3.112  0.9673  1.0694  0.5246
 2194SOL     OW18040   2.795   2.432   0.461  0.3105  0.3617 -0.1192
 2194SOL    HW118041   2.738   2.509   0.453 -0.6862 -0.4285 -0.5936
 2194SOL    HW218042   2.823   2.436   0.369 -0.2652  1.8708 -0.2303
 2195SOL     OW18043   1.894   1.914   1.770  0.0729  0.1696 -0.1636
 2195SOL    HW118044   1.895   1.998   1.816  0.1819  1.2695 -2.1837
 2195SOL    HW218045   1.816   1.924   1.714 -0.3602  0.4215  0.4892
 2196SOL     OW18046   2.319   0.903   3.894 -0.1798 -0.4811 -0.1484
 2196SOL    HW118047   2.329   0.894   3.799 -1.9725 -2.5249 -0.1461
 2196SOL    HW218048   2.402   0.939   3.926 -1.7436  0.5545  2.7521
 2197SOL     OW18049   0.013   2.198   3.535 -0.0768  0.3340 -0.2364
 2197SOL    HW118050   4.686   2.222   3.457 -0.3141  1.3890  0.2355
 2197SOL    HW218051   0.042   2.286   3.559  1.4397  0.1550 -1.4461
 2198SOL     OW18052   3.494   2.243   6.424  0.3249  0.0900 -0.2041
 2198SOL    HW118053   3.408   2.273   6.456  0.2675  1.3404 -1.5552
 2198SOL    HW218054   3.497   2.308   6.354 -0.5743  0.4854  0.1235
 2199SOL     OW18055   3.687   1.053  15.381  0.0250  0.5034 -0.3688
 2199SOL    HW118056   3.759   1.090  15.432 -1.6670  0.4267  2.0464
 2199SOL    HW218057   3.731   0.975  15.346  1.3659  1.3164 -0.5003
 2200SOL     OW18058   4.208   3.757  16.857 -0.6625  0.3030  0.5878
 2200SOL    HW118059   4.215   3.685  16.920 -0.1944 -0.4397 -0.3102
 2200SOL    HW218060   4.147   3.825  16.885 -1.4287  0.2542 -0.9344
 2201SOL     OW18061   4.431   0.327   6.705 -0.2863  0.3591 -0.6332
 2201SOL    HW118062   4.372   0.254   6.683 -0.6877  0.6721 -0.5930
 2201SOL    HW218063   4.514   0.283   6.687  1.0905  2.5242  0.4907
 2202SOL     OW18064   0.205   4.534   3.759  0.4735 -0.0734  0.5573
 2202SOL    HW118065   0.120   4.574   3.741  0.0646 -0.9816  0.4447
 2202SOL    HW218066   0.237   4.514   3.671 -1.4720  2.6059 -0.7560
 2203SOL     OW18067   0.939   0.702   1.586 -0.0771 -0.1826  0.3738
 2203SOL    HW118068   0.988   0.784   1.581  2.8134 -1.7999  2.2551
 2203SOL    HW218069   1.015   0.647   1.605  0.8080 -0.9947 -5.5315
 2204SOL     OW18070   2.606   4.164   0.878  0.2615 -0.2055  0.5264
 2204SOL    HW118071   2.702   4.168   0.879  0.2778 -0.5238 -0.8788
 2204SOL    HW218072   2.596   4.077   0.840 -0.8886 -0.4342  1.3259
 2205SOL     OW18073   1.920   4.682   6.314  0.2545  0.7764  0.2598
 2205SOL    HW118074   1.942   0.039   6.264  2.3359 -1.1897 -1.9060
 2205SOL    HW218075   1.924   4.717   6.403  0.1469 -1.3438  1.1237
 2206SOL     OW18076   3.189   0.958   8.654 -0.0303 -0.0580  0.2182
 2206SOL    HW118077   3.273   0.994   8.628 -0.7222  0.3739 -1.4427
 2206SOL    HW218078   3.161   0.912   8.575  1.5051 -3.7992  1.8594
 2207SOL     OW18079   1.262   1.372  11.178  0.3234 -0.0874  0.2737
 2207SOL    HW118080   1.185   1.424  11.156 -0.1174 -0.7962  0.1554
 2207SOL    HW218081   1.230   1.292  11.219 -1.8945  1.1794  0.9885
 2208SOL     OW18082   4.413   4.024   9.591  0.1112  0.4480 -0.2687
 2208SOL    HW118083   4.500   4.058   9.569 -0.4055  3.0324  1.6013
 2208SOL    HW218084   4.352   4.078   9.542  0.6815  1.8975  0.5977
 2209SOL     OW18085   3.935   0.248   5.753 -0.2902  0.3735  0.0524
 2209SOL    HW118086   4.015   0.208   5.719 -1.5266 -0.2689 -2.0618
 2209SOL    HW218087   3.978   0.286   5.830 -0.3727 -0.5057  0.5339
 2210SOL     OW18088   0.550   1.227   9.299  0.1168 -0.2979  0.1007
 2210SOL    HW118089   0.529   1.319   9.284 -0.2947 -0.0050  2.5054
 2210SOL    HW218090   0.505   1.209   9.381 -1.8911 -0.3158 -1.0120
 2211SOL     OW18091   2.609   2.551   7.233 -0.1956  0.1038 -0.5262
 2211SOL    HW118092   2.588   2.574   7.143  2.1203 -0.7805 -1.2771
 2211SOL    HW218093   2.700   2.522   7.236  0.4677  2.3555  1.0097
 2212SOL     OW18094   2.971   1.293   7.371  0.2026  0.4766  0.5541
 2212SOL    HW118095   2.913   1.220   7.350 -0.3555  1.5092 -1.4425
 2212SOL    HW218096   3.045   1.254   7.323 -0.0491  0.2037  0.3881
 2213SOL     OW18097   0.076   4.032   5.434 -0.0987 -0.4856 -0.0988
 2213SOL    HW118098   0.141   3.962   5.421  1.0638  0.3710  1.1024
 2213SOL    HW218099   0.135   4.101   5.403  0.8238 -0.3071  2.0852
 2214SOL     OW18100   3.684   3.174   7.007 -0.0762 -0.0561  0.2036
 2214SOL    HW118101   3.628   3.251   6.999 -0.3703 -0.3985 -0.9589
 2214SOL    HW218102   3.701   3.153   6.915  0.3948 -0.0650  0.2945
 2215SOL     OW18103   0.754   4.027  12.436  0.1817 -0.1145  0.1792
 2215SOL    HW118104   0.706   3.984  12.366  1.1603 -1.9136  0.6115
 2215SOL    HW218105   0.717   4.115  12.434  0.2898 -0.0828 -0.3279
 2216SOL     OW18106   3.292   0.341   4.874  0.7644  0.3226 -0.2771
 2216SOL    HW118107   3.232   0.411   4.848  2.4910  1.8421 -0.2176
 2216SOL    HW218108   3.263   0.322   4.963 -2.0616 -1.1375 -1.5320
 2217SOL     OW18109   1.192   2.615   3.806  0.0764 -0.2677  0.1050
 2217SOL    HW118110   1.112   2.664   3.825  0.6046  0.3910  0.6503
 2217SOL    HW218111   1.259   2.683   3.805  0.5646 -0.7621 -0.3797
 2218SOL     OW18112   3.625   0.845  16.907 -0.1864  0.3131  0.0609
 2218SOL    HW118113   3.567   0.921  16.909 -1.4102 -0.5961 -0.4211
 2218SOL    HW218114   3.569   0.780  16.950  2.1391 -1.8369 -0.1330
 2219SOL     OW18115   0.448   2.326   1.904 -0.4450  0.1952  0.1067
 2219SOL    HW118116   0.476   2.234   1.894  1.3650  0.6864  0.6908
 2219SOL    HW218117   0.526   2.380   1.917 -0.7308  0.1315  2.0594
 2220SOL     OW18118   2.598   2.084   3.963 -0.5256 -0.0155 -0.0028
 2220SOL    HW118119   2.594   1.997   3.924  0.5137 -0.0312 -0.0789
 2220SOL    HW218120   2.686   2.113   3.939 -0.7550  0.5255 -0.1843
 2221SOL     OW18121   2.158   1.599  10.427 -0.4038  0.2529  0.0300
 2221SOL    HW118122   2.180   1.687  10.457  0.7625  0.2231 -0.7450
 2221SOL    HW218123   2.075   1.586  10.473 -0.3368 -1.3766 -0.3117
 2222SOL     OW18124   1.319   3.345  16.575 -0.1759 -0.0032  0.8932
 2222SOL    HW118125   1.397   3.345  16.521  0.4405  0.6567  1.7974
 2222SOL    HW218126   1.290   3.435  16.563 -0.2212  0.1163  1.8926
 2223SOL     OW18127   1.018   0.416   7.407  0.0674  0.3980 -0.0410
 2223SOL    HW118128   0.998   0.504   7.374  0.6772  0.7898  0.6158
 2223SOL    HW218129   1.113   0.421   7.396 -0.1840 -0.1049 -2.4567
 2224SOL     OW18130   2.330   0.040   8.644 -0.0322 -0.5906  0.9690
 2224SOL    HW118131   2.358   4.716   8.724 -0.5542 -0.1663  1.3890
 2224SOL    HW218132   2.264   4.698   8.615  1.6969  0.4352 -5.2010
 2225SOL     OW18133   0.657   4.225  16.459 -0.1551  0.0784 -0.0344
 2225SOL    HW118134   0.727   4.235  16.525 -2.4321  1.1429  2.2203
 2225SOL    HW218135   0.714   4.201  16.386  1.0841  0.1386  0.9003
 2226SOL     OW18136   1.565   4.257  15.879 -0.4991 -0.3583  0.2296
 2226SOL    HW118137   1.475   4.288  15.868 -0.2407  0.3636  0.1663
 2226SOL    HW218138   1.569   4.195  15.806 -2.6782 -0.5474  0.2522
 2227SOL     OW18139   0.828   4.622   9.375  0.2173 -0.4202  0.7779
 2227SOL    HW118140   0.753   4.650   9.323  0.5133 -0.9013  0.0924
 2227SOL    HW218141   0.828   4.527   9.364  1.4050 -0.2548 -0.6114
 2228SOL     OW18142   3.559   3.438   6.975  0.5146  0.1538  0.2853
 2228SOL    HW118143   3.605   3.484   6.905  0.5006 -0.7213 -0.2928
 2228SOL    HW218144   3.522   3.515   7.018  0.9129 -0.0460  1.0042
 2229SOL     OW18145   1.609   2.202   6.021 -0.0581  0.4289  0.2928
 2229SOL    HW118146   1.662   2.126   6.043 -1.2324 -0.5383 -0.1910
 2229SOL    HW218147   1.610   2.189   5.926 -1.9924  4.0056 -0.2343
 2230SOL     OW18148   0.280   3.211  10.561 -0.4632  0.2449 -0.0474
 2230SOL    HW118149   0.285   3.263  10.481  0.3093 -1.2314 -0.9524
 2230SOL    HW218150   0.362   3.162  10.560 -0.5989  0.0488 -1.1793
 2231SOL     OW18151   0.816   0.975   2.570  0.4089 -0.1590 -0.3782
 2231SOL    HW118152   0.737   1.028   2.559  0.6240  0.2926  0.2713
 2231SOL    HW218153   0.768   0.893   2.588 -1.4369  1.1709  0.7646
 2232SOL     OW18154   2.165   4.219  15.074  0.3250  0.2681  0.0724
 2232SOL    HW118155   2.222   4.230  15.150  0.9819 -0.0125 -0.3739
 2232SOL    HW218156   2.180   4.125  15.061 -0.1050  0.2758 -0.4754
 2233SOL     OW18157   3.759   4.144  16.623  0.1580  0.5020  0.2008
 2233SOL    HW118158   3.671   4.179  16.631 -0.1671  0.3840 -2.5891
 2233SOL    HW218159   3.733   4.052  16.620  2.2413 -0.0881 -0.3794
 2234SOL     OW18160   4.283   2.493   4.402  0.3797  0.0299 -0.1388
 2234SOL    HW118161   4.286   2.411   4.352 -2.4468 -1.2377  1.7221
 2234SOL    HW218162   4.205   2.540   4.374  0.8737  0.6229 -0.5286
 2235SOL     OW18163   3.211   0.313   5.172 -0.0235  0.1122 -0.1873
 2235SOL    HW118164   3.236   0.267   5.253  1.0890  0.5933 -0.2600
 2235SOL    HW218165   3.191   0.401   5.204 -0.9982  0.0454 -0.6254
 2236SOL     OW18166   2.858   2.062   2.516  0.5778 -0.7702 -0.0076
 2236SOL    HW118167   2.857   2.135   2.577 -0.8313 -0.1575 -0.7509
 2236SOL    HW218168   2.796   2.087   2.447  0.4002  1.5022  0.9919
 2237SOL     OW18169   0.004   0.052   2.445 -0.1721 -0.2662  0.0353
 2237SOL    HW118170   4.697   4.687   2.476  1.3837 -0.2388  1.4992
 2237SOL    HW218171   4.673   0.071   2.367 -3.0702  1.9621  2.5271
 2238SOL     OW18172   3.957   3.690   7.924  0.0109 -0.3376  0.2314
 2238SOL    HW118173   3.935   3.617   7.865  2.7701 -1.3647  0.5017
 2238SOL    HW218174   3.890   3.753   7.897  0.6574  0.1753 -0.1729
 2239SOL     OW18175   3.775   3.488  13.205 -0.5695  0.3908 -0.5346
 2239SOL    HW118176   3.854   3.436  13.222  0.3971  2.3047  0.8411
 2239SOL    HW218177   3.806   3.568  13.162 -3.6409  1.8769  0.0524
 2240SOL     OW18178   2.211   1.637   1.444  0.0656 -0.3999  0.3933
 2240SOL    HW118179   2.147   1.567   1.430  0.0780 -0.7665  2.2793
 2240SOL    HW218180   2.183   1.667   1.530  0.5483 -0.4238  0.5576
 2241SOL     OW18181   0.033   3.940   8.491  0.1192 -0.1010  0.0332
 2241SOL    HW118182   0.014   4.027   8.526 -0.1011 -0.4207  0.7052
 2241SOL    HW218183   0.121   3.919   8.522 -0.0143 -0.2235  0.3267
 2242SOL     OW18184   2.075   3.623   8.481  0.5475 -0.0033  0.4455
 2242SOL    HW118185   2.141   3.600   8.547  1.5817 -0.8344 -0.8833
 2242SOL    HW218186   2.073   3.718   8.494 -0.0839 -0.0924  1.0343
 2243SOL     OW18187   1.591   1.010   8.326 -0.5257  0.3997  0.3273
 2243SOL    HW118188   1.564   0.930   8.282 -2.0069  0.4764  1.1004
 2243SOL    HW218189   1.620   0.986   8.413  1.4617 -2.1064 -1.0412
 2244SOL     OW18190   1.122   3.888  11.437  0.8491 -0.1727  0.5030
 2244SOL    HW118191   1.179   3.812  11.446 -0.0859 -0.9172  0.1013
 2244SOL    HW218192   1.183   3.961  11.432 -0.4026  0.8095 -0.4265
 2245SOL     OW18193   4.649   1.839  12.051  0.6129  0.0510  0.1551
 2245SOL    HW118194   4.706   1.879  11.985 -1.3534  3.0144  0.2418
 2245SOL    HW218195   4.564   1.866  12.015  0.7902 -1.4601 -1.4057
 2246SOL     OW18196   0.567   2.347   8.665  0.2877 -0.1349  0.0961
 2246SOL    HW118197   0.497   2.411   8.654  0.5866  0.4857  1.7744
 2246SOL    HW218198   0.519   2.270   8.635  0.1617  0.0722 -0.2347
 2247SOL     OW18199   2.667   2.741   3.500  0.1318  0.0590 -0.3296
 2247SOL    HW118200   2.660   2.808   3.568 -2.0433 -1.1471  0.6317
 2247SOL    HW218201   2.677   2.666   3.558  0.4795  1.0999  0.9596
 2248SOL     OW18202   1.337   0.277   2.861 -0.1224  0.2805 -0.0476
 2248SOL    HW118203   1.368   0.289   2.951 -1.2004 -3.4116  0.7861
 2248SOL    HW218204   1.254   0.243   2.892  0.8126 -1.5008  0.4690
 2249SOL     OW18205   0.802   3.125   7.558 -0.5293  0.4307 -0.4317
 2249SOL    HW118206   0.720   3.077   7.550 -1.2481  1.6444 -0.1420
 2249SOL    HW218207   0.770   3.207   7.593  1.2992  0.4816  1.1588
 2250SOL     OW18208   0.870   1.466  13.506  0.4923  0.4277 -1.1490
 2250SOL    HW118209   0.841   1.530  13.441  1.6180  1.2419 -0.8274
 2250SOL    HW218210   0.784   1.433  13.533  0.6468  1.6331  0.8023
 2251SOL     OW18211   0.380   0.174   8.763 -0.3685  0.2238  0.7443
 2251SOL    HW118212   0.450   0.178   8.697 -2.1411 -2.3037 -1.3134
 2251SOL    HW218213   0.340   0.092   8.735 -3.1633  1.9887 -0.4364
 2252SOL     OW18214   3.663   3.469  10.239 -0.0126  0.2947 -0.6464
 2252SOL    HW118215   3.732   3.501  10.181 -0.3149  2.1559  0.0383
 2252SOL    HW218216   3.594   3.449  10.175 -0.9300  0.7355  0.2197
 2253SOL     OW18217   0.077   3.484   9.522  0.1208 -0.0239 -0.1415
 2253SOL    HW118218   0.065   3.537   9.600  1.2009 -1.5733  1.0855
 2253SOL    HW218219   0.124   3.405   9.548  1.4835  0.9708  0.4463
 2254SOL     OW18220   2.198   3.436   3.528  0.3018  0.2041  0.2035
 2254SOL    HW118221   2.104   3.416   3.526  0.3176  0.0223  0.9988
 2254SOL    HW218222   2.226   3.435   3.620 -1.1392  2.8432  0.6727
 2255SOL     OW18223   4.182   4.045   7.183 -0.5944 -0.2511 -0.4062
 2255SOL    HW118224   4.237   4.119   7.210  0.0696 -0.6264 -0.7332
 2255SOL    HW218225   4.107   4.065   7.239  1.6121  2.0628  1.7538
 2256SOL     OW18226   3.293   2.793   7.473  0.0375  0.5366 -0.1798
 2256SOL    HW118227   3.212   2.763   7.513 -0.4064  4.0025  1.5160
 2256SOL    HW218228   3.346   2.816   7.549  2.3794 -0.6104 -1.4464
 2257SOL     OW18229   2.741   2.471  13.397  0.3429 -0.1717  0.2687
 2257SOL    HW118230   2.657   2.464  13.352  0.1863 -0.9264  0.6791
 2257SOL    HW218231   2.811   2.435  13.341  0.5842  0.6371  0.0552
 2258SOL     OW18232   3.805   2.277   7.014  0.2582  0.1808  0.0059
 2258SOL    HW118233   3.820   2.221   6.939  1.2568 -1.7104  1.6379
 2258SOL    HW218234   3.710   2.287   7.023  0.0397 -1.1234 -0.9858
 2259SOL     OW18235   0.617   2.845   1.114 -0.1222  0.1548  0.2322
 2259SOL    HW118236   0.576   2.828   1.199  2.0694 -0.0086  1.2542
 2259SOL    HW218237   0.619   2.941   1.113 -0.0445  0.1429 -1.8974
 2260SOL     OW18238   2.018   2.951   8.994  0.7562  0.3817 -0.1529
 2260SOL    HW118239   2.052   2.995   8.917  3.3150  0.5270  1.0534
 2260SOL    HW218240   2.002   2.863   8.960  0.8449  0.2255  0.2049
 2261SOL     OW18241   1.752   2.121  10.379 -0.2577  0.1358 -0.0688
 2261SOL    HW118242   1.695   2.166  10.441  1.5254  0.0366  1.6772
 2261SOL    HW218243   1.792   2.188  10.323 -1.0368  0.1788 -0.5656
 2262SOL     OW18244   1.030   1.166   4.526 -0.2061 -0.3672  0.1621
 2262SOL    HW118245   1.059   1.077   4.505  0.3818  0.1514 -1.1708
 2262SOL    HW218246   0.953   1.167   4.470 -0.7825  0.1924  0.9704
 2263SOL     OW18247   0.148   3.538   0.954  0.3603 -0.2195  0.3706
 2263SOL    HW118248   0.068   3.496   0.988  0.6783 -1.3461 -0.2941
 2263SOL    HW218249   0.100   3.615   0.923  0.0306 -0.7770 -0.4785
 2264SOL     OW18250   2.423   1.995   1.342 -0.1170 -0.2921  0.3211
 2264SOL    HW118251   2.456   1.906   1.353 -2.8153 -1.0751  2.2064
 2264SOL    HW218252   2.331   1.983   1.366 -0.3753 -0.2779 -0.6592
 2265SOL     OW18253   1.226   1.902  13.845  0.2262 -0.2432 -0.3850
 2265SOL    HW118254   1.245   1.919  13.937  0.8359  1.5611 -0.8350
 2265SOL    HW218255   1.285   1.829  13.828 -1.3832 -1.6948  0.3417
 2266SOL     OW18256   0.288   0.523   1.477  0.0850  0.0116 -0.8243
 2266SOL    HW118257   0.376   0.486   1.486 -0.1544 -0.5101 -0.6548
 2266SOL    HW218258   0.319   0.610   1.503 -2.4998 -0.0038  2.3021
 2267SOL     OW18259   3.239   2.131   4.735 -0.1646  0.0787 -0.5283
 2267SOL    HW118260   3.241   2.051   4.788  0.3261 -0.1280 -0.8511
 2267SOL    HW218261   3.247   2.098   4.646  1.6308 -1.2701  0.1212
 2268SOL     OW18262   3.102   3.590   6.914 -0.6736  0.3049  0.4592
 2268SOL    HW118263   3.152   3.533   6.973 -1.4637  1.2797  2.0803
 2268SOL    HW218264   3.143   3.677   6.925 -0.9943  0.4078  0.8492
 2269SOL     OW18265   1.183   0.389  12.680  0.7507  0.0524 -0.5180
 2269SOL    HW118266   1.161   0.301  12.651  5.1123 -1.4705  0.7796
 2269SOL    HW218267   1.279   0.394  12.677  0.6131  2.7919 -0.6220
 2270SOL     OW18268   3.400   2.957   4.110 -0.0466 -0.3279  0.9053
 2270SOL    HW118269   3.308   2.931   4.116  0.3502 -2.2183 -1.1674
 2270SOL    HW218270   3.433   2.872   4.080  3.8465  1.3009  0.4882
 2271SOL     OW18271   1.252   2.644   7.752  0.0639 -0.5176  0.2157
 2271SOL    HW118272   1.269   2.714   7.689  1.2376 -2.5761 -1.7521
 2271SOL    HW218273   1.343   2.625   7.778  0.7157  1.8266 -0.3588
 2272SOL     OW18274   2.370   2.122   2.279  0.7825 -0.3634 -0.4312
 2272SOL    HW118275   2.370   2.218   2.279 -1.3179 -0.3734 -0.6382
 2272SOL    HW218276   2.293   2.100   2.331 -0.2517  1.4842 -1.1995
 2273SOL     OW18277   3.059   1.856   5.323  0.2289  0.2437  0.2717
 2273SOL    HW118278   2.988   1.820   5.270 -0.9260  1.3162  1.1025
 2273SOL    HW218279   3.017   1.845   5.409  0.7726 -0.2505  0.4746
 2274SOL     OW18280   3.714   1.376  11.856  0.2174 -0.2140 -0.1958
 2274SOL    HW118281   3.731   1.357  11.764  0.5807  2.4053 -0.6739
 2274SOL    HW218282   3.792   1.336  11.893 -0.6808 -0.2961  1.6045
 2275SOL     OW18283   4.621   2.836  12.658  0.4217 -0.3852  0.5819
 2275SOL    HW118284   4.653   2.895  12.591 -0.5239 -0.6768 -0.1321
 2275SOL    HW218285   4.537   2.877  12.679  0.8541 -0.1034  1.7933
 2276SOL     OW18286   3.330   2.443   4.025 -0.1769 -0.3786 -0.3122
 2276SOL    HW118287   3.372   2.524   3.996  1.4797 -1.4878 -1.0231
 2276SOL    HW218288   3.280   2.476   4.100  1.7814  1.8493  0.0396
 2277SOL     OW18289   1.948   1.976   6.682 -0.4729 -0.1752 -0.1754
 2277SOL    HW118290   1.917   2.013   6.764 -0.4086  0.5067 -0.4656
 2277SOL    HW218291   2.017   1.927   6.726  1.5290  0.7091 -2.3399
 2278SOL     OW18292   4.341   3.894   5.504 -0.0306 -0.5278  0.3412
 2278SOL    HW118293   4.287   3.949   5.447 -0.0531  0.3669  1.2174
 2278SOL    HW218294   4.401   3.964   5.532 -1.7736  0.3783  1.8304
 2279SOL     OW18295   2.020   3.765   4.429  0.3016 -0.4729  0.1820
 2279SOL    HW118296   2.082   3.827   4.467 -0.2347 -1.0120  1.9302
 2279SOL    HW218297   2.011   3.801   4.341  0.3511 -2.4832 -0.6336
 2280SOL     OW18298   3.082   3.220   8.989  0.0829  0.2414 -0.1150
 2280SOL    HW118299   3.066   3.314   8.991 -0.0214  0.1958  1.5035
 2280SOL    HW218300   3.162   3.208   8.938  0.4049  0.8513  0.2466
 2281SOL     OW18301   0.033   0.215   5.483 -0.4131  0.2547  0.1158
 2281SOL    HW118302   0.064   0.281   5.546  0.8616 -0.5989  0.3855
 2281SOL    HW218303   0.067   0.137   5.527  0.3940  0.1746 -0.6573
 2282SOL     OW18304   2.572   2.683   8.736  0.1207  0.4436  0.4015
 2282SOL    HW118305   2.628   2.720   8.668  0.0047  0.5088  0.3409
 2282SOL    HW218306   2.561   2.591   8.714  0.9345  0.5812 -0.5774
 2283SOL     OW18307   3.912   1.147   8.034  0.0020 -0.0933  0.0450
 2283SOL    HW118308   3.862   1.071   8.006 -1.3941  0.7158  0.3434
 2283SOL    HW218309   3.843   1.211   8.051  0.6271  0.5966  0.0482
 2284SOL     OW18310   2.299   1.193  14.945  0.1379 -0.3280  0.4571
 2284SOL    HW118311   2.295   1.283  14.978 -1.0874 -0.5938  1.0282
 2284SOL    HW218312   2.367   1.157  15.003 -0.2549 -1.2365  0.3450
 2285SOL     OW18313   2.153   4.068   2.644 -0.0230  0.1134 -0.1908
 2285SOL    HW118314   2.204   3.988   2.632  0.1298 -0.0949  1.7739
 2285SOL    HW218315   2.075   4.031   2.603  1.9726 -2.6331 -1.5190
 2286SOL     OW18316   3.825   1.597   8.006  0.2822 -0.3702  0.4376
 2286SOL    HW118317   3.772   1.671   7.977  0.0158 -1.2170 -1.2414
 2286SOL    HW218318   3.882   1.582   7.930 -0.7942 -1.4987 -0.1451
 2287SOL     OW18319   1.301   0.019   0.106 -0.0004  0.1245  0.2232
 2287SOL    HW118320   1.260   0.046   0.188  0.2046 -0.7957  0.6297
 2287SOL    HW218321   1.374   0.081   0.098  1.2287 -1.3346  0.0446
 2288SOL     OW18322   1.325   3.646   0.944  0.4049  0.2163 -0.2059
 2288SOL    HW118323   1.334   3.648   1.039 -3.0656 -0.6582  0.1407
 2288SOL    HW218324   1.235   3.615   0.942 -0.2240  2.0451 -0.7353
 2289SOL     OW18325   2.223   3.350   6.714  0.5691 -0.0360  0.4274
 2289SOL    HW118326   2.134   3.362   6.747  0.5408  0.6120  0.1277
 2289SOL    HW218327   2.259   3.423   6.765 -0.4865 -1.1628  2.7872
 2290SOL     OW18328   3.743   3.159  10.691 -0.6487 -0.0812  0.3370
 2290SOL    HW118329   3.810   3.168  10.758  0.8426 -0.4994 -1.1135
 2290SOL    HW218330   3.795   3.165  10.612 -0.1553 -1.4314  0.5677
 2291SOL     OW18331   0.765   2.881   4.143  0.2916  0.4947 -0.1844
 2291SOL    HW118332   0.690   2.822   4.137  1.1335 -0.5033 -0.8985
 2291SOL    HW218333   0.824   2.807   4.158  0.2129  0.6572  0.8719
 2292SOL     OW18334   2.317   1.316   8.675  0.2320  0.3173 -0.2954
 2292SOL    HW118335   2.397   1.365   8.654  0.3458  0.4974  0.5349
 2292SOL    HW218336   2.257   1.355   8.612  1.5955  1.1313 -1.0896
 2293SOL     OW18337   1.604   3.634  14.445  0.2667  0.5610  0.2374
 2293SOL    HW118338   1.662   3.583  14.501 -1.8239  0.9062  2.7324
 2293SOL    HW218339   1.567   3.691  14.512 -0.0420  0.4943  0.1270
 2294SOL     OW18340   1.447   3.984   6.952 -0.5596  0.0035  0.1569
 2294SOL    HW118341   1.484   3.957   7.036  1.1605  3.6656  0.5816
 2294SOL    HW218342   1.523   4.035   6.925 -1.6132  1.4134 -0.1675
 2295SOL     OW18343   1.968   1.852   3.282 -0.3733  0.7142  0.3940
 2295SOL    HW118344   2.042   1.909   3.262 -0.9959  1.0489 -0.9553
 2295SOL    HW218345   2.008   1.802   3.354  0.4150  2.4398  1.1671
 2296SOL     OW18346   2.594   0.725   5.067  0.2534 -0.1036  0.3195
 2296SOL    HW118347   2.655   0.773   5.012 -0.0456 -0.4924 -0.3473
 2296SOL    HW218348   2.636   0.724   5.153  1.6215 -0.9631 -0.3612
 2297SOL     OW18349   3.043   4.258   0.479 -0.3065 -0.0367  0.3685
 2297SOL    HW118350   3.013   4.278   0.390  0.6558 -0.9548 -0.1673
 2297SOL    HW218351   3.059   4.164   0.469  0.4728  0.5540 -3.8742
 2298SOL     OW18352   1.048   2.880   1.136 -0.1700  0.4662 -0.0260
 2298SOL    HW118353   0.989   2.848   1.069  0.1120 -0.1836  0.0389
 2298SOL    HW218354   1.023   2.973   1.132 -0.9208  0.1703 -1.8211
 2299SOL     OW18355   3.981   0.698   2.432  0.1561  0.1362 -0.0662
 2299SOL    HW118356   4.046   0.732   2.493  1.6724 -1.8457 -0.5507
 2299SOL    HW218357   3.945   0.778   2.393  1.3134 -0.0863 -1.5805
 2300SOL     OW18358   4.286   1.438   2.470  0.6522 -0.2715 -0.9442
 2300SOL    HW118359   4.201   1.416   2.434  1.4660 -0.7400 -2.5830
 2300SOL    HW218360   4.312   1.521   2.431  1.5135 -0.0765  0.0176
 2301SOL     OW18361   0.450   4.135  12.087  0.2387  0.2072 -0.2208
 2301SOL    HW118362   0.398   4.054  12.084 -0.6763  0.8400 -1.4395
 2301SOL    HW218363   0.383   4.202  12.075 -0.1654 -0.0159  0.8294
 2302SOL     OW18364   3.368   1.496   3.045 -0.1366 -0.1512 -0.2361
 2302SOL    HW118365   3.313   1.510   2.968 -0.1316 -1.0434 -0.3985
 2302SOL    HW218366   3.446   1.466   2.999  0.5165  1.0010  0.1239
 2303SOL     OW18367   2.593   2.680   1.308 -0.2212  0.3592  0.5236
 2303SOL    HW118368   2.589   2.705   1.400  0.7648  2.2291  0.0639
 2303SOL    HW218369   2.515   2.732   1.287  1.0918  1.8739 -0.6473
 2304SOL     OW18370   3.260   1.031   5.855 -0.2792  0.0127 -0.2257
 2304SOL    HW118371   3.346   1.044   5.816 -0.4733  0.7590 -0.3882
 2304SOL    HW218372   3.238   0.952   5.805  1.4335  1.2393 -2.8502
 2305SOL     OW18373   4.496   3.045   4.776 -0.0570 -0.1197 -0.6347
 2305SOL    HW118374   4.433   3.037   4.848 -0.0931  1.0097 -0.5402
 2305SOL    HW218375   4.443   3.005   4.707 -0.9711  1.0433 -0.5950
 2306SOL     OW18376   1.858   0.045   5.051  0.1337  0.4808  0.0742
 2306SOL    HW118377   1.875   0.122   5.105  1.2874  0.2500  0.0521
 2306SOL    HW218378   1.831   0.092   4.972 -0.1020 -0.6392 -0.5126
 2307SOL     OW18379   2.704   0.793   3.047 -0.7823 -0.1169 -0.2301
 2307SOL    HW118380   2.757   0.867   3.075  0.2493 -0.1427 -2.1194
 2307SOL    HW218381   2.710   0.795   2.952  0.2821  0.6296 -0.1411
 2308SOL     OW18382   1.062   2.764  10.851  0.4019 -0.2136 -0.6756
 2308SOL    HW118383   1.106   2.821  10.788  0.2669  0.3292 -0.2752
 2308SOL    HW218384   1.115   2.777  10.929 -1.6525  0.6975  0.5562
 2309SOL     OW18385   2.485   4.319   2.331  0.3614  0.1828 -0.2307
 2309SOL    HW118386   2.518   4.405   2.356  1.4931 -0.5873  0.8927
 2309SOL    HW218387   2.498   4.329   2.237  0.1713 -0.2909 -0.3081
 2310SOL     OW18388   1.281   3.450   1.320 -0.1520  0.1808  0.1683
 2310SOL    HW118389   1.255   3.391   1.249  1.5683 -1.1729  0.6452
 2310SOL    HW218390   1.312   3.531   1.278  0.8915 -0.1186  0.3547
 2311SOL     OW18391   3.563   0.464  11.304 -0.4300  0.2456  0.4530
 2311SOL    HW118392   3.527   0.378  11.325  0.4962  0.0761  1.3321
 2311SOL    HW218393   3.487   0.516  11.275 -0.4013 -0.7060 -1.2793
 2312SOL     OW18394   0.028   2.400   6.985  0.5180  0.0222 -0.2247
 2312SOL    HW118395   0.121   2.379   6.976  0.5686  0.5792 -1.0321
 2312SOL    HW218396   0.043   2.484   7.027 -1.0036  1.2895 -2.2446
 2313SOL     OW18397   1.399   2.055   9.863 -0.5449 -0.4032 -0.0915
 2313SOL    HW118398   1.437   2.119   9.923  0.3238 -0.1081 -0.9635
 2313SOL    HW218399   1.475   2.006   9.834  0.6197  0.0883  2.1222
 2314SOL     OW18400   2.308   2.348  13.873 -0.3097  0.0712 -0.2380
 2314SOL    HW118401   2.216   2.373  13.862  0.6950  3.1214 -1.4809
 2314SOL    HW218402   2.345   2.417  13.928  0.8856 -1.5661  1.0116
 2315SOL     OW18403   1.076   1.143   1.126 -0.6407 -0.0376 -1.2134
 2315SOL    HW118404   1.140   1.179   1.188 -1.4080 -0.0541 -0.4058
 2315SOL    HW218405   1.073   1.052   1.156  1.2403  0.1478 -0.4734
 2316SOL     OW18406   1.283   2.937   6.585 -0.0408 -0.4311  0.5606
 2316SOL    HW118407   1.330   2.986   6.518 -0.2017  3.1805  3.0610
 2316SOL    HW218408   1.196   2.977   6.579  0.2557 -0.4254 -3.6031
 2317SOL     OW18409   1.414   3.151   5.996 -0.0423 -0.1870  0.4425
 2317SOL    HW118410   1.366   3.156   5.914 -3.1814  0.0627  2.2847
 2317SOL    HW218411   1.383   3.067   6.031 -1.4825 -0.5704 -1.7954
 2318SOL     OW18412   1.281   3.611  16.593  0.5363  0.8169  0.2124
 2318SOL    HW118413   1.356   3.662  16.623  0.2561  1.8203 -0.7575
 2318SOL    HW218414   1.203   3.666  16.586  0.6932  1.1705  1.3446
 2319SOL     OW18415   0.846   1.898   6.075  0.3315 -0.4248  0.4486
 2319SOL    HW118416   0.902   1.850   6.014 -0.0928 -0.7383  0.3113
 2319SOL    HW218417   0.883   1.875   6.161 -0.1205  0.3375  0.8517
 2320SOL     OW18418   0.617   1.487   1.134 -0.3474 -0.0244  0.1360
 2320SOL    HW118419   0.707   1.456   1.147 -0.5640 -0.7292 -0.0386
 2320SOL    HW218420   0.617   1.557   1.069 -3.3617  0.1312  0.3262
 2321SOL     OW18421   4.491   3.120   6.870  0.1882  0.3479 -0.2952
 2321SOL    HW118422   4.453   3.066   6.800 -0.0274  0.3066 -0.1472
 2321SOL    HW218423   4.424   3.184   6.894  0.1122 -0.1769  0.9133
 2322SOL     OW18424   1.682   4.052   1.529 -0.0857 -0.0667  0.0432
 2322SOL    HW118425   1.666   4.094   1.614  0.1541  0.8559 -0.3713
 2322SOL    HW218426   1.769   4.081   1.503  0.3508 -3.1150 -1.7936
 2323SOL     OW18427   1.566   4.299   3.398 -0.2139  0.0612 -0.0727
 2323SOL    HW118428   1.605   4.235   3.457 -0.1487 -0.0961 -0.2882
 2323SOL    HW218429   1.620   4.275   3.323 -2.1949 -0.7095 -1.2351
 2324SOL     OW18430   0.626   1.692   0.182  0.2041 -0.3786 -0.1012
 2324SOL    HW118431   0.552   1.719   0.127  1.3113  1.4236 -0.7055
 2324SOL    HW218432   0.589   1.643   0.256  0.8424  0.8142  1.0151
 2325SOL     OW18433   0.717   4.492   3.913  0.2399 -0.4875 -0.4955
 2325SOL    HW118434   0.797   4.446   3.888  1.3752  1.1605  0.0631
 2325SOL    HW218435   0.721   4.573   3.862 -0.1228  2.2570  3.8110
 2326SOL     OW18436   2.526   2.186  13.923  0.3219  0.2960 -0.5691
 2326SOL    HW118437   2.604   2.241  13.911  0.4094  0.3920  0.4282
 2326SOL    HW218438   2.458   2.244  13.888 -2.1094 -2.2703 -0.0497
 2327SOL     OW18439   1.697   1.466   6.425 -0.1049  0.1831 -0.1566
 2327SOL    HW118440   1.683   1.410   6.501 -1.3391 -0.2651 -0.7133
 2327SOL    HW218441   1.656   1.546   6.459 -0.2880  0.5256 -1.1615
 2328SOL     OW18442   4.277   3.601   0.347  0.6009  0.0162 -0.2759
 2328SOL    HW118443   4.299   3.553   0.267 -1.6896 -4.2832  1.6747
 2328SOL    HW218444   4.308   3.543   0.417  1.6468  1.9089  0.8392
 2329SOL     OW18445   1.193   2.964  15.607 -0.2306  0.5783 -0.2489
 2329SOL    HW118446   1.112   2.933  15.568 -0.0211  1.0544 -1.0592
 2329SOL    HW218447   1.198   2.905  15.683 -0.0747 -0.8859 -1.4120
 2330SOL     OW18448   4.052   0.536   3.090 -0.8674 -0.3663 -0.1131
 2330SOL    HW118449   4.096   0.579   3.017  1.6096  1.3656  2.4056
 2330SOL    HW218450   3.960   0.557   3.074 -0.9982  1.9168  3.6001
 2331SOL     OW18451   4.501   3.654   1.811 -0.0461  0.6739 -0.0139
 2331SOL    HW118452   4.502   3.666   1.906  3.1956 -3.6274  0.5005
 2331SOL    HW218453   4.588   3.618   1.793 -0.2652  1.2602 -2.1914
 2332SOL     OW18454   0.620   0.167   8.593 -0.0469 -0.0966  0.5985
 2332SOL    HW118455   0.680   0.207   8.656 -0.5046  0.2359  0.8251
 2332SOL    HW218456   0.611   0.228   8.519 -0.6662  1.2757  1.8008
 2333SOL     OW18457   2.143   4.286   9.202  0.2121 -0.4368 -0.5954
 2333SOL    HW118458   2.168   4.197   9.228 -0.3155 -0.8908 -1.6759
 2333SOL    HW218459   2.089   4.304   9.279 -2.4731 -1.2156 -2.3158
 2334SOL     OW18460   2.558   3.370   5.453 -0.0242  0.0060  0.4421
 2334SOL    HW118461   2.562   3.465   5.465  1.8271 -0.2680  2.0263
 2334SOL    HW218462   2.579   3.363   5.360  0.1355 -1.1026  0.5619
 2335SOL     OW18463   3.873   3.206   3.121 -0.5402 -0.4990  0.3147
 2335SOL    HW118464   3.794   3.253   3.146 -0.7666 -0.0643 -1.2464
 2335SOL    HW218465   3.938   3.253   3.175 -0.6467 -0.2761  0.2498
 2336SOL     OW18466   4.577   0.988   9.875 -0.0936  0.4644  0.4634
 2336SOL    HW118467   4.670   0.999   9.856  0.1093 -0.3638  0.9229
 2336SOL    HW218468   4.566   0.893   9.877  0.6810  0.3543 -0.8294
 2337SOL     OW18469   2.422   1.443   4.989  0.3476 -0.2208  0.4598
 2337SOL    HW118470   2.431   1.417   5.081 -2.8515  0.8232  1.0654
 2337SOL    HW218471   2.358   1.514   4.997  1.4654  0.8571 -0.0303
 2338SOL     OW18472   2.725   2.969   8.089 -0.3674 -0.2358 -0.6046
 2338SOL    HW118473   2.787   3.041   8.078 -1.2675  0.6575  0.0917
 2338SOL    HW218474   2.739   2.953   8.183 -1.3535  0.7958 -0.2771
 2339SOL     OW18475   3.957   3.825   4.684  0.1463 -0.0157 -0.1958
 2339SOL    HW118476   3.975   3.734   4.707 -0.2490  0.0593  0.4139
 2339SOL    HW218477   3.865   3.825   4.711 -0.1952 -1.7601 -1.3236
 2340SOL     OW18478   1.472   0.718   7.702 -0.4797  0.1042  0.8498
 2340SOL    HW118479   1.471   0.623   7.714 -1.0306 -0.1514 -1.3823
 2340SOL    HW218480   1.556   0.732   7.659 -2.0835 -0.5732 -2.4868
 2341SOL     OW18481   0.150   3.908   9.360  0.5540 -0.1582  0.1825
 2341SOL    HW118482   0.234   3.864   9.343  0.8344  0.9911 -1.3861
 2341SOL    HW218483   0.146   3.958   9.279  0.0559  1.4638  1.2224
 2342SOL     OW18484   2.371   3.734   7.118 -0.1904  0.7099 -0.3510
 2342SOL    HW118485   2.434   3.665   7.096  1.3540  2.4401 -1.3316
 2342SOL    HW218486   2.397   3.785   7.194  3.1215 -0.7847 -0.4754
 2343SOL     OW18487   3.111   2.967   2.734  0.5114 -0.3647  0.0327
 2343SOL    HW118488   3.154   3.010   2.807  0.1906 -0.5348  0.3200
 2343SOL    HW218489   3.129   2.875   2.752 -1.3653 -0.8396 -0.5391
 2344SOL     OW18490   3.152   0.855   3.208 -0.1176  0.0557 -0.2559
 2344SOL    HW118491   3.100   0.870   3.129 -0.4523  1.1332  0.1748
 2344SOL    HW218492   3.214   0.928   3.211 -0.3076  0.2477 -0.9865
 2345SOL     OW18493   2.381   4.237   7.701  0.2405  0.2830 -0.1120
 2345SOL    HW118494   2.297   4.259   7.742  0.6402  0.8028  0.4170
 2345SOL    HW218495   2.425   4.195   7.774 -1.5464 -3.6906 -1.3239
 2346SOL     OW18496   1.530   3.205   9.159  0.7921 -0.2903 -0.1028
 2346SOL    HW118497   1.613   3.164   9.133  1.7553  0.3775  1.9487
 2346SOL    HW218498   1.507   3.138   9.224  1.4142 -0.4259 -0.0211
 2347SOL     OW18499   4.056   2.655   4.340  0.2253 -0.2016 -0.2998
 2347SOL    HW118500   3.967   2.623   4.353 -0.6374  2.1612 -0.3931
 2347SOL    HW218501   4.049   2.705   4.259  3.2367  0.7345  0.0108
 2348SOL     OW18502   4.244   3.883   4.774 -0.1147  0.2351  0.1706
 2348SOL    HW118503   4.161   3.906   4.732 -1.4054 -0.4123  2.3782
 2348SOL    HW218504   4.247   3.787   4.767  2.8373  0.5458 -2.5337
 2349SOL     OW18505   3.129   1.572   2.020  0.1789  0.6895  0.2199
 2349SOL    HW118506   3.178   1.501   1.977 -0.0890 -0.5319  1.9073
 2349SOL    HW218507   3.086   1.520   2.088  0.2974 -1.0217 -1.0037
 2350SOL     OW18508   1.107   0.940   3.892  0.0619 -0.2668  0.4200
 2350SOL    HW118509   1.023   0.972   3.925  0.7492  1.0274  0.9201
 2350SOL    HW218510   1.089   0.928   3.799 -1.4062 -0.0013  0.6683
 2351SOL     OW18511   0.380   2.733   9.083  0.8847 -0.1476 -0.0652
 2351SOL    HW118512   0.350   2.796   9.148 -0.4400 -0.4794 -0.3573
 2351SOL    HW218513   0.381   2.784   9.002 -1.5114  1.5260  0.9594
 2352SOL     OW18514   3.372   3.973  17.661  0.4211 -0.2639 -0.2465
 2352SOL    HW118515   3.424   3.916  17.605  0.2000 -2.8571  2.1403
 2352SOL    HW218516   3.282   3.952  17.635  0.1144  2.8604 -1.6961
 2353SOL     OW18517   0.336   2.078  16.635  0.0393  0.1739  0.0656
 2353SOL    HW118518   0.390   2.030  16.697 -0.6502  0.0246  0.5523
 2353SOL    HW218519   0.324   2.160  16.683 -1.2577  0.4152 -0.6688
 2354SOL     OW18520   1.112   0.369  11.789 -0.0447  0.3680 -0.3800
 2354SOL    HW118521   1.060   0.301  11.745  1.2918 -1.1659  0.4248
 2354SOL    HW218522   1.201   0.334  11.792  0.7070  2.2793  0.0454
 2355SOL     OW18523   3.861   0.180   2.755 -0.1458  0.4692  0.1618
 2355SOL    HW118524   3.831   0.270   2.769 -0.3918  0.5516 -0.9647
 2355SOL    HW218525   3.948   0.190   2.718  0.3503  0.1843  1.2489
 2356SOL     OW18526   3.831   4.668   3.217 -0.1705  0.6182 -0.0571
 2356SOL    HW118527   3.848   0.039   3.233  1.2258  0.5122 -0.9205
 2356SOL    HW218528   3.859   4.662   3.126 -0.5169  1.4316 -0.2085
 2357SOL     OW18529   3.733   4.332   3.059  0.4214  0.1151 -0.4470
 2357SOL    HW118530   3.761   4.383   2.983 -0.3933  1.2675  0.0245
 2357SOL    HW218531   3.746   4.239   3.040  0.3901 -0.3256  1.6837
 2358SOL     OW18532   4.048   1.515  14.371 -0.3363 -0.9052 -0.7431
 2358SOL    HW118533   4.040   1.526  14.277 -0.5884  0.2777 -0.5788
 2358SOL    HW218534   4.132   1.471  14.385  0.8034  1.2800 -0.7733
 2359SOL     OW18535   0.681   2.306  16.306  0.0183  0.0024  0.5771
 2359SOL    HW118536   0.602   2.320  16.254 -0.0708  0.0004  0.7136
 2359SOL    HW218537   0.652   2.226  16.349 -0.7280 -0.7025 -1.2406
 2360SOL     OW18538   3.505   0.069   0.495 -0.0407  0.7894 -0.0760
 2360SOL    HW118539   3.468   0.153   0.466  2.3316  1.6408 -0.5890
 2360SOL    HW218540   3.580   0.100   0.545  2.5439 -2.8862 -1.7014
 2361SOL     OW18541   1.981   4.300   8.964  0.1275 -0.1486 -0.0785
 2361SOL    HW118542   2.043   4.308   9.036  1.2462  1.0803 -1.1815
 2361SOL    HW218543   1.902   4.337   9.004  1.0386 -0.9813  2.5284
 2362SOL     OW18544   0.967   0.606   5.270 -0.2555  0.0239  0.3169
 2362SOL    HW118545   1.027   0.532   5.259 -0.2467  0.0582  0.1256
 2362SOL    HW218546   0.933   0.606   5.180  0.4185 -0.2510  0.0590
 2363SOL     OW18547   1.523   1.933  12.004 -0.5865  0.9656 -0.4656
 2363SOL    HW118548   1.431   1.924  11.978 -0.4886  1.1024 -0.8555
 2363SOL    HW218549   1.560   1.993  11.940  3.2279  0.0108  0.8776
 2364SOL     OW18550   1.521   2.534   9.616 -0.1924 -0.6153  0.0477
 2364SOL    HW118551   1.610   2.566   9.628 -0.7248  0.5444  0.9944
 2364SOL    HW218552   1.531   2.440   9.600 -2.2845 -1.0459  1.2476
 2365SOL     OW18553   3.711   3.281   2.875 -0.2469  0.1129 -0.3429
 2365SOL    HW118554   3.687   3.295   2.967 -1.6342  1.0615 -0.8445
 2365SOL    HW218555   3.793   3.232   2.879 -0.1655  0.3599  1.0910
 2366SOL     OW18556   0.786   1.456   7.887  0.5942  0.0297  0.2911
 2366SOL    HW118557   0.769   1.393   7.817 -0.8446 -1.0669  1.6166
 2366SOL    HW218558   0.737   1.530   7.850  1.7897  0.4297 -0.4810
 2367SOL     OW18559   1.207   3.782   0.279 -0.5969  0.1011 -0.1589
 2367SOL    HW118560   1.191   3.876   0.276  1.6021  0.4439 -1.0651
 2367SOL    HW218561   1.174   3.759   0.366 -1.2051  2.6190  0.2542
 2368SOL     OW18562   0.727   2.461   6.703  0.5928  0.1105 -0.3008
 2368SOL    HW118563   0.792   2.400   6.668  0.0084 -1.2456  1.0223
 2368SOL    HW218564   0.732   2.522   6.629  0.1177 -1.1029 -1.3317
 2369SOL     OW18565   2.554   3.623  17.571  0.3980 -0.0318 -0.6044
 2369SOL    HW118566   2.507   3.703  17.596  0.4129 -1.2751  3.3736
 2369SOL    HW218567   2.592   3.600  17.655 -2.6960 -3.6774 -0.2028
 2370SOL     OW18568   1.611   3.766   7.963  0.4553  0.1464  0.0549
 2370SOL    HW118569   1.616   3.704   8.035 -1.6765 -0.7609 -0.5673
 2370SOL    HW218570   1.685   3.827   7.968  0.9748 -0.5325  0.5286
 2371SOL     OW18571   1.367   0.333   4.089  0.1978 -0.3676  0.5155
 2371SOL    HW118572   1.405   0.247   4.102 -1.3569 -1.5603 -2.7912
 2371SOL    HW218573   1.449   0.382   4.079  0.3501 -1.0822 -1.6455
 2372SOL     OW18574   0.980   3.112   3.131 -0.3212 -0.5466 -0.1647
 2372SOL    HW118575   0.994   3.198   3.092  2.2840 -0.6676  0.5188
 2372SOL    HW218576   0.959   3.131   3.223  0.1972 -0.8626  0.0218
 2373SOL     OW18577   2.038   3.208   1.563  0.0660 -0.1891 -0.1672
 2373SOL    HW118578   2.039   3.304   1.565 -2.0122 -0.1848  0.1312
 2373SOL    HW218579   2.006   3.187   1.476 -1.3656  2.8874 -0.3855
 2374SOL     OW18580   4.257   0.778   6.156  0.2536 -0.1657 -0.4649
 2374SOL    HW118581   4.212   0.788   6.072 -2.9120 -0.0365  1.2270
 2374SOL    HW218582   4.353   0.774   6.151  0.2619 -1.0433  0.4768
 2375SOL     OW18583   1.431   2.881   7.876  0.3456  0.0033  0.1756
 2375SOL    HW118584   1.393   2.848   7.957  1.0946  0.3378  0.6607
 2375SOL    HW218585   1.359   2.870   7.813  1.5282 -0.1196 -1.1605
 2376SOL     OW18586   2.313   3.070   1.386  0.6467  0.2992  0.1427
 2376SOL    HW118587   2.302   3.163   1.406  3.9382  0.6429  0.3569
 2376SOL    HW218588   2.227   3.046   1.352  1.3047 -2.4848  0.4237
 2377SOL     OW18589   2.382   4.520  12.314 -0.0175 -0.4381  0.2168
 2377SOL    HW118590   2.363   4.458  12.244 -1.7279  0.5292 -0.1638
 2377SOL    HW218591   2.329   4.479  12.382 -0.1388 -0.9752 -0.2028
 2378SOL     OW18592   1.213   1.050   7.766 -0.2094  0.1443 -0.3982
 2378SOL    HW118593   1.253   1.076   7.849  1.8640 -1.6485 -0.8577
 2378SOL    HW218594   1.205   0.956   7.781 -0.5582  0.0162 -1.3799
 2379SOL     OW18595   0.725   1.238   3.393 -0.2744  0.6347 -0.1658
 2379SOL    HW118596   0.768   1.245   3.308 -1.0702 -0.5461 -0.6704
 2379SOL    HW218597   0.656   1.176   3.371 -0.6388  1.0456 -0.1761
 2380SOL     OW18598   1.331   0.743  11.747  0.1958  0.0562  0.2370
 2380SOL    HW118599   1.308   0.671  11.807 -0.5439 -0.6286 -0.8688
 2380SOL    HW218600   1.361   0.810  11.808  1.6670 -0.4951  0.1260
 2381SOL     OW18601   1.827   2.743  16.696  0.3847  0.2984 -0.2659
 2381SOL    HW118602   1.898   2.772  16.753  1.6125  0.9472 -2.1367
 2381SOL    HW218603   1.876   2.707  16.622  0.0853  0.8362 -0.7235
 2382SOL     OW18604   3.512   2.033   1.718  0.4011  0.3689 -0.2239
 2382SOL    HW118605   3.507   2.053   1.812  1.4595  2.2871 -0.5853
 2382SOL    HW218606   3.563   1.953   1.731  1.7309  1.1170 -0.8100
 2383SOL     OW18607   0.586   1.500  14.817  0.2047 -0.0293 -0.4284
 2383SOL    HW118608   0.530   1.550  14.757  1.9256  2.3886 -0.0309
 2383SOL    HW218609   0.639   1.444  14.760  0.1903 -0.5708  0.0916
 2384SOL     OW18610   3.939   1.673  13.102  0.2880  0.0512  0.7693
 2384SOL    HW118611   3.854   1.670  13.145 -0.2974  0.0219 -0.3939
 2384SOL    HW218612   3.999   1.682  13.176  1.5684  2.0676 -0.4973
 2385SOL     OW18613   4.392   2.515   7.750 -0.3535  0.0260 -0.0388
 2385SOL    HW118614   4.447   2.542   7.677 -1.3462 -0.8674 -1.1133
 2385SOL    HW218615   4.459   2.491   7.814  0.1601 -0.2416 -0.6830
 2386SOL     OW18616   4.298   4.721  14.218 -0.1480  0.2841 -0.5451
 2386SOL    HW118617   4.232   4.659  14.246 -1.3231  0.6056 -2.5562
 2386SOL    HW218618   4.305   4.699  14.125 -2.7934  0.6259 -0.8060
 2387SOL     OW18619   3.954   2.042   3.981  0.2165 -0.3665  0.5607
 2387SOL    HW118620   3.946   2.006   3.893 -2.6410 -0.0675  0.6762
 2387SOL    HW218621   4.038   2.087   3.971 -0.7024  0.9462 -1.3696
 2388SOL     OW18622   1.373   4.429   7.603 -0.7457  0.1428  0.0310
 2388SOL    HW118623   1.405   4.517   7.620  1.6306 -0.3837 -1.7622
 2388SOL    HW218624   1.445   4.369   7.588  0.5627  1.5842  0.5757
 2389SOL     OW18625   3.593   0.830   6.638 -0.5548  0.1117 -0.1702
 2389SOL    HW118626   3.632   0.917   6.629  0.1151 -0.3459 -1.7332
 2389SOL    HW218627   3.602   0.817   6.732  1.6010  0.4460 -0.3335
 2390SOL     OW18628   0.102   1.303  11.493 -0.4957  0.3531 -0.4642
 2390SOL    HW118629   0.013   1.292  11.526 -1.0539  0.9654 -1.7669
 2390SOL    HW218630   0.101   1.267  11.404  1.6948 -0.0128 -0.3430
 2391SOL     OW18631   1.987   0.102   9.916  0.2906  0.3874  0.2628
 2391SOL    HW118632   1.990   0.195   9.893 -0.4667  0.3060 -0.1821
 2391SOL    HW218633   2.050   0.063   9.855  1.1684  2.5458 -0.2467
 2392SOL     OW18634   0.157   2.427  15.371 -0.7358 -0.1795 -0.5074
 2392SOL    HW118635   0.211   2.353  15.345  0.7370  1.1179 -1.1527
 2392SOL    HW218636   0.100   2.366  15.418  1.3564 -1.9476 -0.2830
 2393SOL     OW18637   4.494   3.277  17.312  0.6129 -0.0452  0.5942
 2393SOL    HW118638   4.441   3.349  17.278 -1.1702 -1.5098  0.2211
 2393SOL    HW218639   4.566   3.327  17.350  2.8309 -1.3228 -1.9296
 2394SOL     OW18640   0.228   0.899   2.185  0.1966  0.5926 -0.2651
 2394SOL    HW118641   0.226   0.989   2.155  2.2370  0.7220 -0.0168
 2394SOL    HW218642   0.247   0.845   2.108  2.5069 -1.3386  1.6777
 2395SOL     OW18643   2.127   1.761   7.944 -0.8562 -0.0812  0.2717
 2395SOL    HW118644   2.075   1.804   8.012  0.3348  1.1610  0.4081
 2395SOL    HW218645   2.126   1.834   7.883  0.2762  1.1061  1.6694
 2396SOL     OW18646   3.044   4.458   3.816  0.2153  0.6502 -0.2996
 2396SOL    HW118647   2.986   4.520   3.772 -1.1661  0.6000  1.4698
 2396SOL    HW218648   3.118   4.514   3.841  1.1747 -0.6164 -0.2731
 2397SOL     OW18649   0.244   4.458   2.280  0.5042  0.0499  0.1269
 2397SOL    HW118650   0.306   4.472   2.351 -0.8942  0.4179  1.2791
 2397SOL    HW218651   0.270   4.367   2.261  1.8410  0.3881  0.3292
 2398SOL     OW18652   0.431   2.366   3.588 -0.5042  0.2927  0.2561
 2398SOL    HW118653   0.442   2.402   3.676 -0.2123 -0.7685  0.6612
 2398SOL    HW218654   0.435   2.443   3.532 -1.7629 -0.8437 -1.3933
 2399SOL     OW18655   0.567   2.793   6.336 -0.1956  0.2453  0.2330
 2399SOL    HW118656   0.545   2.780   6.428  2.1307 -0.7278  0.6711
 2399SOL    HW218657   0.526   2.879   6.329 -1.4359 -0.2667  1.1578
 2400SOL     OW18658   2.968   1.969   5.713 -0.2750 -0.4592  0.2254
 2400SOL    HW118659   2.897   1.996   5.772  0.0756  3.0992 -0.9810
 2400SOL    HW218660   2.947   2.033   5.645  1.3423  0.1716  0.3315
 2401SOL     OW18661   4.001   1.292  12.950  0.0221  0.1455  0.2593
 2401SOL    HW118662   4.074   1.257  12.899  0.0148  0.0330  0.3279
 2401SOL    HW218663   3.934   1.227  12.930  0.6444 -0.3498 -0.2032
 2402SOL     OW18664   4.556   0.681   3.234 -0.3503  0.0047  0.3351
 2402SOL    HW118665   4.464   0.676   3.208 -0.2314  2.4777 -0.6571
 2402SOL    HW218666   4.591   0.594   3.220  0.8205  0.4767  0.3156
 2403SOL     OW18667   1.176   2.636   8.202 -0.3237 -0.2276  0.7210
 2403SOL    HW118668   1.209   2.546   8.212 -0.4278 -0.5030 -1.4201
 2403SOL    HW218669   1.226   2.674   8.274 -1.6554  0.1046  1.4682
 2404SOL     OW18670   2.084   2.349   7.523  0.1541  0.0643  0.0687
 2404SOL    HW118671   2.014   2.390   7.473  0.8641 -0.4153 -1.2951
 2404SOL    HW218672   2.125   2.426   7.562 -0.8610  1.4965 -1.7073
 2405SOL     OW18673   1.936   1.078   6.520  0.3166 -0.0636 -0.0961
 2405SOL    HW118674   1.922   1.113   6.432  1.6468 -0.2630 -0.3945
 2405SOL    HW218675   1.889   1.143   6.572  0.2956  0.6431 -0.9906
 2406SOL     OW18676   0.607   4.349   4.148  0.1519  0.7861  0.2353
 2406SOL    HW118677   0.638   4.411   4.082  1.0900  2.6369  2.3792
 2406SOL    HW218678   0.647   4.270   4.112  1.1106  1.2424  0.3067
 2407SOL     OW18679   2.441   0.279  11.097  0.0660 -0.1937 -0.0760
 2407SOL    HW118680   2.358   0.281  11.144  0.1626 -0.4711  0.1092
 2407SOL    HW218681   2.497   0.326  11.158  1.4553  0.8708 -2.1564
 2408SOL     OW18682   4.622   4.457   4.036 -0.1222 -0.0352  0.0496
 2408SOL    HW118683   4.618   4.394   3.964 -1.8764 -1.0059  0.9949
 2408SOL    HW218684   4.717   4.453   4.041 -0.2533 -0.7901  1.7498
 2409SOL     OW18685   1.821   1.523  10.221  0.3295  0.3359 -0.1444
 2409SOL    HW118686   1.869   1.537  10.303  0.1440 -1.0090  0.1836
 2409SOL    HW218687   1.814   1.428  10.217 -1.1581  0.3921  0.9731
 2410SOL     OW18688   1.252   3.417   6.704 -0.0420 -0.0152 -0.0669
 2410SOL    HW118689   1.190   3.347   6.723 -0.0150 -0.4223 -1.4420
 2410SOL    HW218690   1.228   3.419   6.611  0.7461 -2.4399 -0.3430
 2411SOL     OW18691   2.969   3.034   0.582  0.0691  0.0607  0.4774
 2411SOL    HW118692   2.898   3.077   0.535 -0.3658  0.7416  1.7682
 2411SOL    HW218693   2.975   2.963   0.517  0.0446  0.1825  0.3438
 2412SOL     OW18694   3.109   1.832   9.658  0.1610 -0.3381 -0.0576
 2412SOL    HW118695   3.161   1.780   9.597  5.0379  2.0446  2.0373
 2412SOL    HW218696   3.173   1.847   9.728  1.4398  2.3542 -1.8125
 2413SOL     OW18697   2.652   1.571   5.177  0.0229  0.1162  0.0714
 2413SOL    HW118698   2.602   1.512   5.233 -0.0863  0.3342  0.2017
 2413SOL    HW218699   2.588   1.606   5.115 -0.0031 -1.4641 -0.7983
 2414SOL     OW18700   1.837   0.956  10.600 -0.7121 -0.0492  0.0698
 2414SOL    HW118701   1.916   1.000  10.567 -0.4735  0.6162  1.4832
 2414SOL    HW218702   1.849   0.867  10.566 -0.6945 -0.5978  1.5028
 2415SOL     OW18703   3.924   4.001   6.490  0.3748  0.2384  0.0649
 2415SOL    HW118704   3.905   3.931   6.553 -0.1965 -0.0690 -0.4540
 2415SOL    HW218705   3.858   4.057   6.530 -2.0996 -3.0567  0.6511
 2416SOL     OW18706   4.522   4.187   2.988 -0.1843 -0.3336  0.3210
 2416SOL    HW118707   4.533   4.093   3.000  1.3001 -0.0972  0.8158
 2416SOL    HW218708   4.514   4.191   2.893 -1.1209  0.5483  0.4461
 2417SOL     OW18709   2.122   4.366   5.481 -0.0045 -0.4408 -0.5008
 2417SOL    HW118710   2.202   4.315   5.489  1.1365  1.5393  0.6648
 2417SOL    HW218711   2.103   4.369   5.575 -0.8972 -0.7562 -0.6710
 2418SOL     OW18712   3.936   0.372  15.435  0.1998 -0.0079 -0.4048
 2418SOL    HW118713   3.964   0.288  15.472 -0.3880 -0.4835 -1.0541
 2418SOL    HW218714   3.955   0.352  15.343  0.0954 -1.4009 -0.1109
 2419SOL     OW18715   4.228   2.688   2.972  0.4411 -0.0423  0.5557
 2419SOL    HW118716   4.311   2.735   2.959 -0.7689  1.8301 -0.4190
 2419SOL    HW218717   4.169   2.745   2.922  1.9778  0.5444 -0.6087
 2420SOL     OW18718   1.546   3.676   8.720  0.4459 -0.3420 -0.6938
 2420SOL    HW118719   1.487   3.751   8.726 -0.7559 -1.4796  1.6892
 2420SOL    HW218720   1.508   3.632   8.795 -0.0055  2.0419  0.4949
 2421SOL     OW18721   1.881   0.981   9.314  0.2713 -0.3942  0.4623
 2421SOL    HW118722   1.834   0.912   9.360 -1.2481  0.9461  0.8907
 2421SOL    HW218723   1.826   0.989   9.236 -0.9936 -0.8910  1.3061
 2422SOL     OW18724   2.953   1.374  11.678  0.1560  0.3267 -0.9897
 2422SOL    HW118725   2.922   1.345  11.764  0.6527 -2.5378 -1.7774
 2422SOL    HW218726   2.947   1.466  11.704 -0.8647 -0.2043  0.7028
 2423SOL     OW18727   3.288   1.363   5.028 -0.2603  0.2254 -0.3423
 2423SOL    HW118728   3.381   1.376   5.010 -0.4411  2.4244  0.2359
 2423SOL    HW218729   3.265   1.452   5.056  2.6266  0.1402  2.2551
 2424SOL     OW18730   1.322   0.297   7.501  0.3668  0.1274 -0.2100
 2424SOL    HW118731   1.395   0.259   7.550  0.1560 -0.5212 -0.3867
 2424SOL    HW218732   1.275   0.214   7.488 -0.6903  0.7108 -0.0898
 2425SOL     OW18733   2.426   0.867   1.456 -0.6916 -0.2525  0.0460
 2425SOL    HW118734   2.446   0.812   1.532  0.7217 -0.1575 -0.2406
 2425SOL    HW218735   2.335   0.892   1.470 -0.2172  0.1180  2.4586
 2426SOL     OW18736   0.677   4.149   3.934 -0.3441  0.2987  0.7217
 2426SOL    HW118737   0.736   4.108   3.870  0.7396  2.1312  0.5443
 2426SOL    HW218738   0.666   4.238   3.900 -0.9072  0.6909  1.9564
 2427SOL     OW18739   3.303   1.067  16.973  0.3851  0.1576 -0.2226
 2427SOL    HW118740   3.330   1.034  16.887 -0.8934 -1.5102  0.0115
 2427SOL    HW218741   3.377   1.121  16.999  1.3034 -1.3800  0.3715
 2428SOL     OW18742   2.567   0.542   8.210  0.6287 -0.0619 -0.6206
 2428SOL    HW118743   2.595   0.456   8.242  0.5183 -0.2818 -1.1158
 2428SOL    HW218744   2.559   0.598   8.287 -3.1206 -2.9593  1.1011
 2429SOL     OW18745   3.402   1.155   8.276  0.2149  0.0172 -0.5481
 2429SOL    HW118746   3.360   1.240   8.291 -1.4632 -0.9622  0.2587
 2429SOL    HW218747   3.495   1.177   8.270 -0.2179  2.0655  0.1554
 2430SOL     OW18748   1.913   3.285  12.325  0.1448 -0.3305 -0.4057
 2430SOL    HW118749   1.850   3.357  12.324  0.6286  0.0498 -1.8835
 2430SOL    HW218750   1.879   3.231  12.254 -1.2563  0.0881 -0.0621
 2431SOL     OW18751   1.133   1.290   6.402  0.0581 -0.2863  0.2193
 2431SOL    HW118752   1.208   1.341   6.432 -3.2574  3.3157  2.4497
 2431SOL    HW218753   1.061   1.326   6.455 -0.2735  0.9362 -1.0882
 2432SOL     OW18754   0.585   2.195  13.334  0.0688 -0.2436  0.1754
 2432SOL    HW118755   0.496   2.229  13.328  0.3627  0.3901 -0.5164
 2432SOL    HW218756   0.644   2.268  13.321 -1.7837  1.2169  0.0321
 2433SOL     OW18757   1.039   3.305   5.593  0.5263  0.7072 -0.1181
 2433SOL    HW118758   1.109   3.368   5.611  2.1182 -0.9942 -0.2727
 2433SOL    HW218759   0.985   3.365   5.542  0.4261  1.2648  0.6358
 2434SOL     OW18760   2.294   2.544  15.535  0.6029  0.2849  0.2153
 2434SOL    HW118761   2.352   2.618  15.549  2.8323 -0.6536 -4.0339
 2434SOL    HW218762   2.336   2.516  15.453 -0.4499 -0.3712 -0.0998
 2435SOL     OW18763   3.253   3.718  10.016 -0.1478 -0.1512  0.7635
 2435SOL    HW118764   3.208   3.797   9.987 -0.5036 -1.1567 -1.4561
 2435SOL    HW218765   3.335   3.734   9.970  0.2630 -0.3210  1.4307
 2436SOL     OW18766   2.245   1.852  10.482 -0.5611  0.5806 -0.3853
 2436SOL    HW118767   2.316   1.916  10.479  0.2923 -0.2929  1.6903
 2436SOL    HW218768   2.176   1.910  10.447 -0.5377  0.3445 -0.8228
 2437SOL     OW18769   3.349   3.058   2.894  0.2477  0.5210  0.2735
 2437SOL    HW118770   3.322   3.148   2.914 -2.8263  0.6498 -4.5137
 2437SOL    HW218771   3.407   3.040   2.968  0.7514 -1.2620 -0.5746
 2438SOL     OW18772   3.307   1.512   3.830 -0.0494  0.4924 -0.1415
 2438SOL    HW118773   3.360   1.447   3.877 -0.2045  3.3915  4.0953
 2438SOL    HW218774   3.373   1.567   3.789  1.1305  0.3354  1.5227
 2439SOL     OW18775   2.615   3.761  10.610  0.4604 -0.0821  0.5824
 2439SOL    HW118776   2.557   3.755  10.685  1.6561 -2.6976  1.3105
 2439SOL    HW218777   2.685   3.708  10.647 -0.0386  1.0377  3.1038
 2440SOL     OW18778   3.799   3.279   4.963  1.4854  0.7915 -0.0217
 2440SOL    HW118779   3.869   3.250   4.905  0.2825  0.0972 -1.1111
 2440SOL    HW218780   3.850   3.347   5.008  0.0719 -0.4673  3.5267
 2441SOL     OW18781   1.771   0.163   8.038  0.1202  0.6095  0.5031
 2441SOL    HW118782   1.749   0.115   8.118  0.4859 -1.6105 -0.7590
 2441SOL    HW218783   1.801   0.246   8.077 -1.0479  1.1492  0.2299
 2442SOL     OW18784   4.116   1.729   2.656 -0.1075  0.7632  1.0033
 2442SOL    HW118785   4.077   1.657   2.607 -0.0164  0.0381  2.0220
 2442SOL    HW218786   4.040   1.787   2.662 -0.5735  0.2718 -0.1153
 2443SOL     OW18787   4.513   4.046  11.204  0.9312 -0.4141 -0.4845
 2443SOL    HW118788   4.551   4.054  11.116 -1.2384  1.1817 -1.3007
 2443SOL    HW218789   4.575   3.990  11.250 -0.2268 -1.1145  0.2212
 2444SOL     OW18790   1.805   1.454   7.026 -0.1212  0.0364 -0.0202
 2444SOL    HW118791   1.710   1.462   7.019 -0.2395 -1.8003 -0.6625
 2444SOL    HW218792   1.830   1.473   6.936  1.2854 -0.3747  0.2924
 2445SOL     OW18793   0.420   1.115   5.792 -0.0228  0.2189 -0.0928
 2445SOL    HW118794   0.443   1.206   5.776  0.3041  0.2670  0.6637
 2445SOL    HW218795   0.496   1.077   5.748 -0.4536  0.4429 -1.0119
 2446SOL     OW18796   0.889   2.484   5.093 -0.5967  0.2383 -0.2978
 2446SOL    HW118797   0.872   2.545   5.021  2.0883  1.5568  0.2241
 2446SOL    HW218798   0.797   2.461   5.110 -0.8766  0.0565 -2.0447
 2447SOL     OW18799   1.861   3.425   2.358 -0.0608  0.2954  0.1951
 2447SOL    HW118800   1.770   3.452   2.344  0.7654  2.7851 -0.3154
 2447SOL    HW218801   1.893   3.436   2.268  0.8788  0.8091  0.5915
 2448SOL     OW18802   1.710   0.264  15.537 -1.1491 -0.3522  0.2929
 2448SOL    HW118803   1.673   0.194  15.591 -0.1897 -2.1634 -1.3723
 2448SOL    HW218804   1.674   0.342  15.580  3.4131  2.8454 -1.6996
 2449SOL     OW18805   0.346   2.113   3.434  0.0443  0.0740 -0.2156
 2449SOL    HW118806   0.363   2.201   3.468 -0.2073  0.8255 -1.9981
 2449SOL    HW218807   0.431   2.082   3.403 -1.6992 -3.6412 -1.3219
 2450SOL     OW18808   2.156   4.721   1.561 -0.5855  0.2737  0.2558
 2450SOL    HW118809   2.101   4.700   1.636 -2.8073 -1.3270 -1.8013
 2450SOL    HW218810   2.240   4.681   1.585  0.0596 -0.1946 -2.7863
 2451SOL     OW18811   3.425   3.808   4.826 -0.2943 -0.0427  0.1429
 2451SOL    HW118812   3.375   3.862   4.886  1.6880 -0.5705  2.3088
 2451SOL    HW218813   3.353   3.788   4.766  0.8041 -0.2429 -1.1058
 2452SOL     OW18814   2.352   1.958   2.976  0.0804  0.4424 -0.6151
 2452SOL    HW118815   2.271   1.979   3.022  0.6447 -2.4532  1.6647
 2452SOL    HW218816   2.351   2.030   2.912  3.1841  0.6099 -0.4789
 2453SOL     OW18817   0.068   1.883  15.706  0.7021 -0.5173 -0.2975
 2453SOL    HW118818   0.110   1.934  15.775 -1.9823 -0.6403  1.4020
 2453SOL    HW218819   4.708   1.932  15.706  0.6643 -0.5794 -0.4474
 2454SOL     OW18820   2.061   2.886   6.215 -0.3237 -0.2713  0.2507
 2454SOL    HW118821   2.042   2.794   6.198  0.3535 -0.2330 -0.7069
 2454SOL    HW218822   1.994   2.914   6.278  0.4036  1.6961  0.1540
 2455SOL     OW18823   3.693   0.829   3.438  0.1927  0.5105 -0.0716
 2455SOL    HW118824   3.705   0.880   3.518 -1.1572  0.6410  0.0611
 2455SOL    HW218825   3.752   0.869   3.374  1.2331 -2.2143 -0.8084
 2456SOL     OW18826   0.143   1.663   1.965  0.2349 -0.0826  0.5886
 2456SOL    HW118827   0.100   1.588   1.926 -1.6195  1.6545 -0.6941
 2456SOL    HW218828   0.232   1.634   1.984  0.1014 -1.1942 -0.4936
 2457SOL     OW18829   2.254   3.745   5.822 -0.0147  0.3469  0.0274
 2457SOL    HW118830   2.326   3.745   5.758 -0.6500  0.2325 -0.6831
 2457SOL    HW218831   2.205   3.820   5.789 -1.7960 -0.9102 -0.1652
 2458SOL     OW18832   0.947   0.024  16.143 -0.7290  0.3650  0.3275
 2458SOL    HW118833   0.972   0.018  16.235 -1.0850 -0.1684  0.3885
 2458SOL    HW218834   0.861   4.704  16.146 -1.1435  1.2336  0.4635
 2459SOL     OW18835   1.432   3.349   4.659 -0.0502 -0.2011 -0.0163
 2459SOL    HW118836   1.507   3.374   4.714 -1.0261 -0.6395  1.5101
 2459SOL    HW218837   1.446   3.423   4.598 -0.6492  2.1053  2.6445
 2460SOL     OW18838   2.545   3.035   5.715 -0.4428  0.1735 -0.3050
 2460SOL    HW118839   2.635   3.067   5.712  0.0761 -1.2487  0.1854
 2460SOL    HW218840   2.500   3.118   5.701  1.3754  1.4121  1.2773
 2461SOL     OW18841   4.389   3.514   2.897  0.6602  0.3020 -0.4718
 2461SOL    HW118842   4.298   3.486   2.884  1.1363 -1.1436 -0.7111
 2461SOL    HW218843   4.398   3.597   2.850 -0.2751  0.4294 -0.4407
 2462SOL     OW18844   1.917   0.625   6.589  0.0527  0.1648  0.7119
 2462SOL    HW118845   1.998   0.586   6.621 -0.4457 -0.8779  0.7060
 2462SOL    HW218846   1.936   0.714   6.621  0.4588  0.0878  0.6836
 2463SOL     OW18847   4.257   1.642   3.205  0.2723 -0.0296 -0.4435
 2463SOL    HW118848   4.165   1.639   3.178  0.7119 -0.0060 -1.9780
 2463SOL    HW218849   4.289   1.552   3.199  2.7526  0.8391 -0.1707
 2464SOL     OW18850   3.112   3.998   7.250 -0.0464 -0.8395  0.0605
 2464SOL    HW118851   3.148   3.929   7.306 -1.0471 -1.8850 -0.6074
 2464SOL    HW218852   3.091   3.938   7.179 -1.8077 -3.3275  2.6906
 2465SOL     OW18853   4.314   0.391   6.178  1.2096 -0.0415 -1.0669
 2465SOL    HW118854   4.383   0.328   6.200  0.6385 -0.6679 -1.0712
 2465SOL    HW218855   4.360   0.436   6.107 -0.3774  1.1004 -1.3808
 2466SOL     OW18856   2.556   1.724   0.308 -0.5516 -0.3416 -0.3973
 2466SOL    HW118857   2.531   1.644   0.354  0.7728  1.3010  3.1775
 2466SOL    HW218858   2.569   1.693   0.219  1.0041  0.6745 -0.5307
 2467SOL     OW18859   4.482   1.824   6.326 -0.2052  0.2907  0.0811
 2467SOL    HW118860   4.396   1.810   6.364 -1.2963 -0.5260 -2.6881
 2467SOL    HW218861   4.520   1.877   6.396  1.1291 -2.3327  1.3514
 2468SOL     OW18862   2.517   2.694  10.418  0.5285 -0.2427  0.3039
 2468SOL    HW118863   2.588   2.701  10.354  2.5549  0.7968  2.6254
 2468SOL    HW218864   2.441   2.679  10.363  0.9372  0.3563 -0.4280
 2469SOL     OW18865   0.027   2.963   9.909  0.4418 -0.4715 -0.3944
 2469SOL    HW118866   0.100   2.959   9.971  1.1258 -0.9249 -1.2179
 2469SOL    HW218867   0.073   3.016   9.844  0.6819 -0.2424 -0.0420
 2470SOL     OW18868   1.834   0.468  10.461 -0.0691 -0.4757  0.0465
 2470SOL    HW118869   1.894   0.474  10.535  0.5315  2.3031 -0.6672
 2470SOL    HW218870   1.844   0.375  10.439 -1.3814 -0.2386 -1.4946
 2471SOL     OW18871   2.651   2.112   9.734  0.3337 -0.4526  0.2882
 2471SOL    HW118872   2.709   2.176   9.691  0.0272  0.4808  1.2708
 2471SOL    HW218873   2.714   2.061   9.785 -0.6350 -1.9231  0.0140
 2472SOL     OW18874   3.070   3.170  12.724  0.1344 -0.2491  0.3014
 2472SOL    HW118875   2.984   3.204  12.698 -0.2143 -0.5494  1.0720
 2472SOL    HW218876   3.117   3.251  12.746 -2.1728  1.1314  0.2355
 2473SOL     OW18877   0.442   2.630   3.142 -0.0107  0.1139  0.1099
 2473SOL    HW118878   0.446   2.726   3.145  1.4833  0.1166 -1.9483
 2473SOL    HW218879   0.428   2.620   3.048 -2.8808 -2.0906  0.7853
 2474SOL     OW18880   2.905   3.646   5.832  1.0541 -0.1125 -0.4037
 2474SOL    HW118881   2.817   3.612   5.851  0.2684  2.3902  0.4897
 2474SOL    HW218882   2.918   3.710   5.902 -0.3670 -1.6869  1.2881
 2475SOL     OW18883   4.076   2.467  12.843  0.1927  0.4117  0.5461
 2475SOL    HW118884   4.084   2.554  12.884  1.3415  0.4022  0.3547
 2475SOL    HW218885   4.102   2.484  12.753 -1.1322 -4.1063 -0.6772
 2476SOL     OW18886   1.305   4.234   8.946  0.2315  0.6394 -0.8370
 2476SOL    HW118887   1.226   4.205   8.899  0.3906  0.7039 -1.1482
 2476SOL    HW218888   1.324   4.151   8.990  0.6105  0.8655 -0.5724
 2477SOL     OW18889   4.067   2.675  14.788  0.0542 -0.3122 -0.4645
 2477SOL    HW118890   4.097   2.587  14.814 -1.4119 -0.6662  0.0188
 2477SOL    HW218891   4.104   2.684  14.700  0.3487 -0.3891 -0.3491
 2478SOL     OW18892   2.601   3.513   3.018  0.2595 -0.5474  0.2569
 2478SOL    HW118893   2.558   3.509   3.103 -1.2846 -1.5237 -0.5652
 2478SOL    HW218894   2.530   3.481   2.963  0.5988 -0.9248  0.0381
 2479SOL     OW18895   3.769   4.465   8.173 -0.1909 -0.2867 -0.2180
 2479SOL    HW118896   3.810   4.530   8.116  1.4040 -0.1525  1.0695
 2479SOL    HW218897   3.688   4.511   8.195 -0.3574 -0.1081 -1.2159
 2480SOL     OW18898   0.008   2.935   8.662  0.5544 -0.1641  0.3528
 2480SOL    HW118899   0.042   2.985   8.736  0.5801 -0.9752  0.8864
 2480SOL    HW218900   4.638   2.964   8.657  0.1067 -1.2650  2.0849
 2481SOL     OW18901   2.410   4.109   8.594 -0.7511 -0.4425 -0.1438
 2481SOL    HW118902   2.493   4.073   8.628  0.4174  0.5068 -2.0101
 2481SOL    HW218903   2.346   4.086   8.662  0.8105 -0.2970  1.3908
 2482SOL     OW18904   4.564   2.038   8.219 -0.5420  0.0535 -0.7712
 2482SOL    HW118905   4.606   2.087   8.148 -0.4915  1.4147  0.2034
 2482SOL    HW218906   4.625   2.060   8.289  0.7167 -0.9546 -1.5485
 2483SOL     OW18907   0.297   2.520   7.773 -0.8582  0.0954 -0.8198
 2483SOL    HW118908   0.267   2.608   7.796 -1.0100  0.1323 -1.1663
 2483SOL    HW218909   0.352   2.500   7.849  0.0417  0.8568 -1.2807
 2484SOL     OW18910   1.709   0.996   6.861 -0.2509  0.0774  0.1712
 2484SOL    HW118911   1.654   1.074   6.865  0.5556  0.6961 -0.6779
 2484SOL    HW218912   1.657   0.919   6.884  0.4925  0.5623  3.5027
 2485SOL     OW18913   3.943   3.804  13.909  0.2963 -0.2030  0.4285
 2485SOL    HW118914   3.922   3.774  13.997  2.0490  0.5862  1.1203
 2485SOL    HW218915   3.967   3.896  13.925 -1.0479 -0.0271  1.4344
 2486SOL     OW18916   4.567   4.095   6.622 -0.2853  0.1746  0.0361
 2486SOL    HW118917   4.645   4.047   6.598 -0.8304  0.0109 -1.3802
 2486SOL    HW218918   4.495   4.046   6.582 -0.7637  0.1033  0.9830
 2487SOL     OW18919   3.859   3.268  11.074 -0.2300 -0.5494 -0.0809
 2487SOL    HW118920   3.834   3.343  11.020 -0.5051 -1.0295 -0.6199
 2487SOL    HW218921   3.907   3.218  11.008 -0.5688  0.2794 -0.9647
 2488SOL     OW18922   1.372   3.682  15.765 -0.3723  0.6348 -0.1831
 2488SOL    HW118923   1.433   3.677  15.692 -0.4712 -0.9930 -0.1596
 2488SOL    HW218924   1.343   3.591  15.779 -0.7656  0.9657  1.1495
 2489SOL     OW18925   3.397   0.195   9.804  0.4171 -0.2433 -0.6361
 2489SOL    HW118926   3.309   0.194   9.843  0.8600  2.8793  0.4834
 2489SOL    HW218927   3.390   0.119   9.747 -1.1552  0.2873 -1.1469
 2490SOL     OW18928   0.662   1.692   7.802 -0.8040  0.2265 -0.1513
 2490SOL    HW118929   0.600   1.700   7.729  0.6062 -0.4033 -1.4477
 2490SOL    HW218930   0.696   1.781   7.808 -2.1935  0.5881  2.1702
 2491SOL     OW18931   1.793   2.083  17.128 -0.4709  0.0042 -0.1965
 2491SOL    HW118932   1.849   2.049  17.197 -2.8812 -0.0192  1.7774
 2491SOL    HW218933   1.838   2.042  17.054  2.0675  2.6777 -0.1156
 2492SOL     OW18934   1.777   2.026   3.342 -0.2366  0.1823 -0.5822
 2492SOL    HW118935   1.850   1.976   3.307  0.1754 -0.6642  1.4806
 2492SOL    HW218936   1.749   1.975   3.418  0.1196 -2.0323 -1.9531
 2493SOL     OW18937   0.104   1.849   7.500 -0.3621 -0.8864 -0.4707
 2493SOL    HW118938   0.151   1.773   7.465 -0.6291 -0.3507 -1.9638
 2493SOL    HW218939   0.065   1.814   7.580  0.8615 -0.5352  0.2857
 2494SOL     OW18940   0.766   0.070  12.163  0.2490 -0.4921 -0.7203
 2494SOL    HW118941   0.693   0.008  12.175 -0.0607  0.0098 -0.0085
 2494SOL    HW218942   0.762   0.118  12.245  0.6966  0.9757 -1.5631
 2495SOL     OW18943   0.454   4.237   4.657  0.2289  0.6906 -0.3197
 2495SOL    HW118944   0.474   4.201   4.744 -1.1202  2.0771  0.5805
 2495SOL    HW218945   0.466   4.157   4.607 -0.8420  1.0410 -1.1375
 2496SOL     OW18946   0.874   1.277   3.176  0.6581 -0.2819  0.0306
 2496SOL    HW118947   0.898   1.187   3.154  0.9939 -0.4089  0.9016
 2496SOL    HW218948   0.956   1.325   3.169  1.1366 -0.9391  1.0445
 2497SOL     OW18949   1.643   3.845   5.217  0.2472  0.2259  0.1663
 2497SOL    HW118950   1.715   3.894   5.178 -0.1905 -0.8413 -1.9826
 2497SOL    HW218951   1.567   3.893   5.182 -0.6027  0.2437  2.0290
 2498SOL     OW18952   4.395   1.579   3.583  0.1012 -0.0771  0.5146
 2498SOL    HW118953   4.365   1.645   3.521  3.1852  0.8804  0.0175
 2498SOL    HW218954   4.454   1.528   3.527 -0.0031  0.4670 -0.0860
 2499SOL     OW18955   2.450   3.088   5.369 -0.6001  0.2972  0.4850
 2499SOL    HW118956   2.504   3.154   5.413  1.2198  1.0205 -2.8485
 2499SOL    HW218957   2.361   3.103   5.401 -0.9041 -1.2543  0.3692
 2500SOL     OW18958   0.851   1.733  10.006 -0.5427  0.1236 -0.0461
 2500SOL    HW118959   0.892   1.778   9.932 -3.4611  0.7969 -1.2331
 2500SOL    HW218960   0.788   1.678   9.961  1.1152 -1.2867 -0.6523
 2501SOL     OW18961   3.700   4.469   4.244  0.3350 -0.3588 -0.7604
 2501SOL    HW118962   3.727   4.377   4.246 -2.0389 -1.0863 -1.1350
 2501SOL    HW218963   3.784   4.509   4.265  0.4538 -1.0525  0.0877
 2502SOL     OW18964   2.393   4.592   9.853 -0.0328 -0.2626 -0.2602
 2502SOL    HW118965   2.451   4.617   9.781 -0.0739 -1.4285 -0.7102
 2502SOL    HW218966   2.374   4.679   9.887  1.0062 -0.4478  0.7816
 2503SOL     OW18967   3.933   4.135   6.213 -0.2889 -0.6120  0.0674
 2503SOL    HW118968   3.933   4.216   6.162  2.3579 -2.4350 -2.8435
 2503SOL    HW218969   3.845   4.148   6.249  0.0412  1.9905 -0.0794
 2504SOL     OW18970   3.656   0.952  14.968 -0.2183  0.3595 -0.1298
 2504SOL    HW118971   3.612   1.014  15.025 -0.6834 -0.5727  0.5139
 2504SOL    HW218972   3.581   0.920  14.918  1.2519 -3.6169  0.1415
 2505SOL     OW18973   2.454   3.387   5.004  0.2587  0.6309  0.2270
 2505SOL    HW118974   2.458   3.292   5.014  0.2829  0.5740 -0.3277
 2505SOL    HW218975   2.406   3.394   4.921  1.2484  0.1397 -0.3815
 2506SOL     OW18976   4.715   4.497   6.565 -0.2661  0.6138 -0.4490
 2506SOL    HW118977   0.008   4.411   6.525 -3.2555  0.0239 -0.2543
 2506SOL    HW218978   4.657   4.476   6.638 -0.2942  0.0212 -0.6453
 2507SOL     OW18979   4.588   2.357   2.582  0.4616  0.0705  0.2064
 2507SOL    HW118980   4.536   2.317   2.513  1.7084 -0.8076 -0.2092
 2507SOL    HW218981   4.571   2.451   2.570 -0.9225  0.0056  1.6232
 2508SOL     OW18982   3.729   0.517   5.992  0.3221 -0.3732  0.3094
 2508SOL    HW118983   3.800   0.481   5.940 -0.2417 -0.6255 -0.2785
 2508SOL    HW218984   3.759   0.607   6.009 -0.7346 -0.1148  0.8601
 2509SOL     OW18985   0.023   0.793  12.534  0.6871  0.3772 -0.4977
 2509SOL    HW118986   0.028   0.700  12.515  0.8186  0.8921 -2.9666
 2509SOL    HW218987   0.099   0.830  12.489  1.3943  0.7679  0.9943
 2510SOL     OW18988   3.180   0.804   3.558 -0.4408 -0.1468  0.1649
 2510SOL    HW118989   3.210   0.740   3.493  1.5876 -0.1376  1.0941
 2510SOL    HW218990   3.224   0.773   3.637 -1.9530  1.4950  1.6559
 2511SOL     OW18991   0.594   4.041   6.608  0.1014  0.1419 -0.1206
 2511SOL    HW118992   0.671   4.004   6.650 -1.1472 -1.3610  0.8452
 2511SOL    HW218993   0.529   4.018   6.674 -0.2530  0.2298 -0.4398
 2512SOL     OW18994   3.713   1.017  17.463 -0.2005 -0.3244  0.2085
 2512SOL    HW118995   3.678   0.930  17.480 -0.1402 -0.2605  0.6683
 2512SOL    HW218996   3.727   1.027  17.369  2.6935  1.4868  0.8169
 2513SOL     OW18997   0.540   1.064  13.346 -0.5304  0.1124  0.1782
 2513SOL    HW118998   0.488   1.054  13.266  1.9408  1.2520 -1.5542
 2513SOL    HW218999   0.564   0.975  13.372 -0.0669 -0.2286 -1.3895
 2514SOL     OW19000   1.592   3.082   3.682 -0.0225 -0.3328 -0.3415
 2514SOL    HW119001   1.525   3.103   3.617  0.6955  0.5541 -0.8073
 2514SOL    HW219002   1.634   3.010   3.635 -1.0365 -0.0860 -1.6389
 2515SOL     OW19003   4.134   0.036   5.826  0.1353  0.3986 -0.3272
 2515SOL    HW119004   4.166   0.105   5.768 -1.7232 -0.2609 -2.1436
 2515SOL    HW219005   4.067   4.716   5.772  0.5285  0.1557 -0.6299
 2516SOL     OW19006   0.283   1.083   2.668 -0.0025 -0.1252 -0.5571
 2516SOL    HW119007   0.362   1.086   2.614  0.5850 -0.4711  0.2818
 2516SOL    HW219008   0.293   0.995   2.704  1.2792  0.1106 -0.3360
 2517SOL     OW19009   1.421   4.485   6.801  0.4047 -0.4056  0.5919
 2517SOL    HW119010   1.479   4.524   6.867  0.6303 -2.1467  1.4334
 2517SOL    HW219011   1.356   4.553   6.785 -0.5618 -1.8226 -1.6451
 2518SOL     OW19012   0.771   0.346   2.453 -0.0022  0.2536 -0.4361
 2518SOL    HW119013   0.787   0.413   2.519  1.2827  0.5750 -1.0954
 2518SOL    HW219014   0.684   0.382   2.434 -0.7886 -1.5346 -0.2404
 2519SOL     OW19015   0.822   1.300   1.589 -0.2917 -0.1531 -0.3993
 2519SOL    HW119016   0.822   1.386   1.548 -0.2536  0.0688  0.0702
 2519SOL    HW219017   0.870   1.265   1.514  2.5353  2.5004  0.1978
 2520SOL     OW19018   3.131   0.521   5.372  0.1178 -0.9312 -0.2060
 2520SOL    HW119019   3.159   0.536   5.462 -0.1916  0.6271 -0.3675
 2520SOL    HW219020   3.040   0.496   5.386 -0.6268  2.0249  0.2258
 2521SOL     OW19021   1.005   2.507   5.702  0.1895 -0.1390 -0.2684
 2521SOL    HW119022   0.987   2.442   5.770  2.8270  0.8467  1.3961
 2521SOL    HW219023   1.075   2.550   5.752  1.1933 -0.8681 -1.0475
 2522SOL     OW19024   4.286   1.346   4.897 -0.2102 -0.4104  0.2695
 2522SOL    HW119025   4.263   1.253   4.896 -0.9900 -0.2288  1.0367
 2522SOL    HW219026   4.278   1.371   4.989 -0.2414  0.9277 -0.0920
 2523SOL     OW19027   2.433   2.843   8.895 -0.6733  0.3022 -0.1210
 2523SOL    HW119028   2.362   2.810   8.841 -0.9294 -0.2699  0.5562
 2523SOL    HW219029   2.501   2.797   8.846 -0.2880 -1.1663  1.7686
 2524SOL     OW19030   1.208   2.986  17.349 -0.4139  0.1730 -0.4644
 2524SOL    HW119031   1.265   3.057  17.319  0.0925 -0.3982 -0.8558
 2524SOL    HW219032   1.279   2.926  17.372 -0.8300 -0.0654  0.2086
 2525SOL     OW19033   2.906   0.172   5.244 -0.2191  0.0838  0.0142
 2525SOL    HW119034   2.939   0.228   5.175  1.9125 -0.3009  0.7257
 2525SOL    HW219035   2.935   0.085   5.217  1.5378  1.5802 -2.8784
 2526SOL     OW19036   3.347   1.402   5.538  0.4108  0.0075 -0.3415
 2526SOL    HW119037   3.398   1.382   5.616  1.5477 -2.5457 -1.7529
 2526SOL    HW219038   3.398   1.478   5.508 -0.3428  0.5095 -0.3539
 2527SOL     OW19039   1.002   4.698   1.422 -0.5242  0.7286 -0.7450
 2527SOL    HW119040   1.090   4.678   1.391 -0.1993  1.2232 -0.1394
 2527SOL    HW219041   0.958   4.618   1.391 -2.5338  1.5414  0.0209
 2528SOL     OW19042   3.277   4.172   7.100 -0.3628 -0.5369 -0.1484
 2528SOL    HW119043   3.206   4.127   7.145  1.8616 -4.8296 -0.9450
 2528SOL    HW219044   3.360   4.137   7.130 -0.7325 -0.4391  0.9826
 2529SOL     OW19045   3.436   1.618   1.697 -0.1839 -0.7321 -0.1092
 2529SOL    HW119046   3.494   1.587   1.628  2.2431  0.3281  1.4741
 2529SOL    HW219047   3.369   1.645   1.634  0.8597  1.4806 -0.2498
 2530SOL     OW19048   2.294   0.875  11.974 -0.0131 -0.1466  0.4211
 2530SOL    HW119049   2.379   0.919  11.972  0.5603 -1.2068  2.0591
 2530SOL    HW219050   2.317   0.785  11.995 -0.9264 -1.1045 -2.6095
 2531SOL     OW19051   3.506   4.284   2.427 -0.4117  0.6132 -0.2322
 2531SOL    HW119052   3.500   4.309   2.520 -0.3367  0.3861 -0.1673
 2531SOL    HW219053   3.593   4.323   2.417 -1.3472  3.0325  0.8833
 2532SOL     OW19054   3.619   2.337   4.598 -0.8402  0.8716 -0.0628
 2532SOL    HW119055   3.672   2.382   4.663  0.2513  0.1111 -0.4335
 2532SOL    HW219056   3.654   2.368   4.515  0.8525 -1.1069 -0.0971
 2533SOL     OW19057   1.133   3.081   7.186 -0.2752  0.0034 -0.0393
 2533SOL    HW119058   1.170   3.140   7.120 -1.3272  1.4294  0.6710
 2533SOL    HW219059   1.067   3.129   7.235 -0.6666  1.4245 -1.9853
 2534SOL     OW19060   2.664   2.056   8.909  0.2948 -0.4048 -0.8558
 2534SOL    HW119061   2.659   1.960   8.916  0.5615 -0.2225  1.8705
 2534SOL    HW219062   2.573   2.065   8.883  0.3475  0.9371 -0.5697
 2535SOL     OW19063   2.664   0.016  16.120 -0.1832  0.3615  0.0214
 2535SOL    HW119064   2.589   4.679  16.129 -1.0678  1.3642 -0.8215
 2535SOL    HW219065   2.627   0.100  16.149 -2.1013 -1.6111  3.2978
 2536SOL     OW19066   3.530   1.605   6.891  0.1341  1.1567 -0.1235
 2536SOL    HW119067   3.576   1.608   6.807  0.5069  2.0612  0.1135
 2536SOL    HW219068   3.604   1.616   6.952 -0.2078 -0.8200  0.6554
 2537SOL     OW19069   1.812   4.058   2.757 -0.2175  0.0290  0.4562
 2537SOL    HW119070   1.746   3.988   2.758  1.4075 -1.4880  1.7794
 2537SOL    HW219071   1.851   4.038   2.672 -0.6678  3.0202 -0.4282
 2538SOL     OW19072   2.457   3.804   8.905 -1.0120  0.3659  1.7299
 2538SOL    HW119073   2.470   3.822   8.812  0.7037  0.6095  2.0191
 2538SOL    HW219074   2.505   3.875   8.948 -0.4975  1.6106 -0.8836
 2539SOL     OW19075   2.895   0.783   8.672  0.5826 -0.3395 -0.0929
 2539SOL    HW119076   2.969   0.793   8.612 -0.3613  2.9020 -0.6948
 2539SOL    HW219077   2.858   0.697   8.648  1.6189 -0.7603 -0.1662
 2540SOL     OW19078   0.599   2.088  10.151 -0.4942  0.1848 -0.2185
 2540SOL    HW119079   0.531   2.045  10.100 -2.3598  1.6662  1.0549
 2540SOL    HW219080   0.642   2.011  10.190  0.1396  0.0911 -1.0855
 2541SOL     OW19081   2.334   3.352   1.446 -0.1094 -0.2245  0.1726
 2541SOL    HW119082   2.318   3.383   1.357 -0.4164  0.9697  0.6382
 2541SOL    HW219083   2.252   3.385   1.484 -0.8876  0.2010 -1.8505
 2542SOL     OW19084   2.931   2.238   3.169 -0.1146  0.2410  0.1877
 2542SOL    HW119085   2.984   2.197   3.238  0.5025  0.6747 -0.0241
 2542SOL    HW219086   2.847   2.209   3.203  0.4195  0.0605  1.3598
 2543SOL     OW19087   1.898   0.567   2.945 -0.0355 -0.0504  0.4653
 2543SOL    HW119088   1.810   0.545   2.976 -0.1099 -0.7996 -0.2566
 2543SOL    HW219089   1.899   0.532   2.856  2.3101 -0.6822  0.7317
 2544SOL     OW19090   1.919   3.786   7.699 -0.1532 -0.3489  0.6890
 2544SOL    HW119091   1.885   3.734   7.626 -0.5152 -0.1336  0.7042
 2544SOL    HW219092   1.920   3.717   7.766  0.3164 -0.5559  0.4648
 2545SOL     OW19093   0.666   1.969   4.817 -0.3437 -0.4841 -0.4743
 2545SOL    HW119094   0.722   2.005   4.749 -1.1898  3.5867  1.0033
 2545SOL    HW219095   0.719   1.896   4.850  3.2719  1.0965 -2.7668
 2546SOL     OW19096   1.233   3.200   6.970 -0.1504  0.0810  0.2004
 2546SOL    HW119097   1.287   3.279   6.975  0.7094 -0.5879  1.4417
 2546SOL    HW219098   1.303   3.140   6.945 -0.0472  1.6917 -3.4262
 2547SOL     OW19099   2.882   2.730  13.190 -0.1105 -0.4120 -0.5092
 2547SOL    HW119100   2.870   2.682  13.108  3.9621 -1.4593 -0.4799
 2547SOL    HW219101   2.976   2.721  13.205  0.2084  2.4659 -0.7977
 2548SOL     OW19102   4.062   0.443   5.456 -0.3481  0.2004  0.5475
 2548SOL    HW119103   4.058   0.443   5.360 -0.1336 -2.2309  0.5231
 2548SOL    HW219104   4.046   0.536   5.472  0.0521  0.1583  1.1862
 2549SOL     OW19105   2.083   2.068   7.905 -0.1685 -0.1495  0.4710
 2549SOL    HW119106   2.059   2.107   7.989 -0.5844 -0.3357  0.4396
 2549SOL    HW219107   2.134   2.136   7.860 -0.0966 -0.3987  0.1722
 2550SOL     OW19108   4.319   3.829  15.472  0.0667 -0.2941  0.2545
 2550SOL    HW119109   4.389   3.887  15.443  1.5304 -1.1446  2.0989
 2550SOL    HW219110   4.267   3.893  15.520  0.1543  0.2933 -0.4377
 2551SOL     OW19111   2.521   2.703  14.962  0.0797  0.2204 -0.1921
 2551SOL    HW119112   2.513   2.699  15.057 -2.5272 -1.4120 -0.4839
 2551SOL    HW219113   2.613   2.683  14.945 -0.0233 -0.2885 -0.1714
 2552SOL     OW19114   0.664   2.132   8.001  0.0226 -0.2358  0.7040
 2552SOL    HW119115   0.607   2.068   7.959  0.1963  0.9051 -1.2730
 2552SOL    HW219116   0.739   2.073   8.013 -1.0225 -1.3046  1.8574
 2553SOL     OW19117   4.316   0.045   6.335 -0.3697  0.1150 -0.2266
 2553SOL    HW119118   4.385   4.700   6.345 -0.4393 -0.0532 -0.8714
 2553SOL    HW219119   4.366   0.123   6.310 -0.6491 -0.1814 -1.7036
 2554SOL     OW19120   4.074   4.714  12.088 -0.1287  0.0633 -0.7841
 2554SOL    HW119121   4.089   4.637  12.143 -2.9232 -0.3439 -0.5983
 2554SOL    HW219122   4.058   4.670  12.004  1.4378 -1.4773 -0.2838
 2555SOL     OW19123   3.758   2.624  12.275 -0.0082 -0.1684 -0.3369
 2555SOL    HW119124   3.772   2.633  12.369  1.9099  0.9742 -0.7424
 2555SOL    HW219125   3.667   2.652  12.260 -1.2424 -2.6840  2.3701
 2556SOL     OW19126   1.693   2.206  17.366 -0.5664  0.6040  0.0500
 2556SOL    HW119127   1.697   2.166  17.279  0.2859 -2.3359  1.4388
 2556SOL    HW219128   1.604   2.240  17.370 -0.5697  0.2990  2.8167
 2557SOL     OW19129   0.289   1.400  14.366  0.0709 -0.3827 -0.6713
 2557SOL    HW119130   0.362   1.462  14.371  0.1316 -0.5130 -0.0202
 2557SOL    HW219131   0.332   1.319  14.392 -0.7911 -0.2827  1.0386
 2558SOL     OW19132   3.821   3.323   7.243 -0.2928 -0.0052 -0.0551
 2558SOL    HW119133   3.774   3.254   7.196  0.5100  1.2534 -2.7116
 2558SOL    HW219134   3.838   3.276   7.325 -1.2353  1.6332  1.0741
 2559SOL     OW19135   0.784   3.339  11.618  0.6447  0.0045  0.8957
 2559SOL    HW119136   0.879   3.349  11.617  0.5339  0.9415  0.2774
 2559SOL    HW219137   0.754   3.325  11.529 -0.8393  1.6471  1.1232
 2560SOL     OW19138   1.202   3.879  15.654  0.1272 -0.0019  0.5434
 2560SOL    HW119139   1.138   3.807  15.651  2.1671 -1.7418 -1.0760
 2560SOL    HW219140   1.259   3.830  15.713 -1.2303  0.2869  2.1096
 2561SOL     OW19141   1.593   2.635   9.209  0.0948 -0.5360 -0.4585
 2561SOL    HW119142   1.551   2.647   9.124  0.8012  1.4353 -0.5299
 2561SOL    HW219143   1.622   2.727   9.211 -1.4683 -0.1026  2.3229
 2562SOL     OW19144   3.905   0.993   7.203  0.1463 -0.3532  0.3011
 2562SOL    HW119145   3.969   0.934   7.165  2.7723  0.9724  2.6363
 2562SOL    HW219146   3.960   1.070   7.189 -1.6053  0.6888 -0.9243
 2563SOL     OW19147   0.803   2.842   1.792 -0.0499 -0.2986  0.3520
 2563SOL    HW119148   0.759   2.807   1.715  2.0950 -2.8340  0.3081
 2563SOL    HW219149   0.776   2.934   1.789  0.1015 -0.2779 -0.4354
 2564SOL     OW19150   3.297   3.081  10.077 -0.0691 -0.1530 -0.0295
 2564SOL    HW119151   3.245   3.126  10.143 -0.2556  0.6046 -0.6954
 2564SOL    HW219152   3.248   2.998  10.075 -0.4723  0.0664  0.7003
 2565SOL     OW19153   3.885   1.726   6.101 -0.5804 -0.0777  0.3846
 2565SOL    HW119154   3.890   1.803   6.157  4.0036 -1.5253  1.9366
 2565SOL    HW219155   3.880   1.760   6.012 -0.6017  0.1818  0.4847
 2566SOL     OW19156   0.906   3.634   7.990 -0.2891  0.3291  0.0619
 2566SOL    HW119157   0.973   3.571   8.015 -0.5328  1.1761  2.8805
 2566SOL    HW219158   0.961   3.707   7.962 -0.5126  0.7348  0.6835
 2567SOL     OW19159   1.648   1.394   4.927 -0.0567 -0.4240 -0.1650
 2567SOL    HW119160   1.644   1.317   4.984  0.5121  0.4525  1.0454
 2567SOL    HW219161   1.558   1.419   4.904  0.2601 -0.9522 -1.9735
 2568SOL     OW19162   0.120   4.432   7.383 -0.0796  0.0707 -0.0681
 2568SOL    HW119163   0.070   4.377   7.323 -1.6720  0.9169  0.4702
 2568SOL    HW219164   0.156   4.502   7.328  0.2882 -0.4522 -0.4940
 2569SOL     OW19165   1.071   0.955  16.943  0.8689 -0.4986 -0.0252
 2569SOL    HW119166   1.048   0.881  16.999 -1.7345  1.1342  1.0866
 2569SOL    HW219167   1.155   0.933  16.904  1.9792  2.7375  0.5884
 2570SOL     OW19168   3.316   3.154   6.477  0.0096 -0.3411  0.6486
 2570SOL    HW119169   3.286   3.083   6.419 -1.5295  0.5128  0.4154
 2570SOL    HW219170   3.247   3.151   6.543 -0.4548  0.1311  0.1811
 2571SOL     OW19171   3.652   1.538   7.601 -0.3557 -0.6052  0.3568
 2571SOL    HW119172   3.577   1.510   7.654  1.9871 -2.2219  2.8271
 2571SOL    HW219173   3.607   1.601   7.545 -0.5062 -0.1265  1.0164
 2572SOL     OW19174   2.524   1.149   3.501  0.7890  0.4711 -0.4073
 2572SOL    HW119175   2.590   1.198   3.451 -0.2782  2.1332 -0.1866
 2572SOL    HW219176   2.547   1.056   3.494  0.6772  0.4723 -0.8120
 2573SOL     OW19177   2.023   2.275   8.491 -0.0749 -0.1651  0.2582
 2573SOL    HW119178   2.051   2.189   8.524 -1.4731 -1.2756 -1.4604
 2573SOL    HW219179   2.043   2.270   8.397 -1.8776  1.0728 -0.1776
 2574SOL     OW19180   2.007   2.304   6.452  0.6168 -0.5856  0.7190
 2574SOL    HW119181   1.961   2.283   6.371 -0.0890  0.1475  0.9290
 2574SOL    HW219182   2.010   2.398   6.432 -1.9705 -1.0764 -1.9341
 2575SOL     OW19183   4.387   2.851   7.131  0.2576  0.2743  0.6416
 2575SOL    HW119184   4.398   2.929   7.185 -1.5672 -0.4547  2.0620
 2575SOL    HW219185   4.319   2.877   7.070  1.2727  0.9792 -0.1931
 2576SOL     OW19186   1.381   0.177   6.763 -0.0467 -0.4764  0.7389
 2576SOL    HW119187   1.360   0.263   6.798 -1.7014  0.7460 -3.3321
 2576SOL    HW219188   1.382   0.195   6.669  0.9799  1.1612  1.0630
 2577SOL     OW19189   1.193   0.596  17.612  0.4201 -0.3800  0.4306
 2577SOL    HW119190   1.216   0.572  17.523  1.9125  2.8630 -0.0347
 2577SOL    HW219191   1.202   0.508  17.649 -0.1045  0.4316  2.5004
 2578SOL     OW19192   3.661   3.488   3.896 -0.3265  0.1192 -0.4425
 2578SOL    HW119193   3.683   3.399   3.922  2.6617  0.7648 -0.7630
 2578SOL    HW219194   3.675   3.530   3.981 -0.8062 -1.7071  0.5208
 2579SOL     OW19195   2.042   4.195   3.820  0.8982  0.3306  0.3747
 2579SOL    HW119196   2.095   4.225   3.746  0.6813 -0.0607  0.0609
 2579SOL    HW219197   2.070   4.256   3.888 -2.1033  1.8593  0.1951
 2580SOL     OW19198   1.090   2.828   1.808 -0.1106  0.4468 -0.3052
 2580SOL    HW119199   1.000   2.826   1.774 -0.4536 -2.5881  0.7336
 2580SOL    HW219200   1.121   2.906   1.763  0.7028  1.1708  1.5291
 2581SOL     OW19201   1.575   3.103   6.363  0.0276  0.3490  0.0173
 2581SOL    HW119202   1.608   3.193   6.363 -0.7885  0.6408 -1.5751
 2581SOL    HW219203   1.481   3.117   6.348  0.0767  1.9719  1.1471
 2582SOL     OW19204   0.025   0.938   6.625 -0.4069 -0.6200 -0.5104
 2582SOL    HW119205   0.077   1.002   6.673  0.2891 -0.7969 -1.0408
 2582SOL    HW219206   0.005   0.989   6.547  1.6385  0.9368 -0.0001
 2583SOL     OW19207   3.348   2.396  14.996  0.7046 -0.4445  0.2842
 2583SOL    HW119208   3.406   2.457  14.950 -2.1900  0.8980 -1.6148
 2583SOL    HW219209   3.383   2.403  15.085 -0.6739  1.3441  0.6867
 2584SOL     OW19210   3.342   1.920   6.340  0.8766 -0.1992  0.0868
 2584SOL    HW119211   3.364   1.826   6.337 -0.1921 -0.4669  0.7512
 2584SOL    HW219212   3.251   1.921   6.309  1.3937  0.4541 -1.4088
 2585SOL     OW19213   4.196   3.289  14.910  0.1923  0.2795 -0.7054
 2585SOL    HW119214   4.111   3.327  14.934 -0.8032 -1.0306 -2.1795
 2585SOL    HW219215   4.177   3.241  14.830 -1.6004  3.1348 -2.0267
 2586SOL     OW19216   0.552   1.346   3.103 -0.1895  0.0977 -0.3379
 2586SOL    HW119217   0.627   1.405   3.094 -0.9013  1.1722  0.6190
 2586SOL    HW219218   0.484   1.377   3.044  0.3538  0.4006 -0.8059
 2587SOL     OW19219   1.764   2.140   1.942 -0.3315 -0.4948  0.3139
 2587SOL    HW119220   1.846   2.111   1.984  0.5165  1.1643 -0.2278
 2587SOL    HW219221   1.746   2.211   2.003  2.1099  1.0017 -0.6901
 2588SOL     OW19222   1.764   0.863   4.960  0.3748 -0.2293 -0.1353
 2588SOL    HW119223   1.703   0.934   4.937 -1.6739 -2.5003 -1.6886
 2588SOL    HW219224   1.753   0.883   5.053  2.2903 -0.0400  0.0524
 2589SOL     OW19225   4.050   3.913   2.037 -0.7685 -0.1330 -1.0113
 2589SOL    HW119226   4.030   3.843   2.100 -1.0193  1.3150  0.5115
 2589SOL    HW219227   3.975   3.968   2.062 -1.5819 -2.0101  0.6869
 2590SOL     OW19228   0.427   3.354  16.312  0.2417  0.4506 -0.4117
 2590SOL    HW119229   0.431   3.435  16.363 -0.8334 -0.2003  0.7025
 2590SOL    HW219230   0.427   3.295  16.387  1.6857 -0.9110 -1.4858
 2591SOL     OW19231   3.482   1.392   8.071  0.6359 -0.1696  0.1958
 2591SOL    HW119232   3.424   1.348   8.008  1.1526  1.4461 -1.4104
 2591SOL    HW219233   3.441   1.477   8.080  2.5118  0.8259 -0.5777
 2592SOL     OW19234   3.270   3.667   3.909  0.0258 -0.0345  0.6239
 2592SOL    HW119235   3.317   3.745   3.881  0.2899  0.1297  1.5332
 2592SOL    HW219236   3.327   3.649   3.983  1.4718  0.1230 -0.4403
 2593SOL     OW19237   2.735   1.471   8.462  0.1640 -0.2006 -0.2615
 2593SOL    HW119238   2.737   1.503   8.372  0.1528  0.3001 -0.0837
 2593SOL    HW219239   2.807   1.408   8.458  1.9813  2.0424 -4.0611
 2594SOL     OW19240   1.846   4.454   2.628 -0.1974 -0.1337 -0.7906
 2594SOL    HW119241   1.939   4.435   2.627 -0.3590 -1.1936  2.6490
 2594SOL    HW219242   1.830   4.511   2.703  0.3962  0.6649 -1.2727
 2595SOL     OW19243   1.464   0.139  10.387 -0.1457  0.0188  0.1517
 2595SOL    HW119244   1.521   0.085  10.443 -0.1829 -1.0749 -0.8638
 2595SOL    HW219245   1.486   0.225  10.421 -1.3034  1.2535 -2.2782
 2596SOL     OW19246   3.044   3.424   6.020 -0.6451  0.0572 -0.0405
 2596SOL    HW119247   3.027   3.516   6.040  0.5269  0.0203  1.1032
 2596SOL    HW219248   3.136   3.437   5.999 -0.7342 -1.9306 -1.6927
 2597SOL     OW19249   3.007   1.872   4.501 -0.6058  0.0226 -0.3580
 2597SOL    HW119250   3.020   1.807   4.570  2.4786 -0.1803 -1.1497
 2597SOL    HW219251   2.925   1.835   4.467  0.3556 -2.5867  0.1298
 2598SOL     OW19252   0.924   2.700   6.247 -0.1289  0.1566  0.3685
 2598SOL    HW119253   0.966   2.618   6.221  0.1269  0.5657 -0.4986
 2598SOL    HW219254   0.868   2.726   6.174 -0.0885 -1.8482 -0.3714
 2599SOL     OW19255   0.962   0.910  17.640 -0.1414  0.3611 -0.1844
 2599SOL    HW119256   0.927   0.975   0.013 -1.0852  0.1907 -0.5472
 2599SOL    HW219257   1.030   0.963  17.601 -0.0514  1.5992  1.6551
 2600SOL     OW19258   0.439   3.372   8.949 -0.3499 -0.5015 -0.6906
 2600SOL    HW119259   0.487   3.414   8.877 -2.0791  2.4198 -0.1474
 2600SOL    HW219260   0.499   3.305   8.981  1.3673  0.1333 -2.5986
 2601SOL     OW19261   1.348   0.228  17.607 -0.3014  0.2948 -0.2841
 2601SOL    HW119262   1.295   0.291  17.657 -1.3861 -1.9030  1.3594
 2601SOL    HW219263   1.297   0.148  17.619  0.4244 -0.0729  0.3473
 2602SOL     OW19264   3.859   0.578   7.680  0.2967 -0.4491  0.3858
 2602SOL    HW119265   3.907   0.562   7.600  0.3784  0.8654  0.1637
 2602SOL    HW219266   3.842   0.672   7.671  0.4862 -0.4362  0.1835
 2603SOL     OW19267   0.542   0.064  12.517 -0.3329  0.0743  0.3989
 2603SOL    HW119268   0.552   4.694  12.488 -0.1823  1.0810 -2.7358
 2603SOL    HW219269   0.448   0.079  12.514 -0.0439  2.2032  2.6501
 2604SOL     OW19270   1.862   4.218   6.014 -1.0842 -0.0450 -0.0304
 2604SOL    HW119271   1.877   4.237   6.106  0.5269 -0.7485 -0.1563
 2604SOL    HW219272   1.769   4.194   6.019 -1.0663  0.1910  1.3172
 2605SOL     OW19273   0.924   0.944   5.098  0.1015 -0.4827  0.0503
 2605SOL    HW119274   0.986   1.008   5.132 -0.9933 -0.1638  1.3971
 2605SOL    HW219275   0.927   0.969   5.005  3.2930 -1.0084  0.0009
 2606SOL     OW19276   0.215   2.628   9.921  0.4798  0.4465  0.0616
 2606SOL    HW119277   0.194   2.709   9.967  0.0524  0.9083 -0.9446
 2606SOL    HW219278   0.252   2.671   9.843 -1.1458  0.6254 -0.5969
 2607SOL     OW19279   2.077   0.997  16.475  0.2443 -0.1155 -0.4031
 2607SOL    HW119280   2.133   0.993  16.398  0.6581  2.1280 -0.2257
 2607SOL    HW219281   2.018   1.067  16.447  0.9269  1.5105  2.2357
 2608SOL     OW19282   4.320   3.343   8.239 -0.0383  0.3705 -0.3960
 2608SOL    HW119283   4.380   3.366   8.310  0.2637  2.0082 -1.1895
 2608SOL    HW219284   4.237   3.384   8.263 -1.0172 -1.3147 -0.9082
 2609SOL     OW19285   0.020   4.317   2.379 -0.8546 -0.3843 -0.2832
 2609SOL    HW119286   0.067   4.377   2.321 -2.4356  0.1903 -0.9550
 2609SOL    HW219287   4.670   4.377   2.403 -0.6806 -1.3927  2.7273
 2610SOL     OW19288   3.505   1.067   7.025 -0.9350  0.0478 -0.0535
 2610SOL    HW119289   3.462   0.990   6.988 -0.3704 -1.0759  1.5906
 2610SOL    HW219290   3.563   1.029   7.091 -3.7305 -1.1617  1.7095
 2611SOL     OW19291   3.798   0.821   6.837  0.5014  0.2413 -0.8350
 2611SOL    HW119292   3.856   0.856   6.905 -0.7391 -2.9701  1.9092
 2611SOL    HW219293   3.857   0.807   6.764 -0.5475 -1.3521 -1.3816
 2612SOL     OW19294   2.613   2.822   3.106  0.5092 -0.3004 -0.1558
 2612SOL    HW119295   2.646   2.734   3.124 -0.8771 -1.1386 -1.6710
 2612SOL    HW219296   2.536   2.813   3.050 -1.2976  3.8776  1.6785
 2613SOL     OW19297   3.923   1.379   5.570 -0.3148 -0.0108 -0.6231
 2613SOL    HW119298   3.834   1.346   5.560 -0.3870  0.7915 -2.5580
 2613SOL    HW219299   3.946   1.365   5.662 -1.1487  0.9168 -0.2812
 2614SOL     OW19300   1.585   3.050   7.448 -0.6934  0.3938 -0.0419
 2614SOL    HW119301   1.627   3.065   7.533 -1.9137 -1.7413  0.9236
 2614SOL    HW219302   1.604   2.961   7.422  0.4395 -0.0925  2.4233
 2615SOL     OW19303   1.465   2.067   2.011 -0.2627 -0.1893  0.2214
 2615SOL    HW119304   1.453   2.080   1.916  0.0116 -1.8978 -0.0391
 2615SOL    HW219305   1.561   2.061   2.012 -0.2687 -0.1492  0.6815
 2616SOL     OW19306   2.914   2.583  16.806  0.2309 -0.0721 -0.1753
 2616SOL    HW119307   2.979   2.591  16.876  0.0655  2.1453 -0.2884
 2616SOL    HW219308   2.864   2.664  16.805  0.7779  0.2952  2.7363
 2617SOL     OW19309   2.315   0.598   3.983  0.0709 -0.0609 -0.6600
 2617SOL    HW119310   2.308   0.685   3.944  1.2247 -0.2771 -1.3555
 2617SOL    HW219311   2.385   0.612   4.047 -0.4201 -0.8014  0.0424
 2618SOL     OW19312   2.882   1.620   4.230 -0.1379 -0.6245 -0.3932
 2618SOL    HW119313   2.809   1.620   4.168  0.6015 -2.4022 -1.2458
 2618SOL    HW219314   2.828   1.658   4.299 -1.1700  0.0336 -1.5425
 2619SOL     OW19315   1.816   3.961   4.116 -0.0937 -0.4871  0.3793
 2619SOL    HW119316   1.742   4.012   4.147 -1.7158 -3.0424  0.7299
 2619SOL    HW219317   1.887   4.009   4.159 -0.4352  0.0917  0.2828
 2620SOL     OW19318   1.944   1.046   1.038  0.3148 -0.0542 -0.4900
 2620SOL    HW119319   2.007   0.977   1.057 -0.7502 -0.6990  0.7492
 2620SOL    HW219320   1.863   1.004   1.011  0.3574 -0.2846 -0.2641
 2621SOL     OW19321   2.910   1.188   2.726  0.2567  0.1843 -0.2919
 2621SOL    HW119322   2.957   1.227   2.799 -2.5188 -2.3622  2.8702
 2621SOL    HW219323   2.924   1.257   2.661 -1.3029 -0.7944 -1.6755
 2622SOL     OW19324   2.581   3.936   9.125  0.0080  0.4798  0.0111
 2622SOL    HW119325   2.645   3.873   9.157  0.3419  0.3563 -0.9049
 2622SOL    HW219326   2.599   4.018   9.171 -0.1756  0.7146 -0.3317
 2623SOL     OW19327   4.600   4.343  11.805  0.2947  0.1285  0.1839
 2623SOL    HW119328   4.690   4.324  11.828  0.6506  1.3682 -0.1585
 2623SOL    HW219329   4.550   4.386  11.875 -0.0710  0.7018 -0.4260
 2624SOL     OW19330   4.184   3.954   2.584  0.2802  0.4115  0.2681
 2624SOL    HW119331   4.102   3.905   2.579  2.0744 -2.5640  0.1992
 2624SOL    HW219332   4.239   3.899   2.529  0.2562  0.2406  0.4142
 2625SOL     OW19333   1.224   3.789  13.137 -0.2102 -0.3396  0.0560
 2625SOL    HW119334   1.269   3.741  13.206 -0.0195 -0.8291 -0.4042
 2625SOL    HW219335   1.135   3.755  13.142  1.1078 -3.5381  1.6782
 2626SOL     OW19336   0.923   4.440  16.255 -0.1292  0.2477 -0.6156
 2626SOL    HW119337   0.992   4.451  16.190 -0.1832 -3.6836 -1.3348
 2626SOL    HW219338   0.897   4.349  16.242  0.1911 -0.1205  1.3422
 2627SOL     OW19339   3.417   4.582   2.695 -0.0968  0.2601 -0.2506
 2627SOL    HW119340   3.347   4.625   2.745 -2.0631 -3.9782  0.6111
 2627SOL    HW219341   3.409   4.491   2.725 -0.0138  0.5643  0.7048
 2628SOL     OW19342   1.283   0.812   1.795 -0.4399  0.4144  0.3547
 2628SOL    HW119343   1.198   0.843   1.825 -1.3595 -0.0885 -1.7261
 2628SOL    HW219344   1.304   0.903   1.771 -0.0247  0.7651  2.0553
 2629SOL     OW19345   3.487   1.554   8.463  0.4199  0.4126  0.3667
 2629SOL    HW119346   3.455   1.479   8.412  1.6492  0.3294 -0.2864
 2629SOL    HW219347   3.402   1.567   8.505 -0.9860  2.9135 -3.2758
 2630SOL     OW19348   3.786   1.822  10.159  0.3741 -0.4336 -0.9743
 2630SOL    HW119349   3.739   1.790  10.236 -1.1042  0.4256 -1.5047
 2630SOL    HW219350   3.728   1.795  10.087 -1.2556  1.7758 -0.5039
 2631SOL     OW19351   3.390   1.968   3.499  0.1816 -0.2990  0.6365
 2631SOL    HW119352   3.440   1.970   3.418 -0.5886  1.1336  0.1882
 2631SOL    HW219353   3.428   2.045   3.542  2.3186 -1.3804  0.7031
 2632SOL     OW19354   0.050   2.907  13.039 -0.5099  0.5904  0.1831
 2632SOL    HW119355   0.136   2.910  13.081 -0.9232  0.8879  1.0098
 2632SOL    HW219356   4.719   2.934  13.115 -1.3632  0.9351 -0.5224
 2633SOL     OW19357   3.696   0.574   6.639  0.2506  0.2917 -0.0644
 2633SOL    HW119358   3.740   0.557   6.556 -1.0645 -1.5805 -0.3781
 2633SOL    HW219359   3.663   0.664   6.634 -0.2631 -0.0184 -2.2400
 2634SOL     OW19360   4.081   3.568  15.330 -0.2230  0.2143 -0.0216
 2634SOL    HW119361   4.096   3.568  15.235  0.3906 -0.6686  0.0715
 2634SOL    HW219362   3.998   3.614  15.339  0.2989  1.1929 -0.1535
 2635SOL     OW19363   2.237   0.449   6.968  0.2622  0.0415  0.3293
 2635SOL    HW119364   2.331   0.448   6.947  0.8026  1.2740  2.6835
 2635SOL    HW219365   2.231   0.504   7.046 -0.9717  0.3114  0.0363
 2636SOL     OW19366   0.261   3.694   9.693 -0.5932 -0.1705  0.2164
 2636SOL    HW119367   0.190   3.735   9.743  0.5350 -0.9208  2.4100
 2636SOL    HW219368   0.216   3.677   9.610 -0.2947  0.7990 -0.1381
 2637SOL     OW19369   3.046   3.207   3.531  0.0941  0.3216 -0.2006
 2637SOL    HW119370   3.119   3.269   3.529  1.4495 -1.2700 -0.3135
 2637SOL    HW219371   2.977   3.268   3.558  0.8300  1.0216  0.1273
 2638SOL     OW19372   2.034   3.408   9.487 -0.0286 -0.2729  0.4317
 2638SOL    HW119373   2.129   3.418   9.490  0.0593 -1.3928  1.2461
 2638SOL    HW219374   2.009   3.492   9.447 -1.0230 -0.8982 -0.2349
 2639SOL     OW19375   0.156   1.221   1.828 -0.3856 -0.0061  0.0602
 2639SOL    HW119376   0.134   1.171   1.749 -2.5594 -1.4158  1.5307
 2639SOL    HW219377   0.249   1.210   1.844 -1.0363 -1.8389  2.6903
 2640SOL     OW19378   2.227   2.853  17.525 -0.2526  0.2581 -0.0142
 2640SOL    HW119379   2.165   2.786  17.554  1.0509 -0.4799  1.0485
 2640SOL    HW219380   2.306   2.800  17.529  0.0516  0.5722 -1.6481
 2641SOL     OW19381   4.687   0.593  15.041  0.0952  0.2700  0.1459
 2641SOL    HW119382   4.672   0.669  15.097  0.3959  0.0957  0.4594
 2641SOL    HW219383   0.060   0.581  15.048 -0.1810 -1.9620  0.0607
 2642SOL     OW19384   3.732   3.806   7.818 -0.0034  0.7014  0.4186
 2642SOL    HW119385   3.677   3.830   7.893  0.1474  2.6912 -0.1032
 2642SOL    HW219386   3.692   3.851   7.744 -0.0161  2.7910  1.6920
 2643SOL     OW19387   0.858   4.424  17.067 -0.1608 -0.3722 -0.1379
 2643SOL    HW119388   0.919   4.369  17.017  1.8406  1.1373  0.6658
 2643SOL    HW219389   0.918   4.481  17.115  0.2433 -1.4473  0.6647
 2644SOL     OW19390   3.256   3.521   4.688 -0.4099  0.6734  0.4537
 2644SOL    HW119391   3.176   3.474   4.664 -1.4082  1.6552  1.8697
 2644SOL    HW219392   3.227   3.610   4.668  0.4507  0.9003  0.2372
 2645SOL     OW19393   0.264   1.304   8.495  0.4576  0.0128 -0.5692
 2645SOL    HW119394   0.348   1.325   8.535 -0.7855  1.6832  1.2069
 2645SOL    HW219395   0.232   1.240   8.559  1.7593 -0.5659 -0.5125
 2646SOL     OW19396   2.626   4.246   4.451  0.6215 -0.1145 -0.0094
 2646SOL    HW119397   2.609   4.340   4.440 -1.6270 -0.2572  2.1492
 2646SOL    HW219398   2.716   4.257   4.421  0.0019 -0.8586 -2.1125
 2647SOL     OW19399   2.678   4.618   8.784  0.2866  0.5023  0.2113
 2647SOL    HW119400   2.746   4.562   8.822 -1.4786 -1.4866  0.4497
 2647SOL    HW219401   2.719   4.704   8.793 -0.5766  0.9157  0.1399
 2648SOL     OW19402   2.776   1.335  10.766 -0.3302  0.7898 -0.5325
 2648SOL    HW119403   2.832   1.413  10.764  0.6571  0.0398 -1.6497
 2648SOL    HW219404   2.835   1.261  10.772 -0.4911  0.7322  0.3826
 2649SOL     OW19405   1.145   2.371   4.671 -0.4188 -0.0201  0.9958
 2649SOL    HW119406   1.163   2.277   4.680  3.1909  0.6396  0.7479
 2649SOL    HW219407   1.125   2.390   4.762  0.0229  1.6435  0.7392
 2650SOL     OW19408   2.737   1.155   7.087 -0.1171 -0.1620 -0.4626
 2650SOL    HW119409   2.769   1.105   7.161  2.4273  0.9624 -0.8205
 2650SOL    HW219410   2.821   1.189   7.055 -0.1712  0.4919  0.0877
 2651SOL     OW19411   3.716   4.650  17.270  0.0027  0.3961 -0.4157
 2651SOL    HW119412   3.764   4.645  17.353  0.1547  1.5297 -0.4240
 2651SOL    HW219413   3.774   4.599  17.215 -1.4595 -0.0189 -1.5755
 2652SOL     OW19414   3.798   2.342   7.442  0.3770 -0.0449 -0.0115
 2652SOL    HW119415   3.860   2.413   7.453 -0.0708  0.1460  1.2836
 2652SOL    HW219416   3.713   2.383   7.459  1.2553  0.8942  2.0794
 2653SOL     OW19417   3.534   1.189   7.672 -0.4772  0.1263  0.0762
 2653SOL    HW119418   3.611   1.232   7.710  0.5691 -0.7152 -1.0849
 2653SOL    HW219419   3.494   1.154   7.752 -0.2681  1.3164  0.7029
 2654SOL     OW19420   3.312   3.828   7.375 -0.3504 -0.2690 -0.4186
 2654SOL    HW119421   3.385   3.814   7.436  1.1248  1.3825 -1.7991
 2654SOL    HW219422   3.258   3.756   7.407 -1.5812  0.7104 -0.3042
 2655SOL     OW19423   1.350   1.622   4.428  0.3136 -0.0138  0.6953
 2655SOL    HW119424   1.373   1.561   4.359  1.2559  3.9622 -2.5038
 2655SOL    HW219425   1.293   1.571   4.485  1.1250 -2.7299 -0.9678
 2656SOL     OW19426   0.351   2.424   7.499  0.3502 -0.1997 -0.6871
 2656SOL    HW119427   0.288   2.496   7.500 -1.6013 -1.8925 -2.4471
 2656SOL    HW219428   0.389   2.422   7.587  0.6375 -1.9843 -0.8522
 2657SOL     OW19429   2.035   0.591   8.546 -0.0279 -0.5114  0.5911
 2657SOL    HW119430   2.111   0.606   8.489 -0.2741 -1.8312 -0.0897
 2657SOL    HW219431   2.056   0.633   8.630  3.0150  1.2484 -1.0362
 2658SOL     OW19432   0.411   0.591   8.677  0.6089  0.1514  0.1692
 2658SOL    HW119433   0.412   0.546   8.761  2.0819 -1.9509 -0.9722
 2658SOL    HW219434   0.351   0.532   8.631  0.5387 -0.3228  0.8612
 2659SOL     OW19435   4.408   3.629   8.053  0.1811  0.9248 -0.6579
 2659SOL    HW119436   4.492   3.661   8.086  0.6119 -0.6841 -0.1930
 2659SOL    HW219437   4.346   3.675   8.109 -1.0688 -0.3491 -0.9981
 2660SOL     OW19438   4.533   0.441  14.309  0.5065 -0.2472 -0.0614
 2660SOL    HW119439   4.466   0.383  14.273 -0.1640  0.0672  0.6932
 2660SOL    HW219440   4.578   0.464  14.227 -1.0518 -1.5603 -1.2796
 2661SOL     OW19441   0.492   3.678  11.064  0.4255 -0.0143  0.2738
 2661SOL    HW119442   0.574   3.684  11.113  0.1085 -2.4799  1.1068
 2661SOL    HW219443   0.488   3.767  11.028 -1.6647  0.0563  0.6642
 2662SOL     OW19444   2.341   2.232  15.374 -0.2258 -0.7117  0.2755
 2662SOL    HW119445   2.367   2.323  15.363  2.0760 -1.4629 -0.5972
 2662SOL    HW219446   2.421   2.197  15.335 -1.2296 -2.8550  0.0830
 2663SOL     OW19447   0.618   0.168   7.639 -0.7254  0.5435 -0.5096
 2663SOL    HW119448   0.561   0.243   7.618  0.6397  1.0958 -2.3183
 2663SOL    HW219449   0.556   0.097   7.654 -0.8333  0.8575  0.4899
 2664SOL     OW19450   0.622   1.038   8.632 -0.0730 -0.2973 -0.2330
 2664SOL    HW119451   0.544   0.984   8.647 -1.5021  1.0493 -2.8489
 2664SOL    HW219452   0.661   1.019   8.547 -0.0140  0.8293 -0.4607
 2665SOL     OW19453   0.889   4.469  10.808  0.4834  0.0172 -0.2171
 2665SOL    HW119454   0.915   4.501  10.721  3.2076  0.4638  0.7556
 2665SOL    HW219455   0.876   4.553  10.851  0.2945  0.5738 -1.3551
 2666SOL     OW19456   1.936   2.831   3.591 -0.7482 -0.0012  0.0360
 2666SOL    HW119457   1.928   2.924   3.610  0.6390 -0.1418  1.3019
 2666SOL    HW219458   1.948   2.831   3.496  1.3728 -2.2281  0.2944
 2667SOL     OW19459   2.026   3.684  12.745 -0.3497  0.0652 -0.4678
 2667SOL    HW119460   2.084   3.659  12.816 -0.0467 -0.1072 -0.7795
 2667SOL    HW219461   2.070   3.764  12.715  0.7112 -0.2445  0.2600
 2668SOL     OW19462   1.981   4.362   0.735  0.2904 -0.2693 -0.0735
 2668SOL    HW119463   2.056   4.400   0.780 -0.5393  3.4098 -1.7591
 2668SOL    HW219464   1.937   4.303   0.795  0.6623  1.1643  1.6116
 2669SOL     OW19465   1.966   3.585   3.347 -0.0395 -0.5899  0.1334
 2669SOL    HW119466   2.035   3.649   3.362 -1.6724  0.6916  2.2812
 2669SOL    HW219467   1.988   3.555   3.259  2.1992 -1.8747  1.1401
 2670SOL     OW19468   2.590   4.492   3.343  0.4685 -0.1029 -0.3627
 2670SOL    HW119469   2.504   4.531   3.359  0.2665 -0.7599  0.1339
 2670SOL    HW219470   2.637   4.507   3.425 -0.8843  1.7768  0.0754
 2671SOL     OW19471   3.070   1.325   3.921 -0.4027  0.0832  0.0769
 2671SOL    HW119472   3.143   1.385   3.906  1.1455 -2.6405 -3.0824
 2671SOL    HW219473   3.097   1.279   4.000 -1.6477 -0.2424  0.3140
 2672SOL     OW19474   3.921   3.790   7.301 -0.1623 -0.1246 -0.1202
 2672SOL    HW119475   3.941   3.697   7.293  1.4767  0.3225 -1.2863
 2672SOL    HW219476   3.960   3.813   7.386 -0.1989 -1.5341  0.2798
 2673SOL     OW19477   4.654   3.620   0.057  0.0388  0.1660  0.6112
 2673SOL    HW119478   4.692   3.533   0.069  1.8485  0.8189 -0.3354
 2673SOL    HW219479   4.565   3.614   0.091  0.8791  2.5257  3.2100
 2674SOL     OW19480   4.646   3.581   5.144  0.1125 -0.0138 -0.4590
 2674SOL    HW119481   4.560   3.624   5.142  0.9212  1.5487 -1.5144
 2674SOL    HW219482   4.613   3.498   5.109  0.0030  0.1621 -0.7759
 2675SOL     OW19483   4.355   3.274  13.721  0.0451  0.1891  0.5693
 2675SOL    HW119484   4.396   3.336  13.782 -0.3404  0.7123  0.2939
 2675SOL    HW219485   4.298   3.228  13.784 -0.5192 -2.4121 -1.8371
 2676SOL     OW19486   4.652   4.717   4.379 -0.7497 -0.2682 -0.0582
 2676SOL    HW119487   4.591   4.682   4.314 -2.2514  0.8326  0.7575
 2676SOL    HW219488   4.705   4.639   4.397  0.9666  0.9224  0.0439
 2677SOL     OW19489   1.948   4.620   6.836  0.1664 -0.0363 -0.1937
 2677SOL    HW119490   1.938   4.598   6.928  0.5705  1.5969  0.2368
 2677SOL    HW219491   1.870   4.572   6.809 -1.0409  0.2602  2.7933
 2678SOL     OW19492   0.126   1.753   8.717 -0.6520 -0.3387  0.5509
 2678SOL    HW119493   0.133   1.682   8.653  0.7844  1.7787 -1.6379
 2678SOL    HW219494   0.059   1.715   8.774 -2.0396 -0.6679 -1.2989
 2679SOL     OW19495   4.027   1.197   5.830  0.1972 -0.5618  0.0026
 2679SOL    HW119496   4.055   1.114   5.869  3.2055  1.3032  1.7012
 2679SOL    HW219497   4.105   1.244   5.856 -0.8237 -0.1210  2.2723
 2680SOL     OW19498   0.322   0.764   3.782  0.3055 -0.1931 -0.5981
 2680SOL    HW119499   0.384   0.733   3.847 -1.5807 -0.0112  1.2860
 2680SOL    HW219500   0.329   0.700   3.711 -1.5699 -1.2029  0.1173
 2681SOL     OW19501   0.344   0.856  12.309  0.5985  0.3041  0.1466
 2681SOL    HW119502   0.326   0.792  12.378 -0.2207  1.2395  0.7860
 2681SOL    HW219503   0.297   0.930  12.347  1.8513  1.3471 -0.3251
 2682SOL     OW19504   0.129   1.088  17.442 -0.3088  0.3231 -0.2316
 2682SOL    HW119505   0.088   1.173  17.427 -0.6806  0.4437  1.4993
 2682SOL    HW219506   0.125   1.047  17.356 -2.1649 -0.6608  0.3428
 2683SOL     OW19507   1.782   1.631  16.773 -0.4535  0.3581  0.0507
 2683SOL    HW119508   1.711   1.662  16.718 -0.1159 -1.0892 -1.1997
 2683SOL    HW219509   1.768   1.676  16.856 -1.2411 -1.0275  0.6679
 2684SOL     OW19510   0.159   2.675   3.403  0.4292 -0.1131 -0.2676
 2684SOL    HW119511   0.162   2.742   3.336  2.1600  1.3697  1.2834
 2684SOL    HW219512   0.082   2.625   3.374  0.6526  0.2750 -1.5264
 2685SOL     OW19513   3.106   0.552   7.180  0.6044 -0.2319 -0.5099
 2685SOL    HW119514   3.032   0.496   7.205  1.4231 -0.5479  1.2549
 2685SOL    HW219515   3.186   0.505   7.203 -0.2279 -0.4509  1.9283
 2686SOL     OW19516   2.645   1.764   7.857  0.3325  0.1080 -0.4910
 2686SOL    HW119517   2.557   1.728   7.854  1.1145 -1.8528  0.1384
 2686SOL    HW219518   2.647   1.826   7.784  0.6227  0.1430 -0.4538
 2687SOL     OW19519   3.403   0.834   6.273 -0.3675  0.2647  0.7165
 2687SOL    HW119520   3.413   0.769   6.203 -1.8541  1.0160 -0.1960
 2687SOL    HW219521   3.367   0.909   6.225 -2.3437 -2.1777 -1.6416
 2688SOL     OW19522   1.425   4.637  10.157 -0.2022 -0.7421  0.9477
 2688SOL    HW119523   1.450   4.548  10.178 -1.5694 -1.3877 -0.0813
 2688SOL    HW219524   1.395   4.615  10.068  0.6155  0.5067  0.3616
 2689SOL     OW19525   0.297   3.815   5.303  0.3101  0.0365 -0.2123
 2689SOL    HW119526   0.313   3.729   5.265  0.5572  0.3113 -0.7275
 2689SOL    HW219527   0.243   3.773   5.370 -1.7013 -0.6509 -2.2501
 2690SOL     OW19528   4.353   4.225   8.553 -0.7232  0.0285  0.6600
 2690SOL    HW119529   4.305   4.249   8.632 -0.4676  1.9707  0.2445
 2690SOL    HW219530   4.368   4.131   8.563 -1.4889 -0.0796  0.7797
 2691SOL     OW19531   1.543   1.524   9.382  0.0789 -0.4679  0.3137
 2691SOL    HW119532   1.492   1.534   9.301 -1.9346  0.4665  1.6963
 2691SOL    HW219533   1.485   1.468   9.435 -3.7571  0.4887 -2.8468
 2692SOL     OW19534   1.627   3.352   6.312  0.5608  0.0381  0.3086
 2692SOL    HW119535   1.704   3.408   6.319 -0.2249  1.1970 -0.2568
 2692SOL    HW219536   1.569   3.395   6.375  0.4646  0.8185 -0.3159
 2693SOL     OW19537   2.287   4.072   9.283  0.1204  0.9199  0.1365
 2693SOL    HW119538   2.333   4.040   9.205  0.9110 -0.8764  1.3289
 2693SOL    HW219539   2.317   4.015   9.353 -3.8569 -0.8831  0.3683
 2694SOL     OW19540   1.916   2.232   3.468 -0.0971  0.1737 -0.3032
 2694SOL    HW119541   1.842   2.192   3.422  0.3830  1.5332 -2.3024
 2694SOL    HW219542   1.886   2.323   3.472 -0.0386  0.0743  2.0904
 2695SOL     OW19543   3.131   1.283   7.612 -0.2993 -0.0388 -0.3366
 2695SOL    HW119544   3.074   1.291   7.535 -0.3291 -1.3724 -0.4554
 2695SOL    HW219545   3.143   1.376   7.627 -0.2973 -0.2408  0.9138
 2696SOL     OW19546   2.746   2.774   9.450 -0.1380  0.4789 -0.4683
 2696SOL    HW119547   2.840   2.795   9.445  0.3582 -1.8011 -0.4544
 2696SOL    HW219548   2.729   2.835   9.522  0.7298 -0.1759  0.2982
 2697SOL     OW19549   0.017   2.441   7.514  0.5275  0.4798  0.7727
 2697SOL    HW119550   4.704   2.351   7.511 -1.1430  1.1277 -0.0237
 2697SOL    HW219551   4.694   2.480   7.439  0.0392 -1.4476  0.0538
 2698SOL     OW19552   2.062   2.154   8.868 -0.2222  0.3725 -0.3586
 2698SOL    HW119553   2.028   2.135   8.955 -1.7951 -2.3046 -1.5384
 2698SOL    HW219554   1.998   2.220   8.840 -0.8249  0.0348  0.2061
 2699SOL     OW19555   4.686   3.412   6.375 -0.0832  0.7229  0.2116
 2699SOL    HW119556   0.053   3.388   6.402 -0.1528 -0.0389 -0.2440
 2699SOL    HW219557   4.637   3.400   6.456  1.5837  1.4559  1.3208
 2700SOL     OW19558   4.034   3.933  16.979 -0.4674 -0.0746  0.4676
 2700SOL    HW119559   4.011   3.994  16.909 -2.3470  1.4181  2.3758
 2700SOL    HW219560   3.946   3.903  17.003 -0.1868 -0.2638  1.2572
 2701SOL     OW19561   1.910   3.625   7.897 -0.5072 -0.1701 -0.4839
 2701SOL    HW119562   1.837   3.570   7.927 -0.0660 -1.0357 -1.0141
 2701SOL    HW219563   1.948   3.655   7.979  0.4728  3.4844 -2.2574
 2702SOL     OW19564   4.438   3.060  17.119 -0.3728 -0.2852 -0.4908
 2702SOL    HW119565   4.446   3.131  17.183 -0.5677 -0.0091 -0.7740
 2702SOL    HW219566   4.501   3.082  17.051 -2.4837  1.9361 -1.7290
 2703SOL     OW19567   1.179   4.162   8.634 -0.0084 -0.4126 -0.6186
 2703SOL    HW119568   1.124   4.110   8.576  0.2835 -0.5907 -0.7348
 2703SOL    HW219569   1.183   4.249   8.595  1.1229 -1.1007 -2.0280
 2704SOL     OW19570   3.888   2.332  15.899 -0.0348 -0.2533  0.3237
 2704SOL    HW119571   3.918   2.410  15.851  0.4389  0.2516  1.4414
 2704SOL    HW219572   3.808   2.367  15.938 -0.8450 -1.8075  0.0231
 2705SOL     OW19573   1.236   1.900   3.738  0.1599  0.0835 -0.5246
 2705SOL    HW119574   1.164   1.922   3.798 -0.2420 -0.4404 -0.8109
 2705SOL    HW219575   1.186   1.843   3.679 -1.6062  1.4873 -0.3948
 2706SOL     OW19576   4.312   3.015   6.688 -0.4626  0.1143 -0.5688
 2706SOL    HW119577   4.264   2.948   6.639  1.2424 -1.0961 -0.5978
 2706SOL    HW219578   4.361   3.063   6.621  2.7317 -3.4963 -0.8516
 2707SOL     OW19579   2.266   3.034   4.174 -0.2152  0.4208 -0.2673
 2707SOL    HW119580   2.348   2.985   4.162 -0.0659  0.5705  0.1375
 2707SOL    HW219581   2.242   3.003   4.261  1.6002  1.0726  0.4774
 2708SOL     OW19582   2.677   2.433   9.970  0.5319 -0.2500  0.0027
 2708SOL    HW119583   2.685   2.477   9.885 -0.2791 -0.3082 -0.1037
 2708SOL    HW219584   2.628   2.353   9.951 -1.6822  0.9113  0.9702
 2709SOL     OW19585   3.654   0.978   5.555  0.2061  0.0124  0.5517
 2709SOL    HW119586   3.566   0.973   5.520 -0.0240 -1.7302  1.3512
 2709SOL    HW219587   3.671   0.911   5.622 -1.2730  0.2303  1.1372
 2710SOL     OW19588   1.511   2.532  10.070 -0.4693 -0.3220  0.2815
 2710SOL    HW119589   1.436   2.585  10.042 -1.2662 -0.3957  2.2802
 2710SOL    HW219590   1.482   2.441  10.068 -1.2431 -0.0870  1.1840
 2711SOL     OW19591   3.063   1.963   2.350 -0.0445 -0.3733  0.5712
 2711SOL    HW119592   2.990   1.920   2.306 -1.9718  0.1699  3.1838
 2711SOL    HW219593   3.034   2.029   2.413 -2.5801 -1.2736  0.3646
 2712SOL     OW19594   3.831   2.947   0.130  0.2546 -0.0084  0.5830
 2712SOL    HW119595   3.813   2.912   0.217 -1.9088  1.1683  0.6337
 2712SOL    HW219596   3.790   3.032   0.149 -1.1522 -0.8012  1.1782
 2713SOL     OW19597   2.152   3.598  10.712 -0.7603 -0.7220  0.1704
 2713SOL    HW119598   2.069   3.588  10.665 -1.0444 -0.3239  0.5929
 2713SOL    HW219599   2.204   3.635  10.640 -2.1425  2.2290  0.6943
 2714SOL     OW19600   1.340   0.167  10.026  0.2565 -0.3492  0.1269
 2714SOL    HW119601   1.299   0.151   9.941  0.1992 -1.0811  0.2942
 2714SOL    HW219602   1.274   0.218  10.072 -1.3875 -1.8441 -0.5768
 2715SOL     OW19603   1.949   1.359   4.268 -0.5311  0.2862  0.0386
 2715SOL    HW119604   1.972   1.396   4.353  0.1632  1.7826 -0.8005
 2715SOL    HW219605   1.941   1.267   4.295 -0.2593  0.6806  1.4403
 2716SOL     OW19606   3.631   2.419   5.332  0.1065  0.0872 -0.3523
 2716SOL    HW119607   3.646   2.511   5.309  1.3601 -0.2677 -0.9484
 2716SOL    HW219608   3.643   2.423   5.427 -0.7084  2.2766 -0.3467
 2717SOL     OW19609   2.177   0.379   3.949  0.0168  0.3546 -0.0123
 2717SOL    HW119610   2.228   0.459   3.959 -0.2473  0.3905  1.0631
 2717SOL    HW219611   2.106   0.407   4.007 -0.7367  0.3455 -0.9178
 2718SOL     OW19612   1.039   2.450  17.540  0.1309  0.3418 -0.5097
 2718SOL    HW119613   1.062   2.489  17.456 -0.9866 -0.5463 -1.2395
 2718SOL    HW219614   0.964   2.503  17.568 -0.4140  0.9138 -3.0327
 2719SOL     OW19615   2.406   4.423   5.914 -0.1283  0.2670  0.6744
 2719SOL    HW119616   2.480   4.398   5.858 -2.4311 -2.3575 -1.2507
 2719SOL    HW219617   2.426   4.513   5.939  2.4158 -0.2391  0.4560
 2720SOL     OW19618   3.584   4.000   1.750 -0.5455  0.5206 -0.2520
 2720SOL    HW119619   3.635   4.076   1.777 -0.8613  1.4849 -2.3684
 2720SOL    HW219620   3.608   3.998   1.657  1.2409  0.9978  0.2137
 2721SOL     OW19621   1.983   3.945   1.779 -0.3464 -0.1332  0.2623
 2721SOL    HW119622   1.988   4.025   1.728 -1.5854 -0.4893 -0.4248
 2721SOL    HW219623   2.005   3.980   1.865 -0.1393 -0.2258  0.2474
 2722SOL     OW19624   1.988   0.215   2.281 -0.1247  0.4982 -0.7604
 2722SOL    HW119625   1.984   0.207   2.186  0.7336 -1.0077 -0.6740
 2722SOL    HW219626   2.070   0.168   2.298 -0.5841  0.5743  1.6762
 2723SOL     OW19627   0.979   3.357   8.992 -0.2626 -0.1533 -0.1844
 2723SOL    HW119628   0.903   3.382   8.939  0.2071 -1.4999 -1.4963
 2723SOL    HW219629   1.005   3.443   9.025  0.1968 -0.1418 -0.5727
 2724SOL     OW19630   3.052   2.064   1.991  0.6893 -0.3433  0.2144
 2724SOL    HW119631   3.063   1.976   1.954 -1.1052 -0.3388 -0.3213
 2724SOL    HW219632   3.062   2.120   1.915  0.1163  1.2439  1.3042
 2725SOL     OW19633   4.630   2.174   3.774  0.4504  0.1324 -0.2040
 2725SOL    HW119634   4.710   2.167   3.826  0.5718  0.0482 -0.4032
 2725SOL    HW219635   4.673   2.176   3.688 -1.3758 -0.3517 -1.1320
 2726SOL     OW19636   1.329   1.085   0.809 -0.6288 -0.4376 -0.2082
 2726SOL    HW119637   1.410   1.123   0.843 -1.5319  0.7358  0.6850
 2726SOL    HW219638   1.354   0.993   0.805  1.0382  0.0585 -1.4371
 2727SOL     OW19639   4.261   1.345   7.499  0.8097  0.6554 -0.4942
 2727SOL    HW119640   4.318   1.408   7.542  0.7854 -0.7988  1.6720
 2727SOL    HW219641   4.227   1.402   7.431 -1.2222  1.6825  1.3561
 2728SOL     OW19642   2.599   3.952   1.945 -0.4719  0.5128  0.1150
 2728SOL    HW119643   2.564   4.034   1.910 -1.2631 -0.2300 -0.8639
 2728SOL    HW219644   2.688   3.985   1.953 -0.5113  0.8831 -0.9585
 2729SOL     OW19645   4.023   3.832  17.625 -0.4190 -0.4609  0.7289
 2729SOL    HW119646   3.935   3.799  17.609 -1.2924  1.5378  1.3931
 2729SOL    HW219647   4.022   3.919  17.585  0.3189 -0.3090  1.0283
 2730SOL     OW19648   0.388   4.502   5.949 -0.3644  0.4104  0.4995
 2730SOL    HW119649   0.336   4.428   5.918  1.1692 -0.2387 -0.5324
 2730SOL    HW219650   0.335   4.532   6.023  0.3037 -0.5237  1.3567
 2731SOL     OW19651   2.569   1.381  15.601  0.0554 -0.8998 -0.0890
 2731SOL    HW119652   2.538   1.458  15.649 -0.0188  0.2639 -1.9921
 2731SOL    HW219653   2.643   1.355  15.656  0.6394 -2.1419 -1.4781
 2732SOL     OW19654   0.028   4.609   8.286 -0.0479 -0.0044 -0.1049
 2732SOL    HW119655   0.048   4.548   8.356  0.1670 -1.3122 -1.3117
 2732SOL    HW219656   4.657   4.628   8.303  0.4746  0.3523  2.2756
 2733SOL     OW19657   1.693   4.433   4.766  0.1030  0.0554 -0.1113
 2733SOL    HW119658   1.782   4.464   4.782  0.0894 -1.0490  2.0687
 2733SOL    HW219659   1.649   4.505   4.720  0.5744 -0.6520 -1.6849
 2734SOL     OW19660   0.919   2.870   2.050  0.0798 -0.0516 -0.4480
 2734SOL    HW119661   0.983   2.853   1.980 -0.4872 -0.3990 -0.8768
 2734SOL    HW219662   0.884   2.949   2.011 -1.2723 -1.2102 -1.5741
 2735SOL     OW19663   0.802   2.689   8.001 -0.2443 -0.0646  0.2921
 2735SOL    HW119664   0.861   2.660   8.071 -0.8897  2.7920  2.0250
 2735SOL    HW219665   0.718   2.654   8.033  0.2824 -0.4309  1.2917
 2736SOL     OW19666   3.414   0.372   2.236  0.2667  0.3636  0.4062
 2736SOL    HW119667   3.355   0.442   2.266  2.0760  1.2924  1.7974
 2736SOL    HW219668   3.380   0.358   2.148 -0.4310  1.4514  0.4970
 2737SOL     OW19669   3.106   1.321   3.393  0.2688  0.0983 -0.2908
 2737SOL    HW119670   3.069   1.258   3.453  0.4108  2.0933  1.8966
 2737SOL    HW219671   3.148   1.381   3.456 -0.3606  0.2321 -0.0040
 2738SOL     OW19672   2.817   3.495  10.512  0.2470 -0.5614  0.3391
 2738SOL    HW119673   2.741   3.439  10.527 -0.6512  0.4723 -0.3479
 2738SOL    HW219674   2.790   3.554  10.442  0.7683 -1.7319 -0.8300
 2739SOL     OW19675   3.212   3.696   9.071  0.3495  0.4533 -0.0428
 2739SOL    HW119676   3.296   3.655   9.095  0.3327  0.1513 -0.5018
 2739SOL    HW219677   3.150   3.628   9.098 -1.0711  0.8700 -2.3587
 2740SOL     OW19678   1.657   0.468   3.543  0.4429 -0.4238 -0.4059
 2740SOL    HW119679   1.636   0.547   3.592 -3.0188 -0.2849 -2.0527
 2740SOL    HW219680   1.633   0.404   3.610 -0.6264 -0.7346 -1.0884
 2741SOL     OW19681   3.476   4.341   0.291  0.0318  0.0729 -0.4476
 2741SOL    HW119682   3.539   4.319   0.360  0.5338  0.9309 -0.6343
 2741SOL    HW219683   3.493   4.435   0.285  2.1028 -0.2327  0.6181
 2742SOL     OW19684   0.303   1.065   3.091 -0.0291  0.2359  0.8132
 2742SOL    HW119685   0.227   1.009   3.101  0.1197 -0.4328 -1.9117
 2742SOL    HW219686   0.294   1.094   3.001 -2.0440  0.5454  1.1285
 2743SOL     OW19687   4.228   2.557  15.696 -0.0116 -0.2852 -0.2258
 2743SOL    HW119688   4.293   2.546  15.627  3.0334 -2.4561  2.9831
 2743SOL    HW219689   4.278   2.602  15.764 -2.4488 -1.3879  2.3047
 2744SOL     OW19690   3.580   2.587   3.767  0.0328  0.0192  0.5609
 2744SOL    HW119691   3.668   2.625   3.766 -0.2446  0.6322 -1.4009
 2744SOL    HW219692   3.589   2.517   3.702  0.9442  0.2394  0.4490
 2745SOL     OW19693   2.386   3.539   8.421  0.0143 -0.2891  0.4807
 2745SOL    HW119694   2.381   3.612   8.359  1.2884  0.6529  1.4847
 2745SOL    HW219695   2.324   3.478   8.380  0.5655 -1.1808  0.9809
 2746SOL     OW19696   1.686   1.919   0.543 -0.0982  0.3222  0.0077
 2746SOL    HW119697   1.692   1.836   0.495 -0.9049 -0.0608  0.5702
 2746SOL    HW219698   1.601   1.906   0.585 -0.4521 -0.7506 -1.0403
 2747SOL     OW19699   4.134   1.833  15.598  0.0245  0.5654 -0.2971
 2747SOL    HW119700   4.039   1.836  15.589 -0.0479 -0.4326  0.1373
 2747SOL    HW219701   4.149   1.927  15.606  1.3082  0.0886  2.9990
 2748SOL     OW19702   1.330   0.067  14.025  0.2232  0.0214  0.2047
 2748SOL    HW119703   1.282   0.147  14.000  2.6502  1.2345 -0.5620
 2748SOL    HW219704   1.364   0.087  14.112  0.9690 -0.5850  0.0444
 2749SOL     OW19705   1.464   1.751   5.694 -0.3796  1.1964 -0.4106
 2749SOL    HW119706   1.394   1.727   5.634  1.6006 -1.1679 -1.7912
 2749SOL    HW219707   1.434   1.838   5.720 -0.9251  1.0707 -0.6401
 2750SOL     OW19708   3.609   1.154   3.132  0.3714 -0.1184 -0.6785
 2750SOL    HW119709   3.535   1.184   3.079  0.1717  1.3062  0.4393
 2750SOL    HW219710   3.560   1.087   3.179 -1.3371  0.9128 -0.9892
 2751SOL     OW19711   1.847   1.894   9.666 -0.7566  0.0992 -0.0808
 2751SOL    HW119712   1.771   1.916   9.720 -1.2917 -0.8148 -0.4662
 2751SOL    HW219713   1.807   1.840   9.598 -0.3489  0.3898 -0.5427
 2752SOL     OW19714   0.887   1.271   7.584 -0.3672 -0.7154  0.4240
 2752SOL    HW119715   0.915   1.182   7.560 -0.5617 -0.3294 -1.2284
 2752SOL    HW219716   0.792   1.276   7.570 -0.5435  0.6751  2.2095
 2753SOL     OW19717   4.599   2.781  16.241 -0.0261 -0.3563  0.4790
 2753SOL    HW119718   4.563   2.868  16.222  0.1868 -0.1446  1.0242
 2753SOL    HW219719   4.671   2.797  16.181 -1.8825  0.7512 -1.4693
 2754SOL     OW19720   1.868   3.959   0.690  0.1198  0.0935  0.5217
 2754SOL    HW119721   1.872   4.040   0.741 -1.7481 -0.8138  2.1287
 2754SOL    HW219722   1.909   3.901   0.755 -0.7090 -1.1167 -0.0225
 2755SOL     OW19723   0.209   1.595   7.480  0.0030 -0.1736  0.2203
 2755SOL    HW119724   0.118   1.568   7.496 -1.1045  3.5004  0.1502
 2755SOL    HW219725   0.234   1.534   7.411 -0.6526 -1.2463  0.9354
 2756SOL     OW19726   0.889   2.898   6.522  0.4525  0.0851 -0.1732
 2756SOL    HW119727   0.840   2.963   6.471  0.2069 -1.3172 -1.7543
 2756SOL    HW219728   0.959   2.877   6.461 -1.3696  0.1148 -2.2957
 2757SOL     OW19729   0.580   0.475  12.300 -0.5126  0.3949 -0.9500
 2757SOL    HW119730   0.501   0.516  12.264  0.0691  0.9282 -1.6232
 2757SOL    HW219731   0.581   0.490  12.395  3.2434  0.9904 -1.0729
 2758SOL     OW19732   2.269   0.872   2.310 -0.1117  0.6047 -0.2099
 2758SOL    HW119733   2.269   0.788   2.265  0.0946  0.1273  0.6805
 2758SOL    HW219734   2.343   0.865   2.371 -1.8709 -1.4380  1.6971
 2759SOL     OW19735   1.574   1.923  11.417 -0.0655 -0.0261  0.0493
 2759SOL    HW119736   1.519   2.000  11.399 -0.5265 -0.5697 -0.8546
 2759SOL    HW219737   1.509   1.864  11.455  1.9919 -2.6537 -0.5960
 2760SOL     OW19738   2.998   2.600   3.505 -0.0701  0.2993 -0.4592
 2760SOL    HW119739   2.932   2.583   3.573 -0.5063 -0.7727 -1.1640
 2760SOL    HW219740   2.972   2.688   3.475 -2.3592  0.7910  2.8636
 2761SOL     OW19741   4.636   1.487   5.539  0.0267 -0.8604 -0.5976
 2761SOL    HW119742   4.645   1.569   5.588 -1.7209  0.7273 -2.9792
 2761SOL    HW219743   4.557   1.446   5.576 -0.6497  1.9173  1.0426
 2762SOL     OW19744   2.121   1.494   7.907  0.0218 -0.2555  0.2313
 2762SOL    HW119745   2.133   1.586   7.931 -2.0711 -0.8069  3.5360
 2762SOL    HW219746   2.032   1.493   7.871  0.5540 -2.0493 -1.0256
 2763SOL     OW19747   3.262   0.003   1.261  0.5204 -0.1470  0.0627
 2763SOL    HW119748   3.179   0.002   1.308  1.5918  0.5526  1.9508
 2763SOL    HW219749   3.241   4.672   1.184 -0.6574  1.2061 -0.5397
 2764SOL     OW19750   4.017   0.903   6.125  0.1524 -0.4003 -0.2435
 2764SOL    HW119751   4.037   0.997   6.128  1.3018 -0.6091 -1.6121
 2764SOL    HW219752   4.089   0.865   6.174 -2.1815 -2.5406  1.5081
 2765SOL     OW19753   3.012   0.001   9.238  0.2039 -0.1102 -0.0624
 2765SOL    HW119754   3.095   4.679   9.218  0.0723  0.2093 -1.3273
 2765SOL    HW219755   3.046   0.058   9.307 -0.2189  1.5281 -1.1821
 2766SOL     OW19756   1.621   1.146   3.135  0.3029 -0.4210  0.0935
 2766SOL    HW119757   1.663   1.181   3.214  0.6365  0.0891 -0.3072
 2766SOL    HW219758   1.696   1.107   3.089  0.1994  1.8732 -2.0342
 2767SOL     OW19759   3.617   1.761   2.151 -0.2172 -0.4662  0.1433
 2767SOL    HW119760   3.582   1.672   2.155 -0.3440 -0.4260 -0.1005
 2767SOL    HW219761   3.578   1.800   2.073 -2.1240 -2.4891  0.0809
 2768SOL     OW19762   0.510   4.216  12.750 -0.1438  0.3990  0.6030
 2768SOL    HW119763   0.557   4.252  12.825  2.0145  0.5004 -0.7888
 2768SOL    HW219764   0.518   4.121  12.764  0.1852  0.3771  0.2700
 2769SOL     OW19765   1.237   2.128  11.803  0.0735 -1.0260  0.0268
 2769SOL    HW119766   1.324   2.146  11.768 -0.0265 -0.0784  0.2608
 2769SOL    HW219767   1.257   2.064  11.871  1.5878 -1.8607 -1.2266
 2770SOL     OW19768   1.504   3.544   8.493 -0.0702 -0.1642 -0.0948
 2770SOL    HW119769   1.531   3.575   8.579 -0.4548  1.9834 -0.7415
 2770SOL    HW219770   1.482   3.454   8.516 -0.5981  0.3275  1.3203
 2771SOL     OW19771   0.603   1.166   2.582  0.0978 -0.5007  0.0213
 2771SOL    HW119772   0.539   1.237   2.586 -1.9110 -2.3409  0.7905
 2771SOL    HW219773   0.615   1.150   2.489  1.5091  0.2617  0.0716
 2772SOL     OW19774   0.821   4.156  16.250 -0.4639 -0.1421  0.0639
 2772SOL    HW119775   0.775   4.074  16.236 -2.1368  1.0766 -1.5991
 2772SOL    HW219776   0.885   4.160  16.178  2.0373 -1.7536  2.2116
 2773SOL     OW19777   2.295   4.328  12.149  0.2572  0.0545 -0.1571
 2773SOL    HW119778   2.354   4.331  12.074  0.9018  0.7747  0.3794
 2773SOL    HW219779   2.215   4.294  12.109 -0.5533  1.0063  0.6576
 2774SOL     OW19780   2.077   2.487   8.630  0.8917  0.2124 -0.1883
 2774SOL    HW119781   2.062   2.402   8.588  0.2820  1.0317 -1.6065
 2774SOL    HW219782   2.008   2.535   8.586 -0.9744 -3.2637 -1.0670
 2775SOL     OW19783   4.210   2.153   1.959  0.5152 -1.0490  0.3956
 2775SOL    HW119784   4.164   2.152   1.874  1.5176  1.0318 -0.1735
 2775SOL    HW219785   4.134   2.123   2.009 -0.7857 -0.3919 -1.1763
 2776SOL     OW19786   4.681   1.101  12.812  0.4395  0.2963  0.3374
 2776SOL    HW119787   4.628   1.106  12.733  0.8108  1.7720  0.1707
 2776SOL    HW219788   4.614   1.137  12.871  1.6864  1.5307  1.0146
 2777SOL     OW19789   2.385   4.317   9.942 -0.0654 -0.2690 -0.4514
 2777SOL    HW119790   2.448   4.295   9.873  1.5441  1.2146  0.5290
 2777SOL    HW219791   2.390   4.412   9.934  1.1734 -0.2782  0.1482
 2778SOL     OW19792   2.546   0.202   5.883  0.3124 -0.4355  0.0438
 2778SOL    HW119793   2.528   0.207   5.790  1.6093 -2.0812 -0.3044
 2778SOL    HW219794   2.561   0.294   5.906 -0.0781 -0.3552 -0.0329
 2779SOL     OW19795   3.771   1.864   8.951 -0.6650 -0.0531 -0.4236
 2779SOL    HW119796   3.704   1.845   8.885 -2.0246  1.9176  0.3905
 2779SOL    HW219797   3.718   1.923   9.004  0.1551  0.8813 -0.6414
 2780SOL     OW19798   4.388   0.561   6.883  0.4976  0.5767  0.0771
 2780SOL    HW119799   4.312   0.611   6.852  0.2933  0.0221 -0.3097
 2780SOL    HW219800   4.371   0.474   6.848 -0.6963  0.6050  0.5690
 2781SOL     OW19801   1.706   4.103   6.927 -0.6472  0.0435 -0.1183
 2781SOL    HW119802   1.785   4.056   6.954 -0.3436  0.2620 -0.6415
 2781SOL    HW219803   1.747   4.127   6.844  0.1819 -1.1268 -0.0516
 2782SOL     OW19804   4.062   3.291  15.416  0.0800  0.2971  0.3321
 2782SOL    HW119805   4.010   3.302  15.495  0.3281 -1.3484  0.7270
 2782SOL    HW219806   4.069   3.380  15.382  0.3104  0.0359 -0.3097
 2783SOL     OW19807   2.794   2.778   7.686  0.0045  0.0854  0.1988
 2783SOL    HW119808   2.772   2.687   7.705  0.2105 -0.0479 -0.2170
 2783SOL    HW219809   2.724   2.788   7.621 -1.4708 -0.5715  1.6870
 2784SOL     OW19810   3.790   3.876   4.088  0.2721 -0.5717 -0.1060
 2784SOL    HW119811   3.727   3.898   4.156 -1.2589  1.2047 -2.0918
 2784SOL    HW219812   3.836   3.806   4.132 -0.3083  1.1162  3.1599
 2785SOL     OW19813   1.900   0.458  16.671 -0.0151  0.2005 -0.5370
 2785SOL    HW119814   1.908   0.418  16.758  1.5826 -1.5814 -1.4888
 2785SOL    HW219815   1.932   0.388  16.614 -0.4827  0.3874 -1.0178
 2786SOL     OW19816   4.063   2.236  16.110  0.0557 -0.0278  0.0837
 2786SOL    HW119817   4.009   2.270  16.039 -0.1957 -2.8141 -1.0502
 2786SOL    HW219818   4.155   2.251  16.085  0.6359 -0.9670  1.6222
 2787SOL     OW19819   3.095   3.093   1.580 -0.2977 -0.1953 -0.0861
 2787SOL    HW119820   3.115   3.089   1.674 -0.4119 -0.1540 -0.0596
 2787SOL    HW219821   3.176   3.116   1.535  0.0324 -1.1634  0.0005
 2788SOL     OW19822   2.900   0.441   5.074 -0.3191  0.1246 -0.2999
 2788SOL    HW119823   2.808   0.431   5.050  0.3705 -1.2070 -2.3849
 2788SOL    HW219824   2.893   0.514   5.135  0.1735  0.8309 -1.0904
 2789SOL     OW19825   4.325   0.608   3.089  0.2502 -1.0758 -0.1701
 2789SOL    HW119826   4.245   0.576   3.130 -0.6244  0.6890 -0.5031
 2789SOL    HW219827   4.291   0.671   3.026  1.4492 -0.7674 -0.5074
 2790SOL     OW19828   2.697   4.155   2.222 -0.2523 -0.2672  0.1907
 2790SOL    HW119829   2.691   4.075   2.273 -0.8312  0.4432  1.2356
 2790SOL    HW219830   2.638   4.217   2.266  0.5886 -0.3249  1.3937
 2791SOL     OW19831   0.610   1.038  12.269  0.1680 -0.3844 -0.1343
 2791SOL    HW119832   0.684   0.990  12.306 -0.9526 -2.8702 -1.0366
 2791SOL    HW219833   0.538   0.974  12.263  0.4946 -1.0417  2.8564
 2792SOL     OW19834   3.479   3.437  14.811 -0.4768  0.0613  0.5105
 2792SOL    HW119835   3.403   3.461  14.759 -0.2203 -1.7799 -0.7152
 2792SOL    HW219836   3.547   3.489  14.768  0.1157  1.1814  2.7755
 2793SOL     OW19837   0.944   0.981   4.820 -0.0329  0.0377 -0.1922
 2793SOL    HW119838   1.014   0.931   4.778  0.8299  0.5469  0.6273
 2793SOL    HW219839   0.914   1.044   4.754 -0.1229  1.6711  1.3922
 2794SOL     OW19840   4.154   1.339   3.951 -0.2728 -0.2259  0.0219
 2794SOL    HW119841   4.197   1.347   4.036 -1.7705 -0.2190  0.7804
 2794SOL    HW219842   4.219   1.382   3.896 -0.5525 -0.5246 -0.5425
 2795SOL     OW19843   1.684   1.052  12.750 -0.0687 -0.3912  0.3849
 2795SOL    HW119844   1.631   0.976  12.728  1.2385 -0.9850 -0.6972
 2795SOL    HW219845   1.774   1.021  12.735  0.7369  2.3334 -0.3985
 2796SOL     OW19846   2.781   0.856   6.243 -0.0301 -0.7517 -0.6793
 2796SOL    HW119847   2.712   0.790   6.242 -2.0149  1.3316 -2.3449
 2796SOL    HW219848   2.849   0.812   6.294  2.3457  0.6085 -2.6502
 2797SOL     OW19849   0.421   1.642   3.802 -0.7416  0.5036 -0.3418
 2797SOL    HW119850   0.341   1.617   3.848 -0.6917  2.2914  0.7366
 2797SOL    HW219851   0.379   1.666   3.720 -1.8075 -0.6367 -0.1194
 2798SOL     OW19852   2.528   0.069  11.437 -0.1987 -0.1197 -0.4895
 2798SOL    HW119853   2.584   0.108  11.369 -0.3019 -1.0805 -1.1242
 2798SOL    HW219854   2.451   0.035  11.391 -0.9670  1.4477 -0.3735
 2799SOL     OW19855   0.215   3.535  10.243 -0.2736  0.1414 -0.1677
 2799SOL    HW119856   0.274   3.465  10.270 -0.4657 -0.4631 -1.3316
 2799SOL    HW219857   0.268   3.614  10.250  1.0339 -0.5038 -2.8858
 2800SOL     OW19858   1.086   0.867   1.228 -0.2571 -0.9337  0.2636
 2800SOL    HW119859   1.036   0.786   1.237 -1.0344 -0.4414  0.3897
 2800SOL    HW219860   1.144   0.829   1.162 -1.4687  1.0264 -1.9197
 2801SOL     OW19861   0.887   2.153   9.226  0.4559 -0.1842  0.0589
 2801SOL    HW119862   0.834   2.215   9.176 -0.5934  0.0115  1.4074
 2801SOL    HW219863   0.838   2.075   9.203 -0.8389  0.8235 -0.6216
 2802SOL     OW19864   3.665   3.689   0.946 -0.4195 -0.4745 -0.3617
 2802SOL    HW119865   3.671   3.594   0.951  1.0207 -0.1243  4.2372
 2802SOL    HW219866   3.700   3.713   0.860  0.4522  0.8186  0.3455
 2803SOL     OW19867   4.305   4.133   4.923 -0.4131  0.0503  0.5018
 2803SOL    HW119868   4.296   4.039   4.907 -2.0524  0.4432 -0.8756
 2803SOL    HW219869   4.232   4.169   4.873  0.9852  1.8030 -0.2747
 2804SOL     OW19870   0.191   3.114  16.104 -0.0150  0.2958  0.4324
 2804SOL    HW119871   0.133   3.065  16.046  0.8390 -0.0347 -0.1332
 2804SOL    HW219872   0.269   3.104  16.050 -0.5547  0.2423 -0.3448
 2805SOL     OW19873   0.281   4.254  15.280 -0.2516  0.1211  0.0740
 2805SOL    HW119874   0.267   4.297  15.196 -0.5129 -0.5521 -0.2336
 2805SOL    HW219875   0.373   4.230  15.282 -0.1579  0.6242  1.9898
 2806SOL     OW19876   1.872   0.462   3.865  0.0095  0.0948  0.4198
 2806SOL    HW119877   1.852   0.554   3.881  0.6811  0.2015  0.6606
 2806SOL    HW219878   1.924   0.475   3.785 -0.6722 -0.7008 -0.1442
 2807SOL     OW19879   3.365   0.993   3.451  0.4048  0.1152 -0.4492
 2807SOL    HW119880   3.306   0.925   3.483  2.3320 -1.1272  0.4521
 2807SOL    HW219881   3.429   1.009   3.520 -2.5623  2.9693  1.6737
 2808SOL     OW19882   0.355   3.036   8.971 -0.6066 -0.1206 -0.0854
 2808SOL    HW119883   0.389   2.986   8.897  1.5944  3.4886 -1.5203
 2808SOL    HW219884   0.294   3.095   8.927 -1.3625 -0.9368 -0.1305
 2809SOL     OW19885   1.438   3.574   4.519 -0.0949 -0.6361 -0.1707
 2809SOL    HW119886   1.461   3.630   4.445 -0.9107 -1.1620 -0.8213
 2809SOL    HW219887   1.358   3.616   4.551 -0.5393 -1.1894 -0.5546
 2810SOL     OW19888   2.955   4.376  17.199 -0.0687 -0.1104 -0.3937
 2810SOL    HW119889   3.008   4.408  17.272 -1.4934  1.2300  0.0531
 2810SOL    HW219890   3.011   4.386  17.121  2.0890  0.5584  1.2573
 2811SOL     OW19891   0.207   3.651   2.750 -0.5234 -0.2710  0.0782
 2811SOL    HW119892   0.188   3.661   2.843 -0.2836  0.7389  0.0211
 2811SOL    HW219893   0.303   3.643   2.749 -0.7047 -2.3384 -0.3956
 2812SOL     OW19894   3.962   1.128   4.173 -0.7471 -0.1590  0.5210
 2812SOL    HW119895   3.929   1.154   4.088  1.1062  0.8651  0.0933
 2812SOL    HW219896   3.990   1.039   4.151  0.8728  0.6812 -0.8144
 2813SOL     OW19897   0.849   4.689  10.604  0.2920 -0.0705  0.3258
 2813SOL    HW119898   0.807   4.677  10.519 -2.5046 -0.2062  1.7159
 2813SOL    HW219899   0.883   0.052  10.576 -0.0345 -0.0702 -0.0701
 2814SOL     OW19900   1.155   2.412   4.967  0.0889  0.1780  0.3659
 2814SOL    HW119901   1.095   2.463   5.021 -0.2678 -0.8768  0.9835
 2814SOL    HW219902   1.231   2.420   5.025 -0.9555  1.7129  1.5119
 2815SOL     OW19903   2.800   2.438   5.686  0.1592 -0.5293 -0.0853
 2815SOL    HW119904   2.850   2.445   5.604  0.6941 -0.4066  0.2480
 2815SOL    HW219905   2.718   2.466   5.645 -0.2761  1.3099  2.0457
 2816SOL     OW19906   1.046   1.447   3.561  0.0011  0.4211  0.1654
 2816SOL    HW119907   1.039   1.353   3.545  1.1826  0.3966 -0.1469
 2816SOL    HW219908   1.094   1.489   3.489 -2.2242 -1.4184 -2.4373
 2817SOL     OW19909   3.326   0.386   7.172  0.3157  0.2791 -0.1607
 2817SOL    HW119910   3.344   0.292   7.164 -0.1785  0.1790 -0.0409
 2817SOL    HW219911   3.370   0.399   7.256  1.0760 -2.7588 -0.0697
 2818SOL     OW19912   4.188   2.710  13.828  0.5423 -0.1661 -0.3618
 2818SOL    HW119913   4.150   2.656  13.758  0.7667  0.5538 -1.0447
 2818SOL    HW219914   4.129   2.786  13.821  0.4450 -0.2636 -0.6005
 2819SOL     OW19915   0.701   1.052   7.185 -0.1132  0.1617 -0.5071
 2819SOL    HW119916   0.649   1.039   7.264 -0.9648 -0.3748 -1.1547
 2819SOL    HW219917   0.634   1.054   7.116 -0.5175  0.1929 -0.1102
 2820SOL     OW19918   2.226   1.001  16.245 -0.5703  1.0405 -0.2486
 2820SOL    HW119919   2.214   0.979  16.152 -1.6032 -0.9866  0.3637
 2820SOL    HW219920   2.216   1.095  16.233  1.0011  1.0970 -1.2074
 2821SOL     OW19921   3.495   1.780   7.266 -0.2566  0.5977  0.7620
 2821SOL    HW119922   3.464   1.870   7.263  0.7539  1.0042  2.5906
 2821SOL    HW219923   3.417   1.738   7.304 -0.7963  0.0282 -0.9571
 2822SOL     OW19924   0.697   4.559   2.809  0.4446  0.1206 -0.4619
 2822SOL    HW119925   0.728   4.525   2.725  1.8260 -0.8402  0.4359
 2822SOL    HW219926   0.660   4.646   2.793  0.1453  0.0958  0.0751
 2823SOL     OW19927   1.363   2.681   5.350  0.1701 -0.0899  0.2132
 2823SOL    HW119928   1.331   2.757   5.399 -1.0972 -0.2445 -0.3789
 2823SOL    HW219929   1.388   2.724   5.268  2.8701 -0.7476  0.6887
 2824SOL     OW19930   2.504   2.380  13.624 -0.2450  0.5203 -0.1926
 2824SOL    HW119931   2.472   2.412  13.540  0.8504  1.6264 -0.1838
 2824SOL    HW219932   2.480   2.288  13.620  2.4347 -0.1654 -0.2152
 2825SOL     OW19933   0.969   2.629   5.478  0.3987  0.0943 -0.0666
 2825SOL    HW119934   0.899   2.689   5.503  1.3476  1.2490 -0.2016
 2825SOL    HW219935   0.982   2.599   5.568 -0.6396 -1.5454 -0.4608
 2826SOL     OW19936   3.838   0.881  12.913  0.3247  0.4823 -0.0806
 2826SOL    HW119937   3.900   0.867  12.842  0.0658 -0.7723 -0.0597
 2826SOL    HW219938   3.860   0.964  12.955 -1.7297  0.6396  0.6934
 2827SOL     OW19939   0.397   0.393  12.025 -0.2199 -0.5335 -0.2730
 2827SOL    HW119940   0.451   0.420  11.951 -0.4268 -2.3778 -1.0884
 2827SOL    HW219941   0.401   0.476  12.071  0.7631 -0.2640 -0.8348
 2828SOL     OW19942   4.062   0.295   7.732  0.2543 -0.6572  0.1754
 2828SOL    HW119943   4.110   0.365   7.777 -0.6241 -0.1640  0.3496
 2828SOL    HW219944   4.101   0.307   7.645 -1.2930 -1.8904 -0.6812
 2829SOL     OW19945   1.219   3.257   9.160  0.4997 -0.0677 -0.3730
 2829SOL    HW119946   1.307   3.289   9.179  0.1985  0.6874 -0.2476
 2829SOL    HW219947   1.181   3.331   9.112  1.7178  0.1755 -0.9576
 2830SOL     OW19948   2.957   2.536   4.387  0.1338 -0.7896 -0.1299
 2830SOL    HW119949   2.920   2.491   4.463  0.9029 -0.8181  0.2241
 2830SOL    HW219950   3.027   2.584   4.431  1.1781 -0.5282 -2.0561
 2831SOL     OW19951   3.171   3.695  12.269 -0.3191  0.1268  0.1177
 2831SOL    HW119952   3.259   3.685  12.232 -0.8440 -0.6253 -0.9226
 2831SOL    HW219953   3.167   3.623  12.333  1.1886  1.0429  1.2398
 2832SOL     OW19954   0.814   3.245  13.337 -0.3516 -0.6669  0.2874
 2832SOL    HW119955   0.727   3.277  13.361 -0.7308  0.7097 -2.9143
 2832SOL    HW219956   0.870   3.309  13.380  0.0010 -0.2813 -0.7440
 2833SOL     OW19957   3.306   3.057   4.432  0.4521  0.6749  0.7007
 2833SOL    HW119958   3.243   3.023   4.368  0.2686  1.8165  0.2847
 2833SOL    HW219959   3.260   3.106   4.500 -0.2813 -1.4322  1.7079
 2834SOL     OW19960   1.020   0.942   4.299  0.0227  0.2666 -0.3997
 2834SOL    HW119961   0.976   1.013   4.253  1.3252  1.4643  0.1980
 2834SOL    HW219962   0.959   0.869   4.296 -1.1834  1.2534  0.4363
 2835SOL     OW19963   2.938   2.302  10.032  0.2928  0.4347  0.6294
 2835SOL    HW119964   2.998   2.260   9.971 -2.0853 -2.5539  0.3822
 2835SOL    HW219965   2.857   2.321   9.984  0.4908 -2.9875 -1.0156
 2836SOL     OW19966   1.950   3.987   6.910 -0.2052  0.6290 -0.0721
 2836SOL    HW119967   1.980   3.993   6.819 -0.8548 -0.8011 -0.3857
 2836SOL    HW219968   1.984   3.904   6.945 -3.9123  0.3409  2.7836
 2837SOL     OW19969   1.157   2.313  11.989  0.4219 -0.1181  0.9524
 2837SOL    HW119970   1.193   2.270  11.911  0.0884 -1.7840  1.7210
 2837SOL    HW219971   1.231   2.300  12.048  1.2964  0.4779 -0.0145
 2838SOL     OW19972   0.255   1.215   7.439  0.1674 -0.2123  0.3693
 2838SOL    HW119973   0.308   1.288   7.407 -0.1837  1.0679  2.6757
 2838SOL    HW219974   0.162   1.238   7.441  0.0278 -0.6943 -0.5956
 2839SOL     OW19975   2.401   2.434   5.607  0.8924  0.4713 -0.2821
 2839SOL    HW119976   2.466   2.487   5.559  2.7585 -2.1829 -0.7087
 2839SOL    HW219977   2.340   2.506   5.623 -0.0919  0.0513 -2.1011
 2840SOL     OW19978   2.019   0.037  10.773  0.0758 -0.6016  0.0368
 2840SOL    HW119979   2.096   0.071  10.728  0.7491 -1.4415  0.5591
 2840SOL    HW219980   2.022   0.092  10.852  0.9768 -0.5247 -0.0511
 2841SOL     OW19981   1.102   4.146  15.493  0.6420 -0.2189  0.1197
 2841SOL    HW119982   1.008   4.163  15.496  0.6867  0.1254 -0.4846
 2841SOL    HW219983   1.129   4.237  15.481  0.1355 -0.0461  0.2959
 2842SOL     OW19984   2.192   2.760   2.874  0.4281 -0.0708 -0.1033
 2842SOL    HW119985   2.123   2.813   2.833  0.8451  0.4464 -0.1461
 2842SOL    HW219986   2.140   2.690   2.914 -0.4724 -1.3072 -3.4733
 2843SOL     OW19987   2.595   4.220   1.784  0.1658 -0.1827 -0.1137
 2843SOL    HW119988   2.662   4.273   1.740  2.0328 -0.4030  2.4493
 2843SOL    HW219989   2.558   4.188   1.702 -1.6253  0.2234  0.5266
 2844SOL     OW19990   1.008   4.032   8.488 -0.3953 -0.3187 -0.0637
 2844SOL    HW119991   0.982   3.940   8.490  3.3443 -1.3444  1.6047
 2844SOL    HW219992   0.921   4.072   8.497  0.3408  1.5062 -1.0461
 2845SOL     OW19993   2.512   1.360   5.231  0.1446  0.1114 -0.3452
 2845SOL    HW119994   2.530   1.336   5.322  2.2206  1.4491 -0.4110
 2845SOL    HW219995   2.543   1.285   5.181 -1.2213 -0.5023 -0.2910
 2846SOL     OW19996   0.943   3.159  17.231  0.4627 -0.4649  0.1956
 2846SOL    HW119997   0.883   3.114  17.290  0.0794  0.0942  0.2297
 2846SOL    HW219998   0.919   3.127  17.144  0.3061 -2.5489  1.0272
 2847SOL     OW19999   0.421   3.028  15.963  0.5794  0.0169  0.5533
 2847SOL    HW120000   0.486   3.043  16.033 -0.5575  2.5401  1.0707
 2847SOL    HW220001   0.401   2.935  15.971  1.6769 -0.1478  1.3620
 2848SOL     OW20002   4.186   1.599   2.875  0.3607  0.0067  0.3017
 2848SOL    HW120003   4.157   1.642   2.795  1.9864  1.2073  0.3667
 2848SOL    HW220004   4.270   1.643   2.886  0.3182 -0.4426  2.5242
 2849SOL     OW20005   1.535   2.466   8.090  0.2854 -0.2307 -0.1901
 2849SOL    HW120006   1.630   2.465   8.083  0.2725 -0.9421 -0.3363
 2849SOL    HW220007   1.505   2.498   8.005  1.5897 -0.4752 -0.7398
 2850SOL     OW20008   0.745   3.631   3.916  0.5130  0.6261  0.0799
 2850SOL    HW120009   0.744   3.538   3.893  0.9376  0.7464 -0.4344
 2850SOL    HW220010   0.677   3.637   3.983  0.8908  0.1902  0.5097
 2851SOL     OW20011   1.802   4.464  11.650 -0.1019  0.2521 -0.0472
 2851SOL    HW120012   1.829   4.382  11.608  1.9894  0.9310 -0.0234
 2851SOL    HW220013   1.708   4.450  11.655 -0.1475  1.2292  1.6911
 2852SOL     OW20014   4.366   2.171   7.313  0.5128 -0.6653  0.2481
 2852SOL    HW120015   4.279   2.130   7.312  0.6190 -0.8909  0.5350
 2852SOL    HW220016   4.350   2.247   7.257 -2.0285  0.4323  2.4888
 2853SOL     OW20017   1.955   3.872  13.921 -0.1344 -0.4007 -0.0959
 2853SOL    HW120018   1.910   3.794  13.954 -2.9043  0.2923 -2.2414
 2853SOL    HW220019   2.044   3.841  13.906 -0.4527 -0.8902 -1.0017
 2854SOL     OW20020   2.641   2.202  10.385  0.3840 -0.0958 -0.0241
 2854SOL    HW120021   2.705   2.155  10.333  0.7439  1.3249 -0.8635
 2854SOL    HW220022   2.701   2.251  10.442  1.8601  0.1290 -1.7767
 2855SOL     OW20023   1.713   2.733   1.022  0.0209 -0.1314  0.4782
 2855SOL    HW120024   1.660   2.679   0.962 -0.9520  0.6368  0.6457
 2855SOL    HW220025   1.651   2.750   1.093  1.1028 -1.9702  1.8618
 2856SOL     OW20026   0.150   3.317   6.573 -0.4746  0.7178 -0.2376
 2856SOL    HW120027   0.220   3.370   6.611  1.1740 -1.5970 -0.1099
 2856SOL    HW220028   0.198   3.241   6.541 -0.7447 -0.4455  2.1692
 2857SOL     OW20029   1.485   0.859   3.198  0.1064  0.0474  0.0289
 2857SOL    HW120030   1.490   0.941   3.149  1.0778 -0.1931 -0.2602
 2857SOL    HW220031   1.564   0.813   3.171 -1.3731 -1.6760 -1.3184
 2858SOL     OW20032   2.219   1.413  11.622  0.2878  0.0546 -0.8492
 2858SOL    HW120033   2.267   1.334  11.645  0.6361  1.2418  2.3814
 2858SOL    HW220034   2.211   1.445  11.711  0.3041  0.5195 -1.0155
 2859SOL     OW20035   0.353   3.458   6.365  0.1078  0.2421  0.2245
 2859SOL    HW120036   0.355   3.419   6.453  1.3917  0.8408  0.4524
 2859SOL    HW220037   0.315   3.545   6.384 -2.9130 -1.0703  0.2383
 2860SOL     OW20038   2.386   3.467   1.712  0.1253 -0.3426  0.2404
 2860SOL    HW120039   2.424   3.467   1.625 -0.6614  0.7780 -0.1017
 2860SOL    HW220040   2.375   3.372   1.726  2.6577 -0.5191  1.0198
 2861SOL     OW20041   3.737   4.113   0.289 -0.1342 -0.0132  0.3202
 2861SOL    HW120042   3.734   4.192   0.343 -1.0039 -0.4036  0.8390
 2861SOL    HW220043   3.705   4.048   0.352 -2.1940  0.0673 -0.6359
 2862SOL     OW20044   1.957   4.272  11.531  0.4792 -0.8658  0.5372
 2862SOL    HW120045   2.000   4.349  11.494 -0.0999 -1.2433 -0.9607
 2862SOL    HW220046   2.032   4.217  11.549  0.9418 -0.6226 -0.6662
 2863SOL     OW20047   2.273   4.394   6.177  0.6958 -0.2192 -0.1224
 2863SOL    HW120048   2.297   4.485   6.190 -1.5640  0.4364 -0.5045
 2863SOL    HW220049   2.332   4.381   6.103 -0.9776 -3.6460 -0.8607
 2864SOL     OW20050   4.390   3.706   7.317  0.0670 -0.4496 -0.2774
 2864SOL    HW120051   4.469   3.760   7.311 -0.6446  0.6727  0.3685
 2864SOL    HW220052   4.328   3.748   7.377  2.2843  0.1315  1.5897
 2865SOL     OW20053   3.968   0.626  14.485 -0.9391  0.5711  0.5035
 2865SOL    HW120054   3.975   0.531  14.482  0.4652  0.7488 -2.7600
 2865SOL    HW220055   3.926   0.644  14.569 -1.4261 -0.5563  0.4962
 2866SOL     OW20056   2.055   0.683   4.139 -0.1625  0.4266  0.1817
 2866SOL    HW120057   2.114   0.758   4.147 -1.4760  1.0919  3.8028
 2866SOL    HW220058   2.117   0.614   4.118 -0.7078  0.5703 -1.8200
 2867SOL     OW20059   0.289   1.676  13.150 -0.0395 -1.0350 -0.1926
 2867SOL    HW120060   0.345   1.728  13.092 -0.4323 -0.5503 -0.1365
 2867SOL    HW220061   0.233   1.640  13.081 -0.0096 -1.1156 -0.1739
 2868SOL     OW20062   2.165   2.470   7.075 -0.3779  0.4503 -0.2165
 2868SOL    HW120063   2.188   2.379   7.059  3.2030  1.1584  0.7801
 2868SOL    HW220064   2.224   2.510   7.011  1.0313 -1.3906 -0.0424
 2869SOL     OW20065   4.230   0.176  16.844  0.0958  0.0216  0.3521
 2869SOL    HW120066   4.196   0.101  16.893  0.0511 -0.9428 -1.1380
 2869SOL    HW220067   4.235   0.138  16.756 -2.2232 -1.1693  0.7568
 2870SOL     OW20068   4.212   1.418  14.820  0.0135 -0.7188  0.4636
 2870SOL    HW120069   4.227   1.382  14.908  0.7816  0.1687  0.6970
 2870SOL    HW220070   4.168   1.503  14.829  0.3781 -0.3595 -1.1027
 2871SOL     OW20071   3.160   3.889   5.034  0.2769 -0.1556 -0.1582
 2871SOL    HW120072   3.123   3.806   5.065  1.8257 -0.7373  0.1458
 2871SOL    HW220073   3.085   3.936   4.998 -1.8177 -2.0893  1.6637
 2872SOL     OW20074   2.940   1.239   4.622  0.3473 -0.5665 -0.0174
 2872SOL    HW120075   2.900   1.153   4.606  3.7505 -2.0473 -0.5088
 2872SOL    HW220076   2.935   1.273   4.532 -2.4588 -0.0024  0.3302
 2873SOL     OW20077   1.633   3.312   3.430  0.3914  0.6373  0.1366
 2873SOL    HW120078   1.605   3.362   3.353  0.8105 -0.7090 -0.8821
 2873SOL    HW220079   1.585   3.230   3.425  1.8136  0.0138 -2.9702
 2874SOL     OW20080   2.748   2.612   5.969  0.2432  0.0441 -0.0274
 2874SOL    HW120081   2.766   2.706   5.969 -0.6004  0.2115 -0.5113
 2874SOL    HW220082   2.789   2.588   5.886 -1.6664 -0.7932 -0.7519
 2875SOL     OW20083   1.463   4.444  16.721 -0.2610  0.0160  0.1144
 2875SOL    HW120084   1.380   4.397  16.727 -0.8518  1.2780  1.9648
 2875SOL    HW220085   1.511   4.397  16.653 -0.3775 -0.7125  0.5458
 2876SOL     OW20086   3.263   3.934  17.352  0.1556 -0.3633 -0.2796
 2876SOL    HW120087   3.215   3.885  17.419  2.5951  0.0567  1.8153
 2876SOL    HW220088   3.200   3.998  17.321  0.4055  0.1264  0.2215
 2877SOL     OW20089   1.839   0.422   5.084  0.4010 -0.2757  0.2324
 2877SOL    HW120090   1.854   0.499   5.029  4.1681 -1.2142 -0.0025
 2877SOL    HW220091   1.743   0.423   5.077  0.4417  0.3577 -0.2292
 2878SOL     OW20092   0.333   1.427   7.275 -0.0439 -0.5016 -0.8998
 2878SOL    HW120093   0.407   1.369   7.260  0.9535  0.5170  0.0169
 2878SOL    HW220094   0.380   1.509   7.294  1.7681 -2.1597  1.7584
 2879SOL     OW20095   0.403   3.626   1.758  0.3837  0.1202  0.5541
 2879SOL    HW120096   0.344   3.661   1.691  0.0896  0.4591  0.9936
 2879SOL    HW220097   0.419   3.539   1.723  1.2461  0.2703  0.5838
 2880SOL     OW20098   0.835   0.953   8.918 -0.2815  0.8316  0.2160
 2880SOL    HW120099   0.748   0.989   8.935  0.0223  1.5366  0.2433
 2880SOL    HW220100   0.867   0.961   9.007 -0.7769  0.4931  0.4275
 2881SOL     OW20101   4.571   4.609   1.129  0.2890  0.2165  0.1799
 2881SOL    HW120102   4.645   4.665   1.153  0.8304 -0.4391  0.0491
 2881SOL    HW220103   4.534   4.577   1.211  1.1100  0.6321  0.7132
 2882SOL     OW20104   1.769   3.719   2.652 -0.0178  0.1506  0.4151
 2882SOL    HW120105   1.798   3.646   2.706  0.1335 -1.0719 -1.3186
 2882SOL    HW220106   1.848   3.771   2.663 -0.8345  1.7613 -1.3531
 2883SOL     OW20107   1.205   2.117   4.687 -0.2098  0.1750  0.2848
 2883SOL    HW120108   1.129   2.061   4.702  1.4668 -1.6849  1.9235
 2883SOL    HW220109   1.268   2.059   4.730 -0.5291  1.4168  2.4497
 2884SOL     OW20110   3.681   1.803   3.749  0.2381 -0.3099  0.0424
 2884SOL    HW120111   3.763   1.755   3.763  0.6608  0.9679  2.0276
 2884SOL    HW220112   3.696   1.854   3.670 -1.1267 -0.1197 -0.0811
 2885SOL     OW20113   1.553   0.794   6.144 -0.1454 -0.9805 -0.5419
 2885SOL    HW120114   1.636   0.747   6.141  0.8839  0.8991 -1.6050
 2885SOL    HW220115   1.522   0.754   6.225 -1.1351  1.3017  0.1985
 2886SOL     OW20116   2.652   0.645  13.756 -0.0471 -0.0519 -0.2906
 2886SOL    HW120117   2.697   0.576  13.803  1.5086  1.4014  0.3556
 2886SOL    HW220118   2.682   0.618  13.669 -0.0025  1.3808 -0.7211
 2887SOL     OW20119   3.500   0.704  16.409 -0.1272  0.3728 -0.1536
 2887SOL    HW120120   3.472   0.677  16.497 -0.4324 -0.1920 -0.4236
 2887SOL    HW220121   3.554   0.781  16.427 -3.6294  2.6737  0.4165
 2888SOL     OW20122   2.134   2.315   4.932 -0.0056 -0.2289 -0.5893
 2888SOL    HW120123   2.080   2.300   4.854  1.4638  2.4676 -2.1166
 2888SOL    HW220124   2.196   2.376   4.893  1.1718 -0.7139  0.5254
 2889SOL     OW20125   1.018   2.785   5.193 -0.5188  0.0622  0.0476
 2889SOL    HW120126   1.017   2.691   5.211 -0.1658  0.3697  1.7098
 2889SOL    HW220127   1.110   2.795   5.168 -1.7223  0.8456 -4.0101
 2890SOL     OW20128   3.444   3.420   7.249 -0.1895  0.1606  0.2152
 2890SOL    HW120129   3.428   3.328   7.270  1.8177 -1.2401 -4.4860
 2890SOL    HW220130   3.368   3.436   7.192  0.6539  3.3121 -0.0179
 2891SOL     OW20131   0.957   1.683  13.304  0.1585 -0.1108 -0.3495
 2891SOL    HW120132   0.906   1.759  13.275 -1.1299 -1.0440 -0.5493
 2891SOL    HW220133   1.035   1.724  13.341  0.8105 -1.5280 -0.1637
 2892SOL     OW20134   2.538   1.644   6.822 -0.0529 -0.1308  0.4584
 2892SOL    HW120135   2.625   1.677   6.843  1.3281 -1.9379 -2.5532
 2892SOL    HW220136   2.499   1.722   6.782  2.0928 -0.4502 -2.2219
 2893SOL     OW20137   4.529   2.757   8.034  0.6512 -0.0798 -0.8059
 2893SOL    HW120138   4.545   2.687   7.971 -3.7221 -2.4441  0.6770
 2893SOL    HW220139   4.549   2.716   8.117 -3.1119  0.6189  0.4686
 2894SOL     OW20140   2.928   3.070  11.703  0.3782 -0.0664 -0.2401
 2894SOL    HW120141   2.923   3.068  11.608  1.3399  0.9471 -0.3055
 2894SOL    HW220142   2.859   3.007  11.726  0.4928 -0.7237 -1.7165
 2895SOL     OW20143   1.474   3.848   3.605 -0.2394  0.9288 -0.1302
 2895SOL    HW120144   1.403   3.786   3.623 -0.0495  0.7273 -0.0697
 2895SOL    HW220145   1.451   3.865   3.514  0.4939 -2.5092 -0.9692
 2896SOL     OW20146   0.667   2.665   3.695 -0.0165 -0.5837  0.3701
 2896SOL    HW120147   0.708   2.641   3.612  1.0656 -0.9906  1.0084
 2896SOL    HW220148   0.575   2.642   3.683 -0.2681  0.5029  0.2645
 2897SOL     OW20149   2.748   4.107   5.436 -0.0247  0.3466  0.0202
 2897SOL    HW120150   2.802   4.096   5.358 -1.9102 -2.5784 -0.8764
 2897SOL    HW220151   2.812   4.133   5.502  0.6167 -0.0478 -0.4459
 2898SOL     OW20152   3.687   1.662   4.566 -0.0011  0.1218  0.0746
 2898SOL    HW120153   3.616   1.702   4.615  1.2572  1.3437  0.8973
 2898SOL    HW220154   3.754   1.724   4.595 -1.0711  0.0786  2.6837
 2899SOL     OW20155   0.130   3.283   5.254  0.6350 -0.3438  0.1589
 2899SOL    HW120156   0.145   3.374   5.280  3.8498 -0.6278 -0.7786
 2899SOL    HW220157   0.060   3.257   5.315 -0.5575 -0.9632 -1.4816
 2900SOL     OW20158   2.564   3.123   9.499 -0.0787  0.0711 -0.2243
 2900SOL    HW120159   2.494   3.167   9.546  0.3667  0.6769 -0.1217
 2900SOL    HW220160   2.510   3.051   9.466 -0.1422  0.6254 -1.3321
 2901SOL     OW20161   0.155   1.856   6.871 -0.6452 -0.2718  0.1155
 2901SOL    HW120162   0.154   1.887   6.961  0.1596  0.4676 -0.1272
 2901SOL    HW220163   0.244   1.821   6.875 -1.0901 -1.0575  2.7906
 2902SOL     OW20164   1.335   0.408   3.326 -0.2043  0.0154 -0.5035
 2902SOL    HW120165   1.275   0.336   3.309 -0.6298 -0.0867  1.5122
 2902SOL    HW220166   1.294   0.436   3.408 -1.7858  1.1519 -1.6760
 2903SOL     OW20167   1.039   0.345   4.560 -0.1360  0.1369 -0.0413
 2903SOL    HW120168   1.085   0.336   4.476 -0.5683  0.4126 -0.3041
 2903SOL    HW220169   1.043   0.438   4.583  1.9753 -0.0583  0.4509
 2904SOL     OW20170   2.630   3.449   4.465  0.0730 -0.8386 -0.2183
 2904SOL    HW120171   2.657   3.364   4.497 -0.3865 -0.1463  1.9843
 2904SOL    HW220172   2.713   3.477   4.427  0.6183 -0.5949  1.1750
 2905SOL     OW20173   2.319   1.414  12.418  0.0098  0.3561 -0.1366
 2905SOL    HW120174   2.408   1.434  12.446 -1.2203 -0.2210  4.3180
 2905SOL    HW220175   2.269   1.406  12.500 -0.6091  1.4270 -0.4112
 2906SOL     OW20176   0.539   1.126  11.469 -0.1829 -0.7563  0.0956
 2906SOL    HW120177   0.631   1.144  11.488 -0.4395  0.1666  0.4234
 2906SOL    HW220178   0.554   1.042  11.425 -1.0756 -0.7591 -0.2061
 2907SOL     OW20179   0.563   3.713   5.889 -0.2106  0.4258 -0.4666
 2907SOL    HW120180   0.619   3.758   5.952 -0.8047 -0.9348  1.0226
 2907SOL    HW220181   0.495   3.671   5.941  1.6204  2.3197  3.4219
 2908SOL     OW20182   2.836   4.512   0.683 -0.5020  0.3147 -0.4685
 2908SOL    HW120183   2.917   4.511   0.733  0.0663  0.9726 -1.3635
 2908SOL    HW220184   2.808   4.422   0.696  0.7514 -0.0022  0.0127
 2909SOL     OW20185   2.404   0.376   6.086  0.1807 -0.3491 -0.4469
 2909SOL    HW120186   2.411   0.459   6.037  0.5414  0.0050  0.2000
 2909SOL    HW220187   2.382   0.399   6.176 -0.8472 -0.8808 -0.5634
 2910SOL     OW20188   3.896   1.736   7.495 -0.4862 -0.5645 -0.2638
 2910SOL    HW120189   3.834   1.688   7.440  0.3801  0.8223 -2.4518
 2910SOL    HW220190   3.888   1.821   7.451 -0.3765 -1.0165 -1.1731
 2911SOL     OW20191   2.548   4.488  16.937 -0.2863 -0.0437 -0.1025
 2911SOL    HW120192   2.472   4.536  16.905 -0.2293 -0.2970 -0.6136
 2911SOL    HW220193   2.618   4.548  16.912 -1.3540  1.2009 -0.1203
 2912SOL     OW20194   4.554   1.713  15.898  0.2731  0.0462  0.0631
 2912SOL    HW120195   4.485   1.778  15.892  1.2220  0.9180 -1.2572
 2912SOL    HW220196   4.595   1.718  15.812 -1.9949  1.0858 -0.9492
 2913SOL     OW20197   4.667   3.614   8.728 -0.2491 -0.5656  0.7810
 2913SOL    HW120198   0.040   3.629   8.723 -0.4620  0.7982  0.8924
 2913SOL    HW220199   4.641   3.642   8.640 -2.1818  0.9515  1.8561
 2914SOL     OW20200   1.067   1.708  14.120  0.2529  0.1720  0.5245
 2914SOL    HW120201   1.055   1.666  14.035 -0.5875 -2.1322  1.7798
 2914SOL    HW220202   1.004   1.780  14.113  0.9678  0.6409 -1.0656
 2915SOL     OW20203   2.281   3.835   3.543  0.3165 -0.0915 -0.7062
 2915SOL    HW120204   2.216   3.872   3.602  0.7742  0.0301 -0.2768
 2915SOL    HW220205   2.358   3.858   3.595  1.3240 -0.3555 -2.0770
 2916SOL     OW20206   3.121   3.856   2.661  0.3071  0.4287  0.0029
 2916SOL    HW120207   3.045   3.905   2.692  0.6954  1.5467 -0.8231
 2916SOL    HW220208   3.182   3.891   2.725 -1.3279  2.7494  0.2931
 2917SOL     OW20209   1.543   0.854   8.818  0.2521  0.0307 -0.2162
 2917SOL    HW120210   1.621   0.896   8.856  0.6931 -1.6182  0.6833
 2917SOL    HW220211   1.468   0.884   8.870 -0.2959 -1.8904  0.1087
 2918SOL     OW20212   4.709   1.270   7.073  0.0635 -0.2758  0.0599
 2918SOL    HW120213   4.643   1.338   7.083 -0.3964 -0.6462 -0.4331
 2918SOL    HW220214   0.056   1.321   7.030  0.2186 -0.9727 -0.5187
 2919SOL     OW20215   3.461   0.746  14.030 -0.4134 -0.2189 -0.2271
 2919SOL    HW120216   3.471   0.654  14.004 -0.2433 -0.9052  2.3227
 2919SOL    HW220217   3.544   0.774  13.990 -0.8081  1.1105 -0.1042
 2920SOL     OW20218   4.511   2.740   6.381 -0.2051  0.1927  0.2605
 2920SOL    HW120219   4.599   2.737   6.343 -0.9938 -1.0910 -1.4134
 2920SOL    HW220220   4.452   2.756   6.307 -0.0002  0.6471  0.1966
 2921SOL     OW20221   2.071   2.034   9.350 -0.2533  0.9092 -0.0235
 2921SOL    HW120222   2.104   1.959   9.300 -1.2787  0.7546 -0.4687
 2921SOL    HW220223   2.020   2.082   9.285 -0.1567 -0.3112 -0.9997
 2922SOL     OW20224   4.408   1.632   6.000  0.0719 -0.8578 -0.0993
 2922SOL    HW120225   4.343   1.691   5.962  2.5334  2.0757  0.2266
 2922SOL    HW220226   4.477   1.690   6.031 -1.4449  1.3485 -0.8948
 2923SOL     OW20227   1.708   4.316   5.352 -0.2354  0.4739 -0.1680
 2923SOL    HW120228   1.784   4.258   5.362 -0.7432 -0.0150  0.8892
 2923SOL    HW220229   1.684   4.314   5.445 -1.6208  0.1227 -0.5410
 2924SOL     OW20230   3.276   1.284   2.164 -0.5805  0.2140  0.3672
 2924SOL    HW120231   3.202   1.344   2.151 -2.6256 -2.0744  1.4516
 2924SOL    HW220232   3.261   1.217   2.097 -1.9243 -0.1698  1.0476
 2925SOL     OW20233   4.512   4.243   3.613 -0.3447 -0.4398 -0.2958
 2925SOL    HW120234   4.513   4.331   3.574 -0.7976 -0.6783 -0.8455
 2925SOL    HW220235   4.607   4.232   3.625  0.1154  3.4390 -0.1444
 2926SOL     OW20236   4.051   0.846   3.685 -0.4801  0.2392 -0.0828
 2926SOL    HW120237   4.106   0.895   3.624 -0.0329 -0.0949  0.0517
 2926SOL    HW220238   4.044   0.767   3.630 -1.4295 -0.0596  0.4569
 2927SOL     OW20239   0.440   0.433   3.235  0.3406  1.0391 -0.0641
 2927SOL    HW120240   0.429   0.511   3.179  0.9797  0.9610 -0.2980
 2927SOL    HW220241   0.355   0.430   3.280  0.7869 -2.2845  0.5049
 2928SOL     OW20242   3.388   1.408  14.220 -0.0379 -0.2600 -0.1769
 2928SOL    HW120243   3.385   1.318  14.188  2.6543 -1.0285  1.7440
 2928SOL    HW220244   3.480   1.434  14.218 -0.9829  3.1402  1.0759
 2929SOL     OW20245   1.411   4.289   3.795 -0.3837  0.0255 -0.1023
 2929SOL    HW120246   1.438   4.230   3.866  0.7758 -0.2282 -0.7397
 2929SOL    HW220247   1.440   4.236   3.721 -1.5661 -0.9598  0.1437
 2930SOL     OW20248   1.584   1.227   5.817 -0.3503  0.4738 -0.1386
 2930SOL    HW120249   1.616   1.152   5.867 -1.2898  0.0579 -0.1690
 2930SOL    HW220250   1.592   1.197   5.726  1.5747  1.4555 -0.2980
 2931SOL     OW20251   1.124   2.269   4.428 -0.3970 -0.5119  0.5402
 2931SOL    HW120252   1.108   2.176   4.442 -0.9373 -0.4002  0.6381
 2931SOL    HW220253   1.128   2.309   4.515  0.4260 -0.1327  0.3326
 2932SOL     OW20254   3.829   4.391   5.278  0.0386 -0.2645 -0.1314
 2932SOL    HW120255   3.759   4.457   5.271  1.1966  0.9641 -0.1438
 2932SOL    HW220256   3.904   4.450   5.283  1.4211 -2.0945  0.6596
 2933SOL     OW20257   4.512   3.302   5.171 -0.6137  0.5328  0.5702
 2933SOL    HW120258   4.447   3.245   5.129  0.4616  0.5658 -1.1399
 2933SOL    HW220259   4.545   3.258   5.250  1.8323  1.2543 -0.0631
 2934SOL     OW20260   0.287   2.373   9.215  0.0744  0.2193  0.6674
 2934SOL    HW120261   0.287   2.364   9.310  2.3052  2.0134  0.8275
 2934SOL    HW220262   0.378   2.382   9.187 -0.2257  2.4208  0.3940
 2935SOL     OW20263   0.512   2.392  14.877 -0.1365 -0.5138  0.6005
 2935SOL    HW120264   0.516   2.435  14.962 -1.6261 -0.5879  0.7032
 2935SOL    HW220265   0.453   2.325  14.910 -0.0298  0.4468  2.7113
 2936SOL     OW20266   0.775   1.166   4.398  0.7677  0.1153 -0.3106
 2936SOL    HW120267   0.733   1.143   4.315 -0.6189  2.2132 -0.1894
 2936SOL    HW220268   0.703   1.137   4.454  2.0138 -0.4685  0.9616
 2937SOL     OW20269   3.099   0.603   9.379 -0.3261 -0.4799 -0.4390
 2937SOL    HW120270   3.098   0.678   9.319 -0.6644  1.7797  2.3987
 2937SOL    HW220271   3.191   0.577   9.378 -0.6960 -1.8250  0.0338
 2938SOL     OW20272   2.318   3.536   7.951 -0.0881 -0.3869  0.2631
 2938SOL    HW120273   2.265   3.523   8.029  1.1399 -0.4192  1.0764
 2938SOL    HW220274   2.258   3.563   7.881 -1.4108 -0.0104  1.5337
 2939SOL     OW20275   4.639   2.229  13.789  0.3458  0.9341  0.1675
 2939SOL    HW120276   0.012   2.244  13.795  0.3690  0.2064  1.4279
 2939SOL    HW220277   4.590   2.312  13.790 -0.7914  0.2672 -0.4757
 2940SOL     OW20278   4.124   1.921  11.905 -0.0823 -0.4405 -0.5734
 2940SOL    HW120279   4.103   1.919  11.998 -1.2492 -0.4619 -0.8302
 2940SOL    HW220280   4.213   1.889  11.905 -0.1192 -0.5634  1.7201
 2941SOL     OW20281   2.017   2.087   2.111 -0.1219  0.5912  0.7731
 2941SOL    HW120282   1.990   2.034   2.186 -0.1269  1.1470  1.1644
 2941SOL    HW220283   2.029   2.168   2.161  0.4388  0.5536  0.6953
 2942SOL     OW20284   0.390   1.217  16.570  0.1841  0.4174 -0.1047
 2942SOL    HW120285   0.316   1.186  16.518  0.7425 -0.7430 -0.2177
 2942SOL    HW220286   0.449   1.158  16.522 -0.0111 -1.3372  1.8104
 2943SOL     OW20287   2.718   0.837   8.079  0.1464 -0.0054 -0.4243
 2943SOL    HW120288   2.656   0.892   8.127  1.9735  1.0580  0.7408
 2943SOL    HW220289   2.798   0.841   8.132 -1.6879 -2.8212  2.5757
 2944SOL     OW20290   4.511   1.966   1.933 -0.1739 -0.1336 -0.3107
 2944SOL    HW120291   4.603   1.938   1.932 -0.4378 -0.9660 -1.0734
 2944SOL    HW220292   4.478   1.892   1.983  0.3439  0.2774  0.6542
 2945SOL     OW20293   4.106   1.739   5.259 -0.2294 -0.2259 -0.3184
 2945SOL    HW120294   4.076   1.650   5.242 -0.2197  0.1751 -2.3500
 2945SOL    HW220295   4.020   1.768   5.288 -0.7332 -2.3608  0.3666
 2946SOL     OW20296   4.698   3.526   9.253  0.3176  0.5676  0.1384
 2946SOL    HW120297   0.047   3.480   9.207  1.0836  1.6367  0.2485
 2946SOL    HW220298   4.688   3.471   9.331  2.4251  1.8226  1.3039
 2947SOL     OW20299   3.834   3.042   5.400 -0.7716 -0.2032  0.0532
 2947SOL    HW120300   3.740   3.061   5.407 -1.3052 -2.9461  0.6885
 2947SOL    HW220301   3.847   3.008   5.488 -3.0827  0.8283  0.7970
 2948SOL     OW20302   3.833   2.966   4.028  0.1371 -0.1938  0.0624
 2948SOL    HW120303   3.767   3.007   4.083  0.5068 -0.7070  0.8959
 2948SOL    HW220304   3.781   2.916   3.965  0.3717  0.1413 -0.3950
 2949SOL     OW20305   3.680   0.996   4.108 -0.7523 -0.6044  0.5583
 2949SOL    HW120306   3.712   1.082   4.133  0.7249 -0.7149 -0.8822
 2949SOL    HW220307   3.766   0.958   4.087 -1.0375 -1.6295  1.2455
 2950SOL     OW20308   0.171   2.989   3.995 -0.3746 -0.3743 -0.0932
 2950SOL    HW120309   0.092   3.008   4.046 -0.3602  0.8497 -0.5309
 2950SOL    HW220310   0.237   3.035   4.047  1.2099  0.2120 -2.6078
 2951SOL     OW20311   2.893   2.199  17.610  0.5257  0.3266  0.4933
 2951SOL    HW120312   2.969   2.235  17.564  1.4997 -0.4727  1.4827
 2951SOL    HW220313   2.942   2.155  17.680 -0.4585  0.0313  0.9862
 2952SOL     OW20314   0.277   3.227   4.612 -0.3921  0.4620 -0.2578
 2952SOL    HW120315   0.281   3.140   4.653  2.3304  0.6467 -0.1362
 2952SOL    HW220316   0.232   3.213   4.528 -0.4833 -1.8367  0.1645
 2953SOL     OW20317   1.635   0.999   5.944  0.0783 -0.6839 -0.7333
 2953SOL    HW120318   1.584   0.938   5.997 -0.9321  1.2132  0.4715
 2953SOL    HW220319   1.704   1.016   6.008 -2.7236  1.5210  1.7055
 2954SOL     OW20320   2.001   1.247   3.033 -0.2433  0.0232 -0.1714
 2954SOL    HW120321   1.968   1.308   2.967  1.0794  0.5769 -0.3138
 2954SOL    HW220322   1.961   1.165   3.003  0.7877 -0.5378  0.0099
 2955SOL     OW20323   3.402   0.615   6.448  0.0335 -0.9921  0.0199
 2955SOL    HW120324   3.483   0.587   6.406  1.2438  1.2392  0.8701
 2955SOL    HW220325   3.386   0.697   6.401 -2.4812 -0.6550  1.4543
 2956SOL     OW20326   0.769   3.883   3.812  0.4482  0.3219  0.3675
 2956SOL    HW120327   0.674   3.888   3.809  0.5598  0.9265 -2.2490
 2956SOL    HW220328   0.776   3.794   3.847 -1.0392  0.6846  1.5761
 2957SOL     OW20329   4.101   1.328  13.268 -0.5484  0.2787  0.3508
 2957SOL    HW120330   4.019   1.373  13.248  0.6073  1.8005 -0.9070
 2957SOL    HW220331   4.070   1.283  13.347 -0.9771  0.4911  0.3038
 2958SOL     OW20332   1.650   1.217   9.590  0.3662  0.2075 -0.2260
 2958SOL    HW120333   1.665   1.140   9.645  0.0267  0.3195  0.0313
 2958SOL    HW220334   1.625   1.184   9.504  1.1411 -0.0294 -0.3592
 2959SOL     OW20335   0.258   0.231   6.172  0.0651 -0.9948  0.0160
 2959SOL    HW120336   0.263   0.282   6.091  0.9592 -2.2308 -0.6943
 2959SOL    HW220337   0.178   0.259   6.217  0.3530  0.2714 -0.2415
 2960SOL     OW20338   1.071   2.408  14.095  0.1238 -0.2229  0.1280
 2960SOL    HW120339   1.121   2.364  14.165 -1.9119 -3.2066 -0.2940
 2960SOL    HW220340   1.090   2.354  14.018  0.6016  1.6855 -1.0807
 2961SOL     OW20341   0.056   3.848   7.102  0.2314 -0.0536  0.2776
 2961SOL    HW120342   0.053   3.782   7.171  2.7260  0.7337  1.1669
 2961SOL    HW220343   0.058   3.926   7.157  1.9495  1.1181 -1.4166
 2962SOL     OW20344   3.341   2.147   4.288  0.2717  0.1180  0.2371
 2962SOL    HW120345   3.332   2.066   4.237  2.0063 -0.2509  0.5287
 2962SOL    HW220346   3.397   2.207   4.239  0.4648  1.1641  1.7636
 2963SOL     OW20347   3.509   2.109  15.362  0.8355  0.1081  0.4312
 2963SOL    HW120348   3.480   2.020  15.341 -0.3383  1.1946 -2.6095
 2963SOL    HW220349   3.448   2.147  15.425  0.4603  1.1817 -0.5810
 2964SOL     OW20350   3.931   1.175   0.121 -0.2568  0.1914 -0.7518
 2964SOL    HW120351   3.991   1.156   0.193  0.8497  1.2471 -1.4067
 2964SOL    HW220352   3.978   1.148   0.042  1.7096  2.9440 -0.5287
 2965SOL     OW20353   1.729   1.600  10.007  0.2986  0.3020  0.5689
 2965SOL    HW120354   1.768   1.563  10.086 -1.0931 -0.9036  0.6816
 2965SOL    HW220355   1.777   1.538   9.952 -1.8119  0.2655 -1.2429
 2966SOL     OW20356   3.240   1.483   5.831  0.4099 -0.0201 -1.1022
 2966SOL    HW120357   3.161   1.433   5.849  1.6410 -1.8157 -0.7373
 2966SOL    HW220358   3.303   1.413   5.819 -0.7513 -1.3326  0.4575
 2967SOL     OW20359   0.044   2.154   6.639 -0.1229  0.0514 -0.2517
 2967SOL    HW120360   0.109   2.224   6.629 -1.1715  0.7496 -2.1863
 2967SOL    HW220361   0.111   2.088   6.619  0.1695  0.1593  0.3915
 2968SOL     OW20362   2.265   1.499   3.619 -0.5432  0.3258  0.3536
 2968SOL    HW120363   2.217   1.492   3.701  1.6782  2.0567  1.8108
 2968SOL    HW220364   2.261   1.409   3.586 -0.6306  1.4611 -2.7759
 2969SOL     OW20365   3.704   1.641  13.288  0.4971 -0.3921  0.6258
 2969SOL    HW120366   3.735   1.650  13.378  1.1081  1.4550  0.2340
 2969SOL    HW220367   3.609   1.639  13.297  0.3859  2.0584 -0.1807
 2970SOL     OW20368   1.116   3.995   2.905  0.1127  0.1196 -0.0923
 2970SOL    HW120369   1.118   3.998   2.809 -1.0729  1.6836 -0.0822
 2970SOL    HW220370   1.193   4.050   2.922  0.5524  0.1068 -1.9872
 2971SOL     OW20371   1.369   2.277   5.720  0.2862  0.2682 -0.2798
 2971SOL    HW120372   1.446   2.328   5.698  1.7462 -0.9806  1.9115
 2971SOL    HW220373   1.356   2.303   5.811 -1.4201 -0.9582 -0.1612
 2972SOL     OW20374   0.152   0.304   7.461  0.1631  0.4902 -0.1810
 2972SOL    HW120375   0.109   0.228   7.423  1.0477 -1.4327  2.6257
 2972SOL    HW220376   0.122   0.291   7.551  0.6752  0.7680  0.0290
 2973SOL     OW20377   4.145   3.075   6.162 -0.0110  0.2973 -0.1090
 2973SOL    HW120378   4.239   3.066   6.148  0.0477 -1.3916  1.2666
 2973SOL    HW220379   4.143   3.078   6.258 -2.5468  0.4102 -0.1590
 2974SOL     OW20380   4.088   3.293  16.402  0.5950 -0.6505 -0.4748
 2974SOL    HW120381   4.087   3.388  16.397 -3.8138 -0.8423 -3.3391
 2974SOL    HW220382   4.176   3.268  16.373  1.3305 -0.8975  1.9088
 2975SOL     OW20383   3.194   3.490   5.561  0.1401  0.5386  0.4738
 2975SOL    HW120384   3.113   3.540   5.561 -1.1769 -1.6085  2.4011
 2975SOL    HW220385   3.166   3.405   5.594  0.1091 -0.6705 -2.7208
 2976SOL     OW20386   1.748   3.499   8.186  0.0292 -0.3049  0.2437
 2976SOL    HW120387   1.729   3.478   8.277  0.8244  0.5018  0.5954
 2976SOL    HW220388   1.820   3.561   8.199  1.3479 -1.7177 -0.4111
 2977SOL     OW20389   0.038   0.271   1.785 -0.5203  0.2328 -0.0217
 2977SOL    HW120390   4.692   0.311   1.729  1.4755  1.3029 -1.6836
 2977SOL    HW220391   0.025   0.179   1.760  2.0377 -0.0054 -0.5385
 2978SOL     OW20392   2.791   3.752   2.762  0.3391 -0.1289  0.1530
 2978SOL    HW120393   2.714   3.726   2.813  0.6117 -0.2380  0.5142
 2978SOL    HW220394   2.816   3.663   2.739 -1.3001 -0.3558 -0.6788
 2979SOL     OW20395   3.569   4.180   7.217  0.4178 -0.0194 -0.5676
 2979SOL    HW120396   3.578   4.088   7.191 -1.7953 -0.6707  1.0497
 2979SOL    HW220397   3.570   4.176   7.312  0.2625 -0.7671 -0.5945
 2980SOL     OW20398   4.257   1.878   3.070 -0.1578 -0.2490  0.2250
 2980SOL    HW120399   4.246   1.791   3.108  0.5998 -1.6688 -2.7675
 2980SOL    HW220400   4.174   1.884   3.023 -0.8287 -0.5820  1.3701
 2981SOL     OW20401   1.592   2.188   8.205 -0.2614  0.1676 -0.4158
 2981SOL    HW120402   1.588   2.268   8.153 -1.1288  0.0700 -0.5043
 2981SOL    HW220403   1.684   2.172   8.224  0.1210 -0.8546 -3.1934
 2982SOL     OW20404   2.117   3.488   1.529  0.4373  0.3473 -0.1427
 2982SOL    HW120405   2.048   3.521   1.587  1.1365  1.5574  0.0047
 2982SOL    HW220406   2.143   3.572   1.489 -0.3428  0.9135  0.5370
 2983SOL     OW20407   4.157   2.159  13.680  0.4675  0.1057 -0.6486
 2983SOL    HW120408   4.070   2.125  13.700  0.9919 -1.0825 -0.3726
 2983SOL    HW220409   4.187   2.082  13.631 -1.3110 -1.9700  1.5028
 2984SOL     OW20410   0.513   2.006  11.030  0.3737  0.3704 -0.3108
 2984SOL    HW120411   0.484   2.075  10.971 -2.8864 -0.0150  0.8104
 2984SOL    HW220412   0.466   2.039  11.107  3.9510  1.1306  1.5521
 2985SOL     OW20413   1.248   1.576  17.320  0.2708 -0.2313 -0.1673
 2985SOL    HW120414   1.173   1.524  17.293  0.1435 -0.6073  0.9403
 2985SOL    HW220415   1.294   1.513  17.376 -1.3986 -0.8606  0.4693
 2986SOL     OW20416   3.233   2.649  10.715  0.9017  0.4645  0.0663
 2986SOL    HW120417   3.309   2.640  10.658  0.0764  0.4179 -1.0291
 2986SOL    HW220418   3.255   2.585  10.783 -0.9336 -0.1160  0.1071
 2987SOL     OW20419   3.266   4.590  13.207 -0.0539 -0.2786 -0.1977
 2987SOL    HW120420   3.173   4.587  13.184  0.6473  1.6292 -3.2674
 2987SOL    HW220421   3.259   4.515  13.266  1.8492 -0.1088  0.2589
 2988SOL     OW20422   0.510   1.661   7.256  0.1420  0.6120  0.5304
 2988SOL    HW120423   0.531   1.754   7.250  1.3259  0.2540 -1.0684
 2988SOL    HW220424   0.577   1.623   7.199 -0.8169 -2.9902  1.7884
 2989SOL     OW20425   4.212   1.834  17.462 -0.0497 -0.0783 -0.0423
 2989SOL    HW120426   4.219   1.772  17.389 -1.6574 -1.1560  0.6982
 2989SOL    HW220427   4.262   1.795  17.534 -0.7653  0.6699  0.8544
 2990SOL     OW20428   2.119   3.681   9.064 -0.0347  0.3266  0.1730
 2990SOL    HW120429   2.074   3.613   9.114 -2.1288  3.3134  2.3677
 2990SOL    HW220430   2.092   3.658   8.975 -1.4019  0.4146  0.5583
 2991SOL     OW20431   0.860   2.100   7.701  0.7025 -0.2847 -0.5148
 2991SOL    HW120432   0.810   2.080   7.780 -0.5990  0.6636 -1.0953
 2991SOL    HW220433   0.830   2.032   7.641 -2.5155 -0.9525  1.8236
 2992SOL     OW20434   4.476   1.034  13.560 -1.0015 -0.4354  0.1215
 2992SOL    HW120435   4.514   0.947  13.554  2.6334  1.1148  0.8801
 2992SOL    HW220436   4.529   1.070  13.489  0.6430  2.9014  3.0167
 2993SOL     OW20437   2.328   4.086   6.590 -0.2334 -0.1644  0.3282
 2993SOL    HW120438   2.362   4.175   6.580  1.2136 -0.8981 -1.2039
 2993SOL    HW220439   2.410   4.040   6.608  0.0163  0.0565 -0.2465
 2994SOL     OW20440   1.517   2.431   2.315  0.1326 -0.2205 -0.2515
 2994SOL    HW120441   1.582   2.464   2.253 -1.4034  1.4208 -1.0026
 2994SOL    HW220442   1.479   2.505   2.363 -0.2799 -1.3040  1.0892
 2995SOL     OW20443   0.515   2.880   3.865 -0.5747  0.2284  0.1097
 2995SOL    HW120444   0.577   2.808   3.877 -0.5894  0.6381  2.5798
 2995SOL    HW220445   0.443   2.847   3.811  0.8307  0.3008 -1.8323
 2996SOL     OW20446   2.423   3.643   6.152 -0.3091 -0.5958  0.1773
 2996SOL    HW120447   2.349   3.691   6.188 -2.3151 -1.7714 -2.3545
 2996SOL    HW220448   2.413   3.653   6.057 -0.1843  1.3674  0.3848
 2997SOL     OW20449   3.056   0.013   0.406  0.1029 -0.6481 -0.5087
 2997SOL    HW120450   3.002   0.035   0.482 -0.4184  1.6225 -1.5256
 2997SOL    HW220451   3.103   4.654   0.426  1.4775  0.0643 -0.8577
 2998SOL     OW20452   3.135   3.021   7.965  0.4306 -0.0833  0.4724
 2998SOL    HW120453   3.062   2.979   7.918 -1.0865  3.0105  0.0461
 2998SOL    HW220454   3.187   3.041   7.887 -1.0559  0.7657 -0.3270
 2999SOL     OW20455   4.692   3.911   4.313 -0.4189  0.2042 -0.8534
 2999SOL    HW120456   4.623   3.962   4.356  0.6046  0.4784  0.4646
 2999SOL    HW220457   4.689   3.934   4.221  1.2230  0.0713 -0.9372
 3000SOL     OW20458   1.149   3.777  10.911 -0.9448  0.5781 -0.1994
 3000SOL    HW120459   1.063   3.765  10.871  0.2528  1.7281 -3.0763
 3000SOL    HW220460   1.159   3.695  10.959  0.8573  2.5997  2.8859
 3001SOL     OW20461   2.835   0.898   0.252 -0.0871  0.4644  0.2061
 3001SOL    HW120462   2.764   0.839   0.280  0.7973 -0.3205  0.8332
 3001SOL    HW220463   2.874   0.842   0.184 -0.0099 -1.0911  1.5175
 3002SOL     OW20464   0.461   2.321   6.773 -0.4820 -0.7322 -0.6791
 3002SOL    HW120465   0.498   2.402   6.737  3.7960 -1.9412  0.9418
 3002SOL    HW220466   0.527   2.273   6.823 -1.1567  0.3053  1.2057
 3003SOL     OW20467   3.209   2.437   3.451  0.4148  0.0759  0.0569
 3003SOL    HW120468   3.240   2.429   3.541  0.8234 -0.5629 -0.1399
 3003SOL    HW220469   3.130   2.488   3.466 -0.2852 -1.2690  0.9270
 3004SOL     OW20470   2.378   2.144   1.090  0.1948 -0.1618 -0.3934
 3004SOL    HW120471   2.455   2.201   1.094  0.2931 -0.3036 -0.2405
 3004SOL    HW220472   2.396   2.088   1.166  0.0718  0.2778 -0.0443
 3005SOL     OW20473   1.790   2.300   4.730  0.1983 -0.0944 -0.0850
 3005SOL    HW120474   1.718   2.321   4.789 -1.3109 -0.3291 -1.8661
 3005SOL    HW220475   1.785   2.385   4.686 -0.9668  0.8853  1.9556
 3006SOL     OW20476   2.602   0.207  14.983 -0.1930 -0.0697 -0.3133
 3006SOL    HW120477   2.512   0.197  15.015  0.1016 -0.9183  0.2308
 3006SOL    HW220478   2.635   0.138  15.041  0.3698 -0.0396 -0.5982
 3007SOL     OW20479   3.050   2.339   2.029  0.3482  0.0977 -0.2803
 3007SOL    HW120480   3.043   2.248   2.060  0.9664  0.1466 -0.0077
 3007SOL    HW220481   3.011   2.380   2.106 -0.9570 -0.3497 -0.7082
 3008SOL     OW20482   2.632   1.489  12.458  0.2820  0.3764  0.4934
 3008SOL    HW120483   2.692   1.434  12.408  0.4484  0.7666  0.2614
 3008SOL    HW220484   2.607   1.429  12.529 -1.5176  0.2249 -0.2738
 3009SOL     OW20485   1.616   0.354   7.099 -0.3364 -0.4600  0.1531
 3009SOL    HW120486   1.680   0.286   7.078 -0.1152 -0.4607  0.8157
 3009SOL    HW220487   1.583   0.391   7.017 -1.7074  0.0247  0.9235
 3010SOL     OW20488   3.548   0.545  11.571 -0.4142  0.0371  0.2332
 3010SOL    HW120489   3.572   0.501  11.490  1.3330  3.5487 -1.1903
 3010SOL    HW220490   3.624   0.517  11.622  0.3327  1.0727 -0.3029
 3011SOL     OW20491   3.528   0.295  12.251  0.2636  0.3571  0.3211
 3011SOL    HW120492   3.501   0.374  12.204 -0.4091  1.3560  2.3751
 3011SOL    HW220493   3.521   0.322  12.342  0.4704 -0.4988  0.5885
 3012SOL     OW20494   0.112   2.613   2.392 -0.1713 -0.2964 -0.0829
 3012SOL    HW120495   0.101   2.707   2.409 -0.6448  0.1038 -2.5862
 3012SOL    HW220496   0.206   2.617   2.377 -0.3095  0.4226 -0.7922
 3013SOL     OW20497   4.624   3.402  17.520  0.3740 -0.5383 -0.1115
 3013SOL    HW120498   4.710   3.430  17.552  0.3621 -0.6196 -0.0074
 3013SOL    HW220499   4.577   3.485  17.514 -2.3457 -2.0355  0.6659
 3014SOL     OW20500   0.443   1.818  12.956  0.2339  0.4594 -0.6773
 3014SOL    HW120501   0.435   1.749  12.890 -0.3672  1.0724 -1.2503
 3014SOL    HW220502   0.538   1.821  12.965  0.5275 -2.5549 -2.6466
 3015SOL     OW20503   4.666   4.719  15.710  0.0569 -0.2984  0.3159
 3015SOL    HW120504   4.628   0.049  15.639 -0.0205 -0.3494  0.3210
 3015SOL    HW220505   0.010   0.058  15.745  0.6921  0.0175 -1.4368
 3016SOL     OW20506   2.323   0.634   8.445 -0.2222  0.3860 -0.1589
 3016SOL    HW120507   2.415   0.661   8.446  0.4523 -2.0004  1.7445
 3016SOL    HW220508   2.333   0.541   8.463 -0.8181  0.5582  1.0805
 3017SOL     OW20509   3.980   0.626   7.450 -0.1759  0.3339  0.0516
 3017SOL    HW120510   3.914   0.624   7.381 -0.8855  2.9779  0.6338
 3017SOL    HW220511   4.041   0.684   7.405  0.4458 -1.2497 -1.1249
 3018SOL     OW20512   4.011   3.198   3.592  0.1509  0.0570 -0.2710
 3018SOL    HW120513   4.044   3.196   3.502  1.5467 -1.4842  0.2709
 3018SOL    HW220514   3.917   3.202   3.578  0.0191 -0.3460  0.4816
 3019SOL     OW20515   2.898   1.568   7.833 -0.0222 -0.2979 -0.2990
 3019SOL    HW120516   2.860   1.656   7.838 -0.9404 -0.8618  2.6031
 3019SOL    HW220517   2.818   1.515   7.834 -1.6905  2.2454  3.6938
 3020SOL     OW20518   4.379   4.706   3.842 -0.4870 -0.4064  0.4899
 3020SOL    HW120519   4.405   0.072   3.812  3.1330 -1.6493  0.0641
 3020SOL    HW220520   4.347   4.675   3.757 -0.9493  0.0818  0.4843
 3021SOL     OW20521   3.168   1.601   7.597  0.7264 -0.3813 -0.1998
 3021SOL    HW120522   3.236   1.654   7.555  0.6768 -0.7529 -0.7589
 3021SOL    HW220523   3.149   1.652   7.675  0.3989 -1.1223  0.2048
 3022SOL     OW20524   3.146   3.629  17.168 -0.1325  0.6210 -0.1204
 3022SOL    HW120525   3.128   3.626  17.262  1.6310 -2.1652  0.1211
 3022SOL    HW220526   3.062   3.658  17.132 -0.0721  1.0461  0.0823
 3023SOL     OW20527   1.386   2.172  13.083 -0.1154  0.4305  0.2898
 3023SOL    HW120528   1.459   2.140  13.031  0.7653  0.3127  1.5903
 3023SOL    HW220529   1.325   2.099  13.095  0.6162 -0.3426 -0.7356
 3024SOL     OW20530   3.343   3.437  10.686 -0.1995 -0.3387  0.3158
 3024SOL    HW120531   3.341   3.365  10.624  0.4538  0.7233 -0.9368
 3024SOL    HW220532   3.417   3.489  10.655  0.0920 -1.0568 -0.1840
 3025SOL     OW20533   1.341   0.215   5.623 -0.1600  0.3578 -0.4379
 3025SOL    HW120534   1.314   0.295   5.579  0.5869  0.7208 -0.2405
 3025SOL    HW220535   1.435   0.222   5.604  0.4610 -0.0957  2.5319
 3026SOL     OW20536   2.035   2.686   9.729 -0.6821  0.0746  0.2017
 3026SOL    HW120537   2.065   2.750   9.664  0.3969 -0.3775  0.2548
 3026SOL    HW220538   2.077   2.716   9.809  0.8153 -0.9102 -0.2122
 3027SOL     OW20539   0.048   2.333   7.268  0.3764  0.2629  0.2488
 3027SOL    HW120540   0.094   2.334   7.352  0.2520 -0.7259  0.3268
 3027SOL    HW220541   0.118   2.333   7.202 -0.2435 -1.6772 -0.4082
 3028SOL     OW20542   3.049   2.266   8.212 -0.0541 -0.5713 -0.7106
 3028SOL    HW120543   3.018   2.179   8.187  0.8070 -0.9639 -0.4081
 3028SOL    HW220544   3.131   2.245   8.256  0.4142 -1.6944 -2.1434
 3029SOL     OW20545   4.083   0.418   8.726  0.0180  0.6816  0.1648
 3029SOL    HW120546   3.998   0.460   8.718  0.1815  0.9842 -0.0282
 3029SOL    HW220547   4.138   0.486   8.687 -2.6723  2.7927  0.0954
 3030SOL     OW20548   0.618   1.672   9.011 -0.0417 -0.2931  0.2906
 3030SOL    HW120549   0.653   1.647   8.925 -0.5349 -0.0551  0.0160
 3030SOL    HW220550   0.553   1.741   8.992  0.1596 -0.3381 -0.5855
 3031SOL     OW20551   0.115   3.912   8.793 -0.2066 -0.1720  0.3768
 3031SOL    HW120552   0.126   3.820   8.768  0.2387 -0.0206  0.0173
 3031SOL    HW220553   0.188   3.938   8.737 -2.5342  0.5193 -2.2862
 3032SOL     OW20554   4.025   4.654   6.087 -0.7518  0.1660  0.4854
 3032SOL    HW120555   4.107   4.673   6.041 -2.4129  0.3168 -2.4265
 3032SOL    HW220556   4.059   4.628   6.172 -0.5179 -0.4130  0.2129
 3033SOL     OW20557   4.505   0.625   0.333 -0.5858 -0.5812 -0.1540
 3033SOL    HW120558   4.596   0.618   0.305 -0.6104  0.3321 -0.4728
 3033SOL    HW220559   4.485   0.718   0.319 -0.7612 -0.2948  2.0991
 3034SOL     OW20560   2.147   0.293   8.249  0.2011 -0.5825  0.1637
 3034SOL    HW120561   2.158   0.387   8.265  1.2709 -0.6907  0.1022
 3034SOL    HW220562   2.213   0.273   8.182  0.3402 -2.3404  0.8301
 3035SOL     OW20563   3.099   3.396   6.570  0.1048 -0.5888 -0.4144
 3035SOL    HW120564   3.096   3.315   6.621 -0.0151  0.4410  1.1838
 3035SOL    HW220565   3.061   3.360   6.490 -0.4034  1.0545 -0.9150
 3036SOL     OW20566   4.226   1.112  13.762 -0.5611 -0.0096  0.3303
 3036SOL    HW120567   4.230   1.031  13.711 -1.1037  0.0781  0.1454
 3036SOL    HW220568   4.154   1.096  13.823  0.4833  1.9960  2.0803
 3037SOL     OW20569   4.187   2.808   6.514 -0.7225 -0.5391 -0.4819
 3037SOL    HW120570   4.169   2.746   6.585 -1.2031 -1.1059 -1.1001
 3037SOL    HW220571   4.207   2.742   6.447 -0.7781 -1.5886  0.5359
 3038SOL     OW20572   2.762   0.068   4.950 -0.4880 -0.7126  0.8388
 3038SOL    HW120573   2.745   0.114   5.032  2.7950 -0.1213  1.1998
 3038SOL    HW220574   2.742   4.702   4.984 -2.9640  0.2837  1.9247
 3039SOL     OW20575   2.014   0.455   3.636  0.0541 -0.0207  0.2054
 3039SOL    HW120576   2.039   0.365   3.616 -0.9554 -0.2554  0.0241
 3039SOL    HW220577   2.096   0.500   3.661  0.9523 -2.3893  1.4934
 3040SOL     OW20578   2.687   3.115   1.978  0.3740 -0.0566  0.4172
 3040SOL    HW120579   2.689   3.178   2.050 -2.6422  1.3146 -0.6809
 3040SOL    HW220580   2.767   3.064   1.995 -0.3612 -1.5229 -0.4807
 3041SOL     OW20581   1.426   0.182  13.461 -0.0012  0.1467 -0.6529
 3041SOL    HW120582   1.375   0.242  13.406 -1.0636  0.0990  0.2717
 3041SOL    HW220583   1.382   0.097  13.451 -0.4414  0.2271  0.6627
 3042SOL     OW20584   3.162   0.198  17.363 -0.5230 -0.4890 -0.3401
 3042SOL    HW120585   3.178   0.266  17.429 -0.5584 -0.4338 -0.3895
 3042SOL    HW220586   3.189   0.234  17.279 -1.2468  3.2214  1.0149
 3043SOL     OW20587   2.240   3.135   5.535  0.1489  0.9007 -0.2810
 3043SOL    HW120588   2.188   3.068   5.579 -1.2587  0.4114 -2.7227
 3043SOL    HW220589   2.291   3.177   5.605  0.8482  0.6150 -0.6206
 3044SOL     OW20590   0.658   3.173   3.626 -0.0388 -0.1216 -0.6799
 3044SOL    HW120591   0.590   3.157   3.692  1.8487 -1.0142  1.0444
 3044SOL    HW220592   0.636   3.265   3.613 -0.4265 -0.5877 -3.3470
 3045SOL     OW20593   0.966   1.349   6.603 -0.1903  0.4290 -0.3428
 3045SOL    HW120594   0.907   1.291   6.650 -1.2604  1.9200  0.1712
 3045SOL    HW220595   1.020   1.372   6.678  0.9099  0.2989 -1.0926
 3046SOL     OW20596   2.618   2.065   5.653  0.3241 -0.5043  0.3719
 3046SOL    HW120597   2.623   1.983   5.605  1.7815 -0.0863 -0.2084
 3046SOL    HW220598   2.601   2.030   5.741 -0.6969 -1.5455 -0.2475
 3047SOL     OW20599   0.512   1.616   4.988  0.3416  0.0273 -0.4679
 3047SOL    HW120600   0.425   1.591   4.956 -1.2209  2.2606  2.0611
 3047SOL    HW220601   0.500   1.709   5.006 -0.5413 -0.4391  1.4540
 3048SOL     OW20602   4.220   1.150   6.100 -0.1934 -0.8579 -0.5748
 3048SOL    HW120603   4.154   1.219   6.109  0.5746 -0.2719  0.5539
 3048SOL    HW220604   4.299   1.203   6.101 -0.7235 -0.0931  0.5350
 3049SOL     OW20605   3.257   1.139   1.915 -0.0064  0.2557 -0.3537
 3049SOL    HW120606   3.191   1.095   1.861 -0.1483  0.4886 -0.3701
 3049SOL    HW220607   3.307   1.159   1.836 -1.0446  1.2351 -0.7592
 3050SOL     OW20608   4.346   3.013   5.246 -0.8734 -0.3636 -0.2832
 3050SOL    HW120609   4.385   3.035   5.331  0.9507 -1.1671 -0.9132
 3050SOL    HW220610   4.419   2.985   5.192 -0.5808  0.0804 -0.1186
 3051SOL     OW20611   2.670   0.298   8.332  0.1361  0.2612  0.2993
 3051SOL    HW120612   2.683   0.268   8.242  1.5089 -1.4944  1.0790
 3051SOL    HW220613   2.710   0.220   8.372 -1.3052 -1.8839 -2.4188
 3052SOL     OW20614   3.574   4.545   4.708  0.1051  0.3135  0.1165
 3052SOL    HW120615   3.505   4.506   4.763  1.0452 -1.9985 -0.3447
 3052SOL    HW220616   3.581   4.628   4.755  2.2616  0.3063 -0.1982
 3053SOL     OW20617   2.613   0.155  10.893 -0.3992  0.6611 -0.1825
 3053SOL    HW120618   2.570   0.183  10.974 -0.0201 -0.5021  0.4284
 3053SOL    HW220619   2.547   0.098  10.854 -0.8431  0.7169  0.4917
 3054SOL     OW20620   3.475   2.560   7.752 -0.0033 -0.4696 -0.1853
 3054SOL    HW120621   3.444   2.647   7.727  0.4760 -0.3131 -0.2367
 3054SOL    HW220622   3.389   2.528   7.779 -1.9500  2.8527 -2.4217
 3055SOL     OW20623   0.708   0.263  11.613 -0.3978  0.4729 -0.0012
 3055SOL    HW120624   0.624   0.306  11.598 -2.2561 -3.7317 -1.5606
 3055SOL    HW220625   0.755   0.335  11.655 -2.0080  2.3042 -1.3349
 3056SOL     OW20626   1.960   4.650   5.609 -0.0172 -0.0018  0.1199
 3056SOL    HW120627   1.888   4.643   5.546 -0.1708 -2.2653  0.5377
 3056SOL    HW220628   1.944   4.584   5.677 -2.3886  0.7215  0.2512
 3057SOL     OW20629   0.744   4.444  13.467  0.0582 -0.3870 -0.3113
 3057SOL    HW120630   0.832   4.409  13.483 -0.2109 -1.1076 -0.4472
 3057SOL    HW220631   0.706   4.477  13.548 -0.3722 -1.8483  0.0799
 3058SOL     OW20632   3.665   3.404   3.125  0.1740  0.8715 -0.0524
 3058SOL    HW120633   3.682   3.497   3.139 -1.2617  0.9808  0.9584
 3058SOL    HW220634   3.580   3.398   3.169  1.0888  2.1697  1.9020
 3059SOL     OW20635   4.332   1.884   5.818 -0.1097  0.4541  0.1343
 3059SOL    HW120636   4.267   1.952   5.835 -0.4837  0.4601 -1.2652
 3059SOL    HW220637   4.384   1.928   5.750  0.5422  2.4007  1.8763
 3060SOL     OW20638   1.335   3.744   2.815  0.4156 -0.2178  0.3806
 3060SOL    HW120639   1.408   3.804   2.825 -0.5882  1.0292  0.2807
 3060SOL    HW220640   1.278   3.799   2.761  0.3917 -0.1251  0.5005
 3061SOL     OW20641   2.966   1.806   8.974 -0.1916 -0.1547 -0.2733
 3061SOL    HW120642   2.896   1.791   8.910 -2.3911  0.2233  2.0255
 3061SOL    HW220643   2.984   1.898   8.958  0.5928  0.1405  2.3927
 3062SOL     OW20644   1.145   3.781   3.396 -0.1488  0.3705 -0.3185
 3062SOL    HW120645   1.066   3.767   3.447 -0.7864  0.8354 -1.1906
 3062SOL    HW220646   1.169   3.689   3.396 -1.7656 -0.0386  3.6362
 3063SOL     OW20647   0.943   2.224   6.678 -0.5272 -0.6187 -0.5532
 3063SOL    HW120648   0.966   2.292   6.742  1.8202 -2.6519  0.7558
 3063SOL    HW220649   1.031   2.190   6.662  0.0246  1.8658 -2.7493
 3064SOL     OW20650   3.672   1.441  16.082  0.0790 -0.2337  0.1216
 3064SOL    HW120651   3.758   1.412  16.115 -0.4235 -1.2090  0.5711
 3064SOL    HW220652   3.691   1.449  15.989 -1.1333  1.3272  0.0135
 3065SOL     OW20653   1.001   3.030   2.538  0.3366 -0.3174  0.4318
 3065SOL    HW120654   1.048   2.964   2.487  2.5827  1.9547 -0.4721
 3065SOL    HW220655   1.021   3.114   2.495  0.6295  0.0520  1.2905
 3066SOL     OW20656   0.904   2.301   8.966 -0.0318  0.4493  0.0684
 3066SOL    HW120657   0.948   2.362   8.907  0.3050 -1.1877 -1.3429
 3066SOL    HW220658   0.814   2.330   8.953 -0.1812 -0.5282 -1.0403
 3067SOL     OW20659   3.454   1.528   2.070 -0.0861 -0.5608 -0.1263
 3067SOL    HW120660   3.378   1.532   2.012 -0.3303  0.4517  0.2478
 3067SOL    HW220661   3.416   1.461   2.127  1.2217  0.0239  1.4261
 3068SOL     OW20662   0.078   3.890   6.127  0.0796 -0.0108 -0.7902
 3068SOL    HW120663   0.167   3.906   6.158  0.4136 -2.8568 -0.2220
 3068SOL    HW220664   0.087   3.861   6.036  0.0042  0.7080 -1.0279
 3069SOL     OW20665   0.890   0.268  15.110 -0.2440  0.6012 -0.0633
 3069SOL    HW120666   0.802   0.239  15.134 -0.9533  1.1740 -1.9528
 3069SOL    HW220667   0.948   0.208  15.158 -0.6994 -0.7035 -1.1477
 3070SOL     OW20668   3.826   1.521   1.037 -0.5950 -0.1850  0.1114
 3070SOL    HW120669   3.866   1.436   1.019 -1.4472 -0.3849 -0.8714
 3070SOL    HW220670   3.756   1.515   0.972 -1.6598  0.0306  1.2527
 3071SOL     OW20671   3.087   3.652  10.620 -0.3943 -0.2667 -0.4537
 3071SOL    HW120672   3.166   3.687  10.660 -1.1874 -1.0970  1.8524
 3071SOL    HW220673   3.035   3.730  10.601 -1.3154 -0.3248  1.8562
 3072SOL     OW20674   0.045   3.030   9.196 -0.2739  0.5082 -0.4477
 3072SOL    HW120675   0.036   2.973   9.119 -1.3730  1.0849 -0.7448
 3072SOL    HW220676   0.100   3.098   9.158 -3.3245  2.3810 -1.5231
 3073SOL     OW20677   1.614   0.853   6.519  0.6121 -0.2360  0.1497
 3073SOL    HW120678   1.608   0.853   6.614 -0.3925  1.7324  0.0842
 3073SOL    HW220679   1.568   0.777   6.483 -2.1340  1.3894  0.2265
 3074SOL     OW20680   3.347   2.506   8.386  0.1663 -0.1379  0.4416
 3074SOL    HW120681   3.267   2.520   8.436 -0.1308  0.2594 -0.1390
 3074SOL    HW220682   3.408   2.552   8.444  2.1802 -2.6008  0.3080
 3075SOL     OW20683   0.212   0.842   4.432 -0.1271 -0.2379 -0.4488
 3075SOL    HW120684   0.179   0.865   4.345 -0.5554 -0.6038 -0.3783
 3075SOL    HW220685   0.251   0.757   4.412 -2.5352 -1.7108  1.2984
 3076SOL     OW20686   3.256   1.679   9.513 -0.3336 -0.1982 -0.2005
 3076SOL    HW120687   3.187   1.626   9.473  1.0049 -2.2328  0.1695
 3076SOL    HW220688   3.304   1.710   9.437 -1.8076 -0.7659 -1.3657
 3077SOL     OW20689   2.803   3.275   7.822 -0.6947  0.0784  0.1956
 3077SOL    HW120690   2.807   3.248   7.914 -2.3702  0.0220  0.2671
 3077SOL    HW220691   2.768   3.195   7.783 -3.2428 -0.5063  3.5903
 3078SOL     OW20692   0.069   0.927   1.734  0.2787  0.1572  0.0537
 3078SOL    HW120693   0.130   0.900   1.802  1.4991 -0.4043 -1.2582
 3078SOL    HW220694   0.118   0.919   1.652 -0.9685 -0.8655 -0.5988
 3079SOL     OW20695   2.294   1.674   0.618  0.2638  0.1123  0.4008
 3079SOL    HW120696   2.297   1.764   0.585 -3.0224  0.2316  0.4250
 3079SOL    HW220697   2.373   1.643   0.574  1.2896  1.9098  0.9815
 3080SOL     OW20698   0.950   3.486   6.663  0.0378 -0.2425  0.0900
 3080SOL    HW120699   0.862   3.491   6.627  0.1806 -0.1046 -0.2413
 3080SOL    HW220700   0.939   3.417   6.729  0.4406 -2.2201 -1.8936
 3081SOL     OW20701   4.657   0.029  15.281  0.1827  0.7059  0.1177
 3081SOL    HW120702   4.656   0.108  15.226  0.3922 -1.1323 -2.5523
 3081SOL    HW220703   4.638   0.062  15.369 -2.1813  0.4235 -0.2779
 3082SOL     OW20704   1.066   2.082   8.976  0.3107 -0.7252  0.0327
 3082SOL    HW120705   1.010   2.160   8.982  0.8495 -0.2005 -1.7477
 3082SOL    HW220706   1.088   2.084   8.883 -1.1073  1.0006 -0.2674
 3083SOL     OW20707   4.607   3.423   7.990 -0.4522  0.5219 -0.2089
 3083SOL    HW120708   4.533   3.466   8.033  0.1314  1.8111 -0.4971
 3083SOL    HW220709   4.579   3.331   7.995 -0.9701  0.6273 -1.2265
 3084SOL     OW20710   2.720   1.075   5.864  0.3527  0.0710  0.0745
 3084SOL    HW120711   2.779   1.079   5.788 -0.7300 -2.1433 -0.8723
 3084SOL    HW220712   2.770   1.026   5.928 -1.5009  0.1996  1.6085
 3085SOL     OW20713   4.184   1.199  12.777 -0.3737 -1.0082 -0.1552
 3085SOL    HW120714   4.188   1.153  12.693 -1.5837 -0.0927 -0.7151
 3085SOL    HW220715   4.277   1.209  12.794 -0.3947 -1.9372  0.5116
 3086SOL     OW20716   1.612   1.273   2.482  0.0167 -1.1476  0.5413
 3086SOL    HW120717   1.542   1.313   2.532 -0.7604 -1.5155 -0.2565
 3086SOL    HW220718   1.596   1.286   2.389 -0.3864 -2.5449  0.4079
 3087SOL     OW20719   0.486   3.216   6.046 -0.2236 -0.2051  0.0621
 3087SOL    HW120720   0.412   3.156   6.054  0.4945 -1.0241  0.5604
 3087SOL    HW220721   0.544   3.170   6.106 -0.4946 -0.9395 -0.2432
 3088SOL     OW20722   2.144   0.888   9.344 -0.6215  0.5935 -0.7033
 3088SOL    HW120723   2.094   0.846   9.413  2.6500 -1.1608  0.5924
 3088SOL    HW220724   2.083   0.958   9.321 -0.6825  0.9111  0.4440
 3089SOL     OW20725   3.449   1.269   6.039 -0.2598  0.4007  0.2713
 3089SOL    HW120726   3.488   1.189   6.003 -0.2613  0.3797  0.3170
 3089SOL    HW220727   3.497   1.344   6.003  0.8130  0.8841  2.6776
 3090SOL     OW20728   1.649   1.312  11.601  0.8315 -0.0830  0.5781
 3090SOL    HW120729   1.731   1.263  11.612 -0.1289 -1.9279 -0.5358
 3090SOL    HW220730   1.680   1.403  11.606 -0.5069  0.2744  2.3796
 3091SOL     OW20731   0.826   3.510   3.578  0.1505 -0.1379  0.1369
 3091SOL    HW120732   0.879   3.447   3.628  1.4699 -0.7745 -2.0442
 3091SOL    HW220733   0.791   3.451   3.511  4.3113 -1.4080 -0.9415
 3092SOL     OW20734   3.960   4.537   9.948 -0.3399 -0.2455  0.2350
 3092SOL    HW120735   3.891   4.470   9.949 -0.7204  0.1215 -0.9517
 3092SOL    HW220736   4.008   4.509  10.026 -2.3118  2.2386  2.3680
 3093SOL     OW20737   3.655   4.252   6.239  0.6555  0.2487  0.3490
 3093SOL    HW120738   3.662   4.337   6.197  2.1225 -0.3400 -0.6265
 3093SOL    HW220739   3.579   4.268   6.295  0.5816  1.9432 -0.2689
 3094SOL     OW20740   1.440   3.217  10.692 -0.8772 -0.2357  0.7129
 3094SOL    HW120741   1.431   3.258  10.779  1.4829 -0.3201  0.9965
 3094SOL    HW220742   1.532   3.234  10.674 -1.1818 -0.9571 -1.5257
 3095SOL     OW20743   2.297   4.035   6.967  0.3704  0.0224 -0.1162
 3095SOL    HW120744   2.320   4.025   6.875 -2.1433 -2.9161 -0.4330
 3095SOL    HW220745   2.287   3.944   6.993 -1.0721 -0.3376 -1.9020
 3096SOL     OW20746   2.870   0.576   3.691  0.3735  0.2013  0.0456
 3096SOL    HW120747   2.927   0.610   3.760 -1.9150 -0.1239  2.0958
 3096SOL    HW220748   2.830   0.503   3.737 -0.4348 -1.6333 -3.6116
 3097SOL     OW20749   3.384   4.349   6.376  0.5745 -0.2755  0.1683
 3097SOL    HW120750   3.398   4.443   6.377 -2.3287  0.1391 -0.6072
 3097SOL    HW220751   3.342   4.336   6.291  0.7222  1.5780 -0.1805
 3098SOL     OW20752   0.314   1.673  10.202 -0.4036 -0.3343 -0.0640
 3098SOL    HW120753   0.242   1.726  10.235 -0.2493 -0.7723  0.9771
 3098SOL    HW220754   0.303   1.600  10.263 -1.0722 -2.2724 -2.4674
 3099SOL     OW20755   4.155   2.431  13.711 -0.3029 -0.2201 -0.3337
 3099SOL    HW120756   4.144   2.338  13.693  1.0296  0.0458 -2.4943
 3099SOL    HW220757   4.200   2.441  13.795  0.9016 -0.5742 -0.9407
 3100SOL     OW20758   3.875   3.319  15.698  0.4571  0.0649  0.1969
 3100SOL    HW120759   3.804   3.330  15.761  1.3035  0.3525  1.1044
 3100SOL    HW220760   3.819   3.304  15.622  0.6082 -0.1324  0.1255
 3101SOL     OW20761   3.175   4.274   9.073 -0.2279  0.1717 -0.1760
 3101SOL    HW120762   3.226   4.320   9.008 -1.5323  1.1779 -0.4875
 3101SOL    HW220763   3.240   4.239   9.134 -0.3241  1.0681  0.4326
 3102SOL     OW20764   1.731   4.280   2.899  0.5886 -0.3557 -0.7220
 3102SOL    HW120765   1.764   4.216   2.835  0.3532 -0.0243 -1.1725
 3102SOL    HW220766   1.782   4.361   2.901  1.8077 -1.1442  0.3578
 3103SOL     OW20767   2.233   4.489   8.518  0.3149  0.5192 -0.0357
 3103SOL    HW120768   2.312   4.438   8.504  0.0184  0.0041  0.1418
 3103SOL    HW220769   2.234   4.541   8.438 -0.0767  1.7729  0.7725
 3104SOL     OW20770   1.133   3.516   4.590 -0.2393  0.1525  0.3002
 3104SOL    HW120771   1.156   3.609   4.585  1.4743 -0.1791  1.7653
 3104SOL    HW220772   1.104   3.516   4.682 -0.4409 -0.9826  0.2333
 3105SOL     OW20773   0.961   0.715   2.438  0.1010  0.2713 -0.5249
 3105SOL    HW120774   0.952   0.776   2.364 -0.1774  1.3336  0.3893
 3105SOL    HW220775   1.034   0.671   2.395  0.8377  0.1721  0.8349
 3106SOL     OW20776   2.337   2.174   5.554  0.2540 -0.0981 -0.4834
 3106SOL    HW120777   2.343   2.269   5.563 -2.2402  0.1073 -1.0941
 3106SOL    HW220778   2.422   2.156   5.595 -1.1446 -2.1377  1.4787
 3107SOL     OW20779   3.846   0.582  11.447 -0.0175 -0.2155 -0.0391
 3107SOL    HW120780   3.870   0.675  11.452 -1.3991  0.0961  0.6135
 3107SOL    HW220781   3.861   0.554  11.537  3.0817  1.7092  0.0371
 3108SOL     OW20782   1.623   2.345   7.791  0.2297  0.3957  0.1162
 3108SOL    HW120783   1.680   2.341   7.867  1.0105 -0.6308 -0.5222
 3108SOL    HW220784   1.684   2.325   7.720 -1.8575  0.3607 -1.6702
 3109SOL     OW20785   1.919   0.972  12.135  0.2866 -0.2531  0.1163
 3109SOL    HW120786   1.877   1.048  12.175  0.7660  0.5309 -0.8476
 3109SOL    HW220787   1.930   0.997  12.043 -0.2072 -1.8625 -0.3777
 3110SOL     OW20788   1.225   2.640   5.829 -0.2800  0.5515 -0.0870
 3110SOL    HW120789   1.317   2.629   5.855 -0.3550  0.0287 -0.0338
 3110SOL    HW220790   1.218   2.734   5.844  1.0403  0.5526  0.5463
 3111SOL     OW20791   2.383   0.404   6.355 -0.0421  0.2893 -0.2257
 3111SOL    HW120792   2.374   0.484   6.407 -0.4726 -0.6212  1.1110
 3111SOL    HW220793   2.340   0.335   6.406 -0.3166  0.6785  0.0724
 3112SOL     OW20794   1.387   2.180   9.073 -0.2543  0.2003 -0.5403
 3112SOL    HW120795   1.370   2.095   9.113  2.5141  0.8291  2.0546
 3112SOL    HW220796   1.402   2.228   9.155  0.2284  1.7449 -1.5127
 3113SOL     OW20797   0.402   2.211   4.340 -0.0205  0.2017 -0.0954
 3113SOL    HW120798   0.423   2.172   4.255 -2.5242 -1.0169 -0.1761
 3113SOL    HW220799   0.362   2.139   4.390  0.9202 -0.1421  0.1542
 3114SOL     OW20800   3.189   1.032   6.425 -0.4105  0.0952 -0.3224
 3114SOL    HW120801   3.200   1.042   6.330 -1.9186  1.4809 -0.3583
 3114SOL    HW220802   3.095   1.017   6.428 -0.4548  0.7226  1.3050
 3115SOL     OW20803   1.874   1.270   6.321  0.0003  0.0192 -0.2330
 3115SOL    HW120804   1.819   1.338   6.361 -0.5636 -0.4945 -0.1287
 3115SOL    HW220805   1.923   1.324   6.259  1.6240 -0.7899  0.3640
 3116SOL     OW20806   3.411   1.982   5.133 -0.0599  0.2170 -0.0185
 3116SOL    HW120807   3.369   2.068   5.125  2.5482  1.5159  0.6311
 3116SOL    HW220808   3.503   2.003   5.142 -0.0574 -0.6523  1.7931
 3117SOL     OW20809   2.012   0.144   6.715  0.2150 -0.0698 -0.1472
 3117SOL    HW120810   2.021   0.192   6.798 -0.3462 -0.1525 -0.0338
 3117SOL    HW220811   1.976   0.065   6.757 -0.4501  1.0479  1.3956
 3118SOL     OW20812   0.483   2.148   9.322  0.2637 -0.0893 -0.2452
 3118SOL    HW120813   0.554   2.211   9.306 -0.4577  0.2093 -2.2645
 3118SOL    HW220814   0.515   2.069   9.281 -0.8034 -0.9990  0.6753
 3119SOL     OW20815   2.217   2.665   1.380  0.1380  0.1444  0.0741
 3119SOL    HW120816   2.134   2.692   1.421  1.1699  0.0948  2.2040
 3119SOL    HW220817   2.258   2.610   1.447  2.6900 -0.5978 -2.1077
 3120SOL     OW20818   2.774   1.679   1.967  0.1279 -0.4794  0.0810
 3120SOL    HW120819   2.855   1.628   1.966  0.3982 -0.0891  2.2343
 3120SOL    HW220820   2.794   1.748   2.030 -0.3503  0.1614 -0.4636
 3121SOL     OW20821   3.230   3.009   7.705 -0.0597 -0.3587 -0.7640
 3121SOL    HW120822   3.291   3.055   7.647  2.5249 -1.9741  0.6847
 3121SOL    HW220823   3.167   2.982   7.638 -1.9843 -0.0827  0.9206
 3122SOL     OW20824   3.487   2.819   8.274 -0.1705 -0.2186 -0.2685
 3122SOL    HW120825   3.416   2.833   8.211  2.9526  0.1525 -3.6924
 3122SOL    HW220826   3.453   2.879   8.340 -0.7547  0.5658 -1.2866
 3123SOL     OW20827   2.627   4.177   8.329 -0.2510  0.4450  0.4479
 3123SOL    HW120828   2.686   4.184   8.254 -0.1265  1.5638  0.6413
 3123SOL    HW220829   2.666   4.103   8.375  2.7433  1.3703 -0.5818
 3124SOL     OW20830   1.234   1.063  11.675 -0.0533  0.2754 -0.4170
 3124SOL    HW120831   1.215   1.017  11.757  2.6849 -1.7733 -0.9014
 3124SOL    HW220832   1.200   0.996  11.615 -1.2253  0.7664 -0.2972
 3125SOL     OW20833   1.464   3.037  11.597  0.1347 -0.7332 -0.1112
 3125SOL    HW120834   1.499   3.086  11.524 -1.4937 -1.6182 -1.4999
 3125SOL    HW220835   1.534   3.054  11.659 -0.6818 -1.7023  1.1020
 3126SOL     OW20836   1.081   1.736   7.883  0.3369 -0.0222 -0.6690
 3126SOL    HW120837   1.155   1.795   7.872  0.5787 -0.1583  0.2406
 3126SOL    HW220838   1.122   1.649   7.877  1.5427  0.5851 -1.1730
 3127SOL     OW20839   1.585   4.654   6.928  0.4638  0.3543 -0.6027
 3127SOL    HW120840   1.563   0.023   6.904 -2.5547 -0.1896  0.1068
 3127SOL    HW220841   1.553   4.652   7.018 -2.3058 -0.6209 -1.6265
 3128SOL     OW20842   2.989   3.095  16.156 -0.2965 -0.1863 -0.1753
 3128SOL    HW120843   2.906   3.137  16.135  0.2265  0.0049 -1.8799
 3128SOL    HW220844   2.974   3.012  16.110 -1.4940 -0.1141  0.1105
 3129SOL     OW20845   3.701   0.886   8.195 -0.3964  0.5653 -0.2818
 3129SOL    HW120846   3.770   0.855   8.253 -0.1442  1.4052 -0.1274
 3129SOL    HW220847   3.676   0.968   8.238 -0.6222  0.5286 -0.3447
 3130SOL     OW20848   1.836   2.178  15.232 -0.3482 -0.1965 -0.2271
 3130SOL    HW120849   1.878   2.108  15.182  0.4887 -0.8692  1.4334
 3130SOL    HW220850   1.787   2.122  15.291  0.1850 -0.2039  0.2027
 3131SOL     OW20851   4.242   2.856   9.595  0.4760 -1.1077  0.0973
 3131SOL    HW120852   4.245   2.905   9.512  2.2131  1.7268  1.8170
 3131SOL    HW220853   4.328   2.816   9.584  0.0938 -1.8734 -0.0775
 3132SOL     OW20854   1.741   2.348  12.179  0.0295 -0.4276  0.1207
 3132SOL    HW120855   1.681   2.275  12.191 -1.8443  1.0356 -0.4778
 3132SOL    HW220856   1.789   2.323  12.100 -0.7362  0.2700 -0.5630
 3133SOL     OW20857   0.569   3.291   6.593 -0.2895 -0.0375 -0.1235
 3133SOL    HW120858   0.644   3.302   6.651 -0.1119 -1.5279 -0.0895
 3133SOL    HW220859   0.615   3.245   6.523  3.2739  0.6538  1.7926
 3134SOL     OW20860   3.869   1.990   5.896 -0.3564 -0.0250 -0.6635
 3134SOL    HW120861   3.832   2.069   5.935 -1.2289 -1.3574  1.2025
 3134SOL    HW220862   3.783   1.947   5.897 -0.6304  0.5288 -0.2546
 3135SOL     OW20863   1.794   0.965   9.033 -0.3913  0.1468 -0.1584
 3135SOL    HW120864   1.888   0.978   9.017 -0.2019 -1.5749 -0.4473
 3135SOL    HW220865   1.760   1.052   9.014  4.2875  1.4287 -2.7137
 3136SOL     OW20866   4.604   3.854  11.990  0.6051 -0.3813 -0.8364
 3136SOL    HW120867   4.684   3.846  11.939  0.6227 -0.3711 -0.8105
 3136SOL    HW220868   4.594   3.948  12.002  0.0471 -0.7193  1.4740
 3137SOL     OW20869   2.438   3.019   1.956  0.6210 -0.0074  1.1871
 3137SOL    HW120870   2.527   3.055   1.950  1.2152 -2.1079 -3.0451
 3137SOL    HW220871   2.465   2.927   1.956  1.2855  0.1878  2.2554
 3138SOL     OW20872   0.717   4.439   5.532 -0.0795 -0.0644  0.1228
 3138SOL    HW120873   0.696   4.351   5.500  0.8870  0.4051 -1.7685
 3138SOL    HW220874   0.698   4.503   5.463  0.0153  0.7751  0.8737
 3139SOL     OW20875   0.065   1.737   3.408 -0.3369  0.0570 -0.3804
 3139SOL    HW120876   0.088   1.818   3.454 -3.1592  1.1510 -0.8960
 3139SOL    HW220877   0.125   1.681   3.456  0.8387  1.9197  0.3166
 3140SOL     OW20878   3.046   0.764   0.048  0.4366  0.1873  0.1728
 3140SOL    HW120879   3.088   0.832   0.101  0.9029  3.2104 -4.1397
 3140SOL    HW220880   3.093   0.773  17.653 -2.1807  0.6782 -1.2404
 3141SOL     OW20881   4.321   3.976   2.168 -0.0558  0.2212 -0.0524
 3141SOL    HW120882   4.257   3.913   2.134 -1.3296  0.8024  1.2601
 3141SOL    HW220883   4.324   4.041   2.098  1.4443 -0.1019 -0.3028
 3142SOL     OW20884   0.011   3.290  15.859 -0.2713  0.4402  0.9123
 3142SOL    HW120885   0.050   3.204  15.847  0.6411  0.7815  1.3849
 3142SOL    HW220886   4.663   3.264  15.920 -1.1711 -0.2615 -0.4377
 3143SOL     OW20887   0.216   1.581  15.856 -0.0537 -0.2338  0.3234
 3143SOL    HW120888   0.157   1.550  15.787 -2.0698  0.0603  1.9179
 3143SOL    HW220889   0.160   1.557  15.930 -0.0314 -2.0295 -0.2479
 3144SOL     OW20890   2.319   4.446   5.297 -0.2690 -0.3244 -0.2328
 3144SOL    HW120891   2.226   4.421   5.303 -0.5873  1.1042  0.9580
 3144SOL    HW220892   2.357   4.393   5.367  0.8476  1.5536  0.5842
 3145SOL     OW20893   0.034   3.108  10.386 -0.4123 -0.1989  0.3007
 3145SOL    HW120894   0.091   3.116  10.310 -1.2922 -2.6533 -0.6048
 3145SOL    HW220895   0.069   3.041  10.445  0.5150 -1.5828 -1.8636
 3146SOL     OW20896   1.266   0.724  16.444 -0.3014 -0.2727 -0.1746
 3146SOL    HW120897   1.201   0.795  16.451 -1.2217 -1.0590 -0.7324
 3146SOL    HW220898   1.251   0.663  16.372 -2.7926  0.1569 -0.0417
 3147SOL     OW20899   4.070   1.218   7.173  0.2236 -0.2817  0.1049
 3147SOL    HW120900   4.152   1.243   7.130  0.6398  0.3021  1.2382
 3147SOL    HW220901   4.022   1.300   7.188 -0.6532 -0.8876  0.6253
 3148SOL     OW20902   2.490   1.745   5.889 -0.3520  0.1285 -0.0512
 3148SOL    HW120903   2.430   1.770   5.819 -1.1681  0.7868  0.8716
 3148SOL    HW220904   2.454   1.672   5.940  0.1080  0.5476  0.8829
 3149SOL     OW20905   2.125   0.624   2.642 -0.5225  0.4087  0.1436
 3149SOL    HW120906   2.152   0.661   2.726 -0.2900 -0.5181  0.4854
 3149SOL    HW220907   2.054   0.683   2.619 -1.4893 -0.1368  1.7790
 3150SOL     OW20908   0.971   0.338   8.098 -0.7968 -0.2785 -0.3239
 3150SOL    HW120909   0.908   0.305   8.033 -1.1492 -1.2541  0.5153
 3150SOL    HW220910   1.030   0.264   8.096 -1.1661 -0.5507 -1.2617
 3151SOL     OW20911   2.182   3.901  12.611 -0.1567  0.3905  0.0136
 3151SOL    HW120912   2.146   3.957  12.543 -2.7356 -2.2102 -0.7899
 3151SOL    HW220913   2.218   3.970  12.666 -2.3247 -1.0159  3.1990
 3152SOL     OW20914   1.228   3.411   3.588  0.1185  0.3509  0.6785
 3152SOL    HW120915   1.307   3.357   3.594  0.9557  1.3728 -1.2505
 3152SOL    HW220916   1.177   3.371   3.518  1.4976 -1.6709  0.8178
 3153SOL     OW20917   3.268   2.081   9.531  0.2047  0.1488  0.5578
 3153SOL    HW120918   3.225   2.003   9.568 -0.0191  0.2800  0.5716
 3153SOL    HW220919   3.357   2.071   9.566  0.2321 -1.3951  0.0507
 3154SOL     OW20920   0.702   3.089   3.932 -0.1386 -0.1434 -0.6765
 3154SOL    HW120921   0.741   3.032   3.998  1.3409  0.7822 -0.7491
 3154SOL    HW220922   0.625   3.033   3.919  1.8126 -3.4961  2.3748
 3155SOL     OW20923   4.589   1.706   5.246  0.3262 -0.1040  0.0330
 3155SOL    HW120924   4.552   1.765   5.180  1.6710  0.1254 -0.5028
 3155SOL    HW220925   4.634   1.774   5.295  1.5597 -0.0398 -1.2041
 3156SOL     OW20926   3.716   2.538   6.117  0.0667 -0.1373  0.1065
 3156SOL    HW120927   3.637   2.545   6.171  1.0580 -3.2257  2.0023
 3156SOL    HW220928   3.670   2.544   6.033 -1.4628  1.3205  1.0305
 3157SOL     OW20929   2.047   3.701   4.794 -0.3875 -0.3128 -0.2237
 3157SOL    HW120930   1.984   3.700   4.866  1.0683  1.0324  1.0663
 3157SOL    HW220931   2.028   3.789   4.761 -0.1124  0.6725  2.2264
 3158SOL     OW20932   0.595   3.189   9.534  0.4850  0.4208  0.0080
 3158SOL    HW120933   0.673   3.138   9.513  0.1307 -0.4123  0.7020
 3158SOL    HW220934   0.636   3.275   9.532 -0.5681  0.9769  1.9364
 3159SOL     OW20935   3.246   3.861   8.739 -0.3460 -0.3501 -0.1872
 3159SOL    HW120936   3.298   3.830   8.666 -0.0186  1.6394 -0.7895
 3159SOL    HW220937   3.315   3.892   8.798 -1.1541 -1.3030  1.2564
 3160SOL     OW20938   1.425   3.921   1.057 -0.5283 -0.1064  0.3428
 3160SOL    HW120939   1.501   3.883   1.012 -0.1047  1.7472 -0.5568
 3160SOL    HW220940   1.396   3.840   1.099 -1.4054  1.0510  1.9817
 3161SOL     OW20941   0.147   2.081   2.182  0.0971 -0.1360 -0.3271
 3161SOL    HW120942   0.242   2.083   2.172  0.0890  1.0511 -0.2449
 3161SOL    HW220943   0.127   2.174   2.197 -1.7646 -0.4979 -0.4973
 3162SOL     OW20944   3.506   2.852   0.191  0.0396  0.0527  0.8375
 3162SOL    HW120945   3.458   2.786   0.241 -1.0716 -0.1483 -0.5081
 3162SOL    HW220946   3.591   2.814   0.216  1.4190  0.3021 -3.4693
 3163SOL     OW20947   2.555   4.398   6.170 -0.0114 -0.7415 -0.3018
 3163SOL    HW120948   2.543   4.467   6.105 -2.5885 -1.1766 -0.3201
 3163SOL    HW220949   2.542   4.443   6.253 -0.7421 -0.3388 -0.6385
 3164SOL     OW20950   3.629   1.313  12.562  0.2155 -0.4426 -0.5327
 3164SOL    HW120951   3.589   1.318  12.476  0.7143  0.0203 -0.7339
 3164SOL    HW220952   3.552   1.321  12.619 -0.4389  0.4230 -1.5413
 3165SOL     OW20953   2.538   2.846   5.497  0.2239  0.6303 -0.2820
 3165SOL    HW120954   2.531   2.882   5.586 -0.6412 -0.4342  0.0783
 3165SOL    HW220955   2.526   2.929   5.451 -0.4659 -0.2827 -1.7277
 3166SOL     OW20956   3.021   1.965  10.570 -0.1802  0.2010  0.0483
 3166SOL    HW120957   2.974   2.012  10.639  1.3463  0.2719  1.0483
 3166SOL    HW220958   3.046   2.036  10.511  1.8699  1.5210  2.5070
 3167SOL     OW20959   2.125   4.712   9.721  0.1786 -0.0194  0.4517
 3167SOL    HW120960   2.209   4.682   9.758 -0.7029 -1.6892  1.0997
 3167SOL    HW220961   2.155   0.029   9.639 -0.7336 -0.8386 -0.2675
 3168SOL     OW20962   2.532   1.212   1.570 -0.3657  0.2987  0.7759
 3168SOL    HW120963   2.525   1.298   1.611  1.3347  0.7179  0.1828
 3168SOL    HW220964   2.448   1.197   1.527  0.9907 -0.2859 -1.7363
 3169SOL     OW20965   1.653   2.843   3.581  0.2163 -0.0786 -0.2355
 3169SOL    HW120966   1.746   2.841   3.603  0.1040  2.1553  0.4856
 3169SOL    HW220967   1.626   2.776   3.644 -2.7494  2.0458  0.7590
 3170SOL     OW20968   4.346   0.042   8.892  0.1646  0.1475  0.0703
 3170SOL    HW120969   4.424   4.710   8.880 -0.9845 -1.5809  0.2351
 3170SOL    HW220970   4.282   4.697   8.866  0.8080  0.3274 -2.0182
 3171SOL     OW20971   1.059   4.567   9.144 -0.2009  0.7598  0.6076
 3171SOL    HW120972   0.988   4.567   9.207  0.5489 -0.7865  1.4442
 3171SOL    HW220973   1.140   4.592   9.190  0.4784 -0.4839  0.0694
 3172SOL     OW20974   4.445   3.252   3.446 -1.0173 -1.0011  0.3358
 3172SOL    HW120975   4.453   3.289   3.358 -0.5048  0.4100  0.9624
 3172SOL    HW220976   4.520   3.293   3.490 -1.1645 -0.8869  0.4813
 3173SOL     OW20977   1.926   0.784   7.983 -0.2283  0.1852  0.6405
 3173SOL    HW120978   1.901   0.847   8.050 -0.7993 -0.3995  0.9767
 3173SOL    HW220979   2.019   0.770   7.998 -0.0034  2.0732  0.9709
 3174SOL     OW20980   3.566   1.112   5.288 -0.1509  0.7138  0.2187
 3174SOL    HW120981   3.596   1.090   5.200 -2.6235  0.5106 -0.5786
 3174SOL    HW220982   3.473   1.095   5.273 -0.2584 -1.4112  3.2084
 3175SOL     OW20983   3.506   2.554  11.789  0.1976  0.2965  0.5812
 3175SOL    HW120984   3.522   2.611  11.714 -2.8232  1.0638  0.4855
 3175SOL    HW220985   3.436   2.608  11.827 -1.4506 -1.4190 -0.0123
 3176SOL     OW20986   2.510   2.386  10.256  0.0156 -0.2158  0.0979
 3176SOL    HW120987   2.575   2.408  10.188  1.0348  0.9112  1.4427
 3176SOL    HW220988   2.554   2.317  10.306  3.1235  0.4356 -1.7276
 3177SOL     OW20989   0.180   0.839   6.927 -0.3108 -0.2164 -0.5087
 3177SOL    HW120990   0.122   0.764   6.937 -0.8468  0.3101  0.3516
 3177SOL    HW220991   0.127   0.918   6.937  0.5463  0.1684  1.0135
 3178SOL     OW20992   3.663   3.589   7.214  0.1384 -0.4461  0.1815
 3178SOL    HW120993   3.573   3.556   7.216  0.3278 -1.0390 -1.0038
 3178SOL    HW220994   3.699   3.505   7.244 -0.0180 -0.9841 -1.1318
 3179SOL     OW20995   3.460   2.841   4.420 -0.1098 -0.4671 -0.4684
 3179SOL    HW120996   3.469   2.821   4.326  1.3036  0.9507 -0.6406
 3179SOL    HW220997   3.393   2.909   4.418  0.2125 -0.0935  1.9683
 3180SOL     OW20998   0.248   3.019  14.356 -0.2069  0.7422 -0.0618
 3180SOL    HW120999   0.169   2.987  14.312  0.5832 -0.8202 -0.3314
 3180SOL    HW221000   0.294   3.052  14.279 -0.6723 -1.4773 -1.2829
 3181SOL     OW21001   0.247   0.662   8.068 -0.5719 -0.4135 -0.2821
 3181SOL    HW121002   0.184   0.706   8.126 -0.1237 -2.4364  1.7204
 3181SOL    HW221003   0.207   0.686   7.984 -0.4408  0.5066 -0.0829
 3182SOL     OW21004   1.428   2.544   6.777  0.1269 -0.1707 -0.3554
 3182SOL    HW121005   1.382   2.548   6.693 -0.9892 -0.8290  0.2273
 3182SOL    HW221006   1.496   2.484   6.748  2.0191  1.9716 -0.4026
 3183SOL     OW21007   3.409   1.725   3.678  0.4424  0.0609  0.0969
 3183SOL    HW121008   3.504   1.717   3.670  0.2987 -2.0968  0.3756
 3183SOL    HW221009   3.388   1.794   3.615  0.6977  0.8055  0.8226
 3184SOL     OW21010   0.447   1.189  14.396 -0.3109  0.0812 -0.0559
 3184SOL    HW121011   0.444   1.094  14.382  0.4669  0.3631 -2.1083
 3184SOL    HW221012   0.527   1.204  14.447 -0.6799  0.7636  0.3278
 3185SOL     OW21013   0.832   0.708   4.292  0.6064 -0.5338 -0.5402
 3185SOL    HW121014   0.748   0.703   4.246  0.3676 -1.2709 -0.0197
 3185SOL    HW221015   0.897   0.683   4.226  0.8055  1.3504 -1.0537
 3186SOL     OW21016   2.005   0.820   2.996  0.4192  0.3247  0.2994
 3186SOL    HW121017   2.093   0.807   3.031  0.9346  1.0959 -0.7080
 3186SOL    HW221018   1.984   0.731   2.966 -0.0603  1.2324 -2.1229
 3187SOL     OW21019   3.138   4.251   6.520 -0.5910 -0.1817  0.1486
 3187SOL    HW121020   3.212   4.218   6.571 -0.1553  0.6349  0.0341
 3187SOL    HW221021   3.164   4.341   6.506  0.2945 -0.3802  0.5554
 3188SOL     OW21022   1.655   3.552   4.781  0.1902  1.0506  0.5650
 3188SOL    HW121023   1.688   3.615   4.717  1.2812 -0.4871 -0.3740
 3188SOL    HW221024   1.606   3.614   4.835 -0.2596  1.4276 -0.2829
 3189SOL     OW21025   0.648   2.451   3.229 -0.0179  0.0713 -0.6051
 3189SOL    HW121026   0.680   2.503   3.155  0.8192 -2.4501 -2.0179
 3189SOL    HW221027   0.561   2.490   3.242  0.0022 -0.6795  1.6668
 3190SOL     OW21028   1.687   3.241   6.030  0.0670 -0.4942 -0.1194
 3190SOL    HW121029   1.665   3.229   6.123 -1.9601 -1.8276 -0.7653
 3190SOL    HW221030   1.597   3.229   5.999 -0.1654 -0.5428  0.5735
 3191SOL     OW21031   0.002   4.237   2.680  0.0250 -0.3489  0.2328
 3191SOL    HW121032   0.039   4.258   2.594 -0.4866  0.3173  0.1700
 3191SOL    HW221033   0.002   4.142   2.674  0.9065 -0.3135 -0.2499
 3192SOL     OW21034   0.295   3.930   8.563 -0.6881 -0.8068 -0.1306
 3192SOL    HW121035   0.333   4.005   8.609  0.1561 -0.6646 -1.0591
 3192SOL    HW221036   0.375   3.878   8.566 -1.2241 -1.5926  0.6170
 3193SOL     OW21037   3.753   0.197  12.146  0.3243  0.1552 -0.0770
 3193SOL    HW121038   3.675   0.241  12.178  0.5004  0.1403  0.3798
 3193SOL    HW221039   3.794   0.158  12.224  0.2366  0.5852  0.1804
 3194SOL     OW21040   2.650   0.228   4.118  0.2340 -0.1421 -0.3200
 3194SOL    HW121041   2.562   0.202   4.144 -0.5916  1.9183 -1.0740
 3194SOL    HW221042   2.649   0.198   4.027 -1.2317 -2.4031  0.4397
 3195SOL     OW21043   0.013   0.602   8.725 -0.1816  0.2551  0.4006
 3195SOL    HW121044   0.059   0.531   8.769 -1.3721 -0.9457 -0.3161
 3195SOL    HW221045   4.647   0.595   8.764  1.1481  1.0922  3.5389
 3196SOL     OW21046   4.667   1.176  10.422  0.0464  0.2562 -0.3959
 3196SOL    HW121047   4.679   1.249  10.483 -1.4975  0.4854 -0.3701
 3196SOL    HW221048   4.720   1.212  10.351  1.0934 -2.5106 -0.9914
 3197SOL     OW21049   2.300   2.897   5.068 -0.2177  0.3175  0.5545
 3197SOL    HW121050   2.304   2.804   5.045 -0.6061  0.8910 -1.8915
 3197SOL    HW221051   2.227   2.909   5.129 -0.1301  1.5329  0.4231
 3198SOL     OW21052   2.732   4.244  11.875  0.0647 -0.3054 -0.1415
 3198SOL    HW121053   2.805   4.302  11.856  0.2445 -0.4594  0.0705
 3198SOL    HW221054   2.768   4.217  11.960 -0.4476  2.4586  0.9661
 3199SOL     OW21055   3.400   4.236  17.356  0.4937 -0.3551 -0.3673
 3199SOL    HW121056   3.472   4.198  17.406  0.7049 -1.0534 -1.2102
 3199SOL    HW221057   3.349   4.156  17.347 -4.8757  2.7693  1.4691
 3200SOL     OW21058   4.224   4.038  15.611  0.2556  0.4138  0.2241
 3200SOL    HW121059   4.282   4.101  15.655  1.0836 -0.5682  0.5549
 3200SOL    HW221060   4.159   4.096  15.572  2.0882  1.6152 -1.0112
 3201SOL     OW21061   2.966   1.526  12.487 -0.0190  0.5838 -0.4683
 3201SOL    HW121062   3.050   1.556  12.453  1.9552 -1.8942  2.2690
 3201SOL    HW221063   2.896   1.544  12.424 -0.7161  2.9813  0.9787
 3202SOL     OW21064   4.402   0.276   4.586 -0.1893 -0.0401 -0.4458
 3202SOL    HW121065   4.377   0.359   4.624 -0.3380 -0.7254  0.9527
 3202SOL    HW221066   4.327   0.223   4.614 -0.7875  2.4014  2.4380
 3203SOL     OW21067   4.715   0.555   2.292 -0.5173  1.0772  1.0085
 3203SOL    HW121068   4.631   0.561   2.245  0.5072 -3.1049 -1.3156
 3203SOL    HW221069   4.707   0.475   2.344  0.3732  1.3044  1.4905
 3204SOL     OW21070   0.388   1.033   3.791 -0.1016 -0.3825 -0.5390
 3204SOL    HW121071   0.374   0.941   3.774 -1.4243 -0.2325 -0.2196
 3204SOL    HW221072   0.371   1.063   3.702 -1.5662  0.1632 -0.0776
 3205SOL     OW21073   0.546   3.192   8.606  0.1438 -0.2868  0.4540
 3205SOL    HW121074   0.588   3.215   8.689  3.2362 -1.8931 -0.6829
 3205SOL    HW221075   0.605   3.124   8.574 -0.8961 -0.2050 -1.6437
 3206SOL     OW21076   4.686   1.670   2.206  0.3898  0.1417 -0.4062
 3206SOL    HW121077   0.005   1.757   2.209 -2.4018  1.4693 -0.9931
 3206SOL    HW221078   0.018   1.616   2.148 -0.1667 -0.9216  0.0761
 3207SOL     OW21079   1.070   2.804   8.576  0.7785  0.5548 -0.1086
 3207SOL    HW121080   1.061   2.778   8.667  0.9204  1.8685  0.2766
 3207SOL    HW221081   1.076   2.900   8.574 -0.7980  0.6545 -0.5669
 3208SOL     OW21082   4.073   2.746   4.728  0.0724  0.2693 -1.2535
 3208SOL    HW121083   4.036   2.816   4.780 -1.6364 -1.3071 -0.3587
 3208SOL    HW221084   4.005   2.680   4.744 -1.4254  1.4784 -2.6366
 3209SOL     OW21085   2.758   3.579   6.200  0.2308  0.1250  0.2005
 3209SOL    HW121086   2.839   3.607   6.158 -0.0878  1.2769  0.3510
 3209SOL    HW221087   2.697   3.652   6.188 -0.4488 -0.1195  2.1784
 3210SOL     OW21088   3.285   2.375  10.561  0.4620  0.6838  0.4524
 3210SOL    HW121089   3.371   2.412  10.581 -0.4158  1.7247  2.3439
 3210SOL    HW221090   3.306   2.282  10.567  3.5779  1.2695 -1.3740
 3211SOL     OW21091   0.173   3.819   3.582  0.7373 -0.1418  0.0233
 3211SOL    HW121092   0.252   3.872   3.570  0.1921  0.5680 -0.4202
 3211SOL    HW221093   0.198   3.741   3.532 -1.6357 -1.0158  0.2248
 3212SOL     OW21094   1.744   0.436   7.648  0.2028  0.0024  0.5033
 3212SOL    HW121095   1.719   0.411   7.559 -0.0306 -0.1203  0.6052
 3212SOL    HW221096   1.658   0.449   7.688 -1.0591  0.2407 -2.2928
 3213SOL     OW21097   0.141   2.819  16.174 -0.3492 -0.1891 -0.4296
 3213SOL    HW121098   0.207   2.774  16.121  0.5354  1.1702 -0.4944
 3213SOL    HW221099   0.185   2.901  16.199 -1.7180 -0.5434  3.1319
 3214SOL     OW21100   0.583   2.049   3.294  0.3162 -0.0404 -0.3726
 3214SOL    HW121101   0.645   2.010   3.232  0.0428 -1.2028  0.1031
 3214SOL    HW221102   0.629   2.133   3.304 -0.0824 -0.5029  5.0169
 3215SOL     OW21103   2.044   4.089   3.325 -0.8068 -0.3241  0.2424
 3215SOL    HW121104   2.118   4.119   3.378  0.1509 -0.8097 -0.8135
 3215SOL    HW221105   2.018   4.171   3.284  1.8723 -0.1131 -0.9765
 3216SOL     OW21106   2.550   3.271   8.231  0.2667  0.1975  0.2723
 3216SOL    HW121107   2.473   3.291   8.285  1.3523  0.4589  1.7194
 3216SOL    HW221108   2.585   3.202   8.287 -1.8678 -0.8185  0.3798
 3217SOL     OW21109   4.541   1.597  11.437 -0.4939  0.3362 -0.2978
 3217SOL    HW121110   4.546   1.652  11.358  0.7860 -0.4616 -0.7780
 3217SOL    HW221111   4.475   1.533  11.410  0.4132 -2.4575  4.1998
 3218SOL     OW21112   2.159   4.716  12.291  0.9436 -0.0713  0.5373
 3218SOL    HW121113   2.237   4.662  12.302  0.2453 -0.0526  5.3882
 3218SOL    HW221114   2.125   4.683  12.207  2.3486  3.3047 -1.3577
 3219SOL     OW21115   1.198   1.850   6.174 -0.3446  0.1019  0.0855
 3219SOL    HW121116   1.139   1.831   6.102 -1.5134  1.8671  0.5633
 3219SOL    HW221117   1.195   1.762   6.211  0.2305  1.5906  3.7250
 3220SOL     OW21118   0.014   0.746   4.672  0.4236  0.0390  0.6410
 3220SOL    HW121119   0.071   0.801   4.618 -1.7695  2.5744  0.8789
 3220SOL    HW221120   0.037   0.655   4.655 -1.3884 -0.0681 -1.2412
 3221SOL     OW21121   4.182   0.557   7.756  0.2539  0.0051  0.4049
 3221SOL    HW121122   4.248   0.578   7.691 -1.7001  2.4304 -0.8383
 3221SOL    HW221123   4.121   0.632   7.751 -1.0055 -1.0230  0.3226
 3222SOL     OW21124   2.838   4.379  11.661 -0.4199  0.3625  0.2588
 3222SOL    HW121125   2.772   4.442  11.630  1.1780  1.5280 -0.7819
 3222SOL    HW221126   2.918   4.432  11.664  1.3666 -2.4116  0.9030
 3223SOL     OW21127   2.428   2.223   4.471 -0.6109 -0.3461  0.8822
 3223SOL    HW121128   2.405   2.152   4.411  0.9753  0.9809 -1.3015
 3223SOL    HW221129   2.412   2.192   4.560  2.9028  1.0789  1.9905
 3224SOL     OW21130   1.438   2.025   7.421  0.2133 -0.0525  0.2129
 3224SOL    HW121131   1.489   2.079   7.361  1.5758 -2.7154 -1.0072
 3224SOL    HW221132   1.482   1.941   7.408 -1.5407 -1.0651  0.7556
 3225SOL     OW21133   3.118   2.325   4.213  0.2550 -0.2634 -0.0101
 3225SOL    HW121134   3.200   2.278   4.229  0.3555  0.2206  0.9043
 3225SOL    HW221135   3.119   2.385   4.288 -0.6077  1.5419 -1.4380
 3226SOL     OW21136   2.881   1.215  11.892  0.1405  0.4750 -0.7893
 3226SOL    HW121137   2.910   1.137  11.940  0.9707  2.2505  1.5525
 3226SOL    HW221138   2.902   1.277  11.962  1.2657 -0.0999 -0.6132
 3227SOL     OW21139   3.697   0.732   2.166  0.0152  0.5472 -0.3156
 3227SOL    HW121140   3.696   0.817   2.124 -0.3471 -0.3394 -2.0998
 3227SOL    HW221141   3.652   0.743   2.250  2.1219 -0.6675  1.0025
 3228SOL     OW21142   3.819   4.441  10.750 -0.2351 -0.1589  0.4491
 3228SOL    HW121143   3.790   4.485  10.830 -0.4649  0.0315  0.2621
 3228SOL    HW221144   3.847   4.521  10.704 -2.2236  0.2113 -0.1290
 3229SOL     OW21145   1.972   1.561   8.233 -0.2158 -0.0684  0.5034
 3229SOL    HW121146   1.887   1.550   8.191  0.9852  0.3731 -2.0825
 3229SOL    HW221147   1.944   1.623   8.300  0.8876  2.1713 -1.1108
 3230SOL     OW21148   2.498   3.147   0.551  0.0732 -0.2474  0.5509
 3230SOL    HW121149   2.447   3.219   0.512  0.6447 -1.0429 -1.6831
 3230SOL    HW221150   2.505   3.182   0.640  0.3776  0.0095  0.4264
 3231SOL     OW21151   2.823   4.684   0.197  0.1665  0.2569  0.3950
 3231SOL    HW121152   2.819   0.055   0.174 -1.9102  0.0892  0.0224
 3231SOL    HW221153   2.857   4.706   0.284  0.0671 -2.0213  1.0144
 3232SOL     OW21154   1.171   0.461   6.871 -0.3237 -0.1862 -0.3483
 3232SOL    HW121155   1.083   0.457   6.908  0.0340  0.2039  0.5407
 3232SOL    HW221156   1.201   0.537   6.921 -1.4680 -0.6920  1.1086
 3233SOL     OW21157   1.810   2.836   2.332  0.9272  0.0501  0.1867
 3233SOL    HW121158   1.805   2.761   2.274 -0.3155  0.1108  0.2242
 3233SOL    HW221159   1.828   2.909   2.273  3.1403 -1.6488 -1.2530
 3234SOL     OW21160   1.108   1.821   6.746 -0.4214 -0.9566 -0.7202
 3234SOL    HW121161   1.047   1.831   6.818  0.3902 -2.7051  0.1938
 3234SOL    HW221162   1.160   1.746   6.774  0.5533 -0.5257 -1.3506
 3235SOL     OW21163   2.986   2.132   4.472  0.5313  0.4943 -0.0790
 3235SOL    HW121164   2.980   2.039   4.494  0.5996  0.2831 -0.9380
 3235SOL    HW221165   2.991   2.130   4.376 -1.6105 -0.0415 -0.1863
 3236SOL     OW21166   1.836   1.033   2.961 -0.4337 -0.8560 -0.1881
 3236SOL    HW121167   1.898   0.961   2.970  1.1808  0.6912  1.1850
 3236SOL    HW221168   1.754   0.983   2.954 -0.7132 -0.3397 -0.6505
 3237SOL     OW21169   2.254   1.211   5.642 -0.4137  0.1372  0.4865
 3237SOL    HW121170   2.178   1.157   5.618  0.4871 -0.3484 -1.2789
 3237SOL    HW221171   2.263   1.255   5.557 -0.8062  0.5638  0.6632
 3238SOL     OW21172   2.769   0.098   8.488 -0.2775  0.1667  0.5771
 3238SOL    HW121173   2.765   0.008   8.457 -0.5466  0.6408 -0.7663
 3238SOL    HW221174   2.838   0.092   8.554  2.3122 -0.1162 -2.1834
 3239SOL     OW21175   0.601   2.872   6.654  0.0225  0.2918  0.2288
 3239SOL    HW121176   0.577   2.943   6.713  2.6098  1.8102 -0.5381
 3239SOL    HW221177   0.689   2.854   6.687  0.2383 -1.2660 -1.2027
 3240SOL     OW21178   3.944   4.720   6.545  0.6363 -0.3640  0.2555
 3240SOL    HW121179   3.895   0.052   6.483 -0.1401  1.1972  2.2389
 3240SOL    HW221180   3.907   4.632   6.534 -1.2866  0.4017  0.6731
 3241SOL     OW21181   1.830   2.291   3.811 -0.2113 -0.2603  0.2860
 3241SOL    HW121182   1.810   2.286   3.905 -0.2542 -2.3236  0.1576
 3241SOL    HW221183   1.897   2.224   3.802 -2.1737 -2.5912  2.5834
 3242SOL     OW21184   3.318   1.305  12.697  0.5079  0.5154  0.0457
 3242SOL    HW121185   3.272   1.321  12.614  0.9398  0.3659 -0.2218
 3242SOL    HW221186   3.282   1.374  12.753  0.0023 -0.8186  1.3682
 3243SOL     OW21187   1.135   2.496   9.754  0.5066  0.3658 -0.7920
 3243SOL    HW121188   1.177   2.474   9.671 -0.2092 -1.0210 -0.7851
 3243SOL    HW221189   1.060   2.547   9.725 -1.5302 -2.1808 -0.0132
 3244SOL     OW21190   3.735   4.287   3.758  0.1268 -0.1539 -0.0038
 3244SOL    HW121191   3.754   4.193   3.760  0.2394 -0.0345  3.7220
 3244SOL    HW221192   3.822   4.309   3.723 -0.4566  3.4321  0.8503
 3245SOL     OW21193   0.608   2.485   5.122 -0.3187 -0.6537 -0.0188
 3245SOL    HW121194   0.599   2.498   5.217  2.8343 -1.2593  0.3719
 3245SOL    HW221195   0.568   2.570   5.102  0.0493 -0.8191 -1.4640
 3246SOL     OW21196   2.871   1.798   2.648  1.0386 -0.0348  0.0174
 3246SOL    HW121197   2.777   1.781   2.639  0.6821  3.2413 -2.5521
 3246SOL    HW221198   2.873   1.885   2.608  1.1072  1.0156  2.2783
 3247SOL     OW21199   3.247   3.052   9.390 -0.5762 -0.4372  0.0585
 3247SOL    HW121200   3.230   3.116   9.459 -1.7590 -0.1956 -0.4557
 3247SOL    HW221201   3.320   3.005   9.429 -1.6783 -0.3656  2.2482
 3248SOL     OW21202   1.399   2.677   2.512  0.5248  0.2575 -0.0318
 3248SOL    HW121203   1.490   2.680   2.542 -0.2299  0.9557  2.1303
 3248SOL    HW221204   1.410   2.723   2.429 -1.1349 -0.0600 -0.4274
 3249SOL     OW21205   1.409   1.403   4.168  0.5575  0.1887  0.0966
 3249SOL    HW121206   1.364   1.448   4.097 -0.1209 -1.7961 -0.7357
 3249SOL    HW221207   1.501   1.407   4.144 -0.0376  1.8034 -1.8746
 3250SOL     OW21208   1.640   2.858   9.628 -0.2900 -0.0439  0.0820
 3250SOL    HW121209   1.700   2.788   9.653  0.0427  0.7918  1.6028
 3250SOL    HW221210   1.691   2.911   9.566 -2.3642  2.0536  0.1759
 3251SOL     OW21211   2.418   4.335   0.876 -0.5102 -0.1882 -0.0522
 3251SOL    HW121212   2.430   4.357   0.969  1.7587 -1.4475 -0.0584
 3251SOL    HW221213   2.493   4.278   0.862 -0.8951 -0.6592 -0.1992
 3252SOL     OW21214   2.580   0.629  14.116  0.1737  0.4678  0.9191
 3252SOL    HW121215   2.502   0.685  14.116  0.8470  1.4036 -0.9471
 3252SOL    HW221216   2.650   0.692  14.103  0.1618  0.2492 -0.2256
 3253SOL     OW21217   0.830   0.460   8.920  0.3244 -0.7454  0.6217
 3253SOL    HW121218   0.761   0.516   8.885 -0.2468 -1.2765  0.9114
 3253SOL    HW221219   0.831   0.506   9.004 -0.2635  0.7425 -0.1882
 3254SOL     OW21220   1.198   1.891   0.924  0.3822  0.0213 -0.4097
 3254SOL    HW121221   1.190   1.958   0.856  1.6768  1.0112  0.4209
 3254SOL    HW221222   1.155   1.815   0.883 -2.3015  2.1765 -1.6135
 3255SOL     OW21223   0.820   2.030  15.742  0.5783  0.0199  0.2817
 3255SOL    HW121224   0.884   1.964  15.712  1.6027 -0.0810  2.7246
 3255SOL    HW221225   0.761   1.970  15.788  0.6754  0.5331  1.0634
 3256SOL     OW21226   0.190   0.348   2.688 -0.2505 -0.1884 -0.2256
 3256SOL    HW121227   0.190   0.293   2.609 -1.3543  1.1910 -1.1990
 3256SOL    HW221228   0.234   0.428   2.658 -1.3937  1.0857  1.5014
 3257SOL     OW21229   3.495   4.269   4.410  0.3596  0.2632  0.1750
 3257SOL    HW121230   3.581   4.259   4.370  0.4046 -1.7422  0.7535
 3257SOL    HW221231   3.450   4.345   4.374  1.3168  0.1307 -1.2937
 3258SOL     OW21232   3.031   0.585  14.979  0.2410  0.3610  0.1162
 3258SOL    HW121233   2.973   0.579  14.904  0.1678 -0.5254  0.2424
 3258SOL    HW221234   3.008   0.673  15.010 -2.0920 -0.6580  1.2673
 3259SOL     OW21235   2.693   4.565  11.488 -0.0484 -0.5184 -0.6359
 3259SOL    HW121236   2.715   4.493  11.428  3.0951 -1.2828  1.4228
 3259SOL    HW221237   2.629   4.623  11.447  0.1119  1.1705  1.5375
 3260SOL     OW21238   4.606   0.636   7.821 -0.2829 -0.3688 -0.2345
 3260SOL    HW121239   4.696   0.655   7.793  0.4697 -0.9161  1.8098
 3260SOL    HW221240   4.608   0.615   7.915  2.3564  2.3732  0.3299
 3261SOL     OW21241   0.724   2.992   5.074 -0.1249 -0.3899 -0.7051
 3261SOL    HW121242   0.756   2.987   5.164  0.7682  1.7253 -0.9238
 3261SOL    HW221243   0.670   3.070   5.080  0.3030 -0.1640  0.2068
 3262SOL     OW21244   3.472   2.448   1.610  0.4519  0.1418  0.1857
 3262SOL    HW121245   3.528   2.372   1.617 -1.8980 -1.4762  1.4127
 3262SOL    HW221246   3.390   2.410   1.579  0.4226  0.1182  0.2934
 3263SOL     OW21247   1.903   2.164   9.600  0.1408  0.5753  0.3495
 3263SOL    HW121248   1.885   2.085   9.651 -1.1929  1.9582  2.0491
 3263SOL    HW221249   1.939   2.120   9.523 -0.8371  1.0490 -0.3706
 3264SOL     OW21250   2.118   1.217   4.996  0.2563 -0.0304  0.2336
 3264SOL    HW121251   2.168   1.266   4.931 -0.6678 -0.0238 -0.4605
 3264SOL    HW221252   2.050   1.173   4.946 -1.1695  1.0283  1.2378
 3265SOL     OW21253   3.168   1.752   6.554 -0.1126  0.0283 -0.2972
 3265SOL    HW121254   3.207   1.665   6.565  1.1420  1.0393  2.9899
 3265SOL    HW221255   3.133   1.733   6.467  0.2502 -1.6489 -0.0809
 3266SOL     OW21256   3.456   1.709  15.115  0.1893  0.0014  0.1751
 3266SOL    HW121257   3.484   1.762  15.040 -0.7992 -1.7985 -1.4783
 3266SOL    HW221258   3.381   1.660  15.082 -0.6323 -0.0757  2.1708
 3267SOL     OW21259   3.390   2.056  15.674 -0.0320  0.4079  0.1335
 3267SOL    HW121260   3.369   2.123  15.608 -1.6911  0.4380  0.6910
 3267SOL    HW221261   3.441   2.117  15.727  0.3489 -0.3492  0.6448
 3268SOL     OW21262   1.914   2.067  12.076  0.3435 -0.4587 -0.5338
 3268SOL    HW121263   1.926   2.017  12.157  0.1722 -1.8587 -1.3618
 3268SOL    HW221264   1.892   1.992  12.020  3.9876 -0.8719 -1.3995
 3269SOL     OW21265   0.602   3.613   5.505  0.1315  0.0169 -0.2360
 3269SOL    HW121266   0.533   3.556   5.471  0.2461 -0.0889 -0.2912
 3269SOL    HW221267   0.641   3.658   5.430  0.4786  0.8992  0.4709
 3270SOL     OW21268   2.841   0.116   1.591  0.1162 -0.0043 -0.3461
 3270SOL    HW121269   2.820   0.160   1.673 -1.1272 -0.1202 -0.6111
 3270SOL    HW221270   2.774   0.141   1.528  0.2675 -1.8142 -1.2560
 3271SOL     OW21271   0.733   0.190   8.109 -0.3232 -0.1068  0.1284
 3271SOL    HW121272   0.655   0.246   8.109 -0.9361 -0.9145 -4.1314
 3271SOL    HW221273   0.772   0.231   8.031  1.0399 -0.2064  0.7630
 3272SOL     OW21274   1.978   1.164   2.119  0.2506 -0.2047 -0.1441
 3272SOL    HW121275   2.034   1.092   2.091  1.9181  1.0143  0.0964
 3272SOL    HW221276   2.030   1.201   2.190 -0.3923  0.6696 -0.1169
 3273SOL     OW21277   0.735   4.434   5.147 -0.3640  0.3033 -0.3709
 3273SOL    HW121278   0.669   4.402   5.208  0.6320  0.1327  0.5946
 3273SOL    HW221279   0.718   4.528   5.154 -0.4786  0.3237 -0.8515
 3274SOL     OW21280   0.511   2.788   5.092 -0.0352  0.5000  0.8884
 3274SOL    HW121281   0.483   2.770   5.002 -0.3112 -1.6480  1.3990
 3274SOL    HW221282   0.566   2.866   5.086 -0.3582  0.6762  0.1989
 3275SOL     OW21283   0.828   0.225   7.360 -0.1661 -0.0513  0.5050
 3275SOL    HW121284   0.907   0.273   7.383  0.3982 -0.8832  0.3085
 3275SOL    HW221285   0.832   0.158   7.428 -1.4192  0.1555  0.7905
 3276SOL     OW21286   1.850   1.499  10.865 -0.1420  0.3774 -0.4637
 3276SOL    HW121287   1.855   1.458  10.951  1.8955  0.2382 -0.6492
 3276SOL    HW221288   1.925   1.460  10.820  1.1826  0.1763  1.8960
 3277SOL     OW21289   2.893   0.403   5.388 -1.0460 -0.4808  0.5193
 3277SOL    HW121290   2.855   0.368   5.468 -1.2026  1.8602  1.4699
 3277SOL    HW221291   2.890   0.330   5.327 -1.0016 -0.1474  0.1160
 3278SOL     OW21292   2.766   1.548   9.263  0.1280  0.8501  0.1580
 3278SOL    HW121293   2.714   1.558   9.342 -0.1076 -1.0192  0.2571
 3278SOL    HW221294   2.836   1.612   9.275  2.2162 -1.0655 -1.6950
 3279SOL     OW21295   0.874   0.585   5.529 -0.1059 -0.0900 -0.0146
 3279SOL    HW121296   0.886   0.585   5.434  1.6981  0.9253  0.2011
 3279SOL    HW221297   0.927   0.659   5.560  1.9834 -1.4736 -0.2769
 3280SOL     OW21298   4.635   2.792   4.093 -0.3398  0.0700  0.0393
 3280SOL    HW121299   4.613   2.830   4.008  1.5222 -1.8272 -1.2730
 3280SOL    HW221300   4.657   2.874   4.137  0.7044 -0.7199  0.9835
 3281SOL     OW21301   2.473   1.496   8.491 -0.0563 -0.1864  0.4516
 3281SOL    HW121302   2.455   1.468   8.401 -1.4432 -0.3172  0.7806
 3281SOL    HW221303   2.569   1.498   8.492 -0.0623  0.2279  0.3336
 3282SOL     OW21304   3.055   3.912   4.206 -0.5493  0.0479 -0.2012
 3282SOL    HW121305   3.024   3.984   4.151 -1.5166 -0.0905  0.1527
 3282SOL    HW221306   3.128   3.954   4.252 -0.0654 -0.2219 -0.7204
 3283SOL     OW21307   1.183   1.294   7.378  0.4854 -0.5700  1.0105
 3283SOL    HW121308   1.118   1.280   7.447 -1.5771  0.8276 -0.6431
 3283SOL    HW221309   1.158   1.381   7.348  0.2250 -0.7844  0.5972
 3284SOL     OW21310   3.895   2.175   6.442 -0.1576  0.4578  0.0906
 3284SOL    HW121311   3.901   2.265   6.409  0.2870  0.4089  0.0350
 3284SOL    HW221312   3.975   2.141   6.402  0.3811 -2.2340  3.4074
 3285SOL     OW21313   0.965   1.183  16.906 -0.0412 -0.7990 -0.0193
 3285SOL    HW121314   1.019   1.108  16.933 -1.4771 -0.7784  2.9222
 3285SOL    HW221315   0.876   1.149  16.918  0.1449 -1.3963 -0.3152
 3286SOL     OW21316   3.247   2.349   6.523 -0.2130 -0.0421  0.0359
 3286SOL    HW121317   3.169   2.379   6.475  1.1302  2.3753 -0.6306
 3286SOL    HW221318   3.212   2.336   6.611  2.1227 -0.0775  0.9379
 3287SOL     OW21319   1.866   1.186   8.690 -0.0589 -0.3230 -0.0560
 3287SOL    HW121320   1.953   1.175   8.728  0.3770  0.6594 -0.7649
 3287SOL    HW221321   1.812   1.186   8.770 -0.8733 -0.2762 -0.6022
 3288SOL     OW21322   0.809   0.096   4.862 -0.2532 -0.6735  0.3064
 3288SOL    HW121323   0.833   0.004   4.855  1.1685 -0.2609 -0.3950
 3288SOL    HW221324   0.769   0.111   4.776  0.8377 -0.9800 -0.2704
 3289SOL     OW21325   3.489   4.179   5.594 -0.3525  0.3461 -0.2127
 3289SOL    HW121326   3.562   4.117   5.598 -1.9541 -1.5255  0.4668
 3289SOL    HW221327   3.492   4.214   5.505 -5.3302  1.6773  0.1609
 3290SOL     OW21328   1.596   1.865  12.831 -0.0924  0.4196 -0.7117
 3290SOL    HW121329   1.681   1.831  12.802  0.0248  1.0505 -1.1088
 3290SOL    HW221330   1.601   1.814  12.911  1.2738  2.7418  0.6823
 3291SOL     OW21331   1.990   3.473  13.868 -0.0966 -0.2010  0.5042
 3291SOL    HW121332   1.970   3.380  13.861  0.0336 -0.1167 -0.9167
 3291SOL    HW221333   1.911   3.515  13.900  0.4064  0.3304  1.0542
 3292SOL     OW21334   0.734   2.525   2.294 -0.7348 -0.5926 -0.1001
 3292SOL    HW121335   0.724   2.620   2.290 -0.7441 -0.6196 -0.7521
 3292SOL    HW221336   0.811   2.525   2.238  0.4503  1.8401  1.5299
 3293SOL     OW21337   3.688   4.641   0.193 -0.6377 -0.2508  1.0882
 3293SOL    HW121338   3.593   4.637   0.201 -0.6429 -0.5392  0.8484
 3293SOL    HW221339   3.696   4.721   0.140 -1.2202 -0.5611  0.5410
 3294SOL     OW21340   0.915   2.764   0.929  0.3326  0.2282  0.4011
 3294SOL    HW121341   0.915   2.702   0.856  0.6459  0.9611 -0.2170
 3294SOL    HW221342   0.824   2.794   0.924  0.9962  2.1641  0.0746
 3295SOL     OW21343   4.160   0.221   5.613 -0.5229  0.2898 -0.0584
 3295SOL    HW121344   4.126   0.277   5.543 -2.0845 -2.2175 -1.2924
 3295SOL    HW221345   4.248   0.256   5.630 -0.4388  0.2488 -0.4090
 3296SOL     OW21346   1.261   2.963   6.103 -0.7201 -0.3584  0.0771
 3296SOL    HW121347   1.180   2.983   6.056 -2.1624 -0.3433  2.5900
 3296SOL    HW221348   1.236   2.925   6.187 -0.9690 -0.9736 -0.2702
 3297SOL     OW21349   3.323   2.334   9.059  0.1099  0.0551 -0.8386
 3297SOL    HW121350   3.408   2.323   9.016  0.3755 -1.3710  0.0629
 3297SOL    HW221351   3.351   2.322   9.149 -1.2567 -4.2040 -0.9690
 3298SOL     OW21352   2.388   3.430   2.867  0.1474 -0.0955  0.2987
 3298SOL    HW121353   2.411   3.359   2.806 -0.2040 -0.1955  0.2807
 3298SOL    HW221354   2.296   3.406   2.877  0.8684 -2.7245  0.5841
 3299SOL     OW21355   0.430   3.882   8.931  0.0994  0.2512  0.2604
 3299SOL    HW121356   0.439   3.933   8.850 -1.0711  0.8850  0.5363
 3299SOL    HW221357   0.524   3.862   8.936  0.6012  2.7491  0.9304
 3300SOL     OW21358   2.327   1.183  14.642  0.2315  0.0486  0.0381
 3300SOL    HW121359   2.307   1.179  14.735 -1.2630  0.1997 -0.2736
 3300SOL    HW221360   2.258   1.232  14.597  0.3540  1.3325  1.2575
 3301SOL     OW21361   4.433   1.828   9.638  0.0204  0.3868 -0.4469
 3301SOL    HW121362   4.381   1.889   9.586  0.6424  1.1829 -0.1297
 3301SOL    HW221363   4.425   1.869   9.724  2.3496 -0.5820  0.2268
 3302SOL     OW21364   4.397   2.894   5.506 -0.7943  0.0514  0.0265
 3302SOL    HW121365   4.458   2.945   5.558 -0.1210 -1.5896  0.8329
 3302SOL    HW221366   4.320   2.948   5.523  0.2813  1.6387 -0.1248
 3303SOL     OW21367   1.790   2.496  15.663  0.1525 -0.0394  0.3287
 3303SOL    HW121368   1.826   2.537  15.742  1.4571 -0.9672  0.1967
 3303SOL    HW221369   1.869   2.461  15.623  1.1431  1.3433  1.0487
 3304SOL     OW21370   2.858   3.438   4.033  0.5974 -0.3003 -0.1759
 3304SOL    HW121371   2.938   3.424   3.982  0.1103 -1.5695 -0.5920
 3304SOL    HW221372   2.878   3.525   4.067  2.2764 -0.5067 -0.6228
 3305SOL     OW21373   3.238   1.818   2.003  0.3422 -0.1438  0.3108
 3305SOL    HW121374   3.196   1.733   2.014  0.0348 -0.2059 -1.3999
 3305SOL    HW221375   3.224   1.846   1.913  1.0752  0.2342  0.3180
 3306SOL     OW21376   0.101   2.435   8.528 -0.0048 -0.2998  0.1758
 3306SOL    HW121377   0.070   2.366   8.586 -0.9277 -0.1916 -0.1968
 3306SOL    HW221378   0.074   2.518   8.568  2.4770  0.4332  0.3782
 3307SOL     OW21379   3.354   0.915  14.573 -0.2794 -0.6797  0.1591
 3307SOL    HW121380   3.415   0.841  14.567 -1.1151 -1.3750  0.1860
 3307SOL    HW221381   3.353   0.929  14.668 -2.3948  2.1436 -0.2861
 3308SOL     OW21382   1.711   1.002  11.787  0.4124  0.7007  0.5217
 3308SOL    HW121383   1.762   1.061  11.732  0.3263  0.7109  0.4509
 3308SOL    HW221384   1.623   1.027  11.756 -0.1894  0.3876  1.9919
 3309SOL     OW21385   3.338   0.151   8.924 -0.2399  0.1005  0.1995
 3309SOL    HW121386   3.378   0.226   8.967 -0.6863 -1.6923  3.7330
 3309SOL    HW221387   3.422   0.105   8.914 -1.6921 -2.2876 -1.0952
 3310SOL     OW21388   2.736   2.961   9.660 -0.2497 -0.5318  0.2796
 3310SOL    HW121389   2.679   3.013   9.605  1.5864  1.9214  0.7036
 3310SOL    HW221390   2.820   3.007   9.662 -1.0868  0.9755  0.4647
 3311SOL     OW21391   0.014   3.800   4.566  0.2026 -0.3201 -0.4021
 3311SOL    HW121392   0.070   3.732   4.605  2.1429  0.2529 -2.1313
 3311SOL    HW221393   0.018   3.770   4.475 -0.6364  1.3841 -0.9794
 3312SOL     OW21394   3.020   4.657   5.171  0.2855 -0.4561 -0.1638
 3312SOL    HW121395   2.953   4.609   5.124 -0.2849  0.6440 -0.4762
 3312SOL    HW221396   3.069   4.581   5.202  0.7641 -1.4995 -3.5424
 3313SOL     OW21397   4.108   0.005  11.497 -0.2120 -0.3572 -0.4044
 3313SOL    HW121398   4.155   4.651  11.533 -0.4427 -0.6031 -0.6181
 3313SOL    HW221399   4.020   4.697  11.520 -0.5956 -0.4844 -2.0699
 3314SOL     OW21400   0.168   2.437   8.941 -0.2218 -0.1763 -0.3267
 3314SOL    HW121401   0.103   2.506   8.957  1.6045  0.9804  2.0603
 3314SOL    HW221402   0.181   2.419   9.034 -0.8779  1.8896  0.1809
 3315SOL     OW21403   3.110   2.518  15.043  0.0424 -0.2495  0.2144
 3315SOL    HW121404   3.139   2.603  15.011  1.5870  0.4414  3.3930
 3315SOL    HW221405   3.189   2.463  15.039 -0.1793 -0.4590 -1.1577
 3316SOL     OW21406   1.553   2.094  17.025 -0.0503 -0.0191 -0.6858
 3316SOL    HW121407   1.648   2.097  17.030 -0.1322  4.1110 -1.3071
 3316SOL    HW221408   1.535   2.055  17.110  0.7011 -0.7527 -0.8643
 3317SOL     OW21409   1.160   4.438   7.379  0.1631  0.0921  0.2958
 3317SOL    HW121410   1.245   4.429   7.421 -0.4044  0.3648  1.4822
 3317SOL    HW221411   1.113   4.469   7.456  1.5340 -2.5542  2.1957
 3318SOL     OW21412   2.645   1.611   4.059  0.2510 -0.3868  0.1397
 3318SOL    HW121413   2.687   1.574   3.982  0.0175 -0.0440 -0.1586
 3318SOL    HW221414   2.566   1.559   4.074  0.6758 -1.0925 -0.1259
 3319SOL     OW21415   2.838   1.519   3.888  0.0720  0.3465  0.3643
 3319SOL    HW121416   2.893   1.593   3.864  0.0839  0.7078  1.4735
 3319SOL    HW221417   2.917   1.466   3.894 -0.6425 -0.7707 -0.1907
 3320SOL     OW21418   4.702   0.101   7.900  0.4187  0.4595 -0.6176
 3320SOL    HW121419   0.027   0.056   7.970  0.6297  0.7746 -0.5554
 3320SOL    HW221420   4.608   0.091   7.918  0.6531  1.2097  1.0847
 3321SOL     OW21421   2.098   4.272  11.968 -0.0802 -0.2495 -0.5011
 3321SOL    HW121422   2.117   4.191  11.920  0.7242 -0.8478  0.8510
 3321SOL    HW221423   2.136   4.330  11.902  0.0897  0.4981  0.2637
 3322SOL     OW21424   0.327   3.139   7.789  0.0339 -0.1287  0.3960
 3322SOL    HW121425   0.265   3.135   7.862 -1.5563 -0.2553 -0.9703
 3322SOL    HW221426   0.404   3.147   7.845  0.0398  0.4235  0.3163
 3323SOL     OW21427   3.715   1.054  11.653 -0.0832  0.4462  0.4017
 3323SOL    HW121428   3.769   1.075  11.729 -0.7223  1.2898  0.6124
 3323SOL    HW221429   3.789   1.033  11.596 -0.2021  1.9235 -0.2821
 3324SOL     OW21430   4.398   0.336   5.598 -0.9257  0.4937 -0.3669
 3324SOL    HW121431   4.469   0.382   5.644 -0.2621  2.1133 -3.0307
 3324SOL    HW221432   4.397   0.385   5.516  3.0566  1.9568  0.4675
 3325SOL     OW21433   3.877   2.403  13.658  0.3807  0.4139  0.1749
 3325SOL    HW121434   3.824   2.482  13.662 -0.6533 -0.1928 -1.3498
 3325SOL    HW221435   3.961   2.445  13.676  0.1470  0.8586  0.2308
 3326SOL     OW21436   3.709   2.150  15.561  0.1331 -0.1022  0.1468
 3326SOL    HW121437   3.648   2.079  15.582 -1.2753  1.2109  0.4289
 3326SOL    HW221438   3.683   2.168  15.471 -0.7393 -1.1797  0.1842
 3327SOL     OW21439   2.756   1.140   7.895  0.2569  0.6313  0.1973
 3327SOL    HW121440   2.803   1.061   7.871 -1.4359 -0.5328  0.7277
 3327SOL    HW221441   2.700   1.155   7.819  1.4147  0.8511 -0.6183
 3328SOL     OW21442   2.100   4.151   5.941 -0.1660  0.4114  0.2957
 3328SOL    HW121443   2.136   4.139   6.029 -0.8225 -2.4709  0.1680
 3328SOL    HW221444   2.010   4.169   5.967 -0.1582 -0.7335  1.1161
 3329SOL     OW21445   0.659   1.153   0.647 -0.0976 -0.3158  0.0196
 3329SOL    HW121446   0.567   1.129   0.660 -0.7444  2.9585  1.5013
 3329SOL    HW221447   0.696   1.065   0.648  0.0261 -0.2294  3.5540
 3330SOL     OW21448   1.111   3.494  15.185  0.1872  0.3146  0.0996
 3330SOL    HW121449   1.155   3.509  15.269  0.9842  4.8176 -1.0956
 3330SOL    HW221450   1.049   3.567  15.186 -0.2035 -0.0009 -0.6735
 3331SOL     OW21451   2.705   1.680  11.253  0.3059  0.1322  0.7002
 3331SOL    HW121452   2.678   1.732  11.178 -0.7708  0.6627  1.4552
 3331SOL    HW221453   2.703   1.744  11.325 -1.6934 -0.0271  0.7808
 3332SOL     OW21454   0.416   0.579   2.116 -0.3643  0.1014 -0.4142
 3332SOL    HW121455   0.408   0.543   2.204 -0.9883  1.7433  0.2026
 3332SOL    HW221456   0.326   0.560   2.091 -0.2073 -1.1705 -0.0310
 3333SOL     OW21457   2.511   1.929   6.762  0.3624  0.5712 -0.1636
 3333SOL    HW121458   2.443   1.906   6.699 -1.4382  0.6296  1.7521
 3333SOL    HW221459   2.505   2.024   6.757 -3.1445  0.4136  0.9191
 3334SOL     OW21460   1.567   4.642   4.636  0.1911  0.2465 -0.0428
 3334SOL    HW121461   1.589   4.636   4.543 -1.3946  2.7965 -0.5666
 3334SOL    HW221462   1.472   4.644   4.630  0.2141 -0.5763 -0.7965
 3335SOL     OW21463   0.961   4.484   8.098 -0.0430  0.0439 -0.2609
 3335SOL    HW121464   1.048   4.514   8.072  1.0892 -2.8572  0.1704
 3335SOL    HW221465   0.905   4.545   8.049 -0.0051  1.0696  0.9882
 3336SOL     OW21466   1.918   4.310   4.352  0.1287 -0.2150 -0.1584
 3336SOL    HW121467   1.854   4.370   4.314 -0.8798 -0.4833  1.0827
 3336SOL    HW221468   1.994   4.363   4.374 -0.9587  1.4936 -0.5247
 3337SOL     OW21469   3.978   4.628   5.664  0.1629  0.1501  0.5108
 3337SOL    HW121470   3.908   4.566   5.646  0.0128  0.1589  1.0909
 3337SOL    HW221471   4.038   4.554   5.666  0.7323  0.6001 -0.0157
 3338SOL     OW21472   0.652   1.489   7.521 -0.3292 -0.4744  0.1720
 3338SOL    HW121473   0.587   1.455   7.581 -0.5268  0.5822  0.5603
 3338SOL    HW221474   0.601   1.554   7.473  0.1632 -1.6064 -1.9299
 3339SOL     OW21475   1.176   4.093   4.609  0.3212 -0.2052  0.0025
 3339SOL    HW121476   1.208   4.170   4.655 -1.3844 -0.0973  0.9775
 3339SOL    HW221477   1.261   4.064   4.575  0.8298 -0.3585  1.3936
 3340SOL     OW21478   3.350   1.810   2.884  0.2847 -0.0866  0.3609
 3340SOL    HW121479   3.258   1.800   2.859  0.5494 -2.8556  0.5112
 3340SOL    HW221480   3.364   1.888   2.831  1.0496 -0.4597  0.0134
 3341SOL     OW21481   0.593   0.997   3.205  0.3865  0.4769 -0.6382
 3341SOL    HW121482   0.545   0.931   3.154  0.0797 -0.3890  0.7605
 3341SOL    HW221483   0.607   1.064   3.139  1.1245  0.5811 -0.3826
 3342SOL     OW21484   2.311   1.958   7.148  0.1990 -0.0801  0.1806
 3342SOL    HW121485   2.398   1.926   7.123 -0.6680 -2.3389  0.0487
 3342SOL    HW221486   2.277   1.896   7.212  1.5696 -1.3742 -0.3563
 3343SOL     OW21487   1.511   1.571   9.850  0.4533  0.6478  0.4681
 3343SOL    HW121488   1.555   1.510   9.791 -1.1624 -0.1173  0.0603
 3343SOL    HW221489   1.581   1.591   9.912  0.7305 -0.4458  0.5127
 3344SOL     OW21490   0.529   0.753   8.317 -0.5594  0.2739  0.1181
 3344SOL    HW121491   0.547   0.820   8.251 -1.2321 -1.2319 -1.5996
 3344SOL    HW221492   0.458   0.784   8.373 -0.5525  3.4664 -1.6762
 3345SOL     OW21493   2.910   3.442  11.112  0.4465 -0.3576  0.0944
 3345SOL    HW121494   2.959   3.415  11.033  0.1363  0.0306 -0.2277
 3345SOL    HW221495   2.822   3.452  11.077 -1.4764 -1.3798  4.6582
 3346SOL     OW21496   2.272   2.809   8.550 -0.0093  0.0724 -0.5011
 3346SOL    HW121497   2.273   2.744   8.620  1.6884  1.7415  1.0051
 3346SOL    HW221498   2.359   2.791   8.515 -0.3750 -0.0262 -1.3847
 3347SOL     OW21499   3.228   2.115  10.312  0.2958 -0.3374  0.2630
 3347SOL    HW121500   3.152   2.061  10.288 -0.8846  0.9351  1.1285
 3347SOL    HW221501   3.295   2.070  10.261  0.8130 -0.9597  1.4890
 3348SOL     OW21502   0.281   3.009   9.988 -0.5745  0.2548  0.2047
 3348SOL    HW121503   0.373   3.031  10.003 -0.4151 -0.3570  0.1501
 3348SOL    HW221504   0.253   3.046  10.071 -2.0706  0.3929 -0.3600
 3349SOL     OW21505   4.227   1.139  15.296 -0.0512  0.2356 -0.2679
 3349SOL    HW121506   4.297   1.092  15.251  0.1534  0.3980 -0.1212
 3349SOL    HW221507   4.187   1.072  15.352 -0.7288  0.2566 -0.7342
 3350SOL     OW21508   4.460   3.607   2.544 -0.2302 -0.0669  0.1433
 3350SOL    HW121509   4.550   3.630   2.569  0.0145 -2.3267  1.3408
 3350SOL    HW221510   4.430   3.688   2.502  0.7800  1.8390  3.0604
 3351SOL     OW21511   1.192   2.847   7.025  0.5152  0.1087 -0.5934
 3351SOL    HW121512   1.253   2.879   6.959  0.6428 -3.8610 -2.3840
 3351SOL    HW221513   1.169   2.930   7.067 -0.3063  0.4152 -1.6433
 3352SOL     OW21514   4.305   2.257   6.892 -0.0738 -0.0204  0.3378
 3352SOL    HW121515   4.331   2.348   6.895  1.1751 -0.4577  2.3512
 3352SOL    HW221516   4.386   2.209   6.908 -0.7593 -1.5149 -0.6011
 3353SOL     OW21517   1.781   2.429  17.036  0.4812  0.4645 -0.0280
 3353SOL    HW121518   1.754   2.345  16.999 -0.5313  1.5634 -1.7854
 3353SOL    HW221519   1.875   2.437  17.022  0.4763  0.8866  0.1730
 3354SOL     OW21520   2.159   1.073   3.673 -0.4274  0.0884  0.2535
 3354SOL    HW121521   2.203   1.151   3.639 -0.6507  0.3414  0.5525
 3354SOL    HW221522   2.157   1.077   3.769 -0.0098 -2.0354  0.3671
 3355SOL     OW21523   4.672   3.687  13.964 -0.0084  0.1859 -0.0008
 3355SOL    HW121524   4.654   3.602  14.005 -2.6652  0.9303  0.3389
 3355SOL    HW221525   0.015   3.650  13.903 -0.8304 -1.4867  0.1428
 3356SOL     OW21526   1.667   1.210   5.223  0.4136  0.6931 -0.2168
 3356SOL    HW121527   1.675   1.298   5.259 -2.5343 -0.0056  2.1587
 3356SOL    HW221528   1.757   1.189   5.198  0.6165  0.8498  0.3776
 3357SOL     OW21529   1.292   3.660   0.679 -0.3450  0.5751 -0.1637
 3357SOL    HW121530   1.302   3.642   0.772 -1.4233 -1.4188 -0.4247
 3357SOL    HW221531   1.202   3.629   0.669  0.7674 -2.0786 -2.0063
 3358SOL     OW21532   4.265   0.322   1.955  0.1937  0.3531 -0.0218
 3358SOL    HW121533   4.192   0.376   1.983  0.4457  0.3484  0.6678
 3358SOL    HW221534   4.232   0.306   1.867 -1.4782  2.4453  0.2206
 3359SOL     OW21535   3.410   3.111  10.405 -0.2139  0.0727  0.2160
 3359SOL    HW121536   3.445   3.182  10.459  1.6131 -0.3021 -0.4648
 3359SOL    HW221537   3.368   3.157  10.333  1.4983 -0.8640 -1.3757
 3360SOL     OW21538   3.700   3.980   7.403  0.0143 -0.2667  0.0604
 3360SOL    HW121539   3.777   3.923   7.406  0.5056  0.4284  0.7090
 3360SOL    HW221540   3.665   3.962   7.316 -2.2379 -1.1840  1.1768
 3361SOL     OW21541   0.525   1.081  11.880 -0.7963 -0.5294 -0.1370
 3361SOL    HW121542   0.463   1.154  11.890 -1.0409 -0.7159 -0.2891
 3361SOL    HW221543   0.467   1.024  11.829 -0.8511  0.5302 -1.2673
 3362SOL     OW21544   3.195   0.291   6.763  0.3315 -0.1537  0.3644
 3362SOL    HW121545   3.220   0.288   6.671  2.1583  0.2697  0.8410
 3362SOL    HW221546   3.173   0.384   6.766 -2.3288 -0.7782 -0.0217
 3363SOL     OW21547   1.131   3.845   6.897 -0.3078 -0.0750  0.2016
 3363SOL    HW121548   1.182   3.917   6.860  1.0709  1.0227  4.2804
 3363SOL    HW221549   1.108   3.794   6.819  1.4606  0.4151 -0.6435
 3364SOL     OW21550   0.126   0.736   9.893 -0.0180  0.4892 -0.2341
 3364SOL    HW121551   0.158   0.826   9.894 -0.2295  0.5870 -1.8430
 3364SOL    HW221552   0.032   0.740   9.875  0.1194 -0.4691 -1.1816
 3365SOL     OW21553   3.188   1.489   2.805 -0.2844  0.0623  0.3386
 3365SOL    HW121554   3.105   1.446   2.823 -0.2735 -0.2279 -0.2913
 3365SOL    HW221555   3.169   1.582   2.799  0.1036  0.1148 -0.1202
 3366SOL     OW21556   4.039   4.248  10.723 -0.3554 -0.1837 -0.3903
 3366SOL    HW121557   4.044   4.213  10.812  1.8316 -4.3482 -2.1231
 3366SOL    HW221558   3.959   4.299  10.731 -2.1763 -3.0719 -0.2105
 3367SOL     OW21559   4.375   3.445   1.937 -0.5288  0.1565  0.3130
 3367SOL    HW121560   4.347   3.432   1.846  0.2713  2.2814 -0.2527
 3367SOL    HW221561   4.341   3.530   1.965 -0.1226  1.2530 -2.4353
 3368SOL     OW21562   4.309   2.966   4.138  0.2167  0.1019 -0.0088
 3368SOL    HW121563   4.380   2.930   4.191  1.0761 -0.3073 -1.4324
 3368SOL    HW221564   4.232   2.931   4.183  1.2935 -1.6064  0.5029
 3369SOL     OW21565   0.417   4.089  16.527  0.1353  0.3655  0.0990
 3369SOL    HW121566   0.383   4.160  16.581  0.8008  0.0212  0.9725
 3369SOL    HW221567   0.506   4.120  16.510  0.3282 -0.3444 -0.1763
 3370SOL     OW21568   0.019   0.363   4.257 -0.4086  0.3640  0.6487
 3370SOL    HW121569   4.653   0.335   4.286 -0.7286  2.6193  1.8495
 3370SOL    HW221570   4.716   0.425   4.188  1.9311 -0.1912 -0.6823
 3371SOL     OW21571   2.461   0.914   4.243 -0.0305  0.0864 -0.5949
 3371SOL    HW121572   2.485   0.947   4.157  0.0301  2.2394  0.2354
 3371SOL    HW221573   2.369   0.941   4.239 -0.3484 -0.6718  1.2597
 3372SOL     OW21574   0.697   2.066   9.789 -0.1867 -0.0622 -0.5746
 3372SOL    HW121575   0.678   2.051   9.696 -0.2875 -0.6211 -0.4625
 3372SOL    HW221576   0.608   2.048   9.819 -0.4027  0.6576 -0.7812
 3373SOL     OW21577   3.579   0.569   2.593  0.1797 -0.3884  0.2345
 3373SOL    HW121578   3.645   0.543   2.658  2.7203  0.3548 -2.0317
 3373SOL    HW221579   3.604   0.517   2.516 -0.8072 -1.2819  0.5115
 3374SOL     OW21580   1.632   2.135   2.888  0.2608  0.0496  0.1299
 3374SOL    HW121581   1.582   2.212   2.859  1.6815  0.7670 -0.4001
 3374SOL    HW221582   1.569   2.064   2.872  0.1108  0.4040 -0.8760
 3375SOL     OW21583   0.279   2.197  15.234  0.7043 -0.2192 -0.0811
 3375SOL    HW121584   0.246   2.205  15.144  3.1542 -1.2243 -1.0569
 3375SOL    HW221585   0.370   2.203  15.207  0.9565 -0.0672  0.8102
 3376SOL     OW21586   1.838   1.848  12.609 -0.4950 -0.1671  0.3077
 3376SOL    HW121587   1.917   1.901  12.601 -0.7313 -0.0679 -1.3246
 3376SOL    HW221588   1.880   1.762  12.605 -0.2100 -0.0185  0.1585
 3377SOL     OW21589   0.003   1.487  12.570 -0.3926 -0.4259  0.1682
 3377SOL    HW121590   0.096   1.496  12.550 -0.4750 -1.2500 -0.5438
 3377SOL    HW221591   4.708   1.398  12.539 -2.7383 -0.0218  0.2143
 3378SOL     OW21592   2.086   0.865   3.523 -0.0707 -0.1442 -0.1023
 3378SOL    HW121593   2.175   0.833   3.511 -0.4318 -0.9905 -0.5154
 3378SOL    HW221594   2.116   0.942   3.571 -0.1665  0.4584 -1.0105
 3379SOL     OW21595   1.205   0.851   8.160  0.5401 -0.2744  0.0838
 3379SOL    HW121596   1.208   0.772   8.214 -0.2139  0.5192  1.2582
 3379SOL    HW221597   1.110   0.857   8.161  0.5824 -0.0126  1.6516
 3380SOL     OW21598   3.890   1.425   9.290  0.4501 -0.2682 -0.2234
 3380SOL    HW121599   3.828   1.454   9.357  0.0841 -0.6419 -0.3991
 3380SOL    HW221600   3.971   1.456   9.331 -0.0416  0.6710  0.0385
 3381SOL     OW21601   1.172   4.301   9.274 -0.8807 -0.0799 -0.1633
 3381SOL    HW121602   1.200   4.331   9.360 -1.4335  3.5618 -1.2479
 3381SOL    HW221603   1.245   4.336   9.223 -1.3242  1.7553  0.4653
 3382SOL     OW21604   0.290   2.436   7.120 -0.6640 -0.3015  0.1458
 3382SOL    HW121605   0.364   2.487   7.153  1.1271 -2.6578 -0.1834
 3382SOL    HW221606   0.329   2.349   7.108  0.0055  0.6439 -4.3573
 3383SOL     OW21607   0.489   0.029   9.874  0.3355  0.4617  0.3785
 3383SOL    HW121608   0.393   0.030   9.872  0.3550 -1.2989 -1.4349
 3383SOL    HW221609   0.498   4.658   9.897 -1.9333  0.1857  0.2185
 3384SOL     OW21610   0.390   2.801   1.613 -0.3974  0.1026 -0.1997
 3384SOL    HW121611   0.393   2.705   1.620 -0.5209  0.1071 -0.0980
 3384SOL    HW221612   0.315   2.803   1.553  0.1091  0.6764 -0.8168
 3385SOL     OW21613   2.601   3.781  14.565 -0.2241  0.4935 -0.5261
 3385SOL    HW121614   2.687   3.821  14.574 -0.5456  1.5973 -2.3743
 3385SOL    HW221615   2.615   3.697  14.609  0.5253 -0.2683 -2.2072
 3386SOL     OW21616   2.225   2.657   5.937  0.5774  0.1720 -0.1177
 3386SOL    HW121617   2.289   2.649   6.007  0.8077 -1.0622 -0.4563
 3386SOL    HW221618   2.236   2.751   5.923  1.1615  0.2247  0.6998
 3387SOL     OW21619   0.355   2.536   4.617 -0.1052  0.0245  0.4417
 3387SOL    HW121620   0.418   2.465   4.616 -1.6038 -1.3207  1.1900
 3387SOL    HW221621   0.273   2.487   4.619 -0.3154  0.3357 -0.4908
 3388SOL     OW21622   1.314   2.158  13.440 -0.0571  0.0966 -0.8889
 3388SOL    HW121623   1.396   2.204  13.421  0.4297 -0.1119  0.7255
 3388SOL    HW221624   1.322   2.145  13.534 -1.0573 -0.0883 -0.8358
 3389SOL     OW21625   4.610   3.951   4.054  0.0203  0.0709 -0.0917
 3389SOL    HW121626   4.526   3.907   4.038 -0.3931 -0.2019  2.8447
 3389SOL    HW221627   4.645   3.923   3.970 -0.8648  1.3400 -0.8946
 3390SOL     OW21628   2.224   4.122   6.212 -0.3415 -0.4720  0.6270
 3390SOL    HW121629   2.240   4.215   6.228 -0.3778  0.0616 -2.6313
 3390SOL    HW221630   2.314   4.093   6.229  0.0057  0.2879  0.0588
 3391SOL     OW21631   1.542   3.928   7.200  0.2464  0.4769  0.0576
 3391SOL    HW121632   1.486   3.850   7.205  0.7944  0.1857  1.5595
 3391SOL    HW221633   1.619   3.872   7.212 -0.5322 -0.4890  0.5721
 3392SOL     OW21634   4.103   4.321  17.238  0.0048  0.2834  0.0471
 3392SOL    HW121635   4.137   4.235  17.263  3.2477  1.7257  0.6721
 3392SOL    HW221636   4.036   4.327  17.305 -0.3538 -0.8576 -0.2150
 3393SOL     OW21637   2.625   3.749   4.847  0.3120  0.4660  0.6904
 3393SOL    HW121638   2.578   3.780   4.925  0.9249 -2.6588  2.2782
 3393SOL    HW221639   2.642   3.665   4.889  2.9335  0.9964  0.7298
 3394SOL     OW21640   1.553   4.216   6.075  0.1310  0.3272 -0.4057
 3394SOL    HW121641   1.492   4.289   6.088 -0.0375  0.1397 -0.1503
 3394SOL    HW221642   1.616   4.221   6.147 -1.5382  0.3634  1.0417
 3395SOL     OW21643   3.078   1.737  12.154  0.0215 -0.3795 -0.5892
 3395SOL    HW121644   3.136   1.794  12.204  0.8210  0.8828 -2.9487
 3395SOL    HW221645   3.140   1.711  12.086  0.2006 -1.3317 -0.0572
 3396SOL     OW21646   3.336   1.926   1.370  0.2732 -0.0638 -0.1456
 3396SOL    HW121647   3.340   1.958   1.279  0.2320  2.5193  0.7550
 3396SOL    HW221648   3.431   1.931   1.385  0.1488  0.5807  0.4477
 3397SOL     OW21649   0.914   3.522   5.478  0.0301 -0.8157  0.4180
 3397SOL    HW121650   0.860   3.587   5.523 -0.3141 -0.3166 -0.7248
 3397SOL    HW221651   0.880   3.527   5.389  0.6799 -0.2432  0.1955
 3398SOL     OW21652   3.272   3.147  14.671  0.4962  0.3720 -0.7698
 3398SOL    HW121653   3.266   3.161  14.765  3.1125 -0.8053 -0.4390
 3398SOL    HW221654   3.335   3.213  14.641 -2.2062  1.6408 -3.6792
 3399SOL     OW21655   3.351   0.590   2.399 -0.5640 -0.1658  0.2715
 3399SOL    HW121656   3.413   0.569   2.469  2.7122  0.2038 -2.5000
 3399SOL    HW221657   3.274   0.609   2.452 -1.4288  0.6818 -1.2835
 3400SOL     OW21658   2.143   1.520   5.173 -0.5256 -0.3494  0.1015
 3400SOL    HW121659   2.135   1.522   5.078 -0.0508  1.4365  0.0809
 3400SOL    HW221660   2.053   1.513   5.204 -1.5747  0.4518 -2.7914
 3401SOL     OW21661   1.185   4.601   4.393  0.2736 -0.5084 -0.2634
 3401SOL    HW121662   1.144   4.515   4.401 -2.2236  0.4187 -3.2061
 3401SOL    HW221663   1.160   4.622   4.303  2.8369  1.7015 -0.4533
 3402SOL     OW21664   2.372   1.423   4.634 -0.4958 -0.5097  0.0011
 3402SOL    HW121665   2.439   1.488   4.610  1.5094 -2.5092  0.2797
 3402SOL    HW221666   2.409   1.371   4.705 -0.2262 -0.3318 -0.0082
 3403SOL     OW21667   0.241   4.132   8.926 -0.2827  0.2291 -0.2201
 3403SOL    HW121668   0.193   4.145   9.007 -0.8851  1.2721 -0.7411
 3403SOL    HW221669   0.213   4.045   8.898  1.6696 -0.4149 -0.2024
 3404SOL     OW21670   3.629   1.818   6.592 -0.1584 -0.1835 -0.0239
 3404SOL    HW121671   3.670   1.896   6.555  1.2298 -1.3639 -0.9799
 3404SOL    HW221672   3.545   1.861   6.609 -0.7398 -1.4857  0.3674
 3405SOL     OW21673   0.289   4.277   1.409  0.5935  0.2015  0.3311
 3405SOL    HW121674   0.314   4.223   1.333  0.1786 -1.8373  1.6360
 3405SOL    HW221675   0.225   4.328   1.359 -0.6671  0.1512  1.9068
 3406SOL     OW21676   2.958   0.303  10.210  0.0540 -0.0440 -0.1137
 3406SOL    HW121677   3.054   0.307  10.219  0.0287  3.1293 -1.2268
 3406SOL    HW221678   2.940   0.231  10.150  2.3416  0.3738 -1.3150
 3407SOL     OW21679   1.991   2.848   3.327 -0.1245  0.5280 -0.3377
 3407SOL    HW121680   1.914   2.877   3.278 -0.2393  2.6427  1.0821
 3407SOL    HW221681   2.058   2.876   3.264  1.1593 -0.8243  0.4160
 3408SOL     OW21682   2.747   4.321   9.019  0.4777 -0.2374  0.2598
 3408SOL    HW121683   2.813   4.353   8.958  1.5431 -1.4828  0.7383
 3408SOL    HW221684   2.749   4.227   8.999 -1.7948 -0.2834  0.2308
 3409SOL     OW21685   3.905   2.995   8.420 -0.1454  0.0314  0.3684
 3409SOL    HW121686   3.873   2.946   8.344 -0.8562 -0.4530  0.9783
 3409SOL    HW221687   3.889   2.933   8.491  0.8519 -0.7456 -0.0809
 3410SOL     OW21688   3.003   3.525   1.714  1.1456 -0.4210  0.3157
 3410SOL    HW121689   2.946   3.478   1.774  0.7568  1.5430  1.4919
 3410SOL    HW221690   3.070   3.461   1.690  1.6004  0.2516 -0.2334
 3411SOL     OW21691   2.813   3.258   8.438  0.5996  0.1757 -0.0492
 3411SOL    HW121692   2.849   3.308   8.512  0.3234  0.8544 -0.3782
 3411SOL    HW221693   2.849   3.325   8.380  0.5413  0.3059  0.0645
 3412SOL     OW21694   1.335   1.234   5.898 -0.1956 -0.0440  0.1439
 3412SOL    HW121695   1.430   1.234   5.885 -0.2786  1.3976 -0.3962
 3412SOL    HW221696   1.306   1.238   5.807  2.4666 -3.0122 -0.8230
 3413SOL     OW21697   2.255   0.441   5.502 -0.0429  0.5846  0.2951
 3413SOL    HW121698   2.202   0.412   5.577 -0.8253 -0.3972 -0.6396
 3413SOL    HW221699   2.196   0.431   5.427 -0.4694  1.8270  0.4783
 3414SOL     OW21700   1.599   1.773   8.446 -0.2352  0.6909 -0.1920
 3414SOL    HW121701   1.509   1.787   8.476 -0.5784 -1.6306 -0.1516
 3414SOL    HW221702   1.582   1.685   8.413  1.8134  0.2511 -0.0416
 3415SOL     OW21703   2.318   1.832   3.663  0.3463 -0.4622  0.7035
 3415SOL    HW121704   2.381   1.768   3.699  1.3700  0.6813  0.9482
 3415SOL    HW221705   2.311   1.890   3.739  0.4330 -0.2813  0.5730
 3416SOL     OW21706   3.370   2.997   0.004  0.2229  0.1027  0.0806
 3416SOL    HW121707   3.411   2.955   0.080  0.7493 -1.2172 -0.9247
 3416SOL    HW221708   3.445   3.033  17.646 -1.0099 -0.1670 -2.1584
 3417SOL     OW21709   0.743   2.081   1.779  0.3202 -0.1459  0.3280
 3417SOL    HW121710   0.663   2.080   1.832 -1.1473  3.3987 -1.8295
 3417SOL    HW221711   0.731   2.139   1.704 -0.0546  1.8957  1.9542
 3418SOL     OW21712   3.449   3.247   9.683 -0.1881  1.0605 -0.2852
 3418SOL    HW121713   3.517   3.267   9.619  0.7551 -1.9211 -0.2036
 3418SOL    HW221714   3.472   3.313   9.748 -2.1758  1.4599  0.0093
 3419SOL     OW21715   2.603   3.977   9.777  0.1101  0.1709  0.2162
 3419SOL    HW121716   2.683   3.941   9.738  0.3014  1.6666 -0.8119
 3419SOL    HW221717   2.619   4.071   9.765 -1.1186  0.1056 -1.9241
 3420SOL     OW21718   4.027   1.995   2.946 -0.0211  0.1622  0.8547
 3420SOL    HW121719   4.081   2.053   2.893 -0.1922 -1.9696 -1.5926
 3420SOL    HW221720   3.964   1.974   2.877  2.1171 -0.2543 -0.9391
 3421SOL     OW21721   2.235   2.246  17.376  0.5408 -0.0169  0.0527
 3421SOL    HW121722   2.229   2.156  17.342 -0.4028 -1.0192  2.8692
 3421SOL    HW221723   2.148   2.284  17.361  0.5691 -0.4701 -1.3245
 3422SOL     OW21724   4.175   4.687   2.479 -0.8950 -0.0464 -0.6077
 3422SOL    HW121725   4.090   4.643   2.471 -1.2027  0.6731 -1.3515
 3422SOL    HW221726   4.230   4.609   2.475 -0.2597  0.4286 -1.0969
 3423SOL     OW21727   2.728   0.168  13.364 -0.2361 -0.0679  0.7123
 3423SOL    HW121728   2.642   0.208  13.352  2.0482  4.0313 -2.1387
 3423SOL    HW221729   2.786   0.212  13.301 -2.9875  1.8348 -0.5180
 3424SOL     OW21730   3.886   2.826   7.230 -0.2535  0.0348 -0.1652
 3424SOL    HW121731   3.849   2.845   7.144 -0.9684  1.8480  0.5420
 3424SOL    HW221732   3.802   2.828   7.277 -0.4506  0.8667 -0.5525
 3425SOL     OW21733   1.066   1.247   3.799 -0.1134 -0.4499 -0.0325
 3425SOL    HW121734   1.004   1.233   3.727  2.2642 -1.2961 -1.9430
 3425SOL    HW221735   1.149   1.241   3.751 -0.0117 -0.6471  0.1667
 3426SOL     OW21736   2.712   0.718   3.522  0.2985 -0.4549  0.4026
 3426SOL    HW121737   2.650   0.661   3.477 -0.2244  1.1103 -0.8902
 3426SOL    HW221738   2.758   0.647   3.567  1.1084 -0.8855 -1.1363
 3427SOL     OW21739   1.979   3.114   7.997 -0.1885  0.3276 -1.0277
 3427SOL    HW121740   2.073   3.125   8.008 -0.4779  2.0328 -0.2278
 3427SOL    HW221741   1.959   3.084   8.086 -0.5813  2.2523 -0.4605
 3428SOL     OW21742   1.928   0.218   6.470  0.1534  0.3673 -0.1814
 3428SOL    HW121743   1.967   0.218   6.558  0.7409  2.3306 -0.4626
 3428SOL    HW221744   1.967   0.302   6.447  1.7886  0.3781  2.6321
 3429SOL     OW21745   4.189   0.725   4.094  0.1941  0.5911  0.4001
 3429SOL    HW121746   4.118   0.684   4.144  0.3495 -0.2008 -0.0368
 3429SOL    HW221747   4.150   0.809   4.070  0.0984  0.2814 -0.5060
 3430SOL     OW21748   3.871   0.551   9.413 -0.2283 -0.7693  0.3409
 3430SOL    HW121749   3.944   0.509   9.457 -0.0253  0.1517  0.8856
 3430SOL    HW221750   3.797   0.550   9.474 -0.3957 -2.1379  0.1051
 3431SOL     OW21751   2.058   4.212   8.694 -0.4999  0.9026 -0.3578
 3431SOL    HW121752   1.988   4.230   8.757  0.2190 -1.0276  0.9919
 3431SOL    HW221753   2.127   4.208   8.761 -0.9064  0.5289  0.0454
 3432SOL     OW21754   1.427   2.387   2.877  0.6005  0.7329  0.0723
 3432SOL    HW121755   1.353   2.435   2.840  1.3652  0.9452 -1.1861
 3432SOL    HW221756   1.383   2.316   2.922  0.9012  1.8992  2.1793
 3433SOL     OW21757   2.745   3.830   5.247  0.1429 -0.4087 -0.1150
 3433SOL    HW121758   2.716   3.803   5.160 -0.6201  2.8597 -0.8796
 3433SOL    HW221759   2.836   3.861   5.242  0.2292 -0.0779  3.0356
 3434SOL     OW21760   4.398   3.118   7.810  0.3537  0.0859 -0.0460
 3434SOL    HW121761   4.417   3.137   7.902  1.1181  1.0308 -0.3983
 3434SOL    HW221762   4.322   3.170   7.786  1.3034  1.9192  0.9418
 3435SOL     OW21763   4.259   3.243   6.951  0.1055  0.1143 -0.2425
 3435SOL    HW121764   4.185   3.223   6.893 -0.2552  2.1769 -0.5095
 3435SOL    HW221765   4.264   3.166   7.008  0.3113 -0.1798 -0.6569
 3436SOL     OW21766   1.526   2.238   9.669 -0.4379 -0.0110 -0.0353
 3436SOL    HW121767   1.475   2.201   9.741  0.6807 -1.1932  0.1468
 3436SOL    HW221768   1.464   2.206   9.603 -2.0504  1.4612  0.7514
 3437SOL     OW21769   1.368   1.662  13.847 -0.0590 -0.3780 -0.0388
 3437SOL    HW121770   1.393   1.638  13.936  1.2323  1.2908  0.0467
 3437SOL    HW221771   1.443   1.624  13.801  0.3413 -0.4349  0.6632
 3438SOL     OW21772   1.034   4.714  16.431 -0.3236  0.3711  0.0744
 3438SOL    HW121773   0.966   4.647  16.437 -0.3447  0.3222 -0.6922
 3438SOL    HW221774   1.018   0.042  16.511  0.5236  2.6507 -1.1799
 3439SOL     OW21775   1.878   4.622  15.167 -0.5209  0.3511  0.0925
 3439SOL    HW121776   1.888   4.533  15.132  0.3101  0.2655  0.5713
 3439SOL    HW221777   1.959   4.665  15.141 -0.1294 -0.0184  0.7099
 3440SOL     OW21778   4.628   2.825   6.645  0.1385 -0.2117 -0.8357
 3440SOL    HW121779   4.622   2.841   6.551  0.4114 -2.2927 -1.2186
 3440SOL    HW221780   4.712   2.778   6.649 -0.1321 -0.8035 -2.2807
 3441SOL     OW21781   3.929   1.567   7.737  0.4028  0.2463  0.3723
 3441SOL    HW121782   3.846   1.558   7.689  0.9403  0.2761 -0.5770
 3441SOL    HW221783   3.962   1.635   7.677  0.1667 -0.0454 -0.0925
 3442SOL     OW21784   2.270   4.541  11.163 -0.1768  0.0141  0.1574
 3442SOL    HW121785   2.360   4.542  11.128 -0.0112 -2.5710  0.4786
 3442SOL    HW221786   2.232   4.615  11.115  0.9340 -0.2910 -1.2177
 3443SOL     OW21787   1.260   2.179   2.698 -0.8760 -0.5034 -0.0120
 3443SOL    HW121788   1.170   2.212   2.697 -0.5896  0.2537 -1.0903
 3443SOL    HW221789   1.269   2.177   2.793 -1.3213  2.1794  0.0815
 3444SOL     OW21790   1.493   3.689   5.800  0.3937  0.0138 -0.1284
 3444SOL    HW121791   1.501   3.774   5.844 -0.3864  0.2563 -0.4436
 3444SOL    HW221792   1.397   3.692   5.804  0.5119  1.8328  1.2057
 3445SOL     OW21793   2.371   2.502  10.582  0.3256 -0.0264 -0.4070
 3445SOL    HW121794   2.446   2.532  10.530 -1.0876  2.0017 -1.2695
 3445SOL    HW221795   2.329   2.583  10.612  0.4285 -0.3632  0.6672
 3446SOL     OW21796   1.532   1.667  14.760  0.3822 -0.0106  0.3335
 3446SOL    HW121797   1.491   1.594  14.713 -0.6298  0.2144  0.8760
 3446SOL    HW221798   1.492   1.655  14.845  3.5023  1.1212  1.9777
 3447SOL     OW21799   0.239   2.437  16.314 -0.2566 -0.5938 -0.2640
 3447SOL    HW121800   0.303   2.430  16.243  1.5705  0.6703  1.2538
 3447SOL    HW221801   0.282   2.405  16.392  0.2523  1.2667  0.2316
 3448SOL     OW21802   4.485   1.493  16.878 -0.2715 -0.3371 -0.1645
 3448SOL    HW121803   4.446   1.529  16.799 -0.7800  0.4476  0.4332
 3448SOL    HW221804   4.522   1.572  16.917 -1.8666  0.7422 -0.8395
 3449SOL     OW21805   0.842   4.293   0.507 -0.0828 -0.0389  0.2562
 3449SOL    HW121806   0.871   4.376   0.468 -0.6379 -0.0581 -0.2134
 3449SOL    HW221807   0.895   4.229   0.459  0.3216 -0.2035  0.9315
 3450SOL     OW21808   0.959   2.840   3.173 -0.4629 -0.7419 -0.2971
 3450SOL    HW121809   1.034   2.845   3.232 -1.2177 -0.5926  0.6726
 3450SOL    HW221810   0.973   2.927   3.136  0.6194 -0.4776  0.7217
 3451SOL     OW21811   0.069   1.809   5.392 -0.3611 -0.0128  0.0844
 3451SOL    HW121812   0.139   1.765   5.441  0.1202  0.2308 -0.3931
 3451SOL    HW221813   0.089   1.902   5.389 -1.5273  0.2380 -0.0385
 3452SOL     OW21814   2.125   3.418   1.235 -0.2088 -0.5152  0.3097
 3452SOL    HW121815   2.074   3.421   1.316  1.3539  1.6950  1.2259
 3452SOL    HW221816   2.074   3.482   1.185  0.3556  0.2037  0.6464
 3453SOL     OW21817   0.231   2.033   5.982  0.4936  0.0043 -0.1685
 3453SOL    HW121818   0.195   2.116   6.012 -1.5828 -0.5050 -1.2762
 3453SOL    HW221819   0.320   2.060   5.960  0.2774  1.5998  0.9345
 3454SOL     OW21820   3.730   2.602   6.490 -0.2625 -0.4970  0.2194
 3454SOL    HW121821   3.788   2.677   6.507  1.6282 -1.7668 -0.6263
 3454SOL    HW221822   3.786   2.546   6.437 -1.2229 -3.0187  1.8864
 3455SOL     OW21823   3.295   2.001   9.869 -0.2847 -0.0990  0.0249
 3455SOL    HW121824   3.338   1.917   9.881 -0.9277 -0.6924 -1.8027
 3455SOL    HW221825   3.363   2.062   9.899 -1.6849  1.1487  0.6365
 3456SOL     OW21826   1.329   0.868  16.860  0.3459 -0.4770  0.6202
 3456SOL    HW121827   1.388   0.879  16.786 -1.7064  1.2939 -0.7398
 3456SOL    HW221828   1.396   0.861  16.928  0.2467  1.6067  0.9402
 3457SOL     OW21829   4.506   2.985   7.608  0.1320 -0.1746  0.6031
 3457SOL    HW121830   4.461   2.907   7.641  0.7154 -1.8307 -2.5175
 3457SOL    HW221831   4.511   3.044   7.683 -2.7030  2.0299 -0.9474
 3458SOL     OW21832   1.322   0.930   8.953 -0.0308  0.0840  0.0266
 3458SOL    HW121833   1.342   0.875   9.028  0.3656 -1.3904 -1.1704
 3458SOL    HW221834   1.236   0.895   8.927  0.8046  0.3798 -3.0858
 3459SOL     OW21835   2.872   2.434   4.664  0.2310  0.3136 -0.3018
 3459SOL    HW121836   2.957   2.391   4.659  1.0288  1.9659 -0.9693
 3459SOL    HW221837   2.848   2.420   4.756 -1.5398  1.0266 -0.6490
 3460SOL     OW21838   2.473   1.422  14.602 -0.1177  0.2756  0.4599
 3460SOL    HW121839   2.559   1.393  14.633  0.4196  2.7017  1.2350
 3460SOL    HW221840   2.428   1.342  14.628  1.9361 -1.4861 -1.4837
 3461SOL     OW21841   4.147   4.614   0.670 -0.2136  0.5026 -0.0331
 3461SOL    HW121842   4.061   4.637   0.705 -0.3568  2.6370 -1.7747
 3461SOL    HW221843   4.126   4.618   0.577  1.4640 -1.0432 -0.4787
 3462SOL     OW21844   1.137   0.913  15.266 -0.0261 -0.2519  0.0265
 3462SOL    HW121845   1.084   0.837  15.290 -0.4426  0.1926  0.5231
 3462SOL    HW221846   1.187   0.889  15.188  0.9736  1.2707  0.1855
 3463SOL     OW21847   3.166   1.168  15.846  0.1833  0.2137 -0.6777
 3463SOL    HW121848   3.253   1.157  15.809  1.0144  1.6483  0.8568
 3463SOL    HW221849   3.144   1.084  15.884 -0.8531  1.0016  0.4579
 3464SOL     OW21850   2.126   2.132   3.808 -0.5577  0.8360 -0.7403
 3464SOL    HW121851   2.059   2.064   3.804 -0.6147  0.6830  2.5781
 3464SOL    HW221852   2.204   2.080   3.823 -0.7988  0.4939 -0.6777
 3465SOL     OW21853   0.355   0.922  16.683 -0.0079  0.2936  0.8597
 3465SOL    HW121854   0.294   0.931  16.757  0.3727  1.2115  1.0653
 3465SOL    HW221855   0.354   1.013  16.653 -0.0820  0.6130  1.8393
 3466SOL     OW21856   4.350   0.791   4.637  0.1962  0.4336 -0.2696
 3466SOL    HW121857   4.342   0.803   4.542  0.8882  0.7036 -0.2975
 3466SOL    HW221858   4.300   0.867   4.665 -1.5220 -0.9959  0.4901
 3467SOL     OW21859   2.451   2.475   6.591 -0.0951 -0.0788  0.0404
 3467SOL    HW121860   2.359   2.476   6.564  0.0932  1.0705 -0.5425
 3467SOL    HW221861   2.475   2.551   6.538 -0.8480 -0.8517 -1.4175
 3468SOL     OW21862   1.997   0.986   1.834  0.2167  0.9806  0.8189
 3468SOL    HW121863   2.091   0.967   1.836 -0.1045 -0.4633  2.3079
 3468SOL    HW221864   1.954   0.927   1.896 -0.8160  1.6828  0.7682
 3469SOL     OW21865   3.946   1.877  12.900 -0.3963 -0.5719 -0.6146
 3469SOL    HW121866   3.942   1.818  12.975 -2.6430 -2.4742 -2.2586
 3469SOL    HW221867   4.025   1.844  12.857 -0.5694 -1.2523 -0.3954
 3470SOL     OW21868   4.584   0.896   8.265 -0.4889 -0.4152  0.0173
 3470SOL    HW121869   4.577   0.893   8.361 -0.0273 -2.4296 -0.0051
 3470SOL    HW221870   4.532   0.818   8.245  1.4409 -0.9320 -2.9667
 3471SOL     OW21871   2.650   0.586   5.654 -0.6861 -0.2565  0.1262
 3471SOL    HW121872   2.617   0.538   5.730 -1.0773 -2.6486 -1.5294
 3471SOL    HW221873   2.690   0.510   5.610 -0.5854  0.3839 -0.8816
 3472SOL     OW21874   3.273   2.028   1.609 -0.2356  0.3373  0.7944
 3472SOL    HW121875   3.357   2.007   1.650 -0.9931  0.4697  2.4317
 3472SOL    HW221876   3.298   2.029   1.517 -0.0965  0.3226  0.8316
 3473SOL     OW21877   3.589   3.836   2.498 -0.1149  0.6059 -0.1467
 3473SOL    HW121878   3.532   3.911   2.484  0.0230  0.3446 -2.1565
 3473SOL    HW221879   3.558   3.798   2.580 -0.8305  0.6616 -0.3918
 3474SOL     OW21880   1.090   3.732  15.047 -0.0013 -0.2775 -0.0338
 3474SOL    HW121881   1.167   3.701  14.999 -0.1477 -0.0977 -0.3880
 3474SOL    HW221882   1.054   3.801  14.991  0.0206 -1.2320 -1.2424
 3475SOL     OW21883   0.234   1.472   2.224 -0.2710  0.1046 -0.0880
 3475SOL    HW121884   0.305   1.524   2.188  1.5171 -0.7951  2.1167
 3475SOL    HW221885   0.210   1.527   2.299 -1.0682  0.1596 -0.3835
 3476SOL     OW21886   1.792   2.627  15.408 -0.1814  0.3372 -0.0024
 3476SOL    HW121887   1.793   2.563  15.479 -0.3627 -2.0551 -2.1443
 3476SOL    HW221888   1.791   2.705  15.464 -3.0321  0.0684  0.3421
 3477SOL     OW21889   1.299   2.978   9.854 -0.3416 -0.1409 -0.3557
 3477SOL    HW121890   1.329   2.905   9.799  0.4756 -0.7406  0.8928
 3477SOL    HW221891   1.379   3.030   9.861 -0.6212  0.0230  1.5556
 3478SOL     OW21892   3.044   0.991  13.364  0.4628  0.1520  0.6316
 3478SOL    HW121893   3.122   0.979  13.418 -0.1521  0.5126  1.5910
 3478SOL    HW221894   3.004   0.904  13.373  2.9454 -1.0323  0.1308
 3479SOL     OW21895   3.931   2.941   4.906  0.1900 -0.7900  0.1970
 3479SOL    HW121896   3.933   2.967   4.998 -1.2397  0.7195 -0.1984
 3479SOL    HW221897   3.865   2.872   4.907 -0.3619 -0.2537  0.4944
 3480SOL     OW21898   2.857   2.783  15.784  0.3992  0.0913 -0.3520
 3480SOL    HW121899   2.813   2.811  15.704  1.0019  1.6282 -0.1499
 3480SOL    HW221900   2.793   2.794  15.854 -3.0403  1.1465 -3.6865
 3481SOL     OW21901   3.792   4.442   5.640  0.1529 -0.1579 -0.0356
 3481SOL    HW121902   3.774   4.399   5.724  1.7395  0.9258  0.8545
 3481SOL    HW221903   3.707   4.473   5.608 -0.3072  1.0623  2.3980
 3482SOL     OW21904   2.203   1.477  12.668 -0.7341  0.0908 -0.2303
 3482SOL    HW121905   2.232   1.545  12.729  2.1541  0.2093 -1.7416
 3482SOL    HW221906   2.118   1.514  12.644 -0.5979 -0.6137 -1.7575
 3483SOL     OW21907   3.600   2.558   3.142  0.2683  0.0359 -0.1884
 3483SOL    HW121908   3.618   2.636   3.194 -0.7936 -0.1030  0.3826
 3483SOL    HW221909   3.506   2.547   3.158  0.7305 -3.0815  0.4481
 3484SOL     OW21910   4.087   1.845   4.451 -0.2969  0.5307 -0.0094
 3484SOL    HW121911   4.071   1.788   4.527 -0.8046  1.3089  0.4777
 3484SOL    HW221912   3.997   1.855   4.421 -0.0314 -0.9987 -1.2633
 3485SOL     OW21913   0.732   1.552   6.750  0.1225 -0.2138  0.4382
 3485SOL    HW121914   0.799   1.620   6.762 -1.2336  1.5341 -1.9920
 3485SOL    HW221915   0.683   1.596   6.680 -0.3228 -1.2535  0.1049
 3486SOL     OW21916   3.518   0.269  15.663 -0.3564 -0.2495 -0.3099
 3486SOL    HW121917   3.572   0.227  15.596  0.3435 -1.1171  0.7883
 3486SOL    HW221918   3.436   0.227  15.636 -1.0080  1.4193 -0.8746
 3487SOL     OW21919   2.262   4.566  17.245  0.1517  0.0104 -0.7119
 3487SOL    HW121920   2.344   4.607  17.271 -0.9383  0.5847  1.8559
 3487SOL    HW221921   2.276   4.510  17.169 -0.5435 -1.0824 -0.0434
 3488SOL     OW21922   3.690   4.167  16.920 -0.0427 -0.4924 -0.0212
 3488SOL    HW121923   3.609   4.147  16.968  1.3452 -1.1994  2.0091
 3488SOL    HW221924   3.736   4.084  16.929 -0.6355 -0.6084  1.9158
 3489SOL     OW21925   2.064   0.492   5.302 -0.1107  0.0726  0.4199
 3489SOL    HW121926   2.085   0.576   5.261  1.6540 -0.9028 -0.7070
 3489SOL    HW221927   2.012   0.447   5.235  0.1398  2.2930 -1.2714
 3490SOL     OW21928   4.124   4.689  13.045 -0.3636 -0.2379 -0.4129
 3490SOL    HW121929   4.155   4.608  13.004 -0.8430 -1.1121  0.9591
 3490SOL    HW221930   4.036   4.678  13.082 -1.2087 -2.6636 -3.1039
 3491SOL     OW21931   2.780   3.226   4.494 -0.1414 -0.4169 -0.3113
 3491SOL    HW121932   2.725   3.153   4.523 -0.7781  0.2136  0.0505
 3491SOL    HW221933   2.807   3.198   4.407 -3.7368 -2.8585 -0.6314
 3492SOL     OW21934   0.825   3.789   3.482 -0.2765  0.0312 -0.4563
 3492SOL    HW121935   0.822   3.730   3.407 -1.0236  0.7328 -0.9920
 3492SOL    HW221936   0.804   3.731   3.555  0.0283  0.0856 -0.3263
 3493SOL     OW21937   1.572   1.510   8.395  0.7176  0.0763  0.2457
 3493SOL    HW121938   1.487   1.475   8.420  1.2822 -0.8250  0.9308
 3493SOL    HW221939   1.637   1.447   8.427  1.1033 -0.4737 -1.6486
 3494SOL     OW21940   4.467   2.352   0.828  0.3006  0.1028  0.4543
 3494SOL    HW121941   4.443   2.435   0.869  1.9527  0.0844  1.4840
 3494SOL    HW221942   4.396   2.307   0.783  1.3438  0.3721 -1.5024
 3495SOL     OW21943   2.832   1.260   5.192  0.6230  0.5432  0.1817
 3495SOL    HW121944   2.801   1.345   5.162  0.1196 -0.1945 -1.3961
 3495SOL    HW221945   2.906   1.249   5.131  0.6186 -0.0978  0.2916
 3496SOL     OW21946   2.414   1.572   5.465  0.0677 -0.3840 -0.6358
 3496SOL    HW121947   2.390   1.479   5.465 -1.4508 -0.0139  2.8079
 3496SOL    HW221948   2.398   1.593   5.373  0.1053  1.5976 -0.1796
 3497SOL     OW21949   1.059   3.529   3.138 -0.0164  0.1109 -0.1286
 3497SOL    HW121950   1.124   3.596   3.118  0.3647  0.1103  1.1260
 3497SOL    HW221951   1.045   3.488   3.052 -1.4683  2.1725 -0.8575
 3498SOL     OW21952   2.532   1.886   9.602 -0.2783 -0.0637 -0.4775
 3498SOL    HW121953   2.543   1.975   9.637 -0.5021  0.1041 -0.8340
 3498SOL    HW221954   2.615   1.845   9.626  1.5520  2.8526 -1.7534
 3499SOL     OW21955   1.360   1.003   9.273  0.0731  0.3822 -0.4036
 3499SOL    HW121956   1.378   1.001   9.366 -0.0616  0.2705 -0.3799
 3499SOL    HW221957   1.388   0.919   9.236  0.2380  0.9000 -1.4532
 3500SOL     OW21958   3.985   1.118   3.444 -0.5883 -0.6158  0.3965
 3500SOL    HW121959   3.932   1.161   3.512 -0.2110 -1.7893  1.4231
 3500SOL    HW221960   3.961   1.185   3.379 -1.1690 -1.9175 -0.7225
 3501SOL     OW21961   4.196   3.581   4.122  0.3577 -0.1162 -0.2488
 3501SOL    HW121962   4.225   3.669   4.146  4.2937 -1.8845  1.5064
 3501SOL    HW221963   4.232   3.585   4.033 -1.5925 -1.6660 -1.1205
 3502SOL     OW21964   2.406   3.835   6.802  0.2178  0.3515 -0.4835
 3502SOL    HW121965   2.475   3.784   6.844  0.8201  1.4762 -0.1124
 3502SOL    HW221966   2.449   3.864   6.722  0.0125  2.4369  0.1637
 3503SOL     OW21967   0.434   2.923   2.488 -0.0911  0.1539  0.5490
 3503SOL    HW121968   0.472   2.840   2.515 -0.3267  0.2180  1.0782
 3503SOL    HW221969   0.464   2.946   2.400 -0.0143 -2.3300 -0.0571
 3504SOL     OW21970   0.679   1.503  11.862  0.0511 -0.0739 -0.3055
 3504SOL    HW121971   0.671   1.418  11.819  1.5773 -0.6099  0.5044
 3504SOL    HW221972   0.742   1.473  11.928  0.0949 -1.0806 -0.8001
 3505SOL     OW21973   4.034   3.231   5.370  0.1038  0.5442  0.3571
 3505SOL    HW121974   4.005   3.320   5.389  0.2473  0.5609  0.4940
 3505SOL    HW221975   3.954   3.179   5.380  0.0728  0.5770  0.2782
 3506SOL     OW21976   1.155   1.645  14.728 -0.3101  0.4915  0.0324
 3506SOL    HW121977   1.237   1.654  14.776 -0.4646  3.2493 -0.2476
 3506SOL    HW221978   1.129   1.736  14.714  1.3731  0.6635 -2.0176
 3507SOL     OW21979   1.296   1.780  14.466 -0.2609 -0.7577  0.2448
 3507SOL    HW121980   1.209   1.817  14.482  1.0116  2.2517  0.2291
 3507SOL    HW221981   1.356   1.817  14.530 -1.0985  0.5480  0.2734
 3508SOL     OW21982   1.928   3.404   6.805  0.2055  0.4438 -0.3848
 3508SOL    HW121983   1.930   3.498   6.823  0.6548  0.3568  0.0214
 3508SOL    HW221984   1.944   3.350   6.882  0.4805  0.6929 -0.2649
 3509SOL     OW21985   3.052   3.486   9.419  0.1245  0.2500 -0.6919
 3509SOL    HW121986   3.122   3.522   9.475  0.5295 -1.7287  0.0797
 3509SOL    HW221987   3.033   3.400   9.456  2.5488 -0.4873 -1.1502
 3510SOL     OW21988   3.338   0.830   2.757 -0.0129 -0.6221 -0.8928
 3510SOL    HW121989   3.381   0.873   2.831  1.0086 -0.8185 -1.3654
 3510SOL    HW221990   3.401   0.860   2.692 -0.2928  0.9584 -0.4273
 3511SOL     OW21991   4.399   4.071   2.768 -0.2486  0.0629 -0.0227
 3511SOL    HW121992   4.306   4.085   2.788  0.1677  1.7062  0.7403
 3511SOL    HW221993   4.404   4.071   2.673 -1.8073 -0.9562 -0.1093
 3512SOL     OW21994   3.959   4.283   4.241 -0.0631  0.1218 -0.0047
 3512SOL    HW121995   4.008   4.363   4.261  1.3096 -0.4218 -1.2815
 3512SOL    HW221996   4.028   4.235   4.196 -0.7946 -0.9261  0.0111
 3513SOL     OW21997   2.350   3.764   8.275 -0.0735 -0.2965 -0.3954
 3513SOL    HW121998   2.259   3.785   8.296  0.2581 -0.4353  1.1822
 3513SOL    HW221999   2.357   3.814   8.194 -1.4372  0.1132 -0.2609
 3514SOL     OW22000   3.186   4.059   4.722  1.2110  0.5753  0.3093
 3514SOL    HW122001   3.204   3.966   4.734  1.6851  0.8517  1.6848
 3514SOL    HW222002   3.271   4.088   4.689  0.3297  0.6974 -1.9112
 3515SOL     OW22003   0.029   1.680  16.076  0.1261  0.3105  0.4385
 3515SOL    HW122004   4.673   1.701  16.024  0.3779  0.4484  0.1187
 3515SOL    HW222005   0.032   1.742  16.149  0.5644 -1.5372  1.9972
 3516SOL     OW22006   2.605   0.975  11.063 -0.0384 -0.4374 -0.1415
 3516SOL    HW122007   2.620   0.973  11.158  1.8405  1.4188 -0.4057
 3516SOL    HW222008   2.649   0.900  11.024  0.7046 -0.5092  0.8059
 3517SOL     OW22009   2.242   4.636   6.806 -0.4850  0.0830  0.2357
 3517SOL    HW122010   2.157   4.617   6.846 -0.3734  0.4538  0.6399
 3517SOL    HW222011   2.278   4.712   6.850  0.7304  0.4238 -1.3582
 3518SOL     OW22012   0.528   3.170   9.119  0.0980 -0.7047 -0.6040
 3518SOL    HW122013   0.612   3.133   9.090 -0.0603 -1.7911  0.3467
 3518SOL    HW222014   0.461   3.120   9.071 -0.0262 -1.2450  0.1416
 3519SOL     OW22015   2.555   0.528   6.831  0.1132 -0.0410  0.4984
 3519SOL    HW122016   2.592   0.500   6.747  1.0059  1.7966  0.2787
 3519SOL    HW222017   2.574   0.447   6.878 -0.2642  0.1464  0.9652
 3520SOL     OW22018   0.735   3.832  12.632  0.2028  0.0292 -0.5846
 3520SOL    HW122019   0.679   3.774  12.581  1.8859 -1.5874 -0.5877
 3520SOL    HW222020   0.764   3.889  12.561  1.8281  0.1424  0.1577
 3521SOL     OW22021   3.353   0.725   4.149 -0.2978 -0.2376 -0.0206
 3521SOL    HW122022   3.340   0.692   4.238  0.3064  0.1181  0.1981
 3521SOL    HW222023   3.282   0.672   4.112 -2.2264  1.0631  1.7923
 3522SOL     OW22024   0.953   3.223   9.264  0.5237 -0.2901 -0.3392
 3522SOL    HW122025   0.943   3.239   9.170 -2.6346 -2.3677 -0.3543
 3522SOL    HW222026   1.045   3.198   9.264 -0.0183 -2.2130  0.4209
 3523SOL     OW22027   2.530   2.439   1.186  0.0831 -0.2540  0.0755
 3523SOL    HW122028   2.550   2.528   1.215 -0.4738 -0.4119  0.9371
 3523SOL    HW222029   2.585   2.380   1.237 -1.7365 -1.7365  0.3159
 3524SOL     OW22030   3.640   2.306   2.443  0.1735 -0.2263 -0.6093
 3524SOL    HW122031   3.593   2.227   2.470  1.5419 -1.5322 -2.0936
 3524SOL    HW222032   3.569   2.369   2.430  0.2373 -0.0317  0.0086
 3525SOL     OW22033   1.885   2.617  13.455  0.1068  0.1091 -0.2875
 3525SOL    HW122034   1.830   2.578  13.387 -0.1154  1.3984 -0.8333
 3525SOL    HW222035   1.827   2.690  13.476 -0.9356 -0.5721 -0.7891
 3526SOL     OW22036   2.985   0.482   2.352  0.1964 -0.9446 -0.2676
 3526SOL    HW122037   3.005   0.564   2.397  2.0763 -0.6482 -1.6385
 3526SOL    HW222038   2.936   0.517   2.278  0.1179  0.2689  0.3556
 3527SOL     OW22039   0.371   1.632   3.135  0.3206 -0.4653  0.4522
 3527SOL    HW122040   0.381   1.574   3.211  2.2479  0.4937  0.9182
 3527SOL    HW222041   0.285   1.672   3.147  0.6752  0.8728 -1.4041
 3528SOL     OW22042   2.453   2.250   0.838  0.4849 -0.4732 -0.2257
 3528SOL    HW122043   2.495   2.334   0.854 -0.1420  0.0195 -1.1903
 3528SOL    HW222044   2.530   2.199   0.813 -1.8706 -3.3928 -1.4838
 3529SOL     OW22045   1.285   1.127   4.253 -0.0045  0.3085  0.0253
 3529SOL    HW122046   1.306   1.193   4.187  2.1514  0.6742  1.0755
 3529SOL    HW222047   1.195   1.104   4.233 -0.3590  1.1474  0.6489
 3530SOL     OW22048   4.010   3.733   5.003  0.7175 -0.5189  0.3592
 3530SOL    HW122049   3.953   3.810   5.012  0.3686 -0.5734 -1.3370
 3530SOL    HW222050   3.980   3.702   4.917  1.8085 -0.7026  0.0474
 3531SOL     OW22051   4.393   2.576   6.578  0.4102 -0.9529 -0.0358
 3531SOL    HW122052   4.475   2.529   6.591  1.5877  0.9554 -0.5833
 3531SOL    HW222053   4.432   2.643   6.522 -1.6991 -0.0670 -0.4549
 3532SOL     OW22054   0.896   1.107   4.123 -0.5469  0.2150 -0.0388
 3532SOL    HW122055   0.869   1.071   4.038 -0.4596  0.3897 -0.1423
 3532SOL    HW222056   0.909   1.191   4.078 -0.2209 -0.3361 -0.9626
 3533SOL     OW22057   3.849   1.047  16.628  0.5621 -0.3601  0.5512
 3533SOL    HW122058   3.918   1.055  16.562  0.4920  2.6969  0.8901
 3533SOL    HW222059   3.880   1.107  16.695 -1.6929 -0.5522  1.7867
 3534SOL     OW22060   0.238   2.917  13.420  0.1589  0.3212 -0.2703
 3534SOL    HW122061   0.266   2.873  13.340 -0.9644 -2.3584  0.8039
 3534SOL    HW222062   0.211   3.001  13.384 -2.0938 -0.7111 -0.9861
 3535SOL     OW22063   3.571   3.280   7.753 -0.2292 -0.6183  0.1667
 3535SOL    HW122064   3.514   3.292   7.830  0.6871  2.0898  0.4463
 3535SOL    HW222065   3.510   3.239   7.692 -0.0652 -1.7165  0.7552
 3536SOL     OW22066   1.330   3.955   7.510 -0.0579 -0.1521  0.8221
 3536SOL    HW122067   1.252   3.923   7.465  1.5558 -0.9333 -1.4376
 3536SOL    HW222068   1.326   4.041   7.469  0.1854  0.1172  1.3579
 3537SOL     OW22069   3.619   3.119   3.839  0.3926  0.4274  0.2442
 3537SOL    HW122070   3.647   3.030   3.815 -0.0761  1.0503 -2.6287
 3537SOL    HW222071   3.649   3.174   3.766 -0.1577  2.1350  1.3233
 3538SOL     OW22072   0.018   4.515   5.651 -0.1787 -0.0969 -0.0421
 3538SOL    HW122073   0.076   4.505   5.575  0.6315 -1.8929  0.7982
 3538SOL    HW222074   0.077   4.558   5.713  0.5413  0.5932 -1.2125
 3539SOL     OW22075   1.822   0.771   8.774  0.8611 -0.0053  0.3603
 3539SOL    HW122076   1.884   0.703   8.798 -0.4043 -0.9340  1.0300
 3539SOL    HW222077   1.885   0.835   8.740  0.9223 -0.1236  0.2478
 3540SOL     OW22078   1.843   0.823   2.013  0.2473  0.4311  0.5803
 3540SOL    HW122079   1.824   0.750   2.072  0.9954  0.1008  0.4149
 3540SOL    HW222080   1.789   0.894   2.046 -0.9852 -0.0698 -0.3575
 3541SOL     OW22081   2.897   4.318   1.814 -0.4436 -0.6233 -0.3337
 3541SOL    HW122082   2.856   4.400   1.788  2.0885  0.7949  0.2025
 3541SOL    HW222083   2.875   4.314   1.907  1.4591 -0.6536  0.1174
 3542SOL     OW22084   3.529   3.708   8.271 -0.4332  1.0278  0.6611
 3542SOL    HW122085   3.574   3.665   8.344 -0.5405 -1.2693 -0.6055
 3542SOL    HW222086   3.512   3.631   8.216  2.1348  0.7027  0.3479
 3543SOL     OW22087   0.899   2.192  12.698  0.0294 -0.5230  0.4422
 3543SOL    HW122088   0.923   2.115  12.748 -0.7369 -0.9011  0.2321
 3543SOL    HW222089   0.805   2.175  12.688 -0.4594  1.0705  2.4186
 3544SOL     OW22090   1.597   1.681  12.115  0.3897  0.2092 -0.0898
 3544SOL    HW122091   1.555   1.716  12.194  0.7939  0.9631 -0.2085
 3544SOL    HW222092   1.563   1.743  12.051 -0.4111  0.0638  0.1948
 3545SOL     OW22093   0.221   2.353   2.251  0.1310  0.0301  0.1797
 3545SOL    HW122094   0.305   2.387   2.218  0.6510  0.4332  1.9241
 3545SOL    HW222095   0.190   2.427   2.304  1.4760 -0.6610  1.9036
 3546SOL     OW22096   1.784   3.013  12.568  0.2812 -0.4285  0.5247
 3546SOL    HW122097   1.725   3.071  12.521 -0.1386 -0.4193  1.0570
 3546SOL    HW222098   1.825   3.080  12.624  2.4465 -0.4850 -1.0090
 3547SOL     OW22099   0.637   0.184   2.960  0.1538  0.8813 -0.6248
 3547SOL    HW122100   0.668   0.254   2.902  0.6058 -0.3974 -1.9153
 3547SOL    HW222101   0.585   0.126   2.905 -0.5275 -0.8195  1.7748
 3548SOL     OW22102   2.985   0.066   6.646 -0.6156 -0.1784  0.3278
 3548SOL    HW122103   3.009   0.080   6.737  1.9229  0.4137 -0.4496
 3548SOL    HW222104   2.895   0.099   6.647  0.4876  2.7873  1.0893
 3549SOL     OW22105   3.074   1.421  12.924 -0.0412  0.2204  0.2825
 3549SOL    HW122106   3.007   1.449  12.862  0.7436 -0.3883 -0.8258
 3549SOL    HW222107   3.104   1.334  12.898  0.8023  1.1582 -1.8272
 3550SOL     OW22108   2.751   1.875   4.406  0.3146 -0.3928 -0.3071
 3550SOL    HW122109   2.726   1.920   4.487 -2.4172 -1.0495 -0.7948
 3550SOL    HW222110   2.759   1.953   4.352 -1.0490  0.1251  0.2544
 3551SOL     OW22111   1.260   2.849   1.568 -0.2999  0.2206  0.4186
 3551SOL    HW122112   1.188   2.910   1.580 -1.6897 -0.9477 -1.9043
 3551SOL    HW222113   1.218   2.770   1.533 -2.1943  0.2497  2.6501
 3552SOL     OW22114   0.189   1.306   4.594  0.7845  0.1956  0.1010
 3552SOL    HW122115   0.157   1.216   4.599  1.0342  0.1620  1.3059
 3552SOL    HW222116   0.219   1.315   4.504  1.2359 -3.3655 -0.0803
 3553SOL     OW22117   0.417   4.532   8.810 -0.4894 -0.0134 -0.9925
 3553SOL    HW122118   0.381   4.526   8.721 -0.1998 -2.2492 -0.9732
 3553SOL    HW222119   0.343   4.567   8.859 -0.9951 -1.9110 -0.3891
 3554SOL     OW22120   0.864   4.432  13.138  0.2301  0.3286  0.1244
 3554SOL    HW122121   0.945   4.382  13.136  0.2425  0.3076  1.4518
 3554SOL    HW222122   0.819   4.397  13.061 -2.2240  1.6956  0.9499
 3555SOL     OW22123   1.253   3.741  12.617  0.6030 -0.0438 -0.3246
 3555SOL    HW122124   1.269   3.788  12.699  0.7873 -0.1848 -0.2784
 3555SOL    HW222125   1.160   3.720  12.625  0.6750 -0.2982 -0.1547
 3556SOL     OW22126   2.019   1.865   4.991  0.2364 -0.2438  0.0882
 3556SOL    HW122127   1.988   1.954   5.008 -0.3337 -0.4756  0.2587
 3556SOL    HW222128   2.061   1.832   5.071  0.5224 -1.9873 -0.7904
 3557SOL     OW22129   3.033   4.437   0.960  0.4616  0.1169  0.0794
 3557SOL    HW122130   2.940   4.454   0.978 -0.1337 -2.4390 -0.6282
 3557SOL    HW222131   3.074   4.430   1.046 -1.3376 -0.9325  0.8644
 3558SOL     OW22132   3.948   3.721   1.578  0.6290  0.1413 -0.2209
 3558SOL    HW122133   3.915   3.774   1.651  0.0393 -0.3250 -0.1537
 3558SOL    HW222134   4.016   3.667   1.619  1.0537  0.5908 -0.3339
 3559SOL     OW22135   1.875   0.340  10.798 -0.3417 -0.0751 -0.4958
 3559SOL    HW122136   1.875   0.301  10.885 -0.1193 -0.3550 -0.6193
 3559SOL    HW222137   1.805   0.294  10.752 -0.0403 -1.7456  0.7240
 3560SOL     OW22138   1.653   1.733   7.425 -0.2742 -0.3159  0.1653
 3560SOL    HW122139   1.700   1.669   7.372 -0.4591 -1.8111  1.8127
 3560SOL    HW222140   1.716   1.746   7.496  0.3910  3.3843 -1.0892
 3561SOL     OW22141   4.126   3.560   6.958  0.2181  0.5245  0.4765
 3561SOL    HW122142   4.044   3.513   6.945 -0.0412  0.7670  1.2536
 3561SOL    HW222143   4.091   3.645   6.987  0.6932  1.2296 -1.0179
 3562SOL     OW22144   4.066   1.765  14.438  0.0616 -0.1580 -0.1840
 3562SOL    HW122145   4.045   1.675  14.415 -1.4016 -0.0757  0.7658
 3562SOL    HW222146   4.141   1.788  14.383 -0.8114  1.1435 -0.8525
 3563SOL     OW22147   1.700   2.334   1.019  0.2883  0.0872 -0.5257
 3563SOL    HW122148   1.658   2.340   0.933 -2.0148  1.0753  0.6661
 3563SOL    HW222149   1.697   2.240   1.035 -0.5506 -0.2359 -2.4572
 3564SOL     OW22150   3.418   1.541   4.125  0.5143  1.0008  0.3230
 3564SOL    HW122151   3.413   1.464   4.181 -1.1363 -0.3141 -1.6220
 3564SOL    HW222152   3.324   1.550   4.109  0.5856  0.9496 -0.1141
 3565SOL     OW22153   0.695   1.343   5.452  0.0004  0.6768  0.3055
 3565SOL    HW122154   0.673   1.375   5.364  1.5133  2.0272  0.4044
 3565SOL    HW222155   0.677   1.250   5.445  2.0224  0.4460 -1.9483
 3566SOL     OW22156   2.300   2.830  10.895 -0.7343 -0.0388 -0.1486
 3566SOL    HW122157   2.380   2.881  10.879 -1.6430  1.6643  0.7389
 3566SOL    HW222158   2.336   2.755  10.943 -0.6809 -1.8478 -2.9880
 3567SOL     OW22159   1.901   1.084   0.732 -0.0462 -0.3264  0.5013
 3567SOL    HW122160   1.887   1.083   0.827 -1.3915 -0.0083  0.3120
 3567SOL    HW222161   1.919   1.178   0.732  1.3305 -0.5921 -0.8318
 3568SOL     OW22162   1.965   0.965   5.911 -0.2713  0.0499 -0.1426
 3568SOL    HW122163   1.908   0.999   5.980 -0.2203  0.2823 -0.2122
 3568SOL    HW222164   1.964   0.873   5.934 -0.2852 -0.4472 -2.1427
 3569SOL     OW22165   3.283   1.532   4.539  0.1013  0.4623  0.2353
 3569SOL    HW122166   3.207   1.491   4.579 -0.4569  1.4178  0.1449
 3569SOL    HW222167   3.309   1.593   4.608 -0.9606  0.7104  0.4155
 3570SOL     OW22168   1.112   4.630   4.134  0.3353  0.1608 -0.3844
 3570SOL    HW122169   1.162   4.662   4.059  2.6720 -1.2717  0.5869
 3570SOL    HW222170   1.025   4.652   4.099 -0.3143  0.5926  1.5400
 3571SOL     OW22171   1.419   0.514   4.407 -0.0894 -0.0754 -0.1865
 3571SOL    HW122172   1.442   0.506   4.314 -1.1105  2.1794 -0.6407
 3571SOL    HW222173   1.381   0.602   4.406 -0.1026 -0.0842 -0.4872
 3572SOL     OW22174   4.572   4.436   4.375  0.0688  0.1146  0.4768
 3572SOL    HW122175   4.585   4.354   4.327  0.0486  0.3926 -0.0104
 3572SOL    HW222176   4.659   4.463   4.403  0.1917  0.7550 -0.4941
 3573SOL     OW22177   3.662   0.260  14.741 -0.6375 -0.2384  0.5326
 3573SOL    HW122178   3.659   0.191  14.808  1.4620  0.7539  1.6564
 3573SOL    HW222179   3.752   0.291  14.756 -0.0314 -0.5978 -2.3017
 3574SOL     OW22180   0.477   2.489  10.800 -0.1671  0.7252 -0.2541
 3574SOL    HW122181   0.474   2.557  10.868  0.0581  0.2320  0.2481
 3574SOL    HW222182   0.411   2.525  10.741 -0.3206 -0.3324 -0.7198
 3575SOL     OW22183   0.286   0.614   2.613 -0.0617 -0.3697 -0.3054
 3575SOL    HW122184   0.241   0.650   2.537 -2.2900 -0.7089  0.8287
 3575SOL    HW222185   0.270   0.693   2.666  0.0836  1.1086 -2.4947
 3576SOL     OW22186   1.548   0.948  16.700 -0.0011 -0.0688 -0.0565
 3576SOL    HW122187   1.636   0.980  16.723 -1.2068  2.6048  0.8433
 3576SOL    HW222188   1.507   1.026  16.662 -0.7089 -0.2174  0.4013
 3577SOL     OW22189   1.923   3.588   2.849  0.3423  0.2038  0.4719
 3577SOL    HW122190   1.921   3.553   2.938 -0.2418  0.4116  0.5394
 3577SOL    HW222191   1.984   3.660   2.860  1.2137 -1.0163  3.6338
 3578SOL     OW22192   1.610   2.428   6.605 -0.5948  0.1264 -0.2249
 3578SOL    HW122193   1.608   2.470   6.519 -0.7088  1.6056  0.5007
 3578SOL    HW222194   1.644   2.340   6.587  0.6866  0.3197  1.1974
 3579SOL     OW22195   4.566   1.265  11.572 -0.7071  0.1427  0.5389
 3579SOL    HW122196   4.534   1.181  11.607 -1.5470  1.3165  2.5909
 3579SOL    HW222197   4.485   1.315  11.560 -0.7901  0.1666  1.1709
 3580SOL     OW22198   0.529   2.530   9.444  0.3607 -0.0245  0.3681
 3580SOL    HW122199   0.443   2.492   9.457  0.4398  0.3882  2.0452
 3580SOL    HW222200   0.509   2.623   9.431  0.2661 -0.1103 -0.1220
 3581SOL     OW22201   1.751   3.288   7.330  0.1089  0.5242  0.0932
 3581SOL    HW122202   1.695   3.363   7.347 -4.7324 -2.7108 -1.4591
 3581SOL    HW222203   1.695   3.214   7.354 -0.7925  0.6869 -1.5661
 3582SOL     OW22204   2.089   1.252   8.835 -0.4968 -0.4522 -0.5011
 3582SOL    HW122205   2.041   1.334   8.821  0.7529 -0.1526 -3.0740
 3582SOL    HW222206   2.176   1.282   8.807 -0.1096 -1.1476 -0.0412
 3583SOL     OW22207   0.827   2.811   7.420 -0.5016  0.5379  0.4413
 3583SOL    HW122208   0.861   2.864   7.348 -1.7856 -0.4490 -0.8990
 3583SOL    HW222209   0.764   2.874   7.455 -0.0458  1.0750  0.2954
 3584SOL     OW22210   2.167   2.832   9.208 -0.1732  0.3757 -0.4647
 3584SOL    HW122211   2.128   2.861   9.126 -0.9630 -0.2612 -0.3064
 3584SOL    HW222212   2.150   2.908   9.265 -1.6282 -0.3179  0.0195
 3585SOL     OW22213   0.589   3.151  10.250  0.2643  0.4315  0.1009
 3585SOL    HW122214   0.559   3.110  10.332  0.1691  0.4565  0.0785
 3585SOL    HW222215   0.681   3.171  10.270  0.3111  1.3094 -1.0270
 3586SOL     OW22216   2.629   1.342   2.332  0.4027 -0.2339 -0.5019
 3586SOL    HW122217   2.617   1.437   2.324 -3.1131 -0.6862 -0.4509
 3586SOL    HW222218   2.724   1.334   2.323  0.1750 -2.0664 -1.2004
 3587SOL     OW22219   3.626   1.758   8.333 -1.2101 -0.6608 -0.0855
 3587SOL    HW122220   3.543   1.714   8.350 -0.3195 -1.1235  3.0451
 3587SOL    HW222221   3.679   1.682   8.309  0.3689  0.2803  0.3790
 3588SOL     OW22222   2.082   3.949   5.761 -0.7048 -0.1327 -0.0070
 3588SOL    HW122223   2.090   4.032   5.808 -0.5263  0.1778 -0.5928
 3588SOL    HW222224   2.039   3.978   5.680  0.5192  0.0571 -0.5877
 3589SOL     OW22225   3.980   1.963   7.719 -0.2156  0.5065  0.3710
 3589SOL    HW122226   3.893   1.941   7.753 -0.4637  0.7704 -0.0869
 3589SOL    HW222227   3.945   2.045   7.684  0.6985  0.4544 -0.6746
 3590SOL     OW22228   0.354   4.013   3.527 -0.2801 -0.0765 -1.2084
 3590SOL    HW122229   0.427   4.034   3.470 -0.3485  3.0909 -0.1610
 3590SOL    HW222230   0.283   4.047   3.473 -1.0328  1.1209  0.5295
 3591SOL     OW22231   0.087   4.043   7.566  0.0891  0.2139  0.2750
 3591SOL    HW122232   0.039   4.037   7.649 -1.3660 -3.0819 -0.7571
 3591SOL    HW222233   0.171   4.004   7.590  0.4400  0.6058 -0.3328
 3592SOL     OW22234   4.092   2.454   7.299 -0.7400  0.7712 -0.4771
 3592SOL    HW122235   4.183   2.432   7.277 -1.3818 -2.3442  0.0089
 3592SOL    HW222236   4.066   2.374   7.344 -1.8014 -0.2350 -2.8800
 3593SOL     OW22237   3.175   4.612   1.685 -0.0548 -0.5584 -0.7017
 3593SOL    HW122238   3.136   4.627   1.771  1.0928 -0.9880 -0.0990
 3593SOL    HW222239   3.149   4.690   1.637 -1.3584 -1.0445 -0.7848
 3594SOL     OW22240   3.754   0.547   3.057  0.1684  0.8999 -0.1289
 3594SOL    HW122241   3.708   0.629   3.038  2.6421  2.0832 -0.9070
 3594SOL    HW222242   3.712   0.520   3.139 -0.2652  2.1108  0.0368
 3595SOL     OW22243   2.920   2.910   1.512  0.4415  0.5030  0.5489
 3595SOL    HW122244   2.975   2.976   1.554  0.7340  1.6567 -1.6304
 3595SOL    HW222245   2.834   2.911   1.554  0.9338 -1.3827  1.5993
 3596SOL     OW22246   2.011   1.262   7.178 -0.0631 -0.3748  0.5400
 3596SOL    HW122247   2.081   1.312   7.219  0.7828 -1.2773  0.2047
 3596SOL    HW222248   1.941   1.327   7.179  0.2186 -0.0568 -0.1811
 3597SOL     OW22249   3.583   4.224   5.322 -0.3822 -0.4016  0.9331
 3597SOL    HW122250   3.670   4.248   5.290 -0.9179  1.1011  0.6213
 3597SOL    HW222251   3.562   4.153   5.262  2.8671 -0.2423 -0.4311
 3598SOL     OW22252   0.023   2.648  10.980  0.9628 -0.1353  0.2376
 3598SOL    HW122253   0.010   2.635  11.074 -2.1132 -0.7576 -0.2609
 3598SOL    HW222254   0.095   2.710  10.990  0.1574  0.6296  1.2868
 3599SOL     OW22255   2.210   2.512   5.278  0.5872 -0.7152  0.4617
 3599SOL    HW122256   2.162   2.568   5.217 -0.3000 -0.4264  1.4416
 3599SOL    HW222257   2.262   2.576   5.327 -0.1168 -0.5492  0.9823
 3600SOL     OW22258   2.331   2.438   4.817  0.1380  0.0640  0.4356
 3600SOL    HW122259   2.343   2.454   4.723 -0.3366 -0.2594  0.3224
 3600SOL    HW222260   2.410   2.391   4.847 -0.0831  0.1595  1.1596
 3601SOL     OW22261   0.442   2.021   7.566  0.4571  0.4296  0.0798
 3601SOL    HW122262   0.509   2.044   7.503 -0.0634  0.0709 -0.5961
 3601SOL    HW222263   0.361   2.063   7.536 -0.4226 -1.5291 -0.2694
 3602SOL     OW22264   4.281   2.995   4.956 -0.3164 -0.1432 -0.2645
 3602SOL    HW122265   4.294   2.958   5.043 -2.3118 -1.5546 -0.5668
 3602SOL    HW222266   4.192   3.027   4.968  0.8249  1.9302  2.4893
 3603SOL     OW22267   3.243   2.107   8.046  0.1759 -0.0483 -0.4555
 3603SOL    HW122268   3.178   2.159   8.000  1.6336  1.6796 -0.5707
 3603SOL    HW222269   3.188   2.031   8.063 -0.8657  0.9274  0.5027
 3604SOL     OW22270   4.368   2.116   4.191 -0.4677 -0.0023  0.4972
 3604SOL    HW122271   4.285   2.073   4.206  0.1184 -0.4811  2.2826
 3604SOL    HW222272   4.433   2.059   4.232  0.1611 -0.5454 -1.2328
 3605SOL     OW22273   1.549   0.177   7.564 -0.5458 -0.0044  0.9861
 3605SOL    HW122274   1.605   0.203   7.491  1.5080 -2.5060  1.6570
 3605SOL    HW222275   1.614   0.180   7.635  1.2513 -1.4496 -0.6022
 3606SOL     OW22276   3.194   3.987  13.945 -0.3413  0.6563  0.0698
 3606SOL    HW122277   3.117   4.040  13.964 -0.3684  0.6026  0.1114
 3606SOL    HW222278   3.178   3.910  14.000  0.6796  0.7533  0.4891
 3607SOL     OW22279   3.191   0.627   3.350  0.0859  0.2833  0.1330
 3607SOL    HW122280   3.150   0.692   3.293  0.1367  0.7386  0.6162
 3607SOL    HW222281   3.246   0.585   3.284  0.8086  1.5519 -0.0697
 3608SOL     OW22282   1.621   0.479  15.680  0.2142 -0.1546  0.0085
 3608SOL    HW122283   1.529   0.480  15.656  0.3265  1.1421 -0.3279
 3608SOL    HW222284   1.616   0.463  15.775 -0.8642 -2.2364 -0.3857
 3609SOL     OW22285   3.384   1.835   5.397  0.5567  1.0423 -0.5508
 3609SOL    HW122286   3.363   1.886   5.319  1.0526  0.8411 -0.8166
 3609SOL    HW222287   3.292   1.808   5.404  0.4687  1.7836  1.2596
 3610SOL     OW22288   4.267   3.434   2.642 -0.2478  0.2780 -0.6994
 3610SOL    HW122289   4.215   3.401   2.568 -0.2993 -0.6730 -0.2317
 3610SOL    HW222290   4.348   3.465   2.600 -0.0535  0.5612 -0.1115
 3611SOL     OW22291   0.680   0.264   2.074  0.4797 -0.4818  0.4526
 3611SOL    HW122292   0.612   0.293   2.013 -0.7602 -0.3665  1.8918
 3611SOL    HW222293   0.741   0.231   2.009  0.7170  0.5185  0.1610
 3612SOL     OW22294   1.438   3.477   6.891  0.6720 -0.3964  0.3624
 3612SOL    HW122295   1.436   3.573   6.887  1.9770 -0.4600 -1.6878
 3612SOL    HW222296   1.365   3.453   6.835  2.0015 -0.3026 -1.4150
 3613SOL     OW22297   3.394   0.437   0.614  0.2080  0.0222  0.4368
 3613SOL    HW122298   3.376   0.393   0.697  0.4297  1.1298  1.0706
 3613SOL    HW222299   3.311   0.435   0.566 -0.3388 -1.8298  1.4559
 3614SOL     OW22300   1.477   1.720   8.783  0.3944 -0.2217  0.2366
 3614SOL    HW122301   1.472   1.625   8.773  0.6672 -0.0949 -1.0768
 3614SOL    HW222302   1.427   1.748   8.707  0.3151  3.0504  1.4712
 3615SOL     OW22303   3.567   1.280   1.217  0.2943 -0.5080 -0.3156
 3615SOL    HW122304   3.568   1.299   1.123 -0.4136  0.8869 -0.0445
 3615SOL    HW222305   3.643   1.222   1.220  0.8989  0.2436 -1.0196
 3616SOL     OW22306   2.245   0.044  11.373  0.0301 -0.5994  0.5279
 3616SOL    HW122307   2.255   4.692  11.312 -1.6283 -0.2476 -0.1866
 3616SOL    HW222308   2.150   0.044  11.387  0.2784 -0.3971  2.1314
 3617SOL     OW22309   2.284   3.584  16.633  0.2300 -0.3702 -0.1875
 3617SOL    HW122310   2.292   3.676  16.606  0.9368 -1.2076 -2.8838
 3617SOL    HW222311   2.202   3.554  16.593  0.1973  1.2872 -1.3797
 3618SOL     OW22312   2.317   2.125   4.701 -0.1099  0.4105  0.3809
 3618SOL    HW122313   2.232   2.169   4.709  0.5100  1.5940  0.5735
 3618SOL    HW222314   2.360   2.159   4.780  2.1925  1.5627 -1.3691
 3619SOL     OW22315   0.835   2.281  15.856 -0.1155  0.0585 -0.1074
 3619SOL    HW122316   0.840   2.278  15.952  1.4605  2.3302 -0.1042
 3619SOL    HW222317   0.819   2.190  15.830  2.4357  0.1423 -2.0230
 3620SOL     OW22318   1.888   1.811   9.103  0.3304 -0.3421 -0.2733
 3620SOL    HW122319   1.843   1.815   9.188 -0.8613 -1.6249 -0.8411
 3620SOL    HW222320   1.980   1.825   9.126  0.3620  0.6627 -1.0347
 3621SOL     OW22321   2.307   0.068   9.020 -0.7268 -0.1446 -0.0085
 3621SOL    HW122322   2.383   0.117   8.988  1.1532 -1.2561  2.7405
 3621SOL    HW222323   2.323   4.708   8.974 -2.7664 -0.0883 -0.8209
 3622SOL     OW22324   2.529   0.438  10.842  0.6793  0.2839 -0.5855
 3622SOL    HW122325   2.569   0.379  10.906 -2.6672  0.1674  1.3937
 3622SOL    HW222326   2.500   0.511  10.897 -0.2470 -0.2089 -0.4320
 3623SOL     OW22327   1.422   2.998   4.126  0.5766 -0.1486  0.1135
 3623SOL    HW122328   1.492   3.035   4.073 -0.6390  0.6122 -0.9760
 3623SOL    HW222329   1.379   3.077   4.158  1.0470  0.0369  0.2776
 3624SOL     OW22330   0.668   2.589   7.616  0.7498  0.3823  0.3220
 3624SOL    HW122331   0.617   2.632   7.684  1.1255 -2.1586  2.2111
 3624SOL    HW222332   0.661   2.495   7.630 -1.2221  0.7285  1.6320
 3625SOL     OW22333   0.455   1.915  17.509 -0.1826  0.0608  0.5685
 3625SOL    HW122334   0.459   1.846  17.442  0.1086  0.5922  0.0384
 3625SOL    HW222335   0.463   1.859  17.587  1.7983  1.3805  1.3153
 3626SOL     OW22336   2.901   2.285   7.929  0.4018  0.0728  0.5011
 3626SOL    HW122337   2.811   2.268   7.955  0.9881 -2.1814  1.1006
 3626SOL    HW222338   2.923   2.360   7.984 -0.7409  0.9859 -0.2979
 3627SOL     OW22339   3.780   4.700   6.065  0.7312  0.2096  0.3864
 3627SOL    HW122340   3.873   4.681   6.054  0.9805  0.9556  1.2059
 3627SOL    HW222341   3.778   0.039   5.990 -1.3323  0.4656  0.6312
 3628SOL     OW22342   0.162   2.040  13.824  0.3412 -0.2513 -0.0861
 3628SOL    HW122343   0.163   2.124  13.778 -0.9908 -0.1271  0.1079
 3628SOL    HW222344   0.090   1.988  13.788 -2.0564  1.5848  2.1079
 3629SOL     OW22345   0.449   4.277  15.583 -0.3433  0.3606  0.6400
 3629SOL    HW122346   0.522   4.338  15.571  0.0956  0.1273  2.1109
 3629SOL    HW222347   0.504   4.202  15.606 -0.0551  0.5503  0.5712
 3630SOL     OW22348   0.612   3.776   9.509 -0.5278 -0.1864 -0.2838
 3630SOL    HW122349   0.691   3.818   9.543  0.1516  0.1078 -2.2596
 3630SOL    HW222350   0.553   3.846   9.482 -1.0766 -0.5633 -0.0725
 3631SOL     OW22351   4.680   0.416   2.815 -0.0475  0.0910  0.2297
 3631SOL    HW122352   0.034   0.389   2.762  0.6616  0.0413  1.2811
 3631SOL    HW222353   4.617   0.445   2.749 -1.3495 -1.0048  0.9922
 3632SOL     OW22354   1.388   4.008   8.737 -0.0916 -0.2851  0.4799
 3632SOL    HW122355   1.387   4.012   8.832 -0.8258 -2.5666  0.5749
 3632SOL    HW222356   1.303   4.050   8.720 -0.8758 -2.1600 -0.2810
 3633SOL     OW22357   3.713   1.946   3.486  0.0619 -0.0764 -0.1294
 3633SOL    HW122358   3.649   1.934   3.416  1.7688  0.4319 -1.7642
 3633SOL    HW222359   3.757   2.024   3.453  0.4510 -0.6803 -1.0122
 3634SOL     OW22360   1.532   1.449   8.783 -0.5180 -0.7105 -0.4548
 3634SOL    HW122361   1.575   1.399   8.714 -2.2408 -1.1992 -1.1638
 3634SOL    HW222362   1.603   1.456   8.847  1.9897  0.1155 -3.3165
 3635SOL     OW22363   2.232   2.606   6.734 -0.0295 -0.5806  0.0998
 3635SOL    HW122364   2.145   2.627   6.768 -0.1900 -0.3558 -0.4659
 3635SOL    HW222365   2.218   2.600   6.640  0.2536  0.0430  0.0172
 3636SOL     OW22366   2.245   2.330   4.180  0.2084 -0.0297  0.3406
 3636SOL    HW122367   2.259   2.355   4.089  1.7688  0.5551  0.7301
 3636SOL    HW222368   2.331   2.358   4.212  0.5076 -1.6729  0.9586
 3637SOL     OW22369   3.226   4.120   4.331  0.3510 -0.6437  0.2177
 3637SOL    HW122370   3.222   4.207   4.292  0.1852 -1.6991 -2.0791
 3637SOL    HW222371   3.283   4.135   4.408  0.2583 -2.3319  0.6153
 3638SOL     OW22372   3.382   3.893   5.457  0.5664  0.5849 -0.3319
 3638SOL    HW122373   3.398   3.849   5.540  0.0391  0.8350 -0.0980
 3638SOL    HW222374   3.465   3.939   5.447  1.0451 -0.1455  0.3107
 3639SOL     OW22375   3.754   1.978   8.212 -0.1146  0.3260  0.1324
 3639SOL    HW122376   3.730   1.954   8.122  2.1379  1.2237 -0.7079
 3639SOL    HW222377   3.727   1.900   8.259  0.0267 -0.0679 -0.4461
 3640SOL     OW22378   4.247   1.096   4.260 -0.4856  0.4846  0.1615
 3640SOL    HW122379   4.256   1.187   4.230  0.9748  0.0770 -0.6011
 3640SOL    HW222380   4.156   1.090   4.289  0.0348  1.3141  1.9262
 3641SOL     OW22381   0.910   1.941   8.526 -0.5721 -0.3768  0.5461
 3641SOL    HW122382   0.858   1.860   8.523 -1.4782  0.2403 -0.2567
 3641SOL    HW222383   0.913   1.946   8.622 -0.7295 -1.5019  0.6200
 3642SOL     OW22384   2.295   0.163  14.138 -0.5156  0.3317 -0.0194
 3642SOL    HW122385   2.246   0.097  14.089  0.9034 -1.0241  0.3996
 3642SOL    HW222386   2.224   0.228  14.141 -0.1799  0.6859  0.3203
 3643SOL     OW22387   2.234   0.337   3.510 -0.3084  0.0638 -0.5566
 3643SOL    HW122388   2.282   0.386   3.444 -1.8725 -2.5586 -3.6162
 3643SOL    HW222389   2.148   0.326   3.469 -0.4713 -0.5161 -0.0659
 3644SOL     OW22390   2.512   1.012   7.661 -0.1304 -0.3306 -0.2039
 3644SOL    HW122391   2.419   1.019   7.639  0.1447  1.5389 -0.7426
 3644SOL    HW222392   2.515   0.937   7.720  0.7241 -0.4464 -0.4021
 3645SOL     OW22393   2.589   3.229  11.677 -0.4324  0.5652  0.1915
 3645SOL    HW122394   2.656   3.222  11.609  0.3561  0.5710  0.9645
 3645SOL    HW222395   2.601   3.145  11.721  2.9019  1.5866  1.2657
 3646SOL     OW22396   2.624   3.861   6.178  0.2832 -0.4676  0.4584
 3646SOL    HW122397   2.573   3.781   6.194 -0.0778 -0.6634 -1.6499
 3646SOL    HW222398   2.559   3.924   6.208  0.7934 -0.4789  1.5806
 3647SOL     OW22399   0.625   1.717   4.083 -0.5139 -0.0102  0.6217
 3647SOL    HW122400   0.586   1.631   4.100 -2.1065  0.2334 -1.8137
 3647SOL    HW222401   0.557   1.782   4.099  0.8937  1.6022  0.0365
 3648SOL     OW22402   2.865   4.169   0.887 -0.0641 -0.1159 -0.3148
 3648SOL    HW122403   2.895   4.239   0.945 -0.2436  0.7618 -1.2862
 3648SOL    HW222404   2.951   4.140   0.855 -0.1127  0.4516 -0.9520
 3649SOL     OW22405   1.316   1.775   8.546  0.0040  0.2797 -0.7092
 3649SOL    HW122406   1.259   1.852   8.553  0.3536  0.3889  0.9178
 3649SOL    HW222407   1.269   1.731   8.475 -0.6441 -0.7977  0.3942
 3650SOL     OW22408   1.735   2.022   9.903 -0.0376 -0.3213 -0.4636
 3650SOL    HW122409   1.798   1.971   9.954 -0.4407 -1.5572 -1.1943
 3650SOL    HW222410   1.710   2.096   9.958 -1.8763 -0.1849 -1.5096
 3651SOL     OW22411   2.050   2.580   4.058 -0.4504  0.2659  0.0393
 3651SOL    HW122412   2.138   2.543   4.044  0.2071  1.3072  1.4397
 3651SOL    HW222413   2.041   2.630   3.977  0.8025  2.0559  0.9980
 3652SOL     OW22414   3.693   4.392   5.889 -0.2942 -1.0592  0.0744
 3652SOL    HW122415   3.763   4.381   5.953  2.6985  1.6548 -2.7191
 3652SOL    HW222416   3.638   4.462   5.925  1.2913  0.6725 -0.8798
 3653SOL     OW22417   0.857   0.827  16.701  0.3157 -0.0768 -0.2881
 3653SOL    HW122418   0.826   0.905  16.747  1.1229 -0.5025  0.9941
 3653SOL    HW222419   0.930   0.792  16.752  0.3248  1.7910  0.9673
 3654SOL     OW22420   1.985   3.958  11.892 -0.0109 -0.1372  0.1348
 3654SOL    HW122421   2.009   3.925  11.806  0.9507  0.5758  0.1206
 3654SOL    HW222422   1.924   4.025  11.862  1.6032  0.4254 -1.9533
 3655SOL     OW22423   2.442   3.753  10.833  0.2043  0.0734  0.2372
 3655SOL    HW122424   2.516   3.753  10.893 -0.5102  1.2644  1.1164
 3655SOL    HW222425   2.431   3.843  10.804 -0.6655 -0.0775  0.0984
 3656SOL     OW22426   0.659   0.199  16.010 -0.0453 -0.2475 -0.1953
 3656SOL    HW122427   0.716   0.177  15.936 -0.0409  0.2806 -0.3479
 3656SOL    HW222428   0.646   0.113  16.050  2.0577 -1.0951 -1.3111
 3657SOL     OW22429   3.938   1.627   6.737 -0.0150  0.3533 -0.0389
 3657SOL    HW122430   3.880   1.579   6.678  1.1887 -1.4536  0.2519
 3657SOL    HW222431   3.892   1.710   6.748 -3.5969 -1.1870 -3.4881
 3658SOL     OW22432   3.866   1.423  16.967 -0.2013  0.2531  0.0348
 3658SOL    HW122433   3.855   1.417  17.062 -0.0001 -2.5716 -0.1359
 3658SOL    HW222434   3.781   1.458  16.939 -1.2729 -0.2515  2.6687
 3659SOL     OW22435   3.806   2.242   0.093 -0.4954 -0.0077 -0.1618
 3659SOL    HW122436   3.773   2.221   0.180 -0.4380  2.0427  0.3570
 3659SOL    HW222437   3.872   2.308   0.116 -1.3639  0.9275 -0.3461
 3660SOL     OW22438   0.989   0.609   6.380  0.1020  0.0825  0.1074
 3660SOL    HW122439   0.907   0.601   6.331  0.0569 -1.1057  0.3736
 3660SOL    HW222440   0.988   0.704   6.394  0.0792  0.4178 -2.1769
 3661SOL     OW22441   0.965   0.996   7.229 -0.1188  0.4257  0.0503
 3661SOL    HW122442   0.873   1.023   7.227  0.5321  2.2318 -3.7606
 3661SOL    HW222443   0.961   0.985   7.324 -3.3639 -2.7702 -0.4519
 3662SOL     OW22444   3.419   4.360   9.206 -0.3092 -0.2329 -0.1349
 3662SOL    HW122445   3.499   4.323   9.167 -1.2132 -2.4186  0.0763
 3662SOL    HW222446   3.442   4.356   9.299 -0.4362 -4.2817 -0.2728
 3663SOL     OW22447   3.533   3.360  13.268 -0.4752 -0.1526  0.0256
 3663SOL    HW122448   3.526   3.331  13.177 -0.8025  0.7131 -0.2227
 3663SOL    HW222449   3.611   3.414  13.255 -1.5325  1.0323 -1.3794
 3664SOL     OW22450   3.802   0.919   5.334  0.1320 -0.2810  0.5264
 3664SOL    HW122451   3.868   0.987   5.347  0.1800 -0.2180 -0.0311
 3664SOL    HW222452   3.734   0.965   5.383  1.7521 -0.7119  3.2100
 3665SOL     OW22453   0.120   0.288   2.055 -0.3454  0.1879 -0.1037
 3665SOL    HW122454   0.108   0.199   2.088  0.2065 -0.8516 -2.7323
 3665SOL    HW222455   0.082   0.274   1.969 -0.5285 -0.6949  0.1212
 3666SOL     OW22456   4.127   0.551   1.619 -0.1682 -0.2511  0.4974
 3666SOL    HW122457   4.054   0.561   1.558  0.6597  1.8281 -0.1684
 3666SOL    HW222458   4.150   0.459   1.614  2.0659  0.3270  0.0484
 3667SOL     OW22459   3.992   3.528   3.452 -0.1881  0.3345 -0.1203
 3667SOL    HW122460   3.975   3.559   3.541  2.6442 -0.9901  0.8814
 3667SOL    HW222461   4.070   3.584   3.442  1.0352 -1.3730 -0.2373
 3668SOL     OW22462   1.314   3.422   3.894 -0.3538 -0.4598 -0.3785
 3668SOL    HW122463   1.374   3.411   3.820 -0.0943 -2.7453  0.1567
 3668SOL    HW222464   1.251   3.353   3.872 -1.3419  1.0219 -2.2493
 3669SOL     OW22465   3.614   1.384   6.244 -0.1990  0.2943 -0.5009
 3669SOL    HW122466   3.583   1.369   6.333 -1.6048 -0.5981 -1.1220
 3669SOL    HW222467   3.529   1.405   6.205  0.9283  1.7259 -2.2090
 3670SOL     OW22468   2.794   3.366  15.446  0.4815 -0.0004 -0.3965
 3670SOL    HW122469   2.706   3.374  15.410  0.8553 -0.3412 -1.3784
 3670SOL    HW222470   2.775   3.370  15.540  2.4110 -0.5171  0.0016
 3671SOL     OW22471   3.262   2.531   0.916  0.2678 -0.1820 -0.2876
 3671SOL    HW122472   3.259   2.573   1.003 -0.4916  0.6931 -0.7426
 3671SOL    HW222473   3.178   2.559   0.881 -0.4801 -0.7281  1.0499
 3672SOL     OW22474   2.561   2.695   7.543 -0.4018  0.6515 -0.1522
 3672SOL    HW122475   2.468   2.708   7.524 -0.9019 -2.4070  0.1633
 3672SOL    HW222476   2.581   2.602   7.538 -0.6985  0.6021 -0.4322
 3673SOL     OW22477   4.618   2.414   0.070  0.3035  0.1307  0.0240
 3673SOL    HW122478   4.667   2.334   0.091  1.2277  0.6647 -0.0844
 3673SOL    HW222479   4.576   2.436   0.153 -2.8049 -0.7225 -1.3247
 3674SOL     OW22480   3.991   3.071  15.763 -0.0410 -0.4015  0.3105
 3674SOL    HW122481   3.994   3.044  15.671  2.1841  0.4485  0.1362
 3674SOL    HW222482   3.951   3.156  15.746  0.9529  0.2429  1.2053
 3675SOL     OW22483   3.200   1.891   3.817 -0.0215  0.9543 -0.3466
 3675SOL    HW122484   3.205   1.924   3.727 -1.6972  2.6176  0.1757
 3675SOL    HW222485   3.291   1.888   3.845 -0.3267  0.0756  0.5640
 3676SOL     OW22486   2.214   0.085   5.405 -0.1017 -0.5515  0.1311
 3676SOL    HW122487   2.253   0.051   5.486 -1.5065 -0.3553  0.8933
 3676SOL    HW222488   2.125   0.103   5.434  1.0304  0.5845  2.9658
 3677SOL     OW22489   3.223   3.021   9.121  0.0130 -0.3250 -0.0999
 3677SOL    HW122490   3.187   3.107   9.101  0.3084 -0.4347 -1.1433
 3677SOL    HW222491   3.223   3.035   9.215  1.5683 -0.8435 -0.0092
 3678SOL     OW22492   0.761   3.361   3.924 -0.5145 -0.0749 -0.2575
 3678SOL    HW122493   0.755   3.272   3.959 -0.7504  0.1547  0.2656
 3678SOL    HW222494   0.846   3.354   3.880  0.9688 -1.3721  2.8078
 3679SOL     OW22495   3.883   1.048   2.821 -0.8520 -0.0522 -0.2388
 3679SOL    HW122496   3.806   1.053   2.764 -0.4808 -0.6302 -0.8009
 3679SOL    HW222497   3.946   1.068   2.751  1.7260  2.0265  2.7350
 3680SOL     OW22498   2.960   2.306  11.613  0.3095  0.8620 -0.2893
 3680SOL    HW122499   2.982   2.212  11.609 -1.8603  0.2347  2.5111
 3680SOL    HW222500   2.900   2.301  11.687 -1.3430  1.2922 -1.6175
 3681SOL     OW22501   0.095   2.678   8.190 -0.4737  0.4262 -0.1225
 3681SOL    HW122502   0.151   2.748   8.158 -2.7288  2.8673  1.2131
 3681SOL    HW222503   0.053   2.727   8.261  1.7301 -0.2125  1.6369
 3682SOL     OW22504   3.951   0.029   5.171 -0.7877  0.2340 -0.1901
 3682SOL    HW122505   3.967   0.051   5.263 -2.0045  0.7554 -0.1083
 3682SOL    HW222506   3.880   0.091   5.154 -1.2455 -0.5852 -1.2919
 3683SOL     OW22507   0.261   1.991  16.384 -0.3449 -0.2443 -0.3322
 3683SOL    HW122508   0.267   1.896  16.388  0.0316 -0.3318 -2.9146
 3683SOL    HW222509   0.267   2.024  16.474  1.0261  1.2327 -0.9687
 3684SOL     OW22510   3.851   4.362   7.705 -0.0999 -0.6953  0.4053
 3684SOL    HW122511   3.922   4.390   7.762  0.4272  1.6057 -1.3383
 3684SOL    HW222512   3.819   4.443   7.664  0.4168 -0.8038 -0.2025
 3685SOL     OW22513   0.954   2.333   4.180 -0.3119  0.2495 -0.3429
 3685SOL    HW122514   0.907   2.397   4.234  1.5352 -1.1583  2.9262
 3685SOL    HW222515   1.010   2.304   4.252  1.0715  1.6696 -0.8329
 3686SOL     OW22516   1.370   2.799   8.718 -0.1161 -0.3634  0.2496
 3686SOL    HW122517   1.447   2.743   8.714  0.8203  1.0637 -1.4029
 3686SOL    HW222518   1.312   2.735   8.760  0.2090 -1.2703 -0.6658
 3687SOL     OW22519   4.609   1.878  12.941  0.3441  0.0302  0.3152
 3687SOL    HW122520   4.543   1.947  12.936 -1.4765 -1.6208  1.2706
 3687SOL    HW222521   4.588   1.819  12.868  0.6330 -2.1046  1.9567
 3688SOL     OW22522   3.064   2.330   8.580 -0.3921 -0.4817 -0.6607
 3688SOL    HW122523   3.058   2.425   8.580  1.1341 -0.3838 -1.7814
 3688SOL    HW222524   3.089   2.318   8.488 -0.0449  0.8978 -0.7393
 3689SOL     OW22525   2.720   1.605   5.572 -0.1251 -0.1223 -0.0297
 3689SOL    HW122526   2.697   1.572   5.659 -1.3010 -1.8298 -0.9687
 3689SOL    HW222527   2.663   1.551   5.516  1.6752 -0.5567 -1.4370
 3690SOL     OW22528   0.910   1.975   3.399  0.4771 -0.1358  0.5016
 3690SOL    HW122529   0.841   1.913   3.378  0.4515  0.7972 -2.1657
 3690SOL    HW222530   0.866   2.029   3.465 -0.3295 -0.1274 -0.0405
 3691SOL     OW22531   3.264   4.687   8.547  0.5394 -0.3069 -0.4165
 3691SOL    HW122532   3.192   4.700   8.607  0.9342 -1.0403  0.2150
 3691SOL    HW222533   3.331   0.019   8.591 -1.7561  1.1847  1.2656
 3692SOL     OW22534   1.886   2.081   6.918  0.2038 -0.1420  0.2349
 3692SOL    HW122535   1.879   2.172   6.890  1.1009 -0.0055  0.4534
 3692SOL    HW222536   1.805   2.063   6.967  0.5075  0.9632  1.1565
 3693SOL     OW22537   4.239   4.448  15.711  0.5093  0.1169  0.1252
 3693SOL    HW122538   4.221   4.535  15.746 -0.7922 -0.0376 -0.1869
 3693SOL    HW222539   4.233   4.465  15.617 -0.3506  1.1794  0.3862
 3694SOL     OW22540   3.692   3.357   5.407  0.1458  0.1545 -0.0235
 3694SOL    HW122541   3.642   3.291   5.455 -1.0244  1.9780  1.2563
 3694SOL    HW222542   3.628   3.426   5.389 -0.0583  0.0923  0.4702
 3695SOL     OW22543   3.004   3.686   5.580  0.2024 -0.2776  0.0010
 3695SOL    HW122544   2.961   3.771   5.575 -0.4481 -0.5384  1.1186
 3695SOL    HW222545   2.974   3.666   5.669  2.3926  1.2961  1.1005
 3696SOL     OW22546   1.862   2.004  14.345 -0.3009  0.2700 -0.0830
 3696SOL    HW122547   1.904   1.982  14.262  2.8936 -3.0041  2.3746
 3696SOL    HW222548   1.796   1.935  14.354  0.4969 -0.5317 -0.4328
 3697SOL     OW22549   2.172   4.096   2.233  0.2368  0.5997  0.1786
 3697SOL    HW122550   2.125   4.025   2.277  1.1812 -0.2869 -0.2121
 3697SOL    HW222551   2.233   4.047   2.177 -0.3185 -2.1986  2.0173
 3698SOL     OW22552   1.656   2.427   5.573  1.1325 -0.1965 -0.1473
 3698SOL    HW122553   1.714   2.497   5.603  0.1026 -1.0756  3.9118
 3698SOL    HW222554   1.710   2.351   5.595  0.1809 -0.8431 -0.0724
 3699SOL     OW22555   2.365   0.371   5.132 -0.2311  0.2398  0.1349
 3699SOL    HW122556   2.292   0.310   5.119 -0.4810  0.5078  0.2600
 3699SOL    HW222557   2.340   0.444   5.075  1.2309  0.0081 -0.8015
 3700SOL     OW22558   4.542   0.632   8.470 -0.6179  0.3019 -0.5166
 3700SOL    HW122559   4.513   0.720   8.493 -0.6708  0.3426 -0.7436
 3700SOL    HW222560   4.618   0.621   8.527  1.5839  0.0869 -3.5395
 3701SOL     OW22561   2.940   3.176   2.962 -0.0104  0.6839  0.0505
 3701SOL    HW122562   2.912   3.087   2.984  0.4029  0.0823 -1.8985
 3701SOL    HW222563   2.883   3.219   3.027 -0.4529 -2.6408  1.8299
 3702SOL     OW22564   3.445   3.440   5.177 -0.3158 -0.2197 -0.2670
 3702SOL    HW122565   3.432   3.448   5.083 -4.1500  0.4673  0.3266
 3702SOL    HW222566   3.354   3.435   5.206 -0.8053  0.9920 -1.6440
 3703SOL     OW22567   0.928   1.595   7.573 -0.5224 -0.3578 -0.0616
 3703SOL    HW122568   0.847   1.545   7.564 -2.1818  2.3933 -0.3154
 3703SOL    HW222569   0.892   1.683   7.578  0.1738 -0.1236  0.8182
 3704SOL     OW22570   1.502   2.672  10.522  0.0627 -0.4394 -0.1683
 3704SOL    HW122571   1.516   2.673  10.427  0.4904  1.2179 -0.0842
 3704SOL    HW222572   1.483   2.765  10.532  0.2566 -0.5020  0.8192
 3705SOL     OW22573   0.502   3.626   6.798  0.1460 -0.1613 -0.2432
 3705SOL    HW122574   0.577   3.638   6.740 -1.6661  0.7975 -2.4475
 3705SOL    HW222575   0.517   3.692   6.866  2.6848  0.5572 -1.5192
 3706SOL     OW22576   4.526   1.316   6.392  0.5395  0.3607  0.0787
 3706SOL    HW122577   4.536   1.395   6.338  4.0162 -0.7631 -0.9061
 3706SOL    HW222578   4.442   1.294   6.351 -0.0166  0.7277  1.0129
 3707SOL     OW22579   3.817   0.280   6.836  0.3552 -0.2647 -0.0223
 3707SOL    HW122580   3.782   0.282   6.747  0.6006  2.0675 -0.0679
 3707SOL    HW222581   3.882   0.210   6.827 -0.1118 -0.7150  0.1121
 3708SOL     OW22582   0.462   3.339   8.404  0.1023  0.0310  0.5649
 3708SOL    HW122583   0.452   3.295   8.488  1.0907 -0.8942  0.2011
 3708SOL    HW222584   0.514   3.415   8.429 -0.6767  0.6569  0.2976
 3709SOL     OW22585   2.255   3.775   7.590  0.2539 -0.2001  0.1951
 3709SOL    HW122586   2.344   3.741   7.598 -0.2702 -0.9797  2.5718
 3709SOL    HW222587   2.221   3.697   7.547 -1.5302 -1.4967  3.9131
 3710SOL     OW22588   0.794   2.845  17.433  0.1556 -0.2378 -0.6296
 3710SOL    HW122589   0.758   2.781  17.372  1.6264  0.3507 -2.1103
 3710SOL    HW222590   0.740   2.923  17.421  1.2355  1.0277  2.9429
 3711SOL     OW22591   2.215   3.841   8.722  0.5336 -0.1612 -0.2486
 3711SOL    HW122592   2.271   3.765   8.709 -1.2113 -1.1126 -2.2611
 3711SOL    HW222593   2.232   3.873   8.810 -0.9278  1.0885 -0.4107
 3712SOL     OW22594   4.134   0.559   8.357  0.4052 -0.2298  0.2220
 3712SOL    HW122595   4.217   0.515   8.341  0.6146 -0.2308  1.2956
 3712SOL    HW222596   4.079   0.483   8.376 -0.6742  0.4522 -0.1226
 3713SOL     OW22597   4.601   0.611  13.043 -0.0339 -0.5477 -0.2812
 3713SOL    HW122598   4.560   0.580  12.963  0.3709 -2.1018  0.1136
 3713SOL    HW222599   4.694   0.603  13.023  0.2244  0.4858  0.5189
 3714SOL     OW22600   0.982   1.606   2.497  0.0467  0.7817  0.5270
 3714SOL    HW122601   0.966   1.698   2.473  1.8680  1.8508  3.3507
 3714SOL    HW222602   0.895   1.583   2.531  1.3842 -3.5694  1.0096
 3715SOL     OW22603   1.942   4.342   7.746 -0.0881  0.1004 -0.3610
 3715SOL    HW122604   1.984   4.322   7.662 -0.6388 -1.2829 -0.3143
 3715SOL    HW222605   2.003   4.304   7.809 -0.3890 -1.0259 -0.7534
 3716SOL     OW22606   2.978   0.073   2.452  0.2509  0.0810  0.0582
 3716SOL    HW122607   3.010   0.050   2.540 -0.4665 -1.2459 -0.0325
 3716SOL    HW222608   2.884   0.074   2.469  0.4564 -1.3912  1.3438
 3717SOL     OW22609   3.871   0.430  10.478  1.3855 -0.4111 -0.2758
 3717SOL    HW122610   3.904   0.507  10.432 -3.4380  1.1870 -1.1514
 3717SOL    HW222611   3.791   0.421  10.426  1.4259 -2.3347 -0.0008
 3718SOL     OW22612   3.299   1.971   4.511  0.3280 -0.6186 -0.2410
 3718SOL    HW122613   3.225   1.930   4.467 -0.9648  1.8590 -0.3543
 3718SOL    HW222614   3.321   2.044   4.453 -1.8329 -0.1366 -0.4433
 3719SOL     OW22615   2.991   3.826  16.911  0.5436 -0.2908  0.1141
 3719SOL    HW122616   2.933   3.786  16.975  0.5088 -2.8875 -1.5331
 3719SOL    HW222617   2.990   3.920  16.930  2.5871 -0.2548  0.1037
 3720SOL     OW22618   4.640   2.129  16.236  0.1961  0.5369  0.7824
 3720SOL    HW122619   4.614   2.179  16.314  0.6532  1.0902  0.5775
 3720SOL    HW222620   0.013   2.122  16.253 -0.0580 -0.9584  1.6464
 3721SOL     OW22621   3.780   2.097  12.831  0.1539 -0.0761 -0.9274
 3721SOL    HW122622   3.847   2.031  12.850 -0.8012 -0.5630  0.7020
 3721SOL    HW222623   3.807   2.176  12.878  1.0851 -0.1183 -1.3898
 3722SOL     OW22624   3.592   1.485  11.125 -0.2572 -0.2552 -0.3890
 3722SOL    HW122625   3.597   1.435  11.207 -0.7643  1.2984  0.5986
 3722SOL    HW222626   3.672   1.536  11.136 -0.0611 -0.1875 -2.1972
 3723SOL     OW22627   2.257   3.299   8.274 -0.1807  0.7971 -0.5584
 3723SOL    HW122628   2.264   3.239   8.200 -0.8643  0.3862 -0.2883
 3723SOL    HW222629   2.188   3.361   8.249 -1.6711 -0.9504 -0.7726
 3724SOL     OW22630   0.968   1.838   4.997 -0.3563  0.1307 -0.5254
 3724SOL    HW122631   1.016   1.842   4.914  0.0491  0.4810 -0.2752
 3724SOL    HW222632   1.020   1.910   5.033  0.1548 -0.8780  0.7520
 3725SOL     OW22633   2.815   1.157   4.895  0.3340  0.9245 -0.2603
 3725SOL    HW122634   2.901   1.179   4.931  1.9409 -1.5828 -2.5553
 3725SOL    HW222635   2.777   1.243   4.877 -1.2800  0.4709  1.0470
 3726SOL     OW22636   2.218   3.054   4.861 -0.5024  0.4568 -0.4456
 3726SOL    HW122637   2.235   2.996   4.936  1.3362  3.3127  1.3479
 3726SOL    HW222638   2.155   2.999   4.814 -0.8932 -1.5584  2.4563
 3727SOL     OW22639   3.052   3.482   7.496  0.3167  0.6465 -0.0045
 3727SOL    HW122640   3.020   3.510   7.582 -0.2951 -0.1256  0.0165
 3727SOL    HW222641   3.146   3.501   7.500  0.2165  0.8321  1.8236
 3728SOL     OW22642   0.642   1.299   3.849 -0.8044 -0.3409  0.1194
 3728SOL    HW122643   0.663   1.235   3.780 -0.4692 -0.0984 -0.0031
 3728SOL    HW222644   0.731   1.328   3.872 -0.9978  0.8061 -0.6315
 3729SOL     OW22645   2.297   3.724   3.889 -0.2958 -0.0653  0.1379
 3729SOL    HW122646   2.280   3.632   3.869 -1.8992  0.3327 -0.3699
 3729SOL    HW222647   2.221   3.765   3.848 -2.0428 -1.6028  1.8350
 3730SOL     OW22648   2.947   3.874  10.587  0.6492 -0.2733  0.5582
 3730SOL    HW122649   2.943   3.931  10.664 -1.4591 -0.5564  0.6484
 3730SOL    HW222650   2.934   3.938  10.517  0.5978  0.1487  0.9524
 3731SOL     OW22651   4.173   4.522   8.847 -0.3767  0.5357 -0.7387
 3731SOL    HW122652   4.256   4.490   8.812 -0.2510  1.2919 -1.1202
 3731SOL    HW222653   4.116   4.448   8.870  3.4910 -2.3825 -0.6521
 3732SOL     OW22654   2.881   0.031   0.605 -0.1614 -0.5027  0.2618
 3732SOL    HW122655   2.906   0.060   0.693  4.4081 -0.8708 -0.9364
 3732SOL    HW222656   2.843   4.669   0.633 -2.4500  0.7129  0.7568
 3733SOL     OW22657   1.422   0.774   9.163  0.1077  0.1289  0.1121
 3733SOL    HW122658   1.390   0.684   9.153 -0.1598  0.2628 -0.2153
 3733SOL    HW222659   1.512   0.751   9.140 -0.9809 -3.4355 -0.5714
 3734SOL     OW22660   2.413   0.047   2.625  0.2151  0.0650 -0.0174
 3734SOL    HW122661   2.376   4.687   2.589 -1.6991  0.0843  1.9227
 3734SOL    HW222662   2.415   0.040   2.720  1.6144 -1.8238 -0.1936
 3735SOL     OW22663   2.696   0.454   3.001 -0.3181  0.2241 -0.0226
 3735SOL    HW122664   2.688   0.485   2.911  0.3453  1.7743  0.4365
 3735SOL    HW222665   2.789   0.432   3.008 -0.4903 -1.1848 -2.1154
 3736SOL     OW22666   2.019   4.614  11.552 -0.0386 -1.4197  0.1168
 3736SOL    HW122667   2.080   4.572  11.491 -1.7522 -1.8057 -1.3088
 3736SOL    HW222668   1.963   4.543  11.582 -1.3568 -0.2934  0.3495
 3737SOL     OW22669   0.734   1.848   3.156 -0.1898 -0.6224 -0.4681
 3737SOL    HW122670   0.649   1.813   3.129  0.0963 -1.7240  0.0634
 3737SOL    HW222671   0.753   1.786   3.226  2.9729  0.1938 -0.6030
 3738SOL     OW22672   1.732   2.936  14.371 -0.0734 -0.5714 -0.4378
 3738SOL    HW122673   1.658   2.889  14.333 -1.7831  2.8631 -1.4391
 3738SOL    HW222674   1.691   3.018  14.399  1.3427 -0.3473  0.9810
 3739SOL     OW22675   0.311   3.444   9.792 -0.0240 -0.6171 -0.2544
 3739SOL    HW122676   0.317   3.384   9.718  0.8151 -0.2626 -0.4793
 3739SOL    HW222677   0.314   3.527   9.746  1.8098 -1.1290 -1.0776
 3740SOL     OW22678   1.356   2.922   8.994 -0.2575 -0.3661 -0.3676
 3740SOL    HW122679   1.340   2.977   8.917  1.1244 -1.8302 -1.7044
 3740SOL    HW222680   1.272   2.929   9.040  0.9750 -0.5662  1.9452
 3741SOL     OW22681   3.865   2.842   5.201 -0.2185 -0.2471  0.3563
 3741SOL    HW122682   3.960   2.837   5.205 -0.1147  0.9365 -0.6422
 3741SOL    HW222683   3.857   2.898   5.278 -0.3784 -1.5622  1.3066
 3742SOL     OW22684   1.364   2.217   0.650 -0.0875 -0.6961 -0.1586
 3742SOL    HW122685   1.274   2.195   0.675 -0.3115  0.4782  0.0541
 3742SOL    HW222686   1.349   2.262   0.567  0.7474 -3.8343 -2.0331
 3743SOL     OW22687   1.220   0.933   5.751 -0.0279 -0.1020  0.3848
 3743SOL    HW122688   1.304   0.905   5.787 -0.0216 -0.6331 -0.0490
 3743SOL    HW222689   1.221   1.021   5.789  0.4471  0.6696 -1.4062
 3744SOL     OW22690   1.272   4.030  10.922 -0.5432 -0.5989 -0.3626
 3744SOL    HW122691   1.284   4.072  11.007 -1.7862  0.8066 -0.8779
 3744SOL    HW222692   1.253   3.938  10.939  2.8090 -0.8606  1.9835
 3745SOL     OW22693   2.671   1.854   5.502 -0.0268 -0.2201  0.0264
 3745SOL    HW122694   2.688   1.769   5.542 -0.8185 -1.3670 -2.0872
 3745SOL    HW222695   2.721   1.837   5.422 -0.9480  1.9891 -1.0171
 3746SOL     OW22696   4.678   1.359   7.450 -0.0787  0.0603  0.0940
 3746SOL    HW122697   4.632   1.442   7.446  1.2593  0.6532 -3.0011
 3746SOL    HW222698   4.629   1.308   7.385 -0.5227 -0.6717  1.0007
 3747SOL     OW22699   2.635   2.986  11.820 -0.0861 -0.4179 -0.0407
 3747SOL    HW122700   2.646   2.892  11.802 -2.6355  0.0202 -3.7562
 3747SOL    HW222701   2.601   2.990  11.910 -1.2383 -0.4834 -0.4749
 3748SOL     OW22702   2.506   4.627  15.819  0.1239  0.2363  0.3361
 3748SOL    HW122703   2.523   4.560  15.885 -2.7596 -1.1698 -0.3508
 3748SOL    HW222704   2.582   4.681  15.841  0.8689  0.0596 -1.7615
 3749SOL     OW22705   0.561   2.696   2.526  0.3520  0.2191  0.1856
 3749SOL    HW122706   0.535   2.702   2.618 -1.3321 -2.8279 -0.1208
 3749SOL    HW222707   0.656   2.708   2.533  0.4175 -0.2113  0.0562
 3750SOL     OW22708   0.467   1.227  13.640  0.5610 -0.1852 -0.5111
 3750SOL    HW122709   0.385   1.274  13.655 -0.4260 -1.8333 -0.7327
 3750SOL    HW222710   0.474   1.223  13.545  0.9997  0.5721 -0.5086
 3751SOL     OW22711   3.665   0.796   5.133 -0.3319  0.1162  0.0641
 3751SOL    HW122712   3.714   0.825   5.209 -0.5767  1.0828 -0.1484
 3751SOL    HW222713   3.718   0.720   5.112  0.0727  0.1747  0.8825
 3752SOL     OW22714   0.262   4.229   5.326 -0.6542  0.3562 -0.1882
 3752SOL    HW122715   0.253   4.240   5.231 -1.8791  1.6021  0.0708
 3752SOL    HW222716   0.206   4.299   5.360 -1.1375  0.4196 -1.1081
 3753SOL     OW22717   4.667   2.655   7.034  0.3185 -0.2891 -0.3950
 3753SOL    HW122718   4.714   2.733   7.004  0.3706 -0.6384 -1.2246
 3753SOL    HW222719   4.594   2.654   6.972  2.2246 -1.2895 -2.6456
 3754SOL     OW22720   4.473   3.460   1.499  0.3039 -0.3694  0.0948
 3754SOL    HW122721   4.401   3.455   1.563  0.1525  0.5532  0.0022
 3754SOL    HW222722   4.477   3.556   1.499 -0.9680 -0.3152 -1.1113
 3755SOL     OW22723   0.544   1.485   4.521 -0.0098  0.6599 -0.1848
 3755SOL    HW122724   0.555   1.531   4.604  1.6467  0.6976 -0.4225
 3755SOL    HW222725   0.636   1.471   4.498 -0.2694 -2.4249  0.6673
 3756SOL     OW22726   0.785   0.017  15.202  0.3412 -0.5132  0.2508
 3756SOL    HW122727   0.794   4.691  15.284 -0.7700  0.2812  0.8188
 3756SOL    HW222728   0.709   0.070  15.225  0.0879 -0.1570 -1.3561
 3757SOL     OW22729   3.687   4.453  11.013 -0.4305 -0.3056 -0.5000
 3757SOL    HW122730   3.748   4.381  11.001 -0.3602 -0.0251 -1.8528
 3757SOL    HW222731   3.673   4.441  11.107  1.5503  1.4527  0.0272
 3758SOL     OW22732   3.005   3.780   4.471 -0.4410  0.3683  0.1217
 3758SOL    HW122733   3.007   3.861   4.420 -1.6803  0.2440 -0.1277
 3758SOL    HW222734   2.924   3.737   4.444 -0.9274  1.5123 -0.2480
 3759SOL     OW22735   2.285   2.960  10.463  0.4897  0.0913 -0.7419
 3759SOL    HW122736   2.279   3.038  10.518  0.5442 -1.6116  1.6911
 3759SOL    HW222737   2.254   2.996  10.381 -0.7682  0.1057 -0.2608
 3760SOL     OW22738   1.750   1.790  14.698 -0.1544 -0.1664  0.3821
 3760SOL    HW122739   1.688   1.725  14.732  0.2053  0.7123  2.6615
 3760SOL    HW222740   1.819   1.738  14.656  0.7550  2.2741 -1.1343
 3761SOL     OW22741   1.204   4.166   7.369  0.0104  0.3063  0.6210
 3761SOL    HW122742   1.185   4.260   7.372  0.3685  0.3671  1.0451
 3761SOL    HW222743   1.130   4.136   7.317  2.0817 -2.6527 -0.5896
 3762SOL     OW22744   1.652   4.701   4.005 -0.3952 -0.2434 -0.2453
 3762SOL    HW122745   1.561   0.007   4.022 -0.2820 -0.8803  1.3792
 3762SOL    HW222746   1.697   0.063   4.022 -1.1723  0.1575 -0.1192
 3763SOL     OW22747   3.813   1.234   2.168 -0.0574  0.3747 -0.0303
 3763SOL    HW122748   3.828   1.255   2.076  0.3489  1.6441  0.3171
 3763SOL    HW222749   3.719   1.250   2.174  0.2696  2.6326 -0.9700
 3764SOL     OW22750   2.533   1.689   2.238 -0.3172 -0.1006 -0.4678
 3764SOL    HW122751   2.628   1.678   2.241 -0.5244 -1.4291  1.0100
 3764SOL    HW222752   2.528   1.745   2.315 -0.0126 -0.7489  0.0155
 3765SOL     OW22753   1.893   3.040   8.236  0.0625 -0.0948 -0.4600
 3765SOL    HW122754   1.848   3.094   8.301  1.3907  1.4526 -0.8412
 3765SOL    HW222755   1.936   2.977   8.293 -2.0262 -2.8651 -1.9695
 3766SOL     OW22756   0.894   3.954   4.646 -0.1633  0.1405  0.1314
 3766SOL    HW122757   0.837   3.994   4.712 -1.1046 -2.5694  0.9506
 3766SOL    HW222758   0.963   4.019   4.644 -0.5534  0.5820  0.9955
 3767SOL     OW22759   1.609   0.705  10.224  0.7647  0.0108 -0.0594
 3767SOL    HW122760   1.583   0.641  10.290  2.9754  0.3988  1.1990
 3767SOL    HW222761   1.523   0.744  10.211  1.2867  0.7040 -1.5358
 3768SOL     OW22762   1.172   0.568   3.766  0.6367 -0.4382 -0.0913
 3768SOL    HW122763   1.222   0.493   3.735  1.5643  0.2575 -0.2669
 3768SOL    HW222764   1.084   0.532   3.778  0.5044 -0.5325 -1.4406
 3769SOL     OW22765   0.551   0.903  14.462 -0.0050  0.6504  0.5261
 3769SOL    HW122766   0.619   0.918  14.397  3.0759 -0.9261  3.3566
 3769SOL    HW222767   0.605   0.913  14.541  1.1823 -0.4859 -0.1351
 3770SOL     OW22768   3.883   3.521   7.584 -0.1456 -0.1191 -0.0791
 3770SOL    HW122769   3.933   3.597   7.611 -1.0747  0.8104 -0.9388
 3770SOL    HW222770   3.892   3.533   7.489  0.4394 -1.1807 -0.1595
 3771SOL     OW22771   1.295   2.298   5.995 -0.1188  0.3858  0.2044
 3771SOL    HW122772   1.314   2.211   6.031  0.3475  0.2836 -0.2805
 3771SOL    HW222773   1.202   2.296   5.975  0.1334 -2.2195 -0.7690
 3772SOL     OW22774   2.086   2.925   5.234 -0.4162  0.4669  0.4748
 3772SOL    HW122775   2.133   2.926   5.318 -1.0997  0.1633  0.8600
 3772SOL    HW222776   2.067   3.018   5.223  2.3959  0.8044 -1.6382
 3773SOL     OW22777   0.474   0.137   5.377 -0.6995  0.2698  0.0471
 3773SOL    HW122778   0.430   0.127   5.462  0.0734 -1.4967  0.2382
 3773SOL    HW222779   0.402   0.123   5.315 -0.1319 -2.9611  0.1573
 3774SOL     OW22780   4.574   4.040   6.217 -0.1174  0.3681  0.2907
 3774SOL    HW122781   4.514   3.969   6.237  0.3948 -0.2316 -0.3104
 3774SOL    HW222782   4.657   3.992   6.215  0.0579  0.7089 -0.6576
 3775SOL     OW22783   4.123   0.796   7.268  0.1604 -0.2009 -0.4796
 3775SOL    HW122784   4.187   0.842   7.215  0.6071  0.2377  0.4333
 3775SOL    HW222785   4.175   0.787   7.348  1.4047  0.4012 -1.2333
 3776SOL     OW22786   2.881   1.900   3.710 -0.4774  0.0447  0.1023
 3776SOL    HW122787   2.961   1.853   3.685 -0.4826  1.1246 -1.9961
 3776SOL    HW222788   2.841   1.845   3.777  0.0263 -0.1640  0.2327
 3777SOL     OW22789   2.211   1.298   4.202  0.1423 -0.6989 -0.3376
 3777SOL    HW122790   2.122   1.305   4.236  0.9939  0.3138  1.6545
 3777SOL    HW222791   2.263   1.288   4.281  1.2197  0.8914 -0.8381
 3778SOL     OW22792   2.962   0.145   4.512  0.2595 -0.0520 -0.1630
 3778SOL    HW122793   3.000   0.062   4.540  0.0329 -0.0818  0.0495
 3778SOL    HW222794   2.891   0.118   4.454 -0.4309 -0.8333  1.0502
 3779SOL     OW22795   0.609   1.331   8.567  0.0713  0.0815 -0.0354
 3779SOL    HW122796   0.667   1.359   8.496 -1.1616  1.6748 -0.4257
 3779SOL    HW222797   0.664   1.333   8.645 -0.4589  0.1963  0.3424
 3780SOL     OW22798   2.425   3.703  13.217  0.3382  0.0989 -0.1151
 3780SOL    HW122799   2.355   3.764  13.190 -2.5247 -1.0293  4.7509
 3780SOL    HW222800   2.480   3.764  13.266  0.9984 -0.1871 -0.5129
 3781SOL     OW22801   2.906   4.575   5.684  0.2693 -0.0938  0.0439
 3781SOL    HW122802   2.934   4.666   5.678 -1.2237  0.3802  0.2319
 3781SOL    HW222803   2.984   4.532   5.650  0.7348  1.7431 -1.1873
 3782SOL     OW22804   3.416   3.618  12.167  0.3194 -0.0622 -0.3064
 3782SOL    HW122805   3.447   3.689  12.223 -2.8989  1.3673 -0.3779
 3782SOL    HW222806   3.397   3.665  12.086  0.8181 -0.1922 -0.4975
 3783SOL     OW22807   4.170   4.524   4.511  0.8034  0.1569 -0.8796
 3783SOL    HW122808   4.260   4.548   4.531  0.7117 -0.6779  0.5747
 3783SOL    HW222809   4.191   4.431   4.502 -0.4193 -0.2514  0.4189
 3784SOL     OW22810   2.415   3.829  17.655 -0.0260  0.3088  0.2819
 3784SOL    HW122811   2.410   3.845   0.061  0.1892 -0.8556  0.4922
 3784SOL    HW222812   2.380   3.915  17.632  0.5497  0.6993  0.8894
 3785SOL     OW22813   0.355   2.508   8.724 -0.1981  0.4169 -0.1184
 3785SOL    HW122814   0.311   2.474   8.802 -0.6595 -1.7137 -1.3211
 3785SOL    HW222815   0.283   2.503   8.662 -0.2037  0.9024 -0.1581
 3786SOL     OW22816   2.240   0.050   2.024  0.3691  0.3305 -0.3493
 3786SOL    HW122817   2.175   0.120   2.021 -0.0229 -0.0211 -0.1128
 3786SOL    HW222818   2.197   4.686   2.030  0.5210  0.2631 -0.2319
 3787SOL     OW22819   2.643   0.822   6.596  0.1249  0.2536  0.2107
 3787SOL    HW122820   2.642   0.901   6.649 -2.1453 -0.3763  1.1084
 3787SOL    HW222821   2.734   0.828   6.565  0.3329 -1.3497  0.5082
 3788SOL     OW22822   0.239   3.828   4.285 -0.1948  0.0810  0.5951
 3788SOL    HW122823   0.152   3.840   4.324  0.4306  1.4713  1.5382
 3788SOL    HW222824   0.286   3.905   4.314 -0.8684  1.1057 -1.0265
 3789SOL     OW22825   0.734   2.141   6.530 -0.4844  0.5880  0.4559
 3789SOL    HW122826   0.719   2.213   6.469 -1.3568  0.1286  0.1232
 3789SOL    HW222827   0.808   2.174   6.581 -1.0994 -0.2680  1.8833
 3790SOL     OW22828   1.513   0.461   6.863  0.2369  0.4590 -0.3523
 3790SOL    HW122829   1.608   0.474   6.868  0.0140  0.9098  2.7969
 3790SOL    HW222830   1.479   0.532   6.808 -1.5539 -0.6251 -0.6249
 3791SOL     OW22831   2.171   3.727   1.835 -0.2401  0.0211 -0.4758
 3791SOL    HW122832   2.208   3.798   1.782 -1.3896 -0.3256 -1.7341
 3791SOL    HW222833   2.098   3.699   1.781 -0.8945 -0.0022  0.4161
 3792SOL     OW22834   1.067   2.371  12.902 -0.4318 -0.2999  0.2408
 3792SOL    HW122835   1.161   2.382  12.914 -0.6008  1.2950  0.1073
 3792SOL    HW222836   1.044   2.318  12.979  0.4993 -0.2957  0.5173
 3793SOL     OW22837   0.992   0.887   6.336  0.1559  0.0816  0.1088
 3793SOL    HW122838   1.037   0.861   6.256 -2.6414 -1.6245 -0.8809
 3793SOL    HW222839   0.975   0.977   6.307  1.9312  0.9356  1.6670
 3794SOL     OW22840   1.281   0.961   7.442 -0.0904  0.1976 -0.3388
 3794SOL    HW122841   1.332   0.991   7.517  1.0716 -1.8669 -0.2871
 3794SOL    HW222842   1.317   0.872   7.440  1.7291  0.9320 -0.0692
 3795SOL     OW22843   2.563   4.569   2.429  0.1809 -0.0373  0.0709
 3795SOL    HW122844   2.548   4.552   2.522  0.2927 -2.8273 -0.4058
 3795SOL    HW222845   2.648   4.614   2.428 -0.4627  1.1695  0.8709
 3796SOL     OW22846   3.882   1.344   7.518 -0.2482 -0.0009 -0.2683
 3796SOL    HW122847   3.804   1.307   7.475  1.7487 -4.4961 -0.0857
 3796SOL    HW222848   3.861   1.330   7.611  0.1107 -0.3813 -0.2439
 3797SOL     OW22849   0.662   0.493   4.925 -0.0056 -0.3054 -0.0838
 3797SOL    HW122850   0.708   0.423   4.971  0.4334  0.0247 -0.0221
 3797SOL    HW222851   0.721   0.564   4.951  0.6485 -1.2112  0.9238
 3798SOL     OW22852   4.161   2.541   7.917 -0.2513 -0.4044  0.3651
 3798SOL    HW122853   4.237   2.524   7.861 -0.6428  2.1787 -0.9417
 3798SOL    HW222854   4.113   2.603   7.863  0.0541  1.3556  2.1044
 3799SOL     OW22855   1.464   1.842   0.950  0.4264 -0.1362 -0.4086
 3799SOL    HW122856   1.376   1.876   0.968 -1.2590 -4.0615 -1.2052
 3799SOL    HW222857   1.511   1.916   0.910 -0.5282 -0.1288 -1.5410
 3800SOL     OW22858   0.887   3.781   4.430 -0.1731  0.0180  0.2431
 3800SOL    HW122859   0.875   3.820   4.517  1.0339  1.8722 -0.4097
 3800SOL    HW222860   0.978   3.810   4.422 -0.7890  1.2518 -2.4657
 3801SOL     OW22861   2.221   3.320   8.838 -0.2681  0.3507  0.1595
 3801SOL    HW122862   2.248   3.361   8.921 -0.7956  1.7441 -0.3520
 3801SOL    HW222863   2.144   3.265   8.852 -0.7675  1.0163  0.0498
 3802SOL     OW22864   2.126   1.980   2.729  0.1631  0.0027 -0.0569
 3802SOL    HW122865   2.049   2.032   2.751  0.2732  1.2783 -2.6359
 3802SOL    HW222866   2.190   2.048   2.708  1.2072 -0.8687  0.2470
 3803SOL     OW22867   2.890   1.271   3.184  0.2736 -0.4280  0.2724
 3803SOL    HW122868   2.960   1.274   3.249  1.0006 -1.9660 -0.4448
 3803SOL    HW222869   2.822   1.324   3.226  2.4131 -1.2009  4.7167
 3804SOL     OW22870   2.925   4.223   1.286  0.2002  0.1410  0.0942
 3804SOL    HW122871   2.972   4.302   1.261  0.8837  0.6530  3.0475
 3804SOL    HW222872   2.963   4.206   1.372 -1.6349 -0.7590  0.7234
 3805SOL     OW22873   1.522   0.458   7.784 -0.1162 -0.2952 -0.1667
 3805SOL    HW122874   1.459   0.388   7.767  1.7822 -2.5166  1.8650
 3805SOL    HW222875   1.533   0.442   7.878 -1.2574  3.2227  0.5420
 3806SOL     OW22876   1.843   2.562  10.344 -0.0905  0.1653 -0.3738
 3806SOL    HW122877   1.887   2.489  10.301 -2.5058 -1.2317 -0.5020
 3806SOL    HW222878   1.915   2.622  10.359  0.6638 -0.7472 -0.3529
 3807SOL     OW22879   0.698   0.267   4.327 -0.3949  0.1164 -0.0391
 3807SOL    HW122880   0.723   0.210   4.254  0.9992  0.7747 -0.0601
 3807SOL    HW222881   0.774   0.325   4.334 -1.2453  1.1795  0.3327
 3808SOL     OW22882   2.014   1.313  10.702  0.8863 -0.2202 -0.3991
 3808SOL    HW122883   2.081   1.265  10.654 -0.1224 -1.2319 -0.8119
 3808SOL    HW222884   1.976   1.255  10.769 -1.9650 -2.2422 -3.7510
 3809SOL     OW22885   0.399   0.529   6.686 -0.4900  0.1245 -0.4892
 3809SOL    HW122886   0.341   0.588   6.639 -1.0516 -0.2947 -0.3254
 3809SOL    HW222887   0.359   0.537   6.773  0.4804  0.7191 -0.0991
 3810SOL     OW22888   0.889   3.811   5.659 -0.1831 -0.2596 -0.1075
 3810SOL    HW122889   0.799   3.839   5.673  0.3222  1.6798 -0.7227
 3810SOL    HW222890   0.929   3.897   5.644  1.5590 -1.1924 -0.7346
 3811SOL     OW22891   3.577   2.593  13.622 -0.6509  0.5479  0.0767
 3811SOL    HW122892   3.593   2.645  13.544  2.0620 -1.1073 -0.5134
 3811SOL    HW222893   3.545   2.507  13.596  1.7548 -0.1207 -0.7330
 3812SOL     OW22894   3.394   1.497  16.976  0.1447 -0.6111  0.6801
 3812SOL    HW122895   3.370   1.569  17.034  0.2683  1.2809 -1.6517
 3812SOL    HW222896   3.345   1.511  16.895 -1.8945  1.4591  2.2714
 3813SOL     OW22897   1.562   4.115   6.498  0.4604  0.3508  0.4765
 3813SOL    HW122898   1.609   4.119   6.582  0.5220  0.9837  0.4068
 3813SOL    HW222899   1.495   4.174   6.530  0.0686 -0.1093  0.5021
 3814SOL     OW22900   1.947   0.838   2.614 -0.4071 -0.5410  0.2276
 3814SOL    HW122901   1.862   0.863   2.649  0.2432  2.9812 -0.6475
 3814SOL    HW222902   1.948   0.870   2.523  2.7258 -2.4860 -0.4011
 3815SOL     OW22903   0.383   1.735   6.009  0.0647 -0.6585 -0.2650
 3815SOL    HW122904   0.298   1.695   5.992 -0.2933  0.9068 -2.1676
 3815SOL    HW222905   0.385   1.780   5.925  1.4431 -0.7731 -0.2974
 3816SOL     OW22906   3.605   4.517   6.190 -0.3282 -0.0925  0.1858
 3816SOL    HW122907   3.532   4.577   6.207 -0.2655  0.2382 -0.6825
 3816SOL    HW222908   3.674   4.576   6.158 -0.1307  0.3368  1.4283
 3817SOL     OW22909   1.480   2.645  10.841 -0.0245 -0.2021  0.2763
 3817SOL    HW122910   1.413   2.630  10.774  0.5176 -2.1137  0.1646
 3817SOL    HW222911   1.518   2.728  10.813  0.6273 -0.5666  0.0773
 3818SOL     OW22912   4.091   2.437   4.057  0.2006 -0.2872 -0.0576
 3818SOL    HW122913   4.056   2.522   4.083  1.2560  0.4178 -0.9658
 3818SOL    HW222914   4.091   2.438   3.962  1.0167 -0.4669 -0.0559
 3819SOL     OW22915   2.627   3.128   3.631  0.0852  0.0684  0.1120
 3819SOL    HW122916   2.698   3.066   3.618  2.3413  2.4950  0.9153
 3819SOL    HW222917   2.671   3.207   3.600  0.1705 -0.4006 -0.9538
 3820SOL     OW22918   2.628   2.259   7.982  0.0237  0.0587  0.3025
 3820SOL    HW122919   2.629   2.194   8.052  1.6174 -2.2153 -1.8499
 3820SOL    HW222920   2.580   2.331   8.024 -2.8601 -1.0658 -1.0503
 3821SOL     OW22921   2.969   2.827   0.392  0.0372 -0.4461 -0.3381
 3821SOL    HW122922   3.023   2.763   0.438  0.5551  0.5047  0.3729
 3821SOL    HW222923   2.880   2.792   0.401  1.1556 -2.8850  1.2619
 3822SOL     OW22924   1.139   2.591   4.506 -0.1501  0.7079  0.4694
 3822SOL    HW122925   1.062   2.636   4.542 -0.5576  0.7975 -0.5176
 3822SOL    HW222926   1.146   2.526   4.576  0.4417  1.0204  0.6968
 3823SOL     OW22927   3.376   0.374   7.893 -0.5682 -0.3385  0.2722
 3823SOL    HW122928   3.434   0.301   7.916 -1.1339 -0.5721  0.9531
 3823SOL    HW222929   3.445   0.437   7.875 -2.5786  1.3598 -1.4575
 3824SOL     OW22930   4.243   3.917  14.506  0.0480  0.5998 -0.2915
 3824SOL    HW122931   4.230   3.994  14.562 -2.1257  0.7638 -1.0340
 3824SOL    HW222932   4.309   3.951  14.446  1.2717 -0.7198  0.3335
 3825SOL     OW22933   2.811   2.146   5.837 -0.3557 -0.2161 -0.2791
 3825SOL    HW122934   2.760   2.214   5.793 -2.3702 -0.3262  1.8806
 3825SOL    HW222935   2.742   2.099   5.885 -1.2625 -0.4701 -1.8391
 3826SOL     OW22936   1.679   0.066   6.606  0.4130 -0.9059 -0.1826
 3826SOL    HW122937   1.628   0.126   6.551  1.1499  1.3480  1.6191
 3826SOL    HW222938   1.766   0.106   6.597 -0.1514  0.0735 -1.2443
 3827SOL     OW22939   3.349   3.420   6.692 -0.7055 -0.2980 -0.2319
 3827SOL    HW122940   3.332   3.368   6.770 -0.8316  1.1892  0.7353
 3827SOL    HW222941   3.262   3.436   6.657 -0.6449  1.6995  0.5342
 3828SOL     OW22942   2.248   0.234  10.818  0.2958  0.1462 -0.6097
 3828SOL    HW122943   2.272   0.311  10.869  2.1066 -0.7612 -0.0918
 3828SOL    HW222944   2.269   0.260  10.728 -1.4136  1.0695 -0.7285
 3829SOL     OW22945   2.552   4.055   3.438 -0.1923  0.0993 -0.4205
 3829SOL    HW122946   2.518   4.009   3.515  0.8005  0.4595  0.2388
 3829SOL    HW222947   2.645   4.069   3.453  0.0646 -1.7096 -0.3113
 3830SOL     OW22948   0.384   1.842   0.721  0.1373 -0.5970  0.5895
 3830SOL    HW122949   0.326   1.778   0.762 -1.1245  0.5703  0.5967
 3830SOL    HW222950   0.334   1.922   0.739  0.8271  0.3810 -1.7372
 3831SOL     OW22951   4.617   2.912   8.977  0.1110 -0.7436  0.4980
 3831SOL    HW122952   4.532   2.888   8.941 -0.3931  2.1243 -0.2596
 3831SOL    HW222953   4.623   3.006   8.959  0.3397 -0.9335 -0.4262
 3832SOL     OW22954   0.692   3.309   1.540  0.1894  0.2332  0.4535
 3832SOL    HW122955   0.696   3.399   1.505  0.0004  0.1291  0.1624
 3832SOL    HW222956   0.708   3.255   1.462  0.3353 -2.5308  2.4133
 3833SOL     OW22957   1.711   4.674  10.775  0.5904  0.4037  0.0781
 3833SOL    HW122958   1.710   0.039  10.732  3.5790  0.4528  0.1345
 3833SOL    HW222959   1.783   4.631  10.730  1.0044 -0.8146  1.8946
 3834SOL     OW22960   2.355   2.198  11.013  0.1643  0.5095  0.3871
 3834SOL    HW122961   2.385   2.108  11.008  1.2985  0.8964  0.1751
 3834SOL    HW222962   2.413   2.240  10.950  0.2960 -0.1457  0.0726
 3835SOL     OW22963   2.344   4.699   5.852 -0.3747  0.6353  0.9342
 3835SOL    HW122964   2.283   0.051   5.855 -1.2819 -0.0619 -0.7198
 3835SOL    HW222965   2.427   0.020   5.875 -0.5863  1.0572  0.9244
 3836SOL     OW22966   3.497   1.157  12.858 -0.5826 -0.3884  0.3502
 3836SOL    HW122967   3.441   1.196  12.791 -2.3472  1.5278  2.9782
 3836SOL    HW222968   3.447   1.086  12.899 -1.1776 -1.0121 -1.4459
 3837SOL     OW22969   3.420   4.153   3.889  0.3632 -0.0226 -0.1110
 3837SOL    HW122970   3.442   4.245   3.905  0.1394  0.0309 -0.1126
 3837SOL    HW222971   3.415   4.124   3.980  0.5848  0.1528 -0.0422
 3838SOL     OW22972   4.137   4.573   6.309  0.1460 -0.0646 -0.5546
 3838SOL    HW122973   4.140   4.487   6.351  0.4727 -1.0604 -2.6016
 3838SOL    HW222974   4.203   4.623   6.355 -0.3866  0.4733 -0.3725
 3839SOL     OW22975   1.040   3.779   0.553 -0.7098  0.4004  0.4367
 3839SOL    HW122976   1.088   3.849   0.596 -1.0146 -0.4497  2.1794
 3839SOL    HW222977   0.962   3.834   0.542 -0.5231  0.7153  0.7234
 3840SOL     OW22978   1.270   2.008  16.349  0.3812  0.5288  0.7341
 3840SOL    HW122979   1.347   2.047  16.307  1.0646 -1.3383  0.2988
 3840SOL    HW222980   1.242   2.082  16.403  0.2912  0.6350  0.5439
 3841SOL     OW22981   1.841   1.503  11.299  0.7188 -0.2562 -0.2493
 3841SOL    HW122982   1.913   1.476  11.356  0.4866  0.0477  0.1954
 3841SOL    HW222983   1.884   1.554  11.230 -0.9589  1.5499  0.0209
 3842SOL     OW22984   4.156   2.333   3.260 -0.1411  0.0720  0.3822
 3842SOL    HW122985   4.157   2.237   3.251 -0.8503  0.0412  0.6214
 3842SOL    HW222986   4.106   2.369   3.187 -1.7893 -0.0493  1.4383
 3843SOL     OW22987   0.773   2.351   6.344 -0.1180 -0.4222  0.0727
 3843SOL    HW122988   0.746   2.440   6.367  0.5510 -0.5948  1.5491
 3843SOL    HW222989   0.839   2.367   6.276 -0.5472  0.1201 -0.2183
 3844SOL     OW22990   1.150   2.745   2.634  0.6429 -0.2081  0.7037
 3844SOL    HW122991   1.133   2.777   2.546 -1.4407  1.8878  1.8724
 3844SOL    HW222992   1.232   2.698   2.622  0.9162  0.7102 -0.9380
 3845SOL     OW22993   4.693   1.851  16.274  0.0869 -0.1690 -0.1850
 3845SOL    HW122994   4.695   1.933  16.225  0.4403 -0.5757 -0.8452
 3845SOL    HW222995   4.690   1.884  16.364 -2.1242 -0.1747 -0.2481
 3846SOL     OW22996   3.505   0.054  15.173  0.7691 -0.2209  0.0894
 3846SOL    HW122997   3.525   0.080  15.263 -0.0288 -0.4904  0.3431
 3846SOL    HW222998   3.409   0.060  15.172  0.7897  0.2880  0.8723
 3847SOL     OW22999   2.575   3.608   5.861  0.3360  0.2119 -0.0757
 3847SOL    HW123000   2.487   3.569   5.860  0.2935  0.2862  0.5312
 3847SOL    HW223001   2.622   3.538   5.817 -0.2601  0.6318 -1.3728
 3848SOL     OW23002   3.495   0.359  10.427 -0.2146 -0.6106  0.0080
 3848SOL    HW123003   3.430   0.341  10.495  0.0974 -1.6748  0.0204
 3848SOL    HW223004   3.487   0.453  10.414  2.7011 -0.3730 -0.0007
 3849SOL     OW23005   2.908   2.965   5.175 -0.2366 -0.3169  0.2363
 3849SOL    HW123006   2.971   2.981   5.246 -0.7088 -0.7778  0.7615
 3849SOL    HW223007   2.845   2.906   5.217  1.3528 -1.0058  1.6357
 3850SOL     OW23008   3.773   2.071   7.548 -0.3263  0.1882  1.0458
 3850SOL    HW123009   3.784   2.161   7.519 -0.8914 -0.3393 -0.8130
 3850SOL    HW223010   3.773   2.016   7.470  1.8703  2.0403 -0.2391
 3851SOL     OW23011   3.810   0.493   2.775  0.4118 -0.0799 -0.2210
 3851SOL    HW123012   3.904   0.511   2.774  0.1679  0.9805 -2.2099
 3851SOL    HW223013   3.780   0.537   2.855  1.3569 -2.0770  1.2445
 3852SOL     OW23014   3.752   2.807   8.286 -0.4446  0.0057  0.1484
 3852SOL    HW123015   3.770   2.713   8.291 -0.3246 -0.0297 -0.8729
 3852SOL    HW223016   3.658   2.810   8.270 -0.5080 -0.7440  0.3998
 3853SOL     OW23017   2.874   0.760   4.922  0.4088  0.1644  0.3925
 3853SOL    HW123018   2.875   0.845   4.878 -1.3725 -0.5278 -0.9723
 3853SOL    HW223019   2.924   0.766   5.004  1.1708  1.3492 -0.1530
 3854SOL     OW23020   1.034   4.490   6.971 -0.5281  0.0828 -0.5813
 3854SOL    HW123021   1.103   4.532   6.920 -2.7960  3.2091 -1.0577
 3854SOL    HW223022   0.963   4.492   6.907  1.2520  1.2274 -2.5109
 3855SOL     OW23023   1.138   3.990   0.716 -0.5253  0.1067 -0.6325
 3855SOL    HW123024   1.229   3.992   0.746 -1.0546 -1.6118  1.1370
 3855SOL    HW223025   1.096   3.945   0.789 -1.3619 -1.0339 -1.8106
 3856SOL     OW23026   2.315   0.019   7.265 -0.4707  0.0764 -0.0696
 3856SOL    HW123027   2.342   0.051   7.351 -1.3383  0.8566 -0.0894
 3856SOL    HW223028   2.318   4.646   7.282  0.5015 -0.3139 -2.3384
 3857SOL     OW23029   0.227   4.611   6.155  0.2301  0.3195  0.1883
 3857SOL    HW123030   0.279   4.617   6.235  1.6918 -1.1167 -0.6526
 3857SOL    HW223031   0.170   4.684   6.178 -0.1991  0.6942 -2.0614
 3858SOL     OW23032   2.973   4.004  16.112 -0.6696 -0.2496  0.0423
 3858SOL    HW123033   3.055   3.971  16.149  0.1683  1.6978 -0.0886
 3858SOL    HW223034   3.014   4.069  16.055  0.9143  0.1025  1.5621
 3859SOL     OW23035   3.637   3.341  15.855 -0.0482  0.1867  0.3609
 3859SOL    HW123036   3.638   3.315  15.947  0.6702 -0.6838  0.1033
 3859SOL    HW223037   3.545   3.315  15.849  0.3848 -1.5931  1.5995
 3860SOL     OW23038   0.005   0.523  10.622 -0.2591  0.6275 -0.4981
 3860SOL    HW123039   4.675   0.577  10.681 -0.6997 -1.0593  0.6584
 3860SOL    HW223040   0.058   0.580  10.567  1.5425  1.1965  1.8465
 3861SOL     OW23041   2.048   4.561   4.104  0.5047 -0.5588  0.1281
 3861SOL    HW123042   1.954   4.559   4.088  0.3335 -2.0946  1.3026
 3861SOL    HW223043   2.079   4.482   4.060  1.3386 -0.9288  1.3802
 3862SOL     OW23044   4.029   1.864  11.364  0.2392  0.1199 -0.6832
 3862SOL    HW123045   4.057   1.926  11.431  2.5374 -0.4582 -1.1294
 3862SOL    HW223046   3.972   1.808  11.417  2.3476  1.5675  3.0512
 3863SOL     OW23047   3.192   3.543   8.340 -0.0391 -0.1135  0.9163
 3863SOL    HW123048   3.176   3.619   8.285  0.2141 -0.5588  0.2224
 3863SOL    HW223049   3.103   3.508   8.343 -0.5279  1.1308  0.7511
 3864SOL     OW23050   3.753   1.207  17.184  0.2775 -0.2310 -0.1011
 3864SOL    HW123051   3.772   1.300  17.192 -0.6355  0.0668 -1.4464
 3864SOL    HW223052   3.681   1.207  17.121  0.6567  2.3245 -0.5086
 3865SOL     OW23053   1.675   2.735   2.551  0.9227 -0.1636 -0.4940
 3865SOL    HW123054   1.719   2.759   2.470 -0.7524  2.3112 -0.6821
 3865SOL    HW223055   1.711   2.650   2.574 -0.0448 -0.6118 -0.6189
 3866SOL     OW23056   0.099   1.886  12.719  0.1777 -0.1288  0.1882
 3866SOL    HW123057   0.033   1.949  12.688 -1.4662 -0.3140  3.3530
 3866SOL    HW223058   0.046   1.850  12.789 -0.8817  0.9811 -0.0313
 3867SOL     OW23059   0.589   4.412  10.844  0.4921 -0.3167 -0.5778
 3867SOL    HW123060   0.553   4.401  10.756 -3.1748  0.6651  0.8014
 3867SOL    HW223061   0.654   4.482  10.837 -0.0951  0.2461 -0.4244
 3868SOL     OW23062   1.711   2.200   2.236  0.5381 -0.5242 -0.2155
 3868SOL    HW123063   1.704   2.245   2.320 -1.5414 -3.5916  1.2578
 3868SOL    HW223064   1.719   2.107   2.257 -0.4431 -0.4895  0.3369
 3869SOL     OW23065   3.886   4.592   8.712 -0.0206 -0.4152 -0.1886
 3869SOL    HW123066   3.901   4.629   8.799  1.5307 -1.3420 -0.0600
 3869SOL    HW223067   3.964   4.631   8.673 -1.0520  2.5691  0.7534
 3870SOL     OW23068   1.668   0.450   3.060  0.2088 -0.1136  0.1293
 3870SOL    HW123069   1.645   0.383   2.996 -0.6798 -0.1618  0.4996
 3870SOL    HW223070   1.651   0.405   3.142  2.2314 -3.0367 -1.0580
 3871SOL     OW23071   4.446   1.154   8.265  0.0332  0.3278  0.1901
 3871SOL    HW123072   4.402   1.106   8.335 -2.1367  1.6676 -0.2190
 3871SOL    HW223073   4.531   1.113   8.251 -0.0529 -0.3685  1.7305
 3872SOL     OW23074   0.123   0.471  14.269  0.0646  0.6140  0.0872
 3872SOL    HW123075   0.218   0.465  14.278  0.1113  0.6955 -0.3693
 3872SOL    HW223076   0.096   0.390  14.312  0.6246  1.1680  1.5007
 3873SOL     OW23077   1.960   1.746   4.326  0.5276 -0.1854  0.6889
 3873SOL    HW123078   1.900   1.805   4.371 -1.1748  0.1460 -2.0272
 3873SOL    HW223079   1.964   1.669   4.383 -0.3704  0.1305  1.1874
 3874SOL     OW23080   2.374   2.019   4.317 -0.4748  0.3641  0.3660
 3874SOL    HW123081   2.428   1.959   4.266 -1.9943 -0.2602 -0.5251
 3874SOL    HW223082   2.285   2.017   4.281 -0.5601  0.2322  0.5895
 3875SOL     OW23083   1.048   4.489   2.711 -0.1666  0.3060  0.4670
 3875SOL    HW123084   0.974   4.549   2.721 -0.9844 -0.4858 -0.8443
 3875SOL    HW223085   1.066   4.509   2.619 -2.2841 -0.9723 -0.2353
 3876SOL     OW23086   1.551   1.680   6.764 -0.1302 -0.5607  0.6139
 3876SOL    HW123087   1.536   1.690   6.669 -0.1070 -0.4123  0.6256
 3876SOL    HW223088   1.632   1.729   6.777 -0.8886  1.5380 -2.5175
 3877SOL     OW23089   2.558   2.738   8.015 -0.1072 -0.2260  0.0050
 3877SOL    HW123090   2.609   2.814   8.041 -1.3201  0.7566 -0.4891
 3877SOL    HW223091   2.484   2.775   7.967  0.2074  0.7449  0.2857
 3878SOL     OW23092   1.943   2.372   2.964  0.4005  0.0698 -0.2249
 3878SOL    HW123093   1.960   2.464   2.985 -0.6796  0.4808 -1.1011
 3878SOL    HW223094   1.870   2.355   3.024  1.0493 -0.5513  0.3882
 3879SOL     OW23095   2.422   1.291   2.172 -0.1196 -0.1321  0.3222
 3879SOL    HW123096   2.498   1.325   2.219  0.3225  0.2197 -0.6425
 3879SOL    HW223097   2.400   1.354   2.103 -1.4483 -1.0976 -0.1473
 3880SOL     OW23098   2.856   2.857   2.716  0.0029 -0.4690 -0.3834
 3880SOL    HW123099   2.818   2.933   2.672  0.1326 -0.5821 -0.6942
 3880SOL    HW223100   2.949   2.879   2.722 -0.2251  0.6144 -0.9409
 3881SOL     OW23101   0.169   2.217   1.874  0.5547 -0.2664  0.4252
 3881SOL    HW123102   0.234   2.147   1.878  0.5066 -0.3225  0.2211
 3881SOL    HW223103   0.231   2.290   1.873 -1.6054  1.5707  0.1324
 3882SOL     OW23104   0.552   3.835   2.833 -0.1582  0.5093 -0.3112
 3882SOL    HW123105   0.526   3.743   2.823 -2.9624  0.9009  3.1943
 3882SOL    HW223106   0.642   3.821   2.862  1.0338  0.3729 -4.0487
 3883SOL     OW23107   1.417   3.909   0.477 -0.4217  0.0545  0.3772
 3883SOL    HW123108   1.503   3.870   0.493 -0.6313 -1.2271 -1.6349
 3883SOL    HW223109   1.372   3.837   0.523  0.4654 -0.3113  0.6739
 3884SOL     OW23110   1.132   0.320  10.110 -0.0249  0.0298  0.2769
 3884SOL    HW123111   1.056   0.350  10.161 -0.8033 -0.8186 -0.3634
 3884SOL    HW223112   1.173   0.405  10.097 -0.0515 -0.2172 -1.3636
 3885SOL     OW23113   1.116   4.504   8.617  0.2486 -0.1115 -0.1745
 3885SOL    HW123114   1.074   4.590   8.610  2.0849  0.8527  0.5734
 3885SOL    HW223115   1.187   4.518   8.680  0.6354 -0.5026 -0.5258
 3886SOL     OW23116   4.647   4.169   8.303 -0.6366  0.3948  0.0696
 3886SOL    HW123117   4.661   4.204   8.391 -0.1509  0.2752  0.0452
 3886SOL    HW223118   0.010   4.188   8.261 -1.4000 -1.4315 -2.2731
 3887SOL     OW23119   2.436   3.694   6.448 -0.1375  0.7369 -0.0158
 3887SOL    HW123120   2.371   3.627   6.426  0.2900 -0.0039  0.9692
 3887SOL    HW223121   2.394   3.777   6.424 -1.2674  0.2749  0.3877
 3888SOL     OW23122   4.597   0.538  12.143  0.1106  0.2473  0.1050
 3888SOL    HW123123   4.619   0.538  12.236 -0.8606 -0.2445  0.3274
 3888SOL    HW223124   4.686   0.539  12.108  0.0387  0.3368 -0.0740
 3889SOL     OW23125   3.907   2.046  14.349 -0.3715 -0.3259  0.5933
 3889SOL    HW123126   3.929   1.956  14.327  3.0640  0.6507  0.1205
 3889SOL    HW223127   3.989   2.075  14.390  0.2411 -0.4894 -0.5346
 3890SOL     OW23128   2.776   3.826   9.308  0.1522 -0.2576  0.5934
 3890SOL    HW123129   2.818   3.910   9.325 -1.5980  1.0428 -1.4322
 3890SOL    HW223130   2.852   3.787   9.265 -1.3189 -1.8842 -0.5247
 3891SOL     OW23131   1.602   1.140   5.532  0.3647 -0.2614  0.3485
 3891SOL    HW123132   1.591   1.048   5.510  0.5197 -0.3234  0.5295
 3891SOL    HW223133   1.510   1.166   5.523  0.7393 -0.2559 -3.4742
 3892SOL     OW23134   0.267   2.655  15.472  0.1348 -0.7300 -0.6233
 3892SOL    HW123135   0.220   2.592  15.417 -0.1561 -1.8625  0.9378
 3892SOL    HW223136   0.271   2.723  15.405 -1.1819  0.1926  0.2264
 3893SOL     OW23137   3.728   3.225   3.536  0.1923  0.3659  0.1354
 3893SOL    HW123138   3.698   3.171   3.462 -0.4167 -0.2951  0.8624
 3893SOL    HW223139   3.645   3.249   3.578  0.3692  0.8051  0.2315
 3894SOL     OW23140   4.683   2.500  16.315 -0.0758  0.2792  0.2674
 3894SOL    HW123141   4.703   2.593  16.306 -0.2992  0.3680  0.6561
 3894SOL    HW223142   0.052   2.470  16.315 -0.1121  0.1917 -0.7625
 3895SOL     OW23143   2.768   2.528   7.752  0.4588 -0.9307  0.4622
 3895SOL    HW123144   2.783   2.539   7.846  0.6888 -1.4713  0.4871
 3895SOL    HW223145   2.829   2.458   7.728  0.2252 -1.0426  0.1868
 3896SOL     OW23146   0.016   0.112   3.407 -0.2344 -0.2944 -0.1804
 3896SOL    HW123147   0.063   0.172   3.349  0.1631 -0.3294  0.1081
 3896SOL    HW223148   4.669   0.084   3.346 -0.0669 -1.2400  0.0707
 3897SOL     OW23149   0.045   4.258   5.934 -0.5862  0.1814 -0.4909
 3897SOL    HW123150   0.041   4.354   5.935 -4.7484 -0.0155  2.3852
 3897SOL    HW223151   0.068   4.246   6.026 -1.5413  0.0444 -0.2696
 3898SOL     OW23152   2.357   2.045   5.314  0.1928 -0.8431 -0.6441
 3898SOL    HW123153   2.330   2.094   5.391 -1.0584 -1.9371 -0.3874
 3898SOL    HW223154   2.326   2.110   5.250  0.1228  0.7644  1.0199
 3899SOL     OW23155   4.559   2.881   0.166 -0.1477 -0.2158 -0.3124
 3899SOL    HW123156   4.477   2.857   0.121  0.0518  0.2127 -0.9025
 3899SOL    HW223157   4.573   2.799   0.213  0.7165 -0.5080 -1.0832
 3900SOL     OW23158   0.823   2.618  17.594 -0.0510 -0.5454 -0.1853
 3900SOL    HW123159   0.755   2.615  17.661  0.0808 -0.4593 -0.0479
 3900SOL    HW223160   0.812   2.706  17.558 -2.6502 -0.5379  0.5941
 3901SOL     OW23161   1.081   4.179  16.466 -0.2886 -0.5425  0.1693
 3901SOL    HW123162   1.089   4.084  16.456  2.2700 -0.1636 -1.5283
 3901SOL    HW223163   0.988   4.177  16.486 -0.2464 -1.0221  0.3240
 3902SOL     OW23164   2.863   4.195   5.683 -0.1724  0.0403  1.1571
 3902SOL    HW123165   2.867   4.099   5.693 -2.7095 -0.1558  0.2997
 3902SOL    HW223166   2.941   4.214   5.734  1.0084 -1.6717  0.0053
 3903SOL     OW23167   1.777   4.148   7.169  0.7747 -0.2664  0.4211
 3903SOL    HW123168   1.714   4.119   7.104 -0.2884 -0.3041  1.4692
 3903SOL    HW223169   1.774   4.088   7.244  0.0469  0.1256  0.7090
 3904SOL     OW23170   0.701   4.606   7.278  0.2801  0.0337  0.3356
 3904SOL    HW123171   0.786   4.565   7.267 -0.0404 -0.5694  0.1089
 3904SOL    HW223172   0.710   4.669   7.350  0.5364  0.8291 -0.3989
 3905SOL     OW23173   3.625   3.549   2.825  0.7845 -0.0945 -0.0529
 3905SOL    HW123174   3.633   3.462   2.864  2.0701 -0.1672 -0.4829
 3905SOL    HW223175   3.578   3.521   2.746  0.8499 -1.1783  0.2867
 3906SOL     OW23176   3.805   0.269   4.112 -0.0361 -0.4712 -0.5392
 3906SOL    HW123177   3.812   0.184   4.069  0.3087 -0.3289 -0.7686
 3906SOL    HW223178   3.841   0.254   4.199 -0.6444 -2.2133 -0.5968
 3907SOL     OW23179   3.222   1.804   8.586 -0.1013 -0.0860 -0.5098
 3907SOL    HW123180   3.245   1.794   8.494  0.3556  1.1031 -0.5308
 3907SOL    HW223181   3.193   1.895   8.579 -2.5317 -0.8592 -0.3942
 3908SOL     OW23182   2.479   0.352  17.628  0.1258  0.4394  0.3121
 3908SOL    HW123183   2.479   0.284  17.561 -0.6215  0.1281  0.6308
 3908SOL    HW223184   2.391   0.389  17.615  0.6066  1.9064  1.3193
 3909SOL     OW23185   1.584   2.319  15.816 -0.1215 -0.1247 -0.2104
 3909SOL    HW123186   1.520   2.389  15.827  0.4952  0.3905  0.1487
 3909SOL    HW223187   1.647   2.364  15.760 -2.6431  2.1189 -1.2284
 3910SOL     OW23188   1.342   0.456  13.787  0.6047 -0.2486 -0.1010
 3910SOL    HW123189   1.374   0.538  13.826 -1.1278 -0.7312  2.3689
 3910SOL    HW223190   1.426   0.419  13.759  0.0635  0.1620 -2.2592
 3911SOL     OW23191   1.426   1.709   7.080 -0.2895  0.2276  0.1520
 3911SOL    HW123192   1.496   1.772   7.092 -1.3481  1.2905  0.7957
 3911SOL    HW223193   1.366   1.732   7.151  0.8582  0.7004  0.9662
 3912SOL     OW23194   1.965   1.576   4.099  0.3779 -0.1171 -0.2560
 3912SOL    HW123195   1.949   1.636   4.173  0.4837 -0.6203  0.1757
 3912SOL    HW223196   1.932   1.495   4.137 -0.4266 -0.5591 -1.9326
 3913SOL     OW23197   1.450   1.599   2.785 -0.0030  0.1138 -0.3532
 3913SOL    HW123198   1.445   1.527   2.722  0.0513  0.6952 -1.0263
 3913SOL    HW223199   1.470   1.557   2.869  0.5202  0.0447 -0.5138
 3914SOL     OW23200   1.786   2.591   4.575 -0.3355 -0.0710  0.4523
 3914SOL    HW123201   1.730   2.660   4.540  1.9054  0.5220 -1.9377
 3914SOL    HW223202   1.837   2.564   4.498  0.5481 -0.5421  1.1976
 3915SOL     OW23203   0.490   4.458  12.615 -0.6908  0.3319 -0.7183
 3915SOL    HW123204   0.583   4.436  12.614 -0.9044 -0.6121 -0.3048
 3915SOL    HW223205   0.459   4.399  12.683  1.1329  0.9985  0.6736
 3916SOL     OW23206   0.765   0.966   8.416 -0.3242 -0.2973 -0.0736
 3916SOL    HW123207   0.712   1.005   8.346 -0.9132 -2.0601 -0.6021
 3916SOL    HW223208   0.842   0.941   8.365  0.0669 -1.6901  1.2065
 3917SOL     OW23209   4.491   2.265   4.888  0.1053  0.6820 -0.4083
 3917SOL    HW123210   4.520   2.225   4.806 -0.1042 -2.3338  0.9881
 3917SOL    HW223211   4.577   2.261   4.931 -0.7702  0.2483  1.2810
 3918SOL     OW23212   4.184   4.406   5.738  0.2451 -0.4571 -0.6578
 3918SOL    HW123213   4.203   4.372   5.651  0.3693 -2.4921  0.1644
 3918SOL    HW223214   4.155   4.327   5.784 -0.7093 -0.4414 -1.2319
 3919SOL     OW23215   3.627   2.506   2.711  0.2175  0.1084 -0.4288
 3919SOL    HW123216   3.703   2.494   2.654  0.2096 -0.4345 -0.3237
 3919SOL    HW223217   3.614   2.601   2.719 -1.5741 -0.2501  0.8888
 3920SOL     OW23218   4.519   4.659   5.720  0.3960 -0.1961  0.5328
 3920SOL    HW123219   4.486   4.571   5.701  0.3284  0.0407 -0.4201
 3920SOL    HW223220   4.611   4.648   5.696 -0.0634 -1.4659 -0.6381
 3921SOL     OW23221   4.539   0.781   5.740 -0.5193 -0.3411  0.1542
 3921SOL    HW123222   4.459   0.752   5.783 -0.3995 -1.4455 -0.3674
 3921SOL    HW223223   4.541   0.732   5.658  2.0625 -0.9978  0.6242
 3922SOL     OW23224   2.269   2.431   3.903  0.1781  0.4675  0.1627
 3922SOL    HW123225   2.316   2.484   3.838  1.0937 -2.6459 -1.6925
 3922SOL    HW223226   2.201   2.393   3.847 -0.8505 -1.9710  3.0854
 3923SOL     OW23227   0.488   3.035   6.448 -0.2344 -0.2371 -0.3529
 3923SOL    HW123228   0.523   2.987   6.523 -0.3205 -0.8265 -0.6896
 3923SOL    HW223229   0.573   3.062   6.412 -0.0247 -1.0196 -0.4335
 3924SOL     OW23230   0.698   3.501   7.280  0.1726  0.0322 -0.3114
 3924SOL    HW123231   0.738   3.531   7.361 -0.9747 -0.8868  0.5973
 3924SOL    HW223232   0.612   3.467   7.307 -0.3001  0.0664 -1.7437
 3925SOL     OW23233   2.871   4.013  11.557  0.2031  0.3378  0.2015
 3925SOL    HW123234   2.954   4.049  11.528 -0.2586  0.6739 -0.7176
 3925SOL    HW223235   2.891   3.932  11.510 -0.9445 -0.7402  1.5736
 3926SOL     OW23236   3.949   2.933  15.127 -0.5471  0.1528 -0.0154
 3926SOL    HW123237   3.884   2.937  15.056  1.7352 -0.7034 -2.1477
 3926SOL    HW223238   3.964   3.024  15.154  0.0793 -0.2748  1.0554
 3927SOL     OW23239   1.429   3.929  17.380 -0.0129  0.3297  0.1708
 3927SOL    HW123240   1.341   3.948  17.412  0.6732  1.2102  1.5315
 3927SOL    HW223241   1.413   3.857  17.320  1.1463 -1.3443  1.8743
 3928SOL     OW23242   4.135   2.260  14.809 -0.2064 -0.3135  0.1411
 3928SOL    HW123243   4.179   2.344  14.795  0.5054 -0.6234  0.5173
 3928SOL    HW223244   4.053   2.288  14.850  1.1030  0.4235  2.2950
 3929SOL     OW23245   4.437   1.734   7.026 -0.0378 -0.3746  0.2101
 3929SOL    HW123246   4.491   1.810   7.004 -0.0151 -0.4850 -0.1199
 3929SOL    HW223247   4.492   1.659   7.003 -0.3279 -0.6309  0.3628
 3930SOL     OW23248   1.100   0.162   4.748  0.5592  0.2061 -0.3078
 3930SOL    HW123249   1.075   0.229   4.684 -1.1916  1.4097  1.6013
 3930SOL    HW223250   1.012   0.155   4.786  0.5961 -0.8658 -0.4162
 3931SOL     OW23251   1.254   4.323  16.305  0.9007 -0.1624 -0.4618
 3931SOL    HW123252   1.209   4.336  16.221  0.0972 -0.1054 -0.0176
 3931SOL    HW223253   1.189   4.268  16.349  0.6841  0.0666 -0.4904
 3932SOL     OW23254   1.271   1.039   5.460 -0.0112  0.1116 -0.0447
 3932SOL    HW123255   1.254   1.058   5.367 -1.2760  0.6140  0.3014
 3932SOL    HW223256   1.210   0.967   5.473 -0.6521  0.2398 -2.3613
 3933SOL     OW23257   4.062   0.491   4.751  0.2467 -0.1447  0.5073
 3933SOL    HW123258   4.156   0.478   4.740  0.1054 -0.3370 -0.4576
 3933SOL    HW223259   4.053   0.471   4.845 -2.2207  0.5921  0.4440
 3934SOL     OW23260   0.666   0.809   6.056  0.3129  0.3290  0.2984
 3934SOL    HW123261   0.681   0.785   5.964  0.0756  0.5545  0.2006
 3934SOL    HW223262   0.650   0.903   6.051  0.3249  0.2901 -0.5632
 3935SOL     OW23263   3.308   0.293   3.850 -0.1193 -0.3645  0.1646
 3935SOL    HW123264   3.346   0.205   3.852  1.7395  0.4303 -0.3465
 3935SOL    HW223265   3.235   0.279   3.791  0.3233 -1.0606 -0.2223
 3936SOL     OW23266   0.692   4.697   7.024  0.4312  0.6705 -0.0561
 3936SOL    HW123267   0.765   0.030   7.054 -0.5402  2.3138 -0.6749
 3936SOL    HW223268   0.682   4.642   7.102  1.4365  0.3289 -0.1625
 3937SOL     OW23269   4.670   1.750  13.184 -0.0810 -0.4845 -0.4792
 3937SOL    HW123270   0.044   1.745  13.192  0.1290  2.4440 -1.3544
 3937SOL    HW223271   4.649   1.773  13.094 -1.8646 -1.2329 -0.2547
 3938SOL     OW23272   1.239   1.663   6.460 -0.8327 -0.1038  0.2824
 3938SOL    HW123273   1.180   1.634   6.390 -0.4229  0.7737 -0.4163
 3938SOL    HW223274   1.190   1.718   6.520 -1.8996  0.2928 -0.9658
 3939SOL     OW23275   2.863   1.616  12.257  0.5531 -0.5495  0.0250
 3939SOL    HW123276   2.798   1.685  12.275  0.3781 -0.7846  0.2958
 3939SOL    HW223277   2.942   1.668  12.242  1.4853 -0.9965  3.3657
 3940SOL     OW23278   1.290   2.588  10.670  0.0493  0.9076  0.8347
 3940SOL    HW123279   1.219   2.560  10.612  1.0027 -0.1648  0.2010
 3940SOL    HW223280   1.347   2.513  10.653 -1.7830 -0.2479 -0.2479
 3941SOL     OW23281   3.848   2.946   5.639 -0.1763  0.0936 -0.4995
 3941SOL    HW123282   3.938   2.943   5.670  0.3876  1.8300 -1.9662
 3941SOL    HW223283   3.807   2.894   5.708 -0.9568  0.3630 -0.7513
 3942SOL     OW23284   0.383   2.672   4.219  0.5316 -0.0954  0.1201
 3942SOL    HW123285   0.351   2.587   4.250  2.7736 -0.3319  1.8116
 3942SOL    HW223286   0.311   2.694   4.159  1.7305  0.6460 -1.0401
 3943SOL     OW23287   4.162   2.883   3.249  0.2409 -0.1606  0.6297
 3943SOL    HW123288   4.206   2.803   3.277  0.4993  0.0112  0.7143
 3943SOL    HW223289   4.238   2.921   3.204  0.7212 -1.4772  0.3452
 3944SOL     OW23290   2.110   0.014   2.750  0.1262 -0.2166 -0.1767
 3944SOL    HW123291   2.130   0.104   2.723 -1.4478  0.0520 -0.4869
 3944SOL    HW223292   2.099   4.690   2.667  1.7855 -1.7462  0.4558
 3945SOL     OW23293   4.511   2.682   8.441 -0.4392 -0.3377 -0.2878
 3945SOL    HW123294   4.485   2.626   8.368 -0.6996  2.2960 -2.1717
 3945SOL    HW223295   4.448   2.654   8.508  0.2476  2.0635  1.3786
 3946SOL     OW23296   3.671   3.314   0.060 -0.0852  0.3468 -0.0313
 3946SOL    HW123297   3.659   3.255   0.135  0.9993  0.9061  0.5736
 3946SOL    HW223298   3.582   3.349   0.068  0.1179  0.6621  0.8129
 3947SOL     OW23299   1.479   1.027   2.581 -0.7769 -0.1416  0.1172
 3947SOL    HW123300   1.511   1.101   2.529  2.7841 -0.8420  1.3466
 3947SOL    HW223301   1.424   0.993   2.510  1.1127 -2.5794 -0.2120
 3948SOL     OW23302   1.240   0.453   5.509  0.0518 -0.3190  0.6366
 3948SOL    HW123303   1.154   0.418   5.529 -0.5444  1.0492  0.4258
 3948SOL    HW223304   1.230   0.543   5.539  1.6222 -0.2267  0.9054
 3949SOL     OW23305   1.286   3.829   5.563 -0.4721  0.0991  0.2965
 3949SOL    HW123306   1.234   3.894   5.609 -0.2459  0.6724 -0.2613
 3949SOL    HW223307   1.357   3.887   5.535 -0.0465 -0.5705 -0.0284
 3950SOL     OW23308   3.524   0.574  15.524 -0.3014  0.0500  0.2323
 3950SOL    HW123309   3.614   0.593  15.497  0.5060 -2.0025  1.4511
 3950SOL    HW223310   3.528   0.501  15.585 -2.0126 -1.0442 -0.9699
 3951SOL     OW23311   1.881   3.191   3.947  0.1396 -0.2047 -0.2673
 3951SOL    HW123312   1.933   3.262   3.986 -0.5572  0.9459 -1.4150
 3951SOL    HW223313   1.911   3.113   3.993  2.2903  1.5438  1.3074
 3952SOL     OW23314   4.235   3.071  11.735 -0.1512  0.2211  0.4328
 3952SOL    HW123315   4.212   3.158  11.768 -2.1482 -0.2518  0.3240
 3952SOL    HW223316   4.300   3.083  11.666 -0.9221  0.1762 -0.3038
 3953SOL     OW23317   1.459   3.724   4.884 -0.8569  0.4418 -0.1323
 3953SOL    HW123318   1.380   3.755   4.840  0.5416  2.6322 -1.1310
 3953SOL    HW223319   1.431   3.710   4.974 -3.1956 -0.0813 -0.9341
 3954SOL     OW23320   1.164   0.838  11.546 -0.3886 -0.3920  0.0229
 3954SOL    HW123321   1.158   0.784  11.467 -0.4500  0.0916 -0.2978
 3954SOL    HW223322   1.235   0.795  11.594 -0.4270  2.2359  2.4270
 3955SOL     OW23323   1.245   1.074  12.655 -0.5093 -0.3250  0.3712
 3955SOL    HW123324   1.255   1.004  12.719 -1.3934  0.3040  1.1907
 3955SOL    HW223325   1.323   1.125  12.677  0.1081 -1.4940  0.8836
 3956SOL     OW23326   2.097   0.354   9.658 -0.5329 -0.2074 -0.0846
 3956SOL    HW123327   2.135   0.279   9.612  0.8701  1.2722 -1.2902
 3956SOL    HW223328   2.149   0.368   9.737  1.0663 -2.7670 -0.6968
 3957SOL     OW23329   1.995   3.018  14.373 -0.0991  0.0751 -0.1453
 3957SOL    HW123330   2.067   2.956  14.362  0.4293  0.5895  0.3194
 3957SOL    HW223331   1.918   2.971  14.405 -0.0306 -0.2016 -0.3971
 3958SOL     OW23332   4.353   4.713  16.176 -0.6118 -0.2643  0.1032
 3958SOL    HW123333   4.389   4.712  16.088  1.3851 -0.2888  0.9258
 3958SOL    HW223334   4.278   0.048  16.159 -0.2985 -0.1547 -0.8927
 3959SOL     OW23335   1.578   1.857  10.624  0.2589 -0.6984 -0.1401
 3959SOL    HW123336   1.636   1.825  10.693 -0.8406 -2.2540  0.0349
 3959SOL    HW223337   1.512   1.789  10.634  0.3849 -0.8690 -0.4934
 3960SOL     OW23338   1.767   1.107  17.329  0.2880 -0.7932 -0.2983
 3960SOL    HW123339   1.828   1.172  17.363 -0.9626 -0.8514  2.0645
 3960SOL    HW223340   1.800   1.090  17.240 -0.5406  2.6841 -1.2475
 3961SOL     OW23341   1.101   2.023   9.331  0.1152  0.9596  0.4099
 3961SOL    HW123342   1.131   2.022   9.240 -0.9642 -1.1328  0.0771
 3961SOL    HW223343   1.026   2.080   9.322  0.9952  2.1184  0.4431
 3962SOL     OW23344   0.075   2.584   6.722  0.1842 -0.1282 -0.0344
 3962SOL    HW123345   0.141   2.648   6.748 -1.0270  2.1149 -2.4849
 3962SOL    HW223346   0.033   2.563   6.805 -0.4309  0.6567 -0.1530
 3963SOL     OW23347   0.129   0.255  13.451 -0.5974 -0.5226  0.2187
 3963SOL    HW123348   0.087   0.202  13.518  1.1447 -1.1761  0.8055
 3963SOL    HW223349   0.066   0.319  13.418 -0.5995 -1.3226 -1.3016
 3964SOL     OW23350   1.876   2.249   7.207 -0.2098 -0.9288  0.2929
 3964SOL    HW123351   1.953   2.193   7.209  1.4147  1.3740  2.4583
 3964SOL    HW223352   1.881   2.291   7.121 -0.9781  0.2074  0.7960
 3965SOL     OW23353   3.214   0.113  14.458 -0.0398  0.3721  0.4812
 3965SOL    HW123354   3.216   0.024  14.494 -0.2532  0.3091  0.3401
 3965SOL    HW223355   3.187   0.164  14.534 -0.1396 -0.9013  1.3133
 3966SOL     OW23356   3.159   2.392  17.670 -0.0876 -0.2010  0.3252
 3966SOL    HW123357   3.216   2.455   0.027 -1.4654  1.3550 -0.1137
 3966SOL    HW223358   3.214   2.316   0.003 -2.3939 -1.6136  1.3464
 3967SOL     OW23359   2.630   2.992   4.292  0.1220  0.3844  0.2747
 3967SOL    HW123360   2.594   2.931   4.228 -1.7304  0.3792  1.3125
 3967SOL    HW223361   2.591   2.963   4.375  0.4331 -1.4481 -0.2128
 3968SOL     OW23362   0.977   2.527   2.158 -0.0942  0.5703  0.1801
 3968SOL    HW123363   1.038   2.454   2.172 -0.9103 -0.3041 -0.8950
 3968SOL    HW223364   1.046   2.588   2.130  0.1292  0.3272  0.2036
 3969SOL     OW23365   3.011   3.252   5.262  0.7803 -0.4804  0.1378
 3969SOL    HW123366   3.046   3.183   5.206  1.9912  1.7068 -1.8064
 3969SOL    HW223367   2.955   3.201   5.320 -0.4038  0.6295 -0.0162
 3970SOL     OW23368   0.924   3.106  13.616  0.3233  0.5494 -0.7988
 3970SOL    HW123369   0.893   3.095  13.526 -2.5570 -0.4700  0.3056
 3970SOL    HW223370   0.905   3.200  13.620 -0.7060  0.3557 -0.9245
 3971SOL     OW23371   2.197   1.105   6.109 -0.5628  0.1715 -0.2533
 3971SOL    HW123372   2.203   1.040   6.040  0.0231  1.1481 -1.1211
 3971SOL    HW223373   2.205   1.181   6.052  0.3909 -1.1972 -1.9233
 3972SOL     OW23374   4.577   1.465   3.103  0.0026 -0.0039 -0.3423
 3972SOL    HW123375   4.605   1.482   3.193 -1.0024  1.4584 -0.2982
 3972SOL    HW223376   4.485   1.438   3.099 -0.0648  0.5356 -2.4139
 3973SOL     OW23377   0.790   3.018   7.223  0.1218 -0.0321 -0.3019
 3973SOL    HW123378   0.843   3.084   7.179 -0.5783  0.7379  0.0046
 3973SOL    HW223379   0.705   3.063   7.229  0.9660  1.3718  1.0827
 3974SOL     OW23380   2.288   0.965   5.913 -0.7254 -0.4660 -0.1224
 3974SOL    HW123381   2.250   0.979   5.826  0.3348  0.0423 -0.5025
 3974SOL    HW223382   2.284   0.869   5.917  1.8992 -0.5481  0.9184
 3975SOL     OW23383   4.323   1.815   8.064 -0.0231 -0.3024 -0.2092
 3975SOL    HW123384   4.278   1.865   7.997  1.8412  0.5668 -0.8061
 3975SOL    HW223385   4.399   1.872   8.078 -2.0910  1.9327  1.9776
 3976SOL     OW23386   2.043   1.089  14.888  0.2294 -0.6025  0.4316
 3976SOL    HW123387   2.013   1.059  14.973 -2.5250  2.8125  0.6641
 3976SOL    HW223388   2.131   1.122  14.906 -0.0457 -0.9797  2.4785
 3977SOL     OW23389   2.403   3.926   2.813  0.4745 -0.3310  0.4585
 3977SOL    HW123390   2.446   3.972   2.741 -1.1406 -0.9408 -0.8943
 3977SOL    HW223391   2.412   3.836   2.783  0.4029  0.8487 -3.1606
 3978SOL     OW23392   3.651   4.130   4.986 -0.1717  0.0903  0.3643
 3978SOL    HW123393   3.559   4.128   4.958 -0.4282  0.2221  1.1971
 3978SOL    HW223394   3.682   4.214   4.952 -0.0814  0.0724  0.4042
 3979SOL     OW23395   0.588   0.084   4.022 -0.1349 -0.0908  0.2433
 3979SOL    HW123396   0.509   0.056   3.975  0.7308  0.3231 -1.4811
 3979SOL    HW223397   0.647   0.064   3.950  0.0393 -0.9874  0.6405
 3980SOL     OW23398   2.540   4.244   6.722 -0.2295  0.4489 -0.1542
 3980SOL    HW123399   2.573   4.211   6.805 -0.1235  1.0155  0.0284
 3980SOL    HW223400   2.447   4.259   6.740 -0.6933 -4.2899  1.2278
 3981SOL     OW23401   2.715   0.435   4.584 -0.7882 -0.2895 -0.1720
 3981SOL    HW123402   2.702   0.502   4.651  2.0481 -1.9367  2.0460
 3981SOL    HW223403   2.749   0.370   4.645  1.1370  0.5698 -0.3159
 3982SOL     OW23404   1.129   4.080   1.056  0.0676 -0.7262  0.1095
 3982SOL    HW123405   1.127   3.992   1.017  1.9591 -1.6441  2.0943
 3982SOL    HW223406   1.180   4.131   0.993 -1.5317  1.9389  0.9852
 3983SOL     OW23407   3.714   0.270   7.990 -0.1987 -0.1360  0.6826
 3983SOL    HW123408   3.651   0.217   7.942 -0.5654  2.8459 -2.1135
 3983SOL    HW223409   3.745   0.336   7.928 -0.6469 -0.7137 -0.1510
 3984SOL     OW23410   1.992   0.118   5.864 -0.1663 -0.4145  0.4732
 3984SOL    HW123411   1.996   0.088   5.773  3.1261  0.7296  0.2294
 3984SOL    HW223412   2.081   0.154   5.871 -0.4333  0.2299  0.5386
 3985SOL     OW23413   2.889   3.248   7.518 -0.1932 -0.0168  0.1446
 3985SOL    HW123414   2.877   3.324   7.576  0.4470 -0.2802  0.6265
 3985SOL    HW223415   2.943   3.188   7.570  1.2699  2.0977  1.0851
 3986SOL     OW23416   2.654   2.879   9.200 -0.3020  0.3076  0.1362
 3986SOL    HW123417   2.718   2.933   9.153 -2.8254  0.1617 -3.4363
 3986SOL    HW223418   2.709   2.842   9.269 -1.4292 -0.9253  0.3703
 3987SOL     OW23419   3.325   1.735  12.041  0.0941 -0.1019  0.0497
 3987SOL    HW123420   3.371   1.804  12.089 -0.3502  0.1288  0.1431
 3987SOL    HW223421   3.394   1.676  12.013  0.4164  0.1467  0.3137
 3988SOL     OW23422   3.877   1.246  12.409  0.0120  0.9658  0.0873
 3988SOL    HW123423   3.827   1.287  12.480  0.7388  0.4850  0.8886
 3988SOL    HW223424   3.943   1.315  12.414 -2.2910  2.9008  4.4461
 3989SOL     OW23425   1.959   0.443   4.767 -0.3799 -0.5442 -0.7100
 3989SOL    HW123426   1.972   0.416   4.677  4.1363  0.9421 -0.5332
 3989SOL    HW223427   1.985   0.535   4.776 -0.9404 -0.4428 -0.1632
 3990SOL     OW23428   3.518   4.633   5.884  0.0358  0.2202 -0.0805
 3990SOL    HW123429   3.537   4.617   5.976  1.1860 -0.4198 -0.4452
 3990SOL    HW223430   3.534   0.006   5.881 -0.5448  0.3405  0.4154
 3991SOL     OW23431   3.101   3.326   3.952 -0.0465  0.4638 -0.0445
 3991SOL    HW123432   3.131   3.255   3.895 -0.5665 -1.4868  2.0845
 3991SOL    HW223433   3.187   3.346   3.991  0.0766  2.0129 -1.1220
 3992SOL     OW23434   1.226   0.314  13.994  0.6859  0.3696  0.0696
 3992SOL    HW123435   1.174   0.388  14.024  0.2952  0.0177  0.2635
 3992SOL    HW223436   1.262   0.348  13.913 -0.9204  2.8988  0.4361
 3993SOL     OW23437   3.216   4.407  14.892  0.0879  0.2234 -0.2448
 3993SOL    HW123438   3.305   4.443  14.890 -0.0510  0.5913  0.3503
 3993SOL    HW223439   3.227   4.342  14.962  1.9729  0.7696 -0.0324
 3994SOL     OW23440   2.700   2.859  11.026  0.5848  0.1262  0.2847
 3994SOL    HW123441   2.640   2.788  11.048  1.3697 -0.6703 -0.1402
 3994SOL    HW223442   2.657   2.908  10.956 -0.5746 -2.3790 -0.7561
 3995SOL     OW23443   3.701   3.818   3.376  0.3583 -0.0133 -0.0639
 3995SOL    HW123444   3.737   3.761   3.308  0.7439  0.8015 -0.5446
 3995SOL    HW223445   3.642   3.878   3.329 -0.1780 -2.9491 -3.1819
 3996SOL     OW23446   0.374   3.457   6.638 -0.5804 -0.6033 -0.1183
 3996SOL    HW123447   0.395   3.514   6.712 -3.4017  0.3634 -0.0620
 3996SOL    HW223448   0.456   3.410   6.622 -0.6382 -0.2621 -1.4012
 3997SOL     OW23449   0.288   2.882   7.531 -0.1459 -0.1480 -0.5381
 3997SOL    HW123450   0.193   2.870   7.536 -0.1217 -0.0415  0.1762
 3997SOL    HW223451   0.317   2.800   7.490 -1.0596 -1.2045  0.9719
 3998SOL     OW23452   1.936   3.279   1.980 -0.5488  0.2486  0.2669
 3998SOL    HW123453   2.028   3.301   1.970 -0.3590  0.7254  3.0716
 3998SOL    HW223454   1.890   3.363   1.985  0.2465  0.8474 -2.3667
 3999SOL     OW23455   2.147   3.840   7.824  0.3461  0.3567 -0.2163
 3999SOL    HW123456   2.200   3.829   7.745  1.3317  0.1568  0.4798
 3999SOL    HW223457   2.060   3.824   7.787  0.5275 -0.4844 -0.2965
 4000SOL     OW23458   1.810   3.757   4.631  0.0330  0.4067  0.1785
 4000SOL    HW123459   1.892   3.744   4.583 -0.9852  1.5100 -1.8467
 4000SOL    HW223460   1.835   3.825   4.693  2.0421  1.2790 -1.5884
 4001SOL     OW23461   2.301   3.140   9.649  0.5782  0.1157 -0.3070
 4001SOL    HW123462   2.272   3.049   9.650  1.4679 -0.1757 -1.0764
 4001SOL    HW223463   2.286   3.169   9.739  0.9677  1.6495 -0.7254
 4002SOL     OW23464   3.957   4.590   3.808 -0.2015  0.1137  0.0972
 4002SOL    HW123465   4.031   4.583   3.868 -0.8642  0.0529  0.9033
 4002SOL    HW223466   3.962   4.513   3.752  0.1751 -0.6711  1.2307
 4003SOL     OW23467   1.898   4.628  17.375 -0.0776 -0.0480  0.1772
 4003SOL    HW123468   1.864   4.716  17.384  1.7091  0.4908  1.6707
 4003SOL    HW223469   1.854   4.609  17.292  1.0577  2.7751 -1.0581
 4004SOL     OW23470   1.872   1.755   8.428 -0.1684  0.5881 -0.3435
 4004SOL    HW123471   1.906   1.804   8.503  0.2309 -0.5804  0.2377
 4004SOL    HW223472   1.777   1.759   8.432 -0.1373  0.5333  0.5181
 4005SOL     OW23473   0.696   2.812   3.282 -0.7563 -0.0144  0.0004
 4005SOL    HW123474   0.783   2.818   3.242 -1.1213  1.2854 -0.5950
 4005SOL    HW223475   0.699   2.863   3.363  0.2012 -0.1809  0.0716
 4006SOL     OW23476   3.516   0.870   2.583 -0.1140 -0.2474  0.2991
 4006SOL    HW123477   3.462   0.865   2.504  0.5169  2.7534 -0.3387
 4006SOL    HW223478   3.560   0.785   2.588  1.7127  0.8056  2.3077
 4007SOL     OW23479   3.587   3.547   7.724  0.4588  0.5905 -0.1745
 4007SOL    HW123480   3.570   3.454   7.731  3.7119 -0.0300 -0.4453
 4007SOL    HW223481   3.678   3.541   7.696 -0.3842 -3.7358 -1.9737
 4008SOL     OW23482   1.680   3.412   4.480  0.3041  0.2537 -0.0621
 4008SOL    HW123483   1.602   3.463   4.461 -0.5359 -1.7893 -2.0545
 4008SOL    HW223484   1.749   3.456   4.431 -0.1796  2.3992  1.1936
 4009SOL     OW23485   0.875   1.640   8.539 -0.0287 -0.1944 -0.2471
 4009SOL    HW123486   0.952   1.592   8.572  0.0169  1.3760  1.9171
 4009SOL    HW223487   0.845   1.567   8.485  0.4126  0.3763 -1.2646
 4010SOL     OW23488   0.948   1.978   3.850 -0.3944 -0.0115  0.0963
 4010SOL    HW123489   0.930   2.059   3.897  0.0115 -0.5405  1.1750
 4010SOL    HW223490   0.865   1.972   3.803 -1.2403 -0.2328  1.6098
 4011SOL     OW23491   1.512   2.562   7.516 -0.1558  0.4799  0.3917
 4011SOL    HW123492   1.604   2.545   7.500 -0.0916  0.2151  1.0493
 4011SOL    HW223493   1.522   2.632   7.582  2.9204  1.4983 -1.1479
 4012SOL     OW23494   4.584   1.769   1.730 -0.0203 -0.3257  0.0053
 4012SOL    HW123495   4.631   1.716   1.664  1.4452  0.8456  0.1027
 4012SOL    HW223496   4.551   1.706   1.794  0.3133 -2.6704 -2.0891
 4013SOL     OW23497   4.085   2.848  17.687  0.4726 -0.4063 -0.2183
 4013SOL    HW123498   4.084   2.897  17.604  0.0961  1.3594  0.8161
 4013SOL    HW223499   4.021   2.891   0.056 -0.0373 -3.1951  1.2942
 4014SOL     OW23500   0.838   1.113   1.798  0.3399  0.0351  0.0866
 4014SOL    HW123501   0.827   1.148   1.710  1.1597 -0.0362 -0.0480
 4014SOL    HW223502   0.876   1.188   1.844 -0.0018  1.2300 -1.6118
 4015SOL     OW23503   3.944   2.339   8.001 -0.0748  0.1478  0.1771
 4015SOL    HW123504   3.936   2.284   8.079  3.6016 -1.5673 -0.6521
 4015SOL    HW223505   3.857   2.323   7.964 -0.0187  0.3976 -0.0624
 4016SOL     OW23506   2.862   4.677   2.663  0.2798 -0.2997 -0.6383
 4016SOL    HW123507   2.812   4.696   2.742  3.1256 -0.4474  1.2287
 4016SOL    HW223508   2.904   4.594   2.686 -1.7920 -0.3640  2.9216
 4017SOL     OW23509   2.373   3.617  14.132  1.1579  0.1625 -0.5373
 4017SOL    HW123510   2.397   3.525  14.124 -1.2660 -0.2767 -2.7188
 4017SOL    HW223511   2.446   3.661  14.176  1.5418 -0.8597 -0.1307
 4018SOL     OW23512   4.258   1.821   3.524 -0.2627 -0.3747  0.3073
 4018SOL    HW123513   4.170   1.814   3.489 -0.3639  0.1249  0.4680
 4018SOL    HW223514   4.283   1.911   3.507 -1.5643 -0.1044 -0.1181
 4019SOL     OW23515   3.435   4.013   8.391 -0.1451  0.2777  0.5297
 4019SOL    HW123516   3.494   4.073   8.435  1.8361 -1.7407  0.6583
 4019SOL    HW223517   3.431   3.931   8.441 -1.3053 -0.4355 -0.7150
 4020SOL     OW23518   1.407   2.217  12.108  0.2517 -0.4274  0.2373
 4020SOL    HW123519   1.462   2.166  12.167 -0.8407 -1.2142  0.5714
 4020SOL    HW223520   1.464   2.225  12.031 -1.9700 -0.1028 -1.3819
 4021SOL     OW23521   0.183   4.489   5.447 -0.1877 -0.0774  0.2433
 4021SOL    HW123522   0.167   4.554   5.379 -2.1329 -0.4018  0.3736
 4021SOL    HW223523   0.274   4.508   5.469 -0.4073  0.4721  0.6942
 4022SOL     OW23524   1.761   2.838  13.240  0.2857 -0.1207  0.0786
 4022SOL    HW123525   1.722   2.893  13.171 -0.1703  0.3963  0.7503
 4022SOL    HW223526   1.723   2.874  13.320 -0.1163 -1.7020  0.5936
 4023SOL     OW23527   0.873   4.348   3.731 -0.1057 -0.2538  0.5046
 4023SOL    HW123528   0.865   4.253   3.718 -1.2991 -0.2735  1.4022
 4023SOL    HW223529   0.966   4.362   3.712 -0.4271  1.3680  0.1628
 4024SOL     OW23530   0.782   1.834   0.352 -0.3448 -0.2676 -0.4481
 4024SOL    HW123531   0.740   1.787   0.280  0.2009 -0.8235 -0.4073
 4024SOL    HW223532   0.755   1.776   0.423 -2.3788 -2.3206 -2.9118
 4025SOL     OW23533   2.319   2.448   6.141 -0.5289  0.0611  0.3720
 4025SOL    HW123534   2.414   2.461   6.144 -0.8099  2.5554 -1.3426
 4025SOL    HW223535   2.321   2.371   6.199 -0.4233  0.4989  0.9454
 4026SOL     OW23536   3.843   4.168  12.598  0.0444  0.1495 -0.4862
 4026SOL    HW123537   3.836   4.073  12.594  0.7133  0.1379 -1.3204
 4026SOL    HW223538   3.751   4.191  12.614 -0.4548 -0.6035 -2.2879
 4027SOL     OW23539   3.857   1.556   3.416 -0.1016  0.0875  0.2340
 4027SOL    HW123540   3.806   1.615   3.361  1.0843  0.4286 -0.5144
 4027SOL    HW223541   3.895   1.491   3.357  1.6645  1.2310  0.0853
 4028SOL     OW23542   0.169   0.186   3.769 -0.2032  0.0096  0.5942
 4028SOL    HW123543   0.157   0.149   3.682  1.2811 -1.2066  0.9136
 4028SOL    HW223544   0.109   0.260   3.763 -0.3308  0.1237  3.2254
 4029SOL     OW23545   1.972   0.935   3.884 -0.0011 -0.5743  0.1689
 4029SOL    HW123546   1.977   0.889   3.969 -0.3873 -2.4543 -0.8159
 4029SOL    HW223547   1.999   1.021   3.916 -2.3582  0.1256  0.2826
 4030SOL     OW23548   0.145   4.510  16.305 -0.0479  0.4662  0.7886
 4030SOL    HW123549   0.212   4.485  16.241 -0.1659  0.6628  0.5901
 4030SOL    HW223550   0.168   4.602  16.319  3.3687 -0.0844 -0.9896
 4031SOL     OW23551   2.072   0.515  10.694 -0.0229 -0.1894 -0.3603
 4031SOL    HW123552   2.152   0.509  10.747 -1.1520 -1.9940  1.1144
 4031SOL    HW223553   2.012   0.454  10.736 -1.6974  2.0930  0.5895
 4032SOL     OW23554   4.527   3.868  10.092 -0.5794  0.0198 -0.5157
 4032SOL    HW123555   4.479   3.800  10.139  0.8041 -0.4962  0.1649
 4032SOL    HW223556   4.467   3.890  10.021 -1.4259 -1.4982 -0.2538
 4033SOL     OW23557   1.751   2.318   5.019 -0.0481 -0.2297  0.4223
 4033SOL    HW123558   1.725   2.353   5.104 -0.8060  0.3730 -0.0525
 4033SOL    HW223559   1.699   2.372   4.960 -0.8182  0.6851  1.9232
 4034SOL     OW23560   2.431   1.624   2.760  0.0170 -0.3098 -0.5598
 4034SOL    HW123561   2.349   1.673   2.762 -1.0509 -2.2114  2.0934
 4034SOL    HW223562   2.403   1.532   2.761 -1.1219  0.0848  2.5869
 4035SOL     OW23563   4.211   3.913   3.438  0.1594  0.1559  0.4043
 4035SOL    HW123564   4.282   3.975   3.425 -0.5954  0.6631 -1.1777
 4035SOL    HW223565   4.189   3.924   3.531 -2.6405 -1.7122 -0.0240
 4036SOL     OW23566   0.811   2.172   3.612 -0.0093  0.1962 -0.0317
 4036SOL    HW123567   0.817   2.256   3.658 -0.3080  0.1610  0.0719
 4036SOL    HW223568   0.811   2.202   3.521 -1.1095 -3.0609 -1.1146
 4037SOL     OW23569   2.225   1.093  10.710  0.3843  0.2132 -0.3232
 4037SOL    HW123570   2.236   1.013  10.761 -0.4497  0.3916  0.1359
 4037SOL    HW223571   2.303   1.142  10.736  1.1547 -2.0924  1.7808
 4038SOL     OW23572   3.643   3.423  16.456  0.1544 -0.2265 -0.0655
 4038SOL    HW123573   3.665   3.373  16.535  1.4004 -1.2710 -1.0744
 4038SOL    HW223574   3.589   3.373  16.395 -0.4569 -0.9732  1.0722
 4039SOL     OW23575   1.126   2.069   5.058  0.2722  0.2899 -0.1328
 4039SOL    HW123576   1.105   2.161   5.070 -1.1287  0.2000 -1.8450
 4039SOL    HW223577   1.150   2.042   5.147  1.3117  1.0475 -0.1835
 4040SOL     OW23578   4.140   0.361   3.527 -0.7182  0.6122  0.0016
 4040SOL    HW123579   4.160   0.268   3.526 -3.7526 -0.0394 -0.6411
 4040SOL    HW223580   4.176   0.386   3.612 -0.5398  1.5963 -0.3611
 4041SOL     OW23581   0.684   2.163   5.955  0.4683 -0.3465 -0.0074
 4041SOL    HW123582   0.725   2.248   5.973 -0.1782  0.0921 -0.6250
 4041SOL    HW223583   0.621   2.154   6.026 -0.8579  1.0972 -1.0024
 4042SOL     OW23584   1.043   2.624   7.060 -0.2742  0.0187  0.1691
 4042SOL    HW123585   1.038   2.642   7.153  1.4870 -3.9078  1.0483
 4042SOL    HW223586   1.087   2.704   7.032  1.0539 -0.9221 -0.4311
 4043SOL     OW23587   0.040   1.272  12.404 -0.2593 -0.6491 -0.3853
 4043SOL    HW123588   4.698   1.209  12.438  0.0674 -0.9379 -0.3238
 4043SOL    HW223589   0.089   1.223  12.338 -0.3639 -1.2148 -0.0388
 4044SOL     OW23590   0.201   1.330   5.712 -0.3162 -0.1608  0.2598
 4044SOL    HW123591   0.140   1.332   5.786  1.2134 -0.0839  1.5253
 4044SOL    HW223592   0.266   1.380   5.763 -0.8710  2.8317 -1.9871
 4045SOL     OW23593   1.952   0.150   8.335  0.2891  0.8549  0.1597
 4045SOL    HW123594   2.019   0.212   8.308  2.4098 -1.9665 -0.9900
 4045SOL    HW223595   1.881   0.209   8.361 -1.0539 -1.3765  1.5984
 4046SOL     OW23596   3.521   4.595   8.059  0.2802  0.3694 -0.0718
 4046SOL    HW123597   3.488   4.508   8.038  1.2365  0.3748 -1.6311
 4046SOL    HW223598   3.515   4.585   8.154 -0.3957  2.5103  0.1123
 4047SOL     OW23599   0.822   3.597   3.279  0.6712  0.0169 -0.3870
 4047SOL    HW123600   0.911   3.603   3.244  0.0970  0.2160 -1.8022
 4047SOL    HW223601   0.776   3.639   3.207  0.5503 -0.0795 -0.3659
 4048SOL     OW23602   4.162   0.998   1.626 -0.5031  0.2162  0.3230
 4048SOL    HW123603   4.135   0.926   1.683  1.6713  0.3662  1.5555
 4048SOL    HW223604   4.249   0.973   1.595  0.1005  1.6216  0.8789
 4049SOL     OW23605   3.328   2.766  11.744 -0.1659 -0.1536  0.5353
 4049SOL    HW123606   3.367   2.850  11.719  2.1292 -1.4658 -0.2627
 4049SOL    HW223607   3.256   2.799  11.798 -1.2876  0.9004 -1.6148
 4050SOL     OW23608   1.420   1.160   3.393 -0.1946 -0.3299  0.4419
 4050SOL    HW123609   1.505   1.141   3.432  0.6730 -1.2078 -1.9012
 4050SOL    HW223610   1.364   1.107   3.450  0.9540 -1.3344  0.6224
 4051SOL     OW23611   1.089   0.664   8.311  0.1916 -0.1250 -0.1702
 4051SOL    HW123612   1.119   0.696   8.397 -1.1207  0.7555 -0.0529
 4051SOL    HW223613   1.007   0.623   8.336  0.5768 -0.6702  0.2055
 4052SOL     OW23614   0.273   0.612   5.982 -0.6696  0.0939 -0.0406
 4052SOL    HW123615   0.269   0.672   6.057  0.4258 -0.0402  0.1315
 4052SOL    HW223616   0.184   0.579   5.987  0.0438 -1.7317  0.4415
 4053SOL     OW23617   0.735   1.217  14.385 -0.0376 -0.1539 -0.1961
 4053SOL    HW123618   0.682   1.244  14.310 -0.6861  1.1443  0.7106
 4053SOL    HW223619   0.820   1.253  14.361 -1.1643  2.0678 -0.9359
 4054SOL     OW23620   0.805   1.906  13.226  0.0694 -0.4097  0.3984
 4054SOL    HW123621   0.729   1.961  13.209 -0.0328 -1.0236 -1.1027
 4054SOL    HW223622   0.820   1.931  13.317  1.4022  0.4169 -0.0394
 4055SOL     OW23623   3.372   3.209   1.891 -0.1415  0.3293 -0.4943
 4055SOL    HW123624   3.463   3.192   1.866  0.0997  0.6263  0.1808
 4055SOL    HW223625   3.363   3.141   1.958 -2.2265 -1.4975 -2.6330
 4056SOL     OW23626   4.388   1.668  11.886 -0.3464  0.6040 -0.3741
 4056SOL    HW123627   4.464   1.663  11.828  0.5223 -0.7227  0.8834
 4056SOL    HW223628   4.397   1.754  11.928 -2.2759 -0.6768  2.6203
 4057SOL     OW23629   3.644   2.361   8.046 -0.3789  0.3571  0.2275
 4057SOL    HW123630   3.585   2.406   8.107  2.2185  1.9574  1.5155
 4057SOL    HW223631   3.583   2.317   7.986 -1.1029  0.4994  0.8570
 4058SOL     OW23632   4.128   0.271   0.056  0.4098 -0.0491 -0.2248
 4058SOL    HW123633   4.127   0.364   0.034 -0.0178  0.4130  1.7815
 4058SOL    HW223634   4.219   0.254   0.032  0.5412  1.3846 -0.7629
 4059SOL     OW23635   1.142   3.009   9.206  0.6253  0.5847 -0.4530
 4059SOL    HW123636   1.206   2.969   9.265 -0.5047  0.4880  0.6915
 4059SOL    HW223637   1.181   3.096   9.203 -0.4663  1.0420 -0.9624
 4060SOL     OW23638   4.690   3.078  11.083  0.1709 -0.4607  0.2483
 4060SOL    HW123639   4.680   3.132  11.004  1.7486 -0.9936 -0.3206
 4060SOL    HW223640   4.707   2.992  11.046  1.5369 -0.2150  0.2955
 4061SOL     OW23641   0.671   3.780   5.295  0.1844 -0.2216  0.7201
 4061SOL    HW123642   0.635   3.866   5.318  0.0183 -0.0895 -0.0535
 4061SOL    HW223643   0.756   3.792   5.253  0.1695 -0.3177  0.6634
 4062SOL     OW23644   2.101   3.827   9.868  0.7913 -0.1739 -1.0262
 4062SOL    HW123645   2.152   3.822   9.948  1.2834 -0.0867 -1.3333
 4062SOL    HW223646   2.158   3.863   9.800  0.6784  1.7441 -0.1082
 4063SOL     OW23647   2.024   2.028  11.540  0.3065 -0.2499 -0.4658
 4063SOL    HW123648   2.027   2.050  11.447 -2.8558 -0.3812 -0.5778
 4063SOL    HW223649   1.933   2.042  11.564  0.4552  0.4558 -0.3179
 4064SOL     OW23650   3.865   0.552   1.837 -0.2309  0.1730 -0.7448
 4064SOL    HW123651   3.788   0.568   1.893  0.5875 -2.4514  1.1419
 4064SOL    HW223652   3.834   0.591   1.755  1.0370  0.3353 -1.1340
 4065SOL     OW23653   4.432   1.204  13.990 -0.2367 -0.2083 -0.1379
 4065SOL    HW123654   4.376   1.135  14.025  0.7936 -0.0672  1.7914
 4065SOL    HW223655   4.472   1.230  14.073 -2.0465 -0.7256  0.9013
 4066SOL     OW23656   3.713   3.162  12.851  0.5669 -0.0022 -0.2776
 4066SOL    HW123657   3.710   3.068  12.866  1.5167 -0.1480 -0.9848
 4066SOL    HW223658   3.649   3.191  12.916 -1.5669  0.3269 -2.5369
 4067SOL     OW23659   4.393   1.573   7.914 -0.1043  0.2652  0.4653
 4067SOL    HW123660   4.361   1.656   7.950  1.2976  1.9331 -2.0864
 4067SOL    HW223661   4.393   1.521   7.994 -2.3084  0.0475  0.3153
 4068SOL     OW23662   4.114   1.894   6.551  0.2919  0.2710 -0.1804
 4068SOL    HW123663   4.178   1.948   6.598  1.5658 -1.1897 -0.2076
 4068SOL    HW223664   4.107   1.831   6.623  0.2462 -1.5269 -1.7810
 4069SOL     OW23665   2.046   0.088   4.404  0.1171 -0.2399  0.4434
 4069SOL    HW123666   2.021   0.002   4.437  0.4438 -0.8606 -0.9124
 4069SOL    HW223667   1.956   0.119   4.400 -0.2988 -1.4217  0.6223
 4070SOL     OW23668   3.607   2.976   7.355  1.2769 -0.0711  0.1611
 4070SOL    HW123669   3.612   2.969   7.450 -1.6093  1.0325  0.3946
 4070SOL    HW223670   3.690   3.020   7.336  1.5802 -1.3381 -1.4899
 4071SOL     OW23671   0.543   4.566  12.357 -0.4188  0.2811 -0.0861
 4071SOL    HW123672   0.565   4.497  12.294 -2.3942  0.0841 -0.5623
 4071SOL    HW223673   0.517   4.507  12.428  2.4456 -0.8167  0.0504
 4072SOL     OW23674   2.364   2.893   7.900  0.3403 -0.4000  0.0636
 4072SOL    HW123675   2.317   2.908   7.818 -0.3944 -1.2885  0.3299
 4072SOL    HW223676   2.391   2.985   7.912 -1.4306  0.4231 -2.3043
 4073SOL     OW23677   1.610   3.708  14.879  0.1841  0.4215 -0.0961
 4073SOL    HW123678   1.699   3.673  14.883 -0.5119 -1.5119 -1.3234
 4073SOL    HW223679   1.604   3.741  14.789  0.1967  0.1805 -0.1868
 4074SOL     OW23680   2.995   3.411   2.217  0.5138 -0.9423 -0.2571
 4074SOL    HW123681   3.076   3.417   2.268  1.1088 -0.1344 -1.2960
 4074SOL    HW223682   3.008   3.335   2.160  0.3811 -1.1757  0.0244
 4075SOL     OW23683   1.029   4.390   4.449 -0.3623  0.2444 -0.3096
 4075SOL    HW123684   0.988   4.366   4.532  1.9252 -2.2903  0.0935
 4075SOL    HW223685   0.952   4.415   4.398 -0.2758  0.2224 -0.4524
 4076SOL     OW23686   3.680   3.006   0.520 -0.2017 -0.0514 -0.4961
 4076SOL    HW123687   3.698   2.970   0.607  0.6538  1.2619 -0.1358
 4076SOL    HW223688   3.706   2.939   0.457  0.6916  0.9849 -1.2413
 4077SOL     OW23689   2.047   1.204   1.658 -0.2086 -0.1606  0.3328
 4077SOL    HW123690   2.020   1.127   1.707  1.8520 -0.4845  0.9613
 4077SOL    HW223691   2.126   1.220   1.709 -1.6337  2.1972  1.7954
 4078SOL     OW23692   0.872   3.024   6.853 -0.0287 -0.0391  0.2781
 4078SOL    HW123693   0.880   2.939   6.809 -0.2143 -0.0220  0.2102
 4078SOL    HW223694   0.826   2.994   6.931 -0.6351 -1.1989 -0.5205
 4079SOL     OW23695   1.623   0.705   4.252 -0.1496  0.0324  0.1185
 4079SOL    HW123696   1.606   0.626   4.202 -1.6423  1.2678 -1.3069
 4079SOL    HW223697   1.554   0.768   4.230 -0.6277 -0.5137  0.0551
 4080SOL     OW23698   3.192   2.596   5.157  0.5350 -0.4674  0.0337
 4080SOL    HW123699   3.278   2.578   5.119 -0.4330 -2.8134 -1.0704
 4080SOL    HW223700   3.156   2.657   5.093  1.2892  0.0936  0.1457
 4081SOL     OW23701   2.897   3.473   8.330 -0.2900 -0.2614  0.1339
 4081SOL    HW123702   2.828   3.471   8.263 -1.5315  1.7845  1.3483
 4081SOL    HW223703   2.888   3.557   8.376  2.8187  1.2511 -1.9833
 4082SOL     OW23704   1.475   4.357   4.374 -0.2084 -0.0585  0.1573
 4082SOL    HW123705   1.494   4.299   4.447  1.0051 -0.8861 -0.8142
 4082SOL    HW223706   1.395   4.324   4.332 -1.1086  0.1518  1.7355
 4083SOL     OW23707   1.054   0.712   5.889 -0.4448  0.4651  0.3573
 4083SOL    HW123708   1.132   0.768   5.879 -1.1577  1.4325  0.2122
 4083SOL    HW223709   1.075   0.627   5.850 -0.0339 -0.2794  2.2005
 4084SOL     OW23710   0.766   1.792   5.214 -0.1764  0.0227  0.0864
 4084SOL    HW123711   0.831   1.816   5.148 -1.8900  3.1487 -0.4236
 4084SOL    HW223712   0.825   1.764   5.285 -0.5417  0.1501  0.4413
 4085SOL     OW23713   2.276   4.094   0.131 -0.0495 -0.0189 -0.5688
 4085SOL    HW123714   2.326   4.141   0.065 -0.0896  1.1833  0.2591
 4085SOL    HW223715   2.337   4.035   0.176  1.7903  1.2111 -1.4709
 4086SOL     OW23716   3.051   1.356  11.428  0.3668 -0.5951 -0.5241
 4086SOL    HW123717   3.038   1.404  11.510  1.7965 -1.2209  0.0822
 4086SOL    HW223718   2.983   1.394  11.373 -0.6787 -1.5040  0.1310
 4087SOL     OW23719   3.243   0.798   9.182 -0.9708 -0.5181  0.1817
 4087SOL    HW123720   3.195   0.881   9.189  0.0592  0.1576 -0.7035
 4087SOL    HW223721   3.306   0.821   9.250 -1.4653  0.5553  0.2805
 4088SOL     OW23722   0.291   0.250  14.533 -0.4840  0.1513  0.4790
 4088SOL    HW123723   0.281   0.230  14.626 -0.8218 -0.1510  0.3786
 4088SOL    HW223724   0.350   0.325  14.532  1.9968 -1.8310 -2.2577
 4089SOL     OW23725   2.283   3.453   5.216  0.1004 -0.2820  0.5831
 4089SOL    HW123726   2.216   3.389   5.191  1.1581 -0.8582 -0.7619
 4089SOL    HW223727   2.352   3.434   5.152  0.0365 -0.7255  0.6464
 4090SOL     OW23728   1.673   3.687   4.270  0.8474  0.1529  0.0048
 4090SOL    HW123729   1.581   3.690   4.244 -0.2526 -0.0264  3.9386
 4090SOL    HW223730   1.673   3.777   4.301  0.0329  0.9231 -2.1977
 4091SOL     OW23731   4.602   0.128   6.641 -0.0587  0.6254 -0.3552
 4091SOL    HW123732   4.650   0.089   6.568  1.5683  1.2304  0.3999
 4091SOL    HW223733   4.533   0.065   6.658  1.5408 -1.1815 -0.5756
 4092SOL     OW23734   1.472   0.016   2.304 -0.0400  0.3092 -0.2852
 4092SOL    HW123735   1.449   0.021   2.396 -0.4033 -1.9266 -0.2572
 4092SOL    HW223736   1.561   0.050   2.304 -0.3585  1.1292  2.9586
 4093SOL     OW23737   0.050   0.625   5.760 -0.2779 -0.0570 -0.1676
 4093SOL    HW123738   0.112   0.692   5.733  0.8643 -0.2810  1.8947
 4093SOL    HW223739   4.689   0.669   5.741  0.7723  2.4918  1.2866
 4094SOL     OW23740   1.901   2.643   8.177  0.4217 -0.6957 -0.0036
 4094SOL    HW123741   1.921   2.617   8.267  0.8049  1.4182  0.5160
 4094SOL    HW223742   1.970   2.709   8.176 -1.0223  0.8067 -1.4522
 4095SOL     OW23743   3.482   4.632   2.423  0.2020  0.5078  0.3452
 4095SOL    HW123744   3.422   4.704   2.440 -0.2348  0.3327 -0.4464
 4095SOL    HW223745   3.481   4.589   2.508  0.1682  1.1460  0.6652
 4096SOL     OW23746   0.141   1.630  11.502 -0.0651 -0.6353 -0.1650
 4096SOL    HW123747   0.048   1.629  11.478 -0.3205  0.1042  0.7920
 4096SOL    HW223748   0.152   1.725  11.511 -0.4087 -0.5811 -0.3052
 4097SOL     OW23749   3.118   1.727   5.004 -0.2162 -0.2676  0.0775
 4097SOL    HW123750   3.171   1.691   5.075 -1.8876 -2.6369  0.1167
 4097SOL    HW223751   3.067   1.651   4.975 -0.0278 -0.0389 -0.8750
 4098SOL     OW23752   3.728   0.446   5.272 -0.9628 -0.0405  0.5596
 4098SOL    HW123753   3.763   0.487   5.351 -1.2684 -1.5717  1.4914
 4098SOL    HW223754   3.651   0.414   5.319 -0.7358 -1.8629 -0.2875
 4099SOL     OW23755   2.457   0.748  11.309 -0.1767  0.8653  0.3359
 4099SOL    HW123756   2.417   0.822  11.264 -1.6649 -0.0401  0.1814
 4099SOL    HW223757   2.548   0.777  11.313 -0.2064  1.0780 -0.6629
 4100SOL     OW23758   3.008   4.577  11.621  0.3124  0.6014  0.5620
 4100SOL    HW123759   2.984   4.654  11.672 -1.3619  0.7221 -0.3993
 4100SOL    HW223760   3.023   4.604  11.531  0.4715 -0.4021  0.2868
 4101SOL     OW23761   0.954   3.338   3.731 -0.0255 -0.0637 -0.0879
 4101SOL    HW123762   1.043   3.329   3.766 -0.8770  1.1392  2.3992
 4101SOL    HW223763   0.938   3.246   3.711 -0.1871  0.5798 -2.8231
 4102SOL     OW23764   0.154   4.226   4.176  0.1353 -0.1427  0.3237
 4102SOL    HW123765   0.229   4.179   4.212  1.9776 -0.1021 -3.5240
 4102SOL    HW223766   0.185   4.314   4.156 -0.0060  0.3830  2.3656
 4103SOL     OW23767   2.296   4.370   6.741 -0.1058  0.2419  0.2513
 4103SOL    HW123768   2.265   4.386   6.651 -2.6921  1.1853  1.3208
 4103SOL    HW223769   2.258   4.453   6.770 -1.0580 -0.5301  1.2264
 4104SOL     OW23770   4.715   2.930   3.578  0.5973  0.5023  0.9849
 4104SOL    HW123771   4.644   2.943   3.515 -2.1671 -2.1709  3.5515
 4104SOL    HW223772   0.035   2.851   3.544  0.9769  1.6567 -1.2275
 4105SOL     OW23773   0.463   3.364   1.681  0.3010 -0.0734  0.1984
 4105SOL    HW123774   0.543   3.344   1.633 -1.5860  1.9998 -3.8111
 4105SOL    HW223775   0.404   3.306   1.633  0.8453 -1.6107  1.3847
 4106SOL     OW23776   3.774   3.391   6.552 -0.2233  0.5656  0.1650
 4106SOL    HW123777   3.764   3.447   6.474 -1.2633  0.6235  0.3383
 4106SOL    HW223778   3.790   3.455   6.622 -3.3077  0.9155  0.5541
 4107SOL     OW23779   1.079   4.345   2.938  0.7831 -0.1360 -0.2109
 4107SOL    HW123780   1.088   4.379   2.849  0.8788  1.3736  0.3790
 4107SOL    HW223781   1.072   4.430   2.981  1.3506 -0.2755  0.1596
 4108SOL     OW23782   4.225   4.185  16.870 -0.4739 -0.2871 -1.0582
 4108SOL    HW123783   4.145   4.153  16.828 -2.4811 -0.2245  2.7221
 4108SOL    HW223784   4.290   4.163  16.804  1.9656  1.8582  0.6273
 4109SOL     OW23785   4.268   3.682   7.597  0.0829 -0.4370  0.6723
 4109SOL    HW123786   4.333   3.735   7.643  2.2453 -2.6409  0.1385
 4109SOL    HW223787   4.304   3.594   7.605  1.1857 -0.0362  0.1216
 4110SOL     OW23788   0.321   2.565   8.295 -0.1279 -0.0160  0.5940
 4110SOL    HW123789   0.306   2.471   8.292  0.9185 -0.1574 -0.1873
 4110SOL    HW223790   0.241   2.597   8.254 -1.0622 -2.8361  0.2132
 4111SOL     OW23791   4.132   3.878   3.144 -0.3494 -0.4329 -0.3390
 4111SOL    HW123792   4.088   3.959   3.121  1.4407  1.2488  2.1638
 4111SOL    HW223793   4.135   3.887   3.239 -0.7143  0.8145 -0.4428
 4112SOL     OW23794   1.074   4.458   8.914  0.5611 -1.1184  0.3575
 4112SOL    HW123795   1.050   4.502   8.995  0.8760 -3.2899  1.6267
 4112SOL    HW223796   1.166   4.441   8.931  1.1376 -0.8736 -2.4890
 4113SOL     OW23797   3.757   1.047   6.635 -0.5558 -0.0336  0.3351
 4113SOL    HW123798   3.833   0.991   6.623 -0.0469  0.0081  3.3597
 4113SOL    HW223799   3.799   1.124   6.674 -0.7934  0.7895 -1.0251
 4114SOL     OW23800   1.180   2.078   7.028  0.4817 -0.9630  0.1984
 4114SOL    HW123801   1.161   2.114   6.941 -0.2414  3.4515  2.2134
 4114SOL    HW223802   1.267   2.045   7.005 -0.6423 -1.4382 -3.3747
 4115SOL     OW23803   4.546   2.615   2.578  0.0874  0.6105  0.3078
 4115SOL    HW123804   4.473   2.638   2.522  1.0260 -1.1469 -1.6747
 4115SOL    HW223805   4.590   2.698   2.592  1.8247  0.0800 -1.9335
 4116SOL     OW23806   2.639   0.249  12.153  0.3623 -0.0964 -0.6600
 4116SOL    HW123807   2.701   0.322  12.159 -0.5402  0.3815  2.7387
 4116SOL    HW223808   2.649   0.220  12.063 -1.7111 -0.1776 -0.8592
 4117SOL     OW23809   0.994   0.793   7.685 -0.1915  0.8939  0.1186
 4117SOL    HW123810   1.063   0.790   7.751  1.6238  1.8011 -1.7636
 4117SOL    HW223811   0.933   0.730   7.723  2.1997 -1.3404  0.2670
 4118SOL     OW23812   2.776   1.427  17.047 -0.0940  0.0719 -0.0114
 4118SOL    HW123813   2.828   1.355  17.082 -0.4498 -1.3608 -2.4505
 4118SOL    HW223814   2.841   1.477  16.998 -2.6817  2.0847 -1.3993
 4119SOL     OW23815   2.618   1.102   5.200  0.3288 -0.2934  0.1581
 4119SOL    HW123816   2.602   1.061   5.284  1.0491  0.4554  0.6562
 4119SOL    HW223817   2.710   1.126   5.209 -0.0830  1.2594  0.3050
 4120SOL     OW23818   2.719   2.901  11.456 -0.1807 -0.1850  0.0753
 4120SOL    HW123819   2.794   2.885  11.399 -0.4344  2.1374 -0.8796
 4120SOL    HW223820   2.646   2.868  11.403 -0.3509  0.9164 -0.3586
 4121SOL     OW23821   4.339   1.607   6.588 -0.1483  0.4996 -0.1584
 4121SOL    HW123822   4.314   1.651   6.669 -0.5845 -0.3770  0.1705
 4121SOL    HW223823   4.262   1.593   6.534 -1.0832 -1.2126  1.6376
 4122SOL     OW23824   1.368   3.402   2.911 -0.3703 -0.0607  0.7093
 4122SOL    HW123825   1.400   3.485   2.947  3.0693 -0.1336 -2.2628
 4122SOL    HW223826   1.430   3.389   2.840 -0.1148  0.2571  0.8712
 4123SOL     OW23827   3.206   0.613  10.200  0.1871  0.1463  0.1968
 4123SOL    HW123828   3.206   0.684  10.136  1.2644 -0.5989 -0.6338
 4123SOL    HW223829   3.120   0.634  10.236 -0.2094 -1.4819  0.2304
 4124SOL     OW23830   3.599   0.832   4.302 -0.2659 -0.0310 -0.0614
 4124SOL    HW123831   3.504   0.835   4.292 -0.4333  0.5246  1.6116
 4124SOL    HW223832   3.636   0.844   4.215  2.1719  1.0077  1.1242
 4125SOL     OW23833   3.162   1.663   4.098 -0.4430  0.4144 -0.0771
 4125SOL    HW123834   3.149   1.668   4.003  2.4023 -2.4743 -0.6462
 4125SOL    HW223835   3.077   1.649   4.138 -0.6863 -0.8646 -1.0520
 4126SOL     OW23836   4.174   4.008   3.698  0.0976  0.3705 -0.0245
 4126SOL    HW123837   4.171   3.938   3.763  2.8555 -1.4062 -1.8088
 4126SOL    HW223838   4.216   4.084   3.738  0.4846 -0.2722  0.7766
 4127SOL     OW23839   1.822   3.553   6.483 -0.7305 -0.0009  0.3244
 4127SOL    HW123840   1.740   3.568   6.530 -1.1467 -0.8006 -0.1692
 4127SOL    HW223841   1.879   3.622   6.519 -1.2710  1.5985 -1.8927
 4128SOL     OW23842   0.406   2.097   2.156 -0.0342 -0.3778  0.4429
 4128SOL    HW123843   0.440   2.184   2.179  0.9117 -0.5913 -0.1487
 4128SOL    HW223844   0.451   2.073   2.075  1.3080 -1.6670  1.5669
 4129SOL     OW23845   0.116   2.677   8.657  0.4422 -0.5267 -0.5488
 4129SOL    HW123846   0.211   2.692   8.658  0.8928 -3.4364  0.6095
 4129SOL    HW223847   0.079   2.764   8.665 -1.7939 -1.6008  0.5475
 4130SOL     OW23848   0.719   1.184  12.073 -0.2302  0.1700  0.3127
 4130SOL    HW123849   0.666   1.164  11.996 -0.0543 -4.4975  1.4566
 4130SOL    HW223850   0.671   1.139  12.143 -0.1264  0.5920  0.6586
 4131SOL     OW23851   3.761   0.665   1.619 -0.2987  0.0527  0.4259
 4131SOL    HW123852   3.666   0.674   1.629 -0.4524  0.1943 -1.2634
 4131SOL    HW223853   3.761   0.647   1.525 -0.0619 -2.6111  0.9283
 4132SOL     OW23854   2.643   4.270   2.681  0.0829 -0.0918  0.3049
 4132SOL    HW123855   2.586   4.194   2.665 -0.1053 -0.0224  0.6463
 4132SOL    HW223856   2.732   4.253   2.650  0.1932 -0.1120  0.6368
 4133SOL     OW23857   0.514   3.464  11.789 -0.1761 -0.1494  0.0927
 4133SOL    HW123858   0.523   3.509  11.705 -0.1757 -0.7880 -0.2525
 4133SOL    HW223859   0.459   3.525  11.837  0.0762 -1.5343  2.1348
 4134SOL     OW23860   3.375   0.576   6.143  0.2302  0.1030  0.5514
 4134SOL    HW123861   3.314   0.536   6.205  0.0152  0.5086  0.6009
 4134SOL    HW223862   3.460   0.552   6.179 -0.0819 -0.9682  0.5615
 4135SOL     OW23863   3.757   4.333   9.972 -0.1277 -0.0907 -0.3848
 4135SOL    HW123864   3.676   4.283   9.981 -0.4735  0.2525 -1.5864
 4135SOL    HW223865   3.793   4.277   9.904  1.6027  1.6766 -0.9168
 4136SOL     OW23866   0.525   2.938   1.416 -0.1417 -0.1668  0.5241
 4136SOL    HW123867   0.517   2.864   1.476 -1.1514  0.0251  0.6135
 4136SOL    HW223868   0.469   3.006   1.453 -0.8431 -0.5406  0.1432
 4137SOL     OW23869   2.924   0.299   6.235  0.2372 -0.2416 -0.0349
 4137SOL    HW123870   2.835   0.318   6.264  0.4652 -1.2952  1.3603
 4137SOL    HW223871   2.912   0.213   6.196  0.9539  0.3493 -1.5579
 4138SOL     OW23872   3.655   2.951   9.462  0.1080  0.2768 -0.7200
 4138SOL    HW123873   3.646   2.904   9.380  0.0349  1.6936 -1.5179
 4138SOL    HW223874   3.568   2.935   9.499  1.0180  0.3255  1.4754
 4139SOL     OW23875   3.335   3.165   4.874 -0.9872  0.3489  0.0849
 4139SOL    HW123876   3.421   3.207   4.875 -3.6564  5.8077  0.0094
 4139SOL    HW223877   3.311   3.186   4.784  3.3427  0.7091 -1.0268
 4140SOL     OW23878   2.256   4.581   3.573  0.7724 -0.0591  0.6597
 4140SOL    HW123879   2.271   4.652   3.636 -3.7884 -0.8350  2.6168
 4140SOL    HW223880   2.305   4.607   3.495  2.5201  1.0059  2.1055
 4141SOL     OW23881   1.140   0.852   4.684 -0.5031  0.4019  0.3993
 4141SOL    HW123882   1.105   0.764   4.672 -1.6417  1.1841 -2.0446
 4141SOL    HW223883   1.207   0.868   4.619 -1.3202 -1.8423 -1.0057
 4142SOL     OW23884   4.162   4.348   3.450  0.1964  0.2499 -0.1440
 4142SOL    HW123885   4.165   4.393   3.366 -0.1063  0.3163 -0.1188
 4142SOL    HW223886   4.185   4.264   3.411  0.1882 -0.3301  1.0895
 4143SOL     OW23887   1.019   4.260   6.297 -0.4047  0.1749  0.1090
 4143SOL    HW123888   0.980   4.342   6.266 -0.9929 -0.3446 -0.5036
 4143SOL    HW223889   0.950   4.200   6.271  2.5276 -3.4029  0.5585
 4144SOL     OW23890   0.896   4.600  14.026 -0.0773  0.2294  0.5077
 4144SOL    HW123891   0.876   4.691  14.003 -2.4484 -0.9085 -1.8777
 4144SOL    HW223892   0.980   4.574  13.988  0.4934  0.8027  1.3557
 4145SOL     OW23893   0.925   0.059   1.667 -0.1989  0.2150 -0.2686
 4145SOL    HW123894   0.908   0.010   1.587 -4.4382 -0.0385  0.7813
 4145SOL    HW223895   1.001   0.112   1.641 -0.1241  0.7240  0.9642
 4146SOL     OW23896   0.461   3.816  15.371 -0.0521 -0.4241 -0.1094
 4146SOL    HW123897   0.519   3.743  15.392 -0.3000 -0.9549 -1.2155
 4146SOL    HW223898   0.524   3.886  15.353  0.9630 -0.8453  1.8426
 4147SOL     OW23899   2.762   2.550   8.034 -0.5871 -0.3515  0.1092
 4147SOL    HW123900   2.685   2.606   8.046 -0.0526  0.6834 -1.3235
 4147SOL    HW223901   2.814   2.579   8.108 -0.1023  2.3816 -1.3209
 4148SOL     OW23902   0.450   1.600  12.781  0.0561  0.2809 -1.2684
 4148SOL    HW123903   0.511   1.616  12.709  2.8972 -3.1163  0.3487
 4148SOL    HW223904   0.514   1.549  12.832 -1.5345 -1.3390 -0.8848
 4149SOL     OW23905   1.817   0.786   9.503 -0.1685 -0.2343  0.6118
 4149SOL    HW123906   1.852   0.707   9.545  0.2200 -0.2279  0.2937
 4149SOL    HW223907   1.734   0.754   9.468  0.0626  2.9136 -2.7405
 4150SOL     OW23908   3.077   4.588   1.947  0.1234  0.7774  0.3239
 4150SOL    HW123909   2.995   4.603   1.995 -0.9392 -0.9928 -0.9425
 4150SOL    HW223910   3.137   4.603   2.020 -0.4049 -0.1521  0.9548
 4151SOL     OW23911   3.124   2.934   4.257  0.5134  0.3151  0.2286
 4151SOL    HW123912   3.080   2.917   4.174 -3.3941  0.5337  2.2491
 4151SOL    HW223913   3.063   3.003   4.284  1.0927  1.3075 -0.9953
 4152SOL     OW23914   4.127   1.111  14.234  0.3612  0.1875 -0.8302
 4152SOL    HW123915   4.133   1.182  14.298 -0.7172 -0.4109 -0.0621
 4152SOL    HW223916   4.201   1.063  14.272 -0.1308  1.8160  2.1754
 4153SOL     OW23917   4.028   4.172   2.563 -0.5328 -0.0120  0.6546
 4153SOL    HW123918   3.945   4.127   2.582 -0.4631 -1.1644 -1.7408
 4153SOL    HW223919   4.084   4.095   2.561  0.1594  0.4995  0.3851
 4154SOL     OW23920   2.680   0.435   6.346 -0.1348  0.3064 -0.0641
 4154SOL    HW123921   2.590   0.401   6.342 -0.6805  1.7031  0.2358
 4154SOL    HW223922   2.668   0.530   6.334  2.2786  0.6633  0.3292
 4155SOL     OW23923   0.258   2.797   3.764 -0.4895  0.7276 -0.5523
 4155SOL    HW123924   0.207   2.818   3.842  1.5274  0.2697  0.8980
 4155SOL    HW223925   0.205   2.724   3.730 -0.8710  0.8012 -0.1144
 4156SOL     OW23926   0.721   4.489   0.111 -0.7830 -0.2149 -0.0939
 4156SOL    HW123927   0.650   4.545   0.081  1.1208  2.4797  0.3702
 4156SOL    HW223928   0.797   4.540   0.081 -2.4252  1.1621 -1.9204
 4157SOL     OW23929   0.090   3.912  10.113  0.3429  0.0885  0.0637
 4157SOL    HW123930   0.095   3.919  10.208 -1.1329  3.3027 -0.1102
 4157SOL    HW223931   4.720   3.888  10.099  0.0269 -0.0305  2.3879
 4158SOL     OW23932   2.443   1.715   8.727  0.1445  0.5714  0.3698
 4158SOL    HW123933   2.424   1.621   8.731 -0.8282  0.6948 -1.3836
 4158SOL    HW223934   2.371   1.742   8.670 -0.0972 -0.6671  0.0911
 4159SOL     OW23935   1.980   1.429   6.138  0.0413 -0.6360 -0.0394
 4159SOL    HW123936   2.027   1.386   6.066  0.6221 -0.7030  0.3831
 4159SOL    HW223937   1.921   1.491   6.095  2.5966  0.2036 -2.3634
 4160SOL     OW23938   2.865   0.932   6.787 -0.1822 -0.1114  0.3463
 4160SOL    HW123939   2.821   0.871   6.846 -0.0397 -0.3805  0.1719
 4160SOL    HW223940   2.909   0.870   6.729 -0.6930  0.4577 -0.6532
 4161SOL     OW23941   0.462   1.038   9.072 -0.3851 -0.1283 -0.1770
 4161SOL    HW123942   0.430   1.087   9.147  1.4161  2.2338 -0.9736
 4161SOL    HW223943   0.542   1.085   9.052 -1.1954  1.3515  0.0986
 4162SOL     OW23944   4.351   0.497   4.734 -0.1219  0.6103  0.1173
 4162SOL    HW123945   4.331   0.591   4.732 -1.4712  0.2444 -2.5476
 4162SOL    HW223946   4.403   0.493   4.815  1.6196 -5.0582 -1.3150
 4163SOL     OW23947   0.353   1.944   8.681 -0.1680 -0.3852 -0.3745
 4163SOL    HW123948   0.282   1.879   8.673 -2.0228  1.6848 -0.6951
 4163SOL    HW223949   0.432   1.891   8.671 -1.3468 -2.2872  0.3843
 4164SOL     OW23950   4.667   2.089  15.958 -0.1779  0.2358  0.0371
 4164SOL    HW123951   0.026   2.140  15.969 -0.2512  0.8120 -2.0944
 4164SOL    HW223952   4.651   2.071  16.051  0.0186  3.0317  0.5941
 4165SOL     OW23953   2.646   3.645   2.457 -0.1209  0.1042 -0.6929
 4165SOL    HW123954   2.732   3.616   2.488 -0.9143  1.9985  3.3008
 4165SOL    HW223955   2.590   3.567   2.456 -0.4944  0.4249 -3.3257
 4166SOL     OW23956   2.779   4.324   1.535  0.3145  0.1055 -0.0706
 4166SOL    HW123957   2.773   4.229   1.538 -3.3442  0.2646 -1.9247
 4166SOL    HW223958   2.874   4.336   1.528  0.2515 -0.2758 -1.6210
 4167SOL     OW23959   4.500   1.999   4.660 -0.4660 -0.4357 -0.5560
 4167SOL    HW123960   4.505   1.904   4.653  2.0916 -0.2962 -0.6928
 4167SOL    HW223961   4.407   2.016   4.643 -0.0830  2.5178  0.2430
 4168SOL     OW23962   1.951   4.437   6.193 -0.0761  0.7858 -0.2204
 4168SOL    HW123963   1.942   4.505   6.261 -1.0945 -1.3672  1.7957
 4168SOL    HW223964   2.036   4.465   6.160  1.2529 -0.0560  2.4831
 4169SOL     OW23965   0.584   2.682  11.544  0.4994 -0.1722 -0.4554
 4169SOL    HW123966   0.566   2.634  11.463  0.0974 -1.8196  0.6143
 4169SOL    HW223967   0.620   2.613  11.599 -2.0238 -0.8985  0.3013
 4170SOL     OW23968   4.412   4.080  17.321 -0.0282 -0.1923 -0.3676
 4170SOL    HW123969   4.362   4.127  17.388  0.3162  1.4565 -1.2850
 4170SOL    HW223970   4.341   4.085  17.258  0.2875 -0.0603 -0.7095
 4171SOL     OW23971   0.966   3.470  14.286  0.2425 -0.5895  0.2173
 4171SOL    HW123972   1.018   3.537  14.331 -1.2208  1.5717 -1.3257
 4171SOL    HW223973   0.887   3.474  14.340  0.6829 -0.8216  0.8876
 4172SOL     OW23974   0.318   0.897  13.569  0.1486  0.3807 -0.3176
 4172SOL    HW123975   0.244   0.865  13.517 -1.5153 -0.8832  2.7979
 4172SOL    HW223976   0.383   0.856  13.513 -0.2138 -0.0658 -0.4071
 4173SOL     OW23977   2.481   4.469   2.675  0.5792  0.2554  0.0503
 4173SOL    HW123978   2.407   4.426   2.717  0.0387 -0.5609 -1.7503
 4173SOL    HW223979   2.533   4.389   2.674 -0.2991 -0.3187  0.3370
 4174SOL     OW23980   2.117   3.648   7.064  0.3138  0.2027 -0.1538
 4174SOL    HW123981   2.136   3.562   7.101 -1.2849  0.7071  1.8437
 4174SOL    HW223982   2.199   3.692   7.084 -0.1487  0.0909  1.9888
 4175SOL     OW23983   4.646   2.180   0.721  0.0997  0.3670  0.0204
 4175SOL    HW123984   4.574   2.128   0.685  0.4951  0.3345 -0.7212
 4175SOL    HW223985   4.610   2.264   0.748 -0.3848  0.7273 -1.7412
 4176SOL     OW23986   2.509   0.309  12.391 -0.2833 -0.2096  0.1816
 4176SOL    HW123987   2.535   0.252  12.318 -1.6756  0.8602 -1.1487
 4176SOL    HW223988   2.476   0.244  12.453  0.1489 -2.4416 -1.9384
 4177SOL     OW23989   3.858   3.124   7.428 -0.1588  0.5400  0.4036
 4177SOL    HW123990   3.936   3.071   7.410 -0.3598  1.1677 -2.2510
 4177SOL    HW223991   3.870   3.134   7.523 -1.8847  0.6316  0.6203
 4178SOL     OW23992   2.359   0.156  14.406  0.0475  0.7851  0.1085
 4178SOL    HW123993   2.328   0.139  14.317 -0.2964 -2.4296  0.8292
 4178SOL    HW223994   2.422   0.085  14.411 -1.5465 -0.6763 -0.4142
 4179SOL     OW23995   2.143   2.151   1.464 -0.2603  0.5402 -0.2906
 4179SOL    HW123996   2.190   2.216   1.411  0.8789 -0.9041 -1.0402
 4179SOL    HW223997   2.061   2.195   1.484 -0.8633 -0.2483 -1.0327
 4180SOL     OW23998   1.637   2.552  11.434 -0.8074  0.0705  0.2236
 4180SOL    HW123999   1.726   2.519  11.449 -0.9040 -0.8246 -1.1312
 4180SOL    HW224000   1.579   2.477  11.421  1.0679 -1.0373 -1.8526
 4181SOL     OW24001   2.054   1.478   9.139  0.4027 -0.4897 -0.0863
 4181SOL    HW124002   2.096   1.506   9.058  0.4536  0.7916  0.3944
 4181SOL    HW224003   2.094   1.534   9.205 -0.8230  1.9932 -1.4420
 4182SOL     OW24004   1.382   2.985   6.854 -0.0416  0.3214  0.2955
 4182SOL    HW124005   1.473   2.964   6.832  0.0406 -0.5280  1.3933
 4182SOL    HW224006   1.336   2.968   6.772 -1.7181 -2.9296  1.9018
 4183SOL     OW24007   4.220   3.316   6.014 -0.0799  0.4424 -0.4897
 4183SOL    HW124008   4.187   3.376   5.947 -0.6912 -1.0749 -1.5481
 4183SOL    HW224009   4.145   3.258   6.028  0.3619  0.7411  2.9897
 4184SOL     OW24010   4.335   4.099   5.779  0.6210  0.1489 -0.1675
 4184SOL    HW124011   4.256   4.075   5.731  1.5248 -0.6427 -1.2690
 4184SOL    HW224012   4.381   4.152   5.714  2.2137 -0.1803  0.6828
 4185SOL     OW24013   2.009   4.030   6.357  0.6776  0.4694  0.2883
 4185SOL    HW124014   2.004   4.117   6.397  1.9886  1.2073 -1.1133
 4185SOL    HW224015   2.067   4.058   6.286  0.7171 -0.5761 -0.0919
 4186SOL     OW24016   1.936   4.003  12.179 -0.2026 -0.4129  0.5861
 4186SOL    HW124017   1.912   3.912  12.164  0.6350 -0.4794 -0.3009
 4186SOL    HW224018   1.958   4.026  12.089  1.9110 -1.1806  0.9237
 4187SOL     OW24019   0.555   0.761   4.177 -0.1411 -0.2971 -0.3640
 4187SOL    HW124020   0.531   0.701   4.107 -0.0242  0.8887 -1.4178
 4187SOL    HW224021   0.544   0.838   4.120  0.1247  0.4686  0.6162
 4188SOL     OW24022   4.084   4.592  13.967 -0.2354 -0.7759  0.2141
 4188SOL    HW124023   4.106   4.657  13.900  1.2885 -3.0053 -1.4965
 4188SOL    HW224024   3.991   4.603  13.985 -0.4399  0.2051 -1.4124
 4189SOL     OW24025   3.332   2.268  15.511  0.0098 -0.2463 -0.1175
 4189SOL    HW124026   3.254   2.312  15.475 -0.4859 -1.5096 -0.5878
 4189SOL    HW224027   3.363   2.339  15.567 -0.8638 -0.7033  0.9355
 4190SOL     OW24028   1.247   0.948   6.954  0.3044  0.0176 -0.5679
 4190SOL    HW124029   1.166   0.901   6.977  1.9718 -1.9848  1.1375
 4190SOL    HW224030   1.278   0.985   7.036 -1.4976  1.1620 -0.3796
 4191SOL     OW24031   3.300   4.304   2.691 -0.9619 -0.2575  0.0526
 4191SOL    HW124032   3.269   4.298   2.781 -0.4000  0.3387  0.2885
 4191SOL    HW224033   3.377   4.246   2.696 -0.9127 -0.2396 -0.4714
 4192SOL     OW24034   2.031   0.752   7.712  0.2548 -0.3736  0.9811
 4192SOL    HW124035   1.995   0.739   7.800  1.8090 -1.9059  1.4053
 4192SOL    HW224036   1.984   0.832   7.690  0.5474 -1.0968 -2.3439
 4193SOL     OW24037   0.821   2.719   5.983  0.6475 -0.8662  0.3775
 4193SOL    HW124038   0.736   2.764   5.983  0.7749 -0.6228  0.6463
 4193SOL    HW224039   0.801   2.639   5.934  1.0973  0.1156 -1.4048
 4194SOL     OW24040   3.960   1.488  11.412  0.2942 -0.2712 -0.1299
 4194SOL    HW124041   4.001   1.476  11.326 -0.0948 -1.4780 -0.1556
 4194SOL    HW224042   4.034   1.473  11.472 -0.9715  1.0882  1.7571
 4195SOL     OW24043   3.009   2.038   7.844 -0.2197 -0.4500 -0.3601
 4195SOL    HW124044   2.977   1.975   7.909  0.6771 -0.6860 -0.1470
 4195SOL    HW224045   2.963   2.120   7.863  1.8256  0.7044 -0.3734
 4196SOL     OW24046   1.647   2.030   0.829  0.2911  0.0464  0.4133
 4196SOL    HW124047   1.729   1.981   0.839  2.6041  3.6926 -0.6987
 4196SOL    HW224048   1.687   2.116   0.815 -1.5833  0.5800 -1.6327
 4197SOL     OW24049   2.334   4.662   6.168 -0.3396 -0.0082 -0.3465
 4197SOL    HW124050   2.257   4.709   6.202  1.1900  3.9917 -2.3121
 4197SOL    HW224051   2.393   0.017   6.171  0.3159 -0.6191  2.7487
 4198SOL     OW24052   2.878   2.528   7.300 -0.6879  0.3298 -0.1652
 4198SOL    HW124053   2.942   2.563   7.362 -1.4314  0.3413  0.5957
 4198SOL    HW224054   2.920   2.568   7.224  1.8089  1.2911  1.7293
 4199SOL     OW24055   1.083   0.383   1.408  0.0674 -0.1382 -0.3678
 4199SOL    HW124056   0.991   0.362   1.391  0.1332 -0.4585 -0.3427
 4199SOL    HW224057   1.112   0.324   1.478 -2.3128  3.1839  3.4691
 4200SOL     OW24058   3.635   0.740  17.452  0.0769 -0.8582  0.6906
 4200SOL    HW124059   3.560   0.682  17.440 -0.5518  0.3431 -1.1307
 4200SOL    HW224060   3.681   0.686  17.517  1.1735  1.0080  1.4703
 4201SOL     OW24061   4.653   2.120   4.488 -0.1448 -0.2018  0.2154
 4201SOL    HW124062   4.584   2.090   4.547  0.9914 -1.8365  0.7279
 4201SOL    HW224063   4.615   2.086   4.407 -1.2472  1.7049 -0.0618
 4202SOL     OW24064   1.777   3.729   3.217  0.3344  0.7037 -0.2092
 4202SOL    HW124065   1.687   3.759   3.230  0.7297  2.0787 -0.6950
 4202SOL    HW224066   1.803   3.687   3.300  0.7094 -0.2504 -0.8090
 4203SOL     OW24067   4.101   1.235  12.071  0.0577 -0.0424  0.0920
 4203SOL    HW124068   4.048   1.268  11.998 -1.3474  1.4766  1.7916
 4203SOL    HW224069   4.052   1.155  12.089  0.2360  0.1077  1.2532
 4204SOL     OW24070   1.858   1.910   8.632  0.0398  0.4992  0.0765
 4204SOL    HW124071   1.868   1.905   8.727 -1.5649  1.5120  0.3018
 4204SOL    HW224072   1.813   1.993   8.614 -0.9673 -0.0538  0.0682
 4205SOL     OW24073   3.667   0.560   9.601 -0.4028  0.4194  0.1308
 4205SOL    HW124074   3.616   0.479   9.600  3.2460 -1.9067  2.8649
 4205SOL    HW224075   3.626   0.602   9.677 -0.9806  0.9716 -0.4837
 4206SOL     OW24076   1.468   3.244   0.571  0.1844 -0.1973 -0.7341
 4206SOL    HW124077   1.447   3.153   0.592  2.2228 -0.9464 -1.8717
 4206SOL    HW224078   1.439   3.248   0.480  1.6067  2.8496 -1.0687
 4207SOL     OW24079   1.366   0.993   6.216 -0.1445  0.2685 -0.4085
 4207SOL    HW124080   1.446   0.946   6.194 -0.3665 -0.3484  0.0873
 4207SOL    HW224081   1.290   0.940   6.191  0.0430 -0.2023  0.0203
 4208SOL     OW24082   0.501   4.213   8.981  0.2731  0.2307  0.2250
 4208SOL    HW124083   0.535   4.132   9.020 -1.1210 -0.3429  0.2369
 4208SOL    HW224084   0.423   4.191   8.932 -0.3444  2.5555  0.1610
 4209SOL     OW24085   4.403   2.662   4.178 -0.3623 -0.2386  0.3929
 4209SOL    HW124086   4.377   2.571   4.162  4.1017 -1.6373  0.9825
 4209SOL    HW224087   4.496   2.659   4.153 -0.8016 -0.4174 -1.2524
 4210SOL     OW24088   2.629   2.785  15.915 -0.4454 -0.1894 -0.1801
 4210SOL    HW124089   2.539   2.762  15.938 -0.1571 -0.6482  0.5284
 4210SOL    HW224090   2.679   2.723  15.969 -2.3894  0.0585  1.9116
 4211SOL     OW24091   4.075   3.293   3.301 -0.5780 -0.3790 -0.2883
 4211SOL    HW124092   4.131   3.336   3.236 -1.3705 -1.3100 -1.5898
 4211SOL    HW224093   4.054   3.371   3.352 -3.2015 -1.2424 -0.0890
 4212SOL     OW24094   1.671   1.121  10.453 -0.0836 -0.5534 -0.1394
 4212SOL    HW124095   1.725   1.057  10.499  1.1244 -0.8065 -1.9167
 4212SOL    HW224096   1.694   1.197  10.507  1.5941  0.3322 -2.1010
 4213SOL     OW24097   1.350   4.391   5.654 -0.3921 -0.0824 -0.2726
 4213SOL    HW124098   1.383   4.419   5.739 -0.5906 -2.2711  0.5390
 4213SOL    HW224099   1.260   4.424   5.650  0.1985  1.2581 -2.5318
 4214SOL     OW24100   1.221   2.883   3.247  0.6693  0.5864 -0.2179
 4214SOL    HW124101   1.257   2.902   3.334  1.0215 -1.9781  0.2085
 4214SOL    HW224102   1.258   2.960   3.203 -0.3871  1.2974  0.1517
 4215SOL     OW24103   3.308   1.794   8.319 -0.2753  0.7132  0.0132
 4215SOL    HW124104   3.342   1.777   8.231 -0.0136 -0.2232  0.2985
 4215SOL    HW224105   3.319   1.889   8.321 -0.9140  0.8077 -1.0979
 4216SOL     OW24106   3.956   2.314   1.889 -0.6460 -0.0988 -0.4735
 4216SOL    HW124107   3.924   2.234   1.848  0.0772 -1.3282  1.3605
 4216SOL    HW224108   3.873   2.348   1.924 -1.1129  0.5628 -2.2277
 4217SOL     OW24109   4.059   3.755  15.578  0.6680 -0.4320  0.0492
 4217SOL    HW124110   4.020   3.683  15.627  1.0155  0.8907  2.2671
 4217SOL    HW224111   4.061   3.831  15.637  0.7872 -0.1746 -0.2819
 4218SOL     OW24112   1.396   2.849   8.145  0.0358  0.7943 -0.3563
 4218SOL    HW124113   1.401   2.813   8.234  0.6737  1.7714 -0.0034
 4218SOL    HW224114   1.491   2.851   8.135 -0.1095 -1.9360 -2.4976
 4219SOL     OW24115   0.929   4.639   3.586  0.1812 -0.2083  0.0375
 4219SOL    HW124116   0.924   4.551   3.549  0.5993 -0.2641  0.1196
 4219SOL    HW224117   1.024   4.652   3.584  0.4474 -2.3689 -1.1118
 4220SOL     OW24118   2.300   2.482   9.962 -0.6996  0.0669 -0.3743
 4220SOL    HW124119   2.364   2.503   9.894 -0.7505  0.7837 -0.2027
 4220SOL    HW224120   2.258   2.567   9.973  1.0625  1.2180 -2.4406
 4221SOL     OW24121   1.683   4.281   8.582  0.0825 -0.6705 -0.0274
 4221SOL    HW124122   1.707   4.203   8.631 -1.8064 -1.1877  0.0783
 4221SOL    HW224123   1.604   4.251   8.536  0.1955 -0.1226 -0.5894
 4222SOL     OW24124   0.636   1.448  12.925 -0.1051 -0.3938 -0.9014
 4222SOL    HW124125   0.714   1.496  12.952 -1.3659  2.2635 -1.9906
 4222SOL    HW224126   0.595   1.416  13.005  1.2812  0.2666  0.0558
 4223SOL     OW24127   4.528   4.611   6.098 -0.2778 -0.4948  0.2285
 4223SOL    HW124128   4.476   4.568   6.166 -1.9832  0.9834 -0.1213
 4223SOL    HW224129   4.456   4.607   6.034  0.5577  0.0626 -0.7387
 4224SOL     OW24130   3.557   4.574   8.588  0.3319 -0.3097  0.2573
 4224SOL    HW124131   3.637   4.599   8.543  1.3081 -2.1196  1.0016
 4224SOL    HW224132   3.584   4.528   8.667 -0.0256 -1.9260 -0.5768
 4225SOL     OW24133   0.325   2.233   3.094 -0.3896  0.3461  0.3438
 4225SOL    HW124134   0.276   2.314   3.081  1.6225  1.2872 -1.3943
 4225SOL    HW224135   0.410   2.261   3.129  0.6561 -0.8216 -1.3055
 4226SOL     OW24136   2.907   1.119   6.303 -0.5513  0.3901  0.5691
 4226SOL    HW124137   2.859   1.036   6.303  2.0771 -1.1363  1.1439
 4226SOL    HW224138   2.900   1.155   6.392  0.3272 -0.4562  0.9843
 4227SOL     OW24139   4.405   0.986   7.658 -0.2144  0.0168  0.6098
 4227SOL    HW124140   4.371   1.026   7.738 -3.2427  0.7723 -1.0393
 4227SOL    HW224141   4.491   0.962   7.690 -0.5504 -1.1998  0.6012
 4228SOL     OW24142   3.185   2.141   7.207 -0.3586 -0.0437 -0.8491
 4228SOL    HW124143   3.200   2.235   7.201 -1.7049  0.2412  0.4141
 4228SOL    HW224144   3.127   2.135   7.282 -0.0717  0.4815 -0.5911
 4229SOL     OW24145   1.350   4.491   9.008 -0.3189 -0.1341 -0.6132
 4229SOL    HW124146   1.394   4.456   9.086  2.6601  1.7899 -1.3941
 4229SOL    HW224147   1.355   4.416   8.949  1.4152 -1.4513  1.2062
 4230SOL     OW24148   1.862   3.553   2.074  0.5620  0.0132  0.3648
 4230SOL    HW124149   1.921   3.627   2.069  2.7094 -1.7662 -0.6661
 4230SOL    HW224150   1.774   3.586   2.053  1.1285  0.8037 -0.7608
 4231SOL     OW24151   3.678   1.148  10.551  0.2068 -0.2492  0.1696
 4231SOL    HW124152   3.619   1.220  10.531 -0.1075 -0.2565  1.1209
 4231SOL    HW224153   3.751   1.199  10.585 -0.2563 -1.8111  3.4496
 4232SOL     OW24154   0.545   2.346  15.902  0.0190  0.7245 -0.0348
 4232SOL    HW124155   0.477   2.292  15.860  0.1879  0.1858  0.3867
 4232SOL    HW224156   0.624   2.327  15.850  0.3018  1.3072  0.1857
 4233SOL     OW24157   4.494   0.250   3.973  0.4605  0.4987  0.4175
 4233SOL    HW124158   4.399   0.250   3.988  0.1175  0.7079 -1.7102
 4233SOL    HW224159   4.526   0.182   4.031  1.6771 -0.8245 -1.8095
 4234SOL     OW24160   2.728   3.016   7.813 -0.1277  0.1485 -0.2424
 4234SOL    HW124161   2.741   2.931   7.772 -0.7956 -0.1318  0.1239
 4234SOL    HW224162   2.715   2.978   7.900  0.0844 -1.2836 -0.8341
 4235SOL     OW24163   1.776   0.242   5.758  0.2454  0.0785 -0.3780
 4235SOL    HW124164   1.733   0.286   5.831  1.1181 -1.2572  0.9574
 4235SOL    HW224165   1.850   0.196   5.797  2.7892  2.4460 -2.4660
 4236SOL     OW24166   4.203   4.690   4.259  0.5847 -0.3280  0.6478
 4236SOL    HW124167   4.193   4.666   4.167 -1.1818 -2.1990  1.3289
 4236SOL    HW224168   4.235   4.610   4.302 -0.9816 -2.8056 -2.8519
 4237SOL     OW24169   2.536   0.518   3.377  0.2872  0.1911 -0.2709
 4237SOL    HW124170   2.614   0.464   3.364  1.0713  1.2555  0.0253
 4237SOL    HW224171   2.499   0.529   3.289 -1.8196 -1.7803  0.3650
 4238SOL     OW24172   2.796   0.424  14.319 -0.1207 -0.5573 -0.2414
 4238SOL    HW124173   2.887   0.424  14.348 -1.2356  0.4688  3.2528
 4238SOL    HW224174   2.754   0.432  14.405 -1.1192  1.2847 -0.9115
 4239SOL     OW24175   4.044   4.414  11.662 -0.8365  0.3540 -0.0445
 4239SOL    HW124176   3.985   4.399  11.588 -0.0087 -0.9868 -0.4250
 4239SOL    HW224177   4.032   4.509  11.667 -2.4236  0.0526  2.1753
 4240SOL     OW24178   2.334   3.729  14.601  0.3256  0.0229 -0.0747
 4240SOL    HW124179   2.317   3.820  14.625  0.3775 -0.4817  1.9152
 4240SOL    HW224180   2.426   3.719  14.626 -0.4945 -1.2679  2.4597
 4241SOL     OW24181   1.881   1.653   3.133  0.5523 -0.0403 -0.5165
 4241SOL    HW124182   1.962   1.601   3.134  0.7294  0.2778  1.1266
 4241SOL    HW224183   1.907   1.718   3.198 -0.1966  0.2829 -0.5473
 4242SOL     OW24184   1.703   1.898   9.305 -0.0664 -0.2779  0.5151
 4242SOL    HW124185   1.610   1.920   9.299 -0.3652 -2.1437 -1.4681
 4242SOL    HW224186   1.738   1.974   9.352 -0.4244 -0.7547  1.5467
 4243SOL     OW24187   3.635   1.526  16.839 -0.0684 -0.5330  0.7710
 4243SOL    HW124188   3.551   1.516  16.883 -0.5509 -0.0212 -0.0194
 4243SOL    HW224189   3.619   1.606  16.788 -0.4584 -0.1897  1.4320
 4244SOL     OW24190   2.992   2.992   7.549 -0.2204  0.1569  0.1031
 4244SOL    HW124191   2.949   2.978   7.465  0.3252 -0.6814 -0.0386
 4244SOL    HW224192   2.929   2.945   7.604 -1.1286  2.8748  1.3522
 4245SOL     OW24193   0.818   1.565   9.359  0.2671 -0.2971  0.3806
 4245SOL    HW124194   0.808   1.653   9.396  0.0425  1.0771 -2.9165
 4245SOL    HW224195   0.907   1.579   9.329  0.9669 -1.5399  1.9076
 4246SOL     OW24196   3.778   2.208   5.654  0.0169  0.0415 -0.2661
 4246SOL    HW124197   3.713   2.204   5.584 -0.8501  1.0506  0.4641
 4246SOL    HW224198   3.802   2.116   5.657  1.4717  0.4525  0.4360
 4247SOL     OW24199   0.062   4.128   4.584  0.2037  0.6444 -0.3720
 4247SOL    HW124200   0.080   4.201   4.644  1.5513  0.5064 -0.6118
 4247SOL    HW224201   0.114   4.127   4.504 -1.0673 -1.7887 -1.1661
 4248SOL     OW24202   2.262   4.085  11.841 -0.1176  0.3639  0.5919
 4248SOL    HW124203   2.204   4.012  11.821  1.7271 -0.4639 -1.7293
 4248SOL    HW224204   2.299   4.044  11.920  1.3058 -0.1532 -0.3448
 4249SOL     OW24205   3.047   3.093   8.701 -0.4694 -0.6990 -0.1460
 4249SOL    HW124206   3.002   3.170   8.665  1.6360  0.5503 -0.0989
 4249SOL    HW224207   3.137   3.125   8.695 -0.5994  0.2665  2.8781
 4250SOL     OW24208   1.300   1.320  11.454  0.3571 -0.4385 -0.2611
 4250SOL    HW124209   1.358   1.261  11.503 -2.1904 -0.8088  2.3240
 4250SOL    HW224210   1.357   1.396  11.444 -1.6966  1.0986 -0.1845
 4251SOL     OW24211   3.948   0.812   6.531 -0.7319  0.7031  0.0083
 4251SOL    HW124212   4.011   0.881   6.552  0.6255 -0.6646  0.4309
 4251SOL    HW224213   4.007   0.741   6.509 -0.9237  0.1733  1.1881
 4252SOL     OW24214   3.154   3.653  15.374 -0.2672  0.5370 -0.2091
 4252SOL    HW124215   3.229   3.669  15.316  0.8097 -1.1460  0.7181
 4252SOL    HW224216   3.179   3.566  15.404  0.7708  1.2812  1.1205
 4253SOL     OW24217   2.529   1.041   6.941  0.0170  0.6484  0.5688
 4253SOL    HW124218   2.612   1.067   6.981 -1.4268  2.7154  2.2519
 4253SOL    HW224219   2.527   0.948   6.963 -0.6414  0.1135 -1.7650
 4254SOL     OW24220   0.320   0.362   5.924 -0.0040  0.2774 -0.1305
 4254SOL    HW124221   0.316   0.452   5.954 -0.7214  0.5651 -1.0815
 4254SOL    HW224222   0.407   0.344   5.886 -0.3671  0.0052 -0.8404
 4255SOL     OW24223   2.932   1.535   4.873  0.0697  0.3441 -0.3411
 4255SOL    HW124224   2.892   1.612   4.834  0.5876  1.4826  1.3451
 4255SOL    HW224225   2.850   1.495   4.903 -0.4762 -0.1269 -2.4587
 4256SOL     OW24226   0.292   0.379   2.250  0.0174 -0.2016 -0.1101
 4256SOL    HW124227   0.229   0.354   2.183  0.3825 -0.2681 -0.4276
 4256SOL    HW224228   0.265   0.324   2.324 -0.1128  0.0915  0.0625
 4257SOL     OW24229   2.606   2.820   6.995  0.2623  0.1675  0.1954
 4257SOL    HW124230   2.695   2.790   6.977  1.1372  2.0612  1.2895
 4257SOL    HW224231   2.579   2.834   6.904 -0.8349 -0.1713  0.4642
 4258SOL     OW24232   0.634   3.612   1.532  0.0113  0.0458  0.0103
 4258SOL    HW124233   0.582   3.558   1.472  1.2250 -3.1046  1.8266
 4258SOL    HW224234   0.567   3.669   1.570  0.7843 -0.2030  1.7172
 4259SOL     OW24235   2.734   2.757   8.520 -0.1227  0.1713  0.3909
 4259SOL    HW124236   2.770   2.834   8.475 -0.5745  0.0645 -0.1534
 4259SOL    HW224237   2.817   2.713   8.541  0.9022  0.7653 -2.3274
 4260SOL     OW24238   0.878   1.906   6.391  0.5295 -0.2024 -0.1285
 4260SOL    HW124239   0.808   1.850   6.423 -2.4375  3.7314  0.1670
 4260SOL    HW224240   0.847   1.993   6.415 -1.7471 -2.0588  3.5496
 4261SOL     OW24241   2.804   1.283  14.241 -0.1752 -0.8684  0.0157
 4261SOL    HW124242   2.792   1.377  14.230 -0.6640 -1.1080 -1.5581
 4261SOL    HW224243   2.745   1.262  14.313  1.2110  1.4317  1.8283
 4262SOL     OW24244   3.485   4.437  15.139 -0.0933 -0.2285  0.1257
 4262SOL    HW124245   3.536   4.362  15.168  2.0658  1.9627  2.0146
 4262SOL    HW224246   3.401   4.397  15.115 -0.7839  1.6525 -0.6126
 4263SOL     OW24247   2.661   1.985   3.532  0.2410 -0.2227 -0.0015
 4263SOL    HW124248   2.746   1.956   3.565 -0.6307 -1.6207  0.9786
 4263SOL    HW224249   2.599   1.914   3.547 -1.2637  1.3787  1.5168
 4264SOL     OW24250   2.104   0.078   7.968  0.8822 -0.0418 -0.1141
 4264SOL    HW124251   2.080   0.110   8.055  0.4235  1.1130 -0.6739
 4264SOL    HW224252   2.070   4.711   7.981  2.5367 -0.6095  0.3901
 4265SOL     OW24253   3.567   3.347   6.252 -0.0658  0.3998 -0.0911
 4265SOL    HW124254   3.622   3.371   6.177 -0.6077  2.4308  0.1615
 4265SOL    HW224255   3.633   3.305   6.308 -1.0951  0.6789  1.3319
 4266SOL     OW24256   2.319   3.330   2.319  0.0826  0.4669 -0.3300
 4266SOL    HW124257   2.282   3.242   2.319  2.4230 -0.5209 -2.2840
 4266SOL    HW224258   2.345   3.342   2.227 -0.5126 -1.1528 -0.7086
 4267SOL     OW24259   0.525   4.494  15.144  0.2254  0.0081  0.6833
 4267SOL    HW124260   0.515   4.589  15.141 -1.4227 -0.1785  0.0036
 4267SOL    HW224261   0.459   4.468  15.080 -0.1146  0.4372  0.8586
 4268SOL     OW24262   3.870   0.747  17.098 -0.7723 -0.1674  0.8111
 4268SOL    HW124263   3.833   0.780  17.016  0.8346  0.2884  0.2726
 4268SOL    HW224264   3.890   0.654  17.084 -1.4088 -0.1514 -0.2509
 4269SOL     OW24265   1.099   4.476   1.229 -0.3320  0.6108  0.7520
 4269SOL    HW124266   1.129   4.389   1.254  0.5330  0.1619 -1.8768
 4269SOL    HW224267   1.165   4.536   1.264  0.5218  0.0378  0.0982
 4270SOL     OW24268   0.064   2.805  16.483 -0.0430 -0.3523  0.0405
 4270SOL    HW124269   0.120   2.764  16.417  2.3449  0.8739  1.2831
 4270SOL    HW224270   4.717   2.837  16.424  1.2326 -0.2357 -1.3979
 4271SOL     OW24271   3.222   2.629   4.232  0.3816  0.2488 -0.0375
 4271SOL    HW124272   3.140   2.664   4.197 -0.4525 -0.3547  1.3232
 4271SOL    HW224273   3.230   2.668   4.319 -0.3448 -0.5945  0.3923
 4272SOL     OW24274   1.990   3.168   5.422 -0.2745  0.0794 -0.4334
 4272SOL    HW124275   2.073   3.183   5.468 -0.5136 -0.6338  0.2349
 4272SOL    HW224276   1.923   3.203   5.481 -0.3043  2.1841 -1.7354
 4273SOL     OW24277   2.006   4.579   5.243  0.0305  0.2967  0.0043
 4273SOL    HW124278   1.937   4.629   5.285  0.4327  0.7464  0.1220
 4273SOL    HW224279   2.029   4.536   5.325  1.1705  0.6028 -0.1480
 4274SOL     OW24280   0.141   4.269   2.938  0.9771  0.4125 -0.9898
 4274SOL    HW124281   0.095   4.280   2.855  0.8019 -1.8067 -1.1771
 4274SOL    HW224282   0.187   4.186   2.926 -0.2941 -0.6151  1.3077
 4275SOL     OW24283   0.203   1.622   2.446  0.1143 -0.1709 -0.0539
 4275SOL    HW124284   0.194   1.717   2.447  0.0727 -0.1822  0.3724
 4275SOL    HW224285   0.249   1.604   2.528 -1.5896  0.5043  1.0498
 4276SOL     OW24286   0.630   3.523   3.039  0.3017 -0.6263 -0.1618
 4276SOL    HW124287   0.636   3.452   3.103 -0.0838 -0.8715 -0.4023
 4276SOL    HW224288   0.690   3.501   2.968  1.2884  1.7204 -0.0538
 4277SOL     OW24289   2.961   0.754   7.320 -0.5249 -0.1959  0.2994
 4277SOL    HW124290   2.902   0.692   7.363 -2.5802  0.5881 -1.4320
 4277SOL    HW224291   3.005   0.694   7.260  0.2426  0.3167  0.3486
 4278SOL     OW24292   0.380   3.550  15.589 -0.0102 -0.3173 -0.4863
 4278SOL    HW124293   0.390   3.482  15.522  0.3003 -0.1718 -0.5902
 4278SOL    HW224294   0.340   3.625  15.546 -0.1835 -0.2679 -0.2392
 4279SOL     OW24295   4.285   3.107   3.655  0.0662 -0.1634 -0.1633
 4279SOL    HW124296   4.211   3.167   3.646  1.5264  1.3769 -1.9557
 4279SOL    HW224297   4.358   3.164   3.631  0.8669 -1.1709 -0.1491
 4280SOL     OW24298   4.378   1.209   2.894  0.2705 -0.4036 -0.5416
 4280SOL    HW124299   4.372   1.220   2.799 -0.3355 -1.0641 -0.5811
 4280SOL    HW224300   4.460   1.160   2.893  0.2865 -0.3243 -2.3467
 4281SOL     OW24301   1.529   2.624  14.699  0.6343  0.7458  0.2902
 4281SOL    HW124302   1.558   2.654  14.786  1.8353  0.3548  0.0260
 4281SOL    HW224303   1.474   2.695  14.667  0.0591 -1.1674 -2.9331
 4282SOL     OW24304   4.195   4.499   2.860  0.1542 -0.2848 -0.3221
 4282SOL    HW124305   4.171   4.423   2.912  0.3349  0.9231  1.5092
 4282SOL    HW224306   4.291   4.495   2.868 -0.1123 -1.7329  1.9086
 4283SOL     OW24307   1.190   2.827  11.074 -0.2273  0.3190 -0.2541
 4283SOL    HW124308   1.236   2.821  11.158  1.3373 -1.9890 -1.2733
 4283SOL    HW224309   1.177   2.922  11.071  1.0175  0.5173  0.5863
 4284SOL     OW24310   4.086   4.327   7.840 -0.0224  0.0687 -0.6462
 4284SOL    HW124311   4.174   4.305   7.810  0.2640 -0.4221  0.5356
 4284SOL    HW224312   4.103   4.330   7.935 -1.5019  2.2813 -0.4681
 4285SOL     OW24313   1.660   1.446   4.094 -0.0796 -0.0882 -0.2256
 4285SOL    HW124314   1.730   1.391   4.057  0.8549  0.0267  1.3739
 4285SOL    HW224315   1.692   1.535   4.081 -1.4022  0.5270  0.7922
 4286SOL     OW24316   2.252   0.918   5.424  0.3919  0.1769 -0.1657
 4286SOL    HW124317   2.204   0.981   5.371 -2.6861 -1.2958  0.9193
 4286SOL    HW224318   2.186   0.908   5.492 -0.3110  3.2887 -0.4236
 4287SOL     OW24319   0.263   4.140   6.068 -0.1217 -0.1142  0.1571
 4287SOL    HW124320   0.309   4.066   6.106  0.4722  0.4021  0.4479
 4287SOL    HW224321   0.269   4.202   6.141 -2.1450 -0.4360  0.6086
 4288SOL     OW24322   4.402   2.272   2.785 -0.4138  0.0747 -0.2265
 4288SOL    HW124323   4.459   2.294   2.711 -1.1127  3.0552  0.1358
 4288SOL    HW224324   4.364   2.360   2.789  0.4663  0.3785  1.4485
 4289SOL     OW24325   0.912   4.358   8.715 -0.1880 -0.4977 -0.3656
 4289SOL    HW124326   0.958   4.393   8.792 -1.7642 -1.3951  0.9685
 4289SOL    HW224327   0.983   4.383   8.654  1.1796  0.5857  1.6687
 4290SOL     OW24328   3.192   3.708   5.370  0.4554 -0.0782  0.1042
 4290SOL    HW124329   3.264   3.765   5.397 -0.0094 -0.4725  2.1260
 4290SOL    HW224330   3.141   3.722   5.449 -1.0910 -1.8446 -0.5894
 4291SOL     OW24331   2.316   4.189   3.409  0.0105 -0.1192  0.3733
 4291SOL    HW124332   2.345   4.220   3.323  0.3356  1.0419  0.9094
 4291SOL    HW224333   2.391   4.129   3.415 -0.4066 -0.9633 -2.6602
 4292SOL     OW24334   3.787   0.614  12.954 -0.5381  0.1738  0.6532
 4292SOL    HW124335   3.862   0.563  12.985 -0.6834  0.0219  0.7578
 4292SOL    HW224336   3.822   0.702  12.960 -2.3797  0.7782  2.4829
 4293SOL     OW24337   1.781   3.119   2.195  0.0605 -0.0343 -0.2832
 4293SOL    HW124338   1.826   3.175   2.133  0.0539 -0.2913 -0.5186
 4293SOL    HW224339   1.714   3.086   2.135 -0.7299 -1.0901  1.1545
 4294SOL     OW24340   4.409   1.721   2.004  0.7514  0.4091 -0.0136
 4294SOL    HW124341   4.383   1.655   1.940  0.4450  0.3748  0.1482
 4294SOL    HW224342   4.326   1.768   1.997 -0.9106 -2.1362  2.4772
 4295SOL     OW24343   3.235   2.978  14.447  0.5583  0.0241 -0.4576
 4295SOL    HW124344   3.257   3.035  14.521 -0.8319  1.4484 -1.1420
 4295SOL    HW224345   3.227   3.047  14.381 -1.0680 -1.0367 -1.3743
 4296SOL     OW24346   2.081   2.568  17.606  0.6997  0.6049 -0.6400
 4296SOL    HW124347   2.174   2.552  17.622  0.8407  3.9395  2.1037
 4296SOL    HW224348   2.037   2.487  17.631 -1.8382  3.2518  3.5942
 4297SOL     OW24349   1.285   3.036   2.763 -0.3900  0.0850 -0.3586
 4297SOL    HW124350   1.194   3.033   2.734 -0.3685 -2.8631 -0.1831
 4297SOL    HW224351   1.326   3.085   2.693  1.2190  1.4991  1.5779
 4298SOL     OW24352   1.672   0.278   3.747 -0.8837 -0.1853  0.2353
 4298SOL    HW124353   1.708   0.191   3.729 -0.5866 -0.1109  0.4665
 4298SOL    HW224354   1.745   0.331   3.777  0.1149 -1.9220  0.8610
 4299SOL     OW24355   0.226   2.133   0.097  0.7806  0.1880  0.0457
 4299SOL    HW124356   0.214   2.129   0.192  0.2784 -2.2189 -0.1336
 4299SOL    HW224357   0.284   2.206   0.076 -0.0621  0.7116 -0.4551
 4300SOL     OW24358   2.805   1.068   8.614  0.0172  0.1152 -0.3898
 4300SOL    HW124359   2.723   1.092   8.658  1.2629 -1.1530  2.6159
 4300SOL    HW224360   2.842   1.000   8.670  0.3818  0.0740 -0.6817
 4301SOL     OW24361   1.838   4.005   1.171 -0.2840 -0.0753  0.0261
 4301SOL    HW124362   1.744   4.020   1.165 -0.1143  1.5898  1.6710
 4301SOL    HW224363   1.868   4.058   1.245  0.3418  0.8431 -0.8732
 4302SOL     OW24364   3.038   3.893   8.301  0.3355 -0.1602  0.3546
 4302SOL    HW124365   2.971   3.866   8.238 -0.6371  1.6080  0.6142
 4302SOL    HW224366   3.117   3.866   8.255  1.0511  1.5864  0.5665
 4303SOL     OW24367   2.049   2.857   2.507 -0.0599  0.5241  0.2291
 4303SOL    HW124368   2.105   2.832   2.433  1.7320  0.9351  1.4532
 4303SOL    HW224369   1.972   2.805   2.484  1.4941 -1.2703 -0.8715
 4304SOL     OW24370   1.923   3.719   8.159 -0.2128  0.4398  0.2458
 4304SOL    HW124371   1.872   3.752   8.234 -1.1493 -1.9112  0.6450
 4304SOL    HW224372   1.964   3.799   8.125  1.7401 -0.3654  0.7476
 4305SOL     OW24373   2.482   1.121  10.839 -0.3596  0.3088 -0.6458
 4305SOL    HW124374   2.527   1.049  10.881 -0.9361  0.1797 -0.2506
 4305SOL    HW224375   2.461   1.183  10.909  2.3859 -0.7416  1.0639
 4306SOL     OW24376   1.660   1.729   2.007 -0.5869  0.0986  0.1173
 4306SOL    HW124377   1.678   1.635   2.001 -0.1311  0.3535 -2.9024
 4306SOL    HW224378   1.662   1.747   1.913  1.9330  1.6182  0.4610
 4307SOL     OW24379   2.614   1.125   6.683  0.5575  0.5492  0.0990
 4307SOL    HW124380   2.564   1.087   6.755  2.2844 -0.3841  0.8067
 4307SOL    HW224381   2.656   1.194   6.734  0.2412 -0.1039  1.2234
 4308SOL     OW24382   1.383   0.088   6.212  0.6215 -0.2782  0.6010
 4308SOL    HW124383   1.327   0.165   6.200  1.1432 -0.1204 -0.7920
 4308SOL    HW224384   1.325   0.013   6.227 -0.1033  0.0219 -0.6361
 4309SOL     OW24385   1.634   2.306   0.325  0.7284  0.8380  0.0050
 4309SOL    HW124386   1.663   2.277   0.411 -0.0875  0.1094  0.0442
 4309SOL    HW224387   1.546   2.268   0.323  0.2406  1.8872  1.6754
 4310SOL     OW24388   0.315   1.801  15.570 -0.6467  0.1022 -0.5014
 4310SOL    HW124389   0.390   1.742  15.577  0.2627  1.6295  2.4409
 4310SOL    HW224390   0.362   1.882  15.550  0.1669  0.0568  1.2211
 4311SOL     OW24391   3.005   3.389   9.697 -0.1894  0.1161  0.0539
 4311SOL    HW124392   2.920   3.367   9.661  1.4221  0.1605 -3.7355
 4311SOL    HW224393   2.985   3.368   9.788 -2.1994  0.2521 -0.3705
 4312SOL     OW24394   1.636   4.500   1.302 -0.4423 -0.7006  0.6106
 4312SOL    HW124395   1.696   4.571   1.325  0.5596 -1.5951  0.7697
 4312SOL    HW224396   1.675   4.432   1.357 -0.8208 -0.5224  1.0985
 4313SOL     OW24397   0.403   0.656  12.125  0.0191  0.4102  0.4607
 4313SOL    HW124398   0.364   0.731  12.171  1.3900 -0.5448  3.1696
 4313SOL    HW224399   0.448   0.703  12.055  1.5604 -0.5007  0.8420
 4314SOL     OW24400   1.210   2.184   6.738  0.0917 -0.8103  0.5339
 4314SOL    HW124401   1.250   2.220   6.659  1.0609  0.1372  1.4509
 4314SOL    HW224402   1.265   2.105   6.740  0.5857 -0.5114 -1.2395
 4315SOL     OW24403   0.477   0.510   4.733  0.0520 -0.4660  0.8184
 4315SOL    HW124404   0.529   0.481   4.808 -1.0503 -2.4439  0.8094
 4315SOL    HW224405   0.498   0.603   4.733 -0.6778 -0.3035  0.2951
 4316SOL     OW24406   0.258   2.057   4.733 -0.0267  0.1389  0.2928
 4316SOL    HW124407   0.300   2.017   4.656  0.7142 -1.2622  1.4258
 4316SOL    HW224408   0.167   2.065   4.703 -0.0015 -0.7836 -0.0539
 4317SOL     OW24409   1.264   4.223  16.708  0.1624  0.2950  0.3517
 4317SOL    HW124410   1.291   4.169  16.634 -2.3328  0.6104 -0.7924
 4317SOL    HW224411   1.170   4.217  16.689  0.7257 -2.7702 -1.4806
 4318SOL     OW24412   1.689   1.217   8.912 -0.3231  0.1210 -0.1502
 4318SOL    HW124413   1.751   1.264   8.968  0.9945 -3.8269  1.6983
 4318SOL    HW224414   1.609   1.225   8.964 -0.3990 -1.2280 -0.0548
 4319SOL     OW24415   0.223   4.701   5.692  0.3260 -1.2533  0.5624
 4319SOL    HW124416   0.293   4.644   5.658  1.0764  0.1899 -0.3348
 4319SOL    HW224417   0.277   0.052   5.722 -1.0684  0.2317 -0.5236
 4320SOL     OW24418   2.946   1.854   3.010 -0.0175 -0.2023 -0.5737
 4320SOL    HW124419   2.932   1.788   3.078  1.3870 -0.7034 -0.7772
 4320SOL    HW224420   2.959   1.794   2.937  1.8514  0.5216 -0.8333
 4321SOL     OW24421   2.527   3.097  10.464 -0.1605 -0.1020 -0.0203
 4321SOL    HW124422   2.479   3.015  10.474  0.1739 -0.3902 -0.7870
 4321SOL    HW224423   2.457   3.155  10.492 -0.2792 -0.3744  0.2427
 4322SOL     OW24424   2.198   0.942   4.131  0.1038 -0.2551 -0.2735
 4322SOL    HW124425   2.152   1.026   4.125 -1.3662 -1.2149 -2.5208
 4322SOL    HW224426   2.229   0.920   4.043 -0.8838 -0.3211 -0.6050
 4323SOL     OW24427   2.244   3.578   6.827  0.2139  0.3806  0.0219
 4323SOL    HW124428   2.209   3.608   6.911  0.9776 -0.3386  0.5952
 4323SOL    HW224429   2.262   3.658   6.777 -1.5978 -0.4011 -1.8656
 4324SOL     OW24430   1.003   3.001   3.955 -0.2786 -0.1152 -0.3312
 4324SOL    HW124431   1.043   3.033   4.036  1.2399  0.6453 -1.3842
 4324SOL    HW224432   0.987   2.907   3.965 -0.6925  0.1839  1.7456
 4325SOL     OW24433   1.272   1.454   8.830 -0.1153  0.4175 -0.5358
 4325SOL    HW124434   1.268   1.359   8.844 -2.8169  0.3252 -2.0899
 4325SOL    HW224435   1.366   1.456   8.811  0.4917 -1.6180  2.1534
 4326SOL     OW24436   0.392   3.658   7.233  0.1028 -0.5325 -0.3544
 4326SOL    HW124437   0.400   3.569   7.268  1.3295 -0.6437 -0.9194
 4326SOL    HW224438   0.318   3.678   7.289  1.6293  0.3731  1.3368
 4327SOL     OW24439   4.004   2.308   3.549 -0.5099 -0.1636  0.6770
 4327SOL    HW124440   4.056   2.337   3.473  1.5652 -0.5488  1.9345
 4327SOL    HW224441   3.944   2.246   3.508 -0.4173 -0.3341  0.8017
 4328SOL     OW24442   2.669   1.306   4.369  0.2254  0.1522  0.1877
 4328SOL    HW124443   2.635   1.222   4.399 -0.1871  0.7869  1.4781
 4328SOL    HW224444   2.585   1.340   4.336  0.2600  0.2260  0.1761
 4329SOL     OW24445   0.400   3.221   3.817  0.1005  0.1260 -0.3538
 4329SOL    HW124446   0.426   3.169   3.893 -0.5162  1.0732  0.5146
 4329SOL    HW224447   0.307   3.201   3.806 -0.2675  2.2592 -1.0602
 4330SOL     OW24448   1.090   0.008  17.586 -0.1627 -0.0794 -0.2403
 4330SOL    HW124449   1.075   4.696  17.674 -1.9749  1.3262 -0.0137
 4330SOL    HW224450   1.058   0.098  17.595 -0.9412 -0.3236 -0.5355
 4331SOL     OW24451   3.437   0.817  10.248  0.1168 -0.2315 -0.7940
 4331SOL    HW124452   3.429   0.729  10.285  0.0413  0.0660 -0.0963
 4331SOL    HW224453   3.490   0.860  10.315  1.2344  0.8107 -2.3356
 4332SOL     OW24454   2.434   4.364   5.526  0.0911  0.9517 -0.2444
 4332SOL    HW124455   2.529   4.371   5.520  0.4682 -1.6931  2.5458
 4332SOL    HW224456   2.430   4.273   5.556  0.2744  0.9510 -0.2193
 4333SOL     OW24457   0.978   4.618  12.182  0.3794  0.1117  0.0183
 4333SOL    HW124458   0.898   4.670  12.174 -0.0006 -0.5203 -0.3312
 4333SOL    HW224459   1.039   4.691  12.182  0.5925 -0.0688 -2.0258
 4334SOL     OW24460   1.934   1.744  14.928 -0.9995  0.2665  0.0447
 4334SOL    HW124461   1.996   1.805  14.889  0.1304 -0.7952  0.1747
 4334SOL    HW224462   1.882   1.721  14.851 -1.1645 -0.1134  0.2705
 4335SOL     OW24463   2.948   3.798   7.076  0.4022  0.0748 -0.4385
 4335SOL    HW124464   2.900   3.872   7.037 -0.1346  0.2323  0.5196
 4335SOL    HW224465   2.912   3.726   7.024 -0.9535 -1.3420  2.5231
 4336SOL     OW24466   4.053   2.891   2.928  0.3279  0.5210 -0.4670
 4336SOL    HW124467   4.080   2.980   2.906  0.8033  0.5109  0.0730
 4336SOL    HW224468   4.055   2.884   3.024 -2.6114  2.3825 -0.2939
 4337SOL     OW24469   2.787   3.836  11.835  0.2028 -0.2034 -0.1824
 4337SOL    HW124470   2.723   3.832  11.764 -1.0870 -0.7892  1.0202
 4337SOL    HW224471   2.798   3.741  11.839  2.3371  0.0767  0.3569
 4338SOL     OW24472   3.717   4.689   4.497  0.2354 -0.4048 -0.1384
 4338SOL    HW124473   3.653   4.626   4.465  2.2060 -2.0401 -0.8258
 4338SOL    HW224474   3.726   4.668   4.590  0.8082  1.6909  0.2858
 4339SOL     OW24475   1.304   3.894   8.211  0.1853  0.0911  0.0390
 4339SOL    HW124476   1.299   3.977   8.257  0.2881  0.7858 -1.2006
 4339SOL    HW224477   1.382   3.857   8.253 -0.7634 -0.0991  1.6467
 4340SOL     OW24478   2.751   0.087  10.459  0.0123  0.3027  0.3559
 4340SOL    HW124479   2.794   0.065  10.541 -1.1387 -1.3965  0.4925
 4340SOL    HW224480   2.694   0.011  10.447 -2.7950  2.2137  1.7540
 4341SOL     OW24481   0.751   1.415   8.348  0.4983 -0.1412 -0.6952
 4341SOL    HW124482   0.781   1.337   8.301  0.0541 -1.0618  0.5548
 4341SOL    HW224483   0.774   1.482   8.283  0.7437 -1.5024 -2.0180
 4342SOL     OW24484   1.474   4.517   5.874 -0.1411 -0.4044 -0.3910
 4342SOL    HW124485   1.465   4.462   5.951 -0.6651 -0.9555 -0.8488
 4342SOL    HW224486   1.528   4.579   5.923 -0.5208 -0.4622  0.0944
 4343SOL     OW24487   2.818   3.047   5.740 -0.3197  0.3029 -0.1369
 4343SOL    HW124488   2.876   2.976   5.713 -1.0570 -0.6560  0.7847
 4343SOL    HW224489   2.877   3.093   5.800  1.1678 -0.0144 -1.3817
 4344SOL     OW24490   1.930   3.306   6.557  0.4787 -0.3251  0.2537
 4344SOL    HW124491   1.897   3.394   6.537  0.0754 -0.8565 -1.4000
 4344SOL    HW224492   1.930   3.307   6.653  1.7959 -3.7533  0.2961
 4345SOL     OW24493   3.933   4.237   5.475  0.0686  0.3277 -0.8937
 4345SOL    HW124494   3.913   4.281   5.558  0.8275  0.3367 -0.7110
 4345SOL    HW224495   3.891   4.292   5.409 -0.4994 -1.1604 -1.7533
 4346SOL     OW24496   1.442   1.566   9.129  0.2012 -0.5701  0.1301
 4346SOL    HW124497   1.529   1.585   9.094  0.2795 -3.6768 -1.4314
 4346SOL    HW224498   1.391   1.610   9.061  2.6060  2.5367  0.3933
 4347SOL     OW24499   0.375   0.099  15.260  0.2710 -0.1905  0.5333
 4347SOL    HW124500   0.301   0.129  15.207  0.4108 -3.2994 -1.3888
 4347SOL    HW224501   0.349   0.009  15.276  0.0960  0.1063  1.9708
 4348SOL     OW24502   1.969   2.617   3.057 -0.4209  0.2481  1.0184
 4348SOL    HW124503   2.022   2.610   3.136  1.2058  0.3647 -0.0801
 4348SOL    HW224504   1.904   2.684   3.078 -2.2004 -0.9909 -0.5355
 4349SOL     OW24505   0.080   1.425   5.929 -0.4101  0.3862  0.5788
 4349SOL    HW124506   0.095   1.517   5.953  0.1702  0.6320 -0.7374
 4349SOL    HW224507   4.717   1.422   5.884 -1.0409  3.7431  1.5763
 4350SOL     OW24508   0.962   0.551  16.587  0.3167 -0.3335  0.3281
 4350SOL    HW124509   1.049   0.511  16.596  0.5956 -0.7609 -3.8598
 4350SOL    HW224510   0.945   0.587  16.673  0.7524  1.3374 -0.2941
 4351SOL     OW24511   2.638   3.234   4.202  0.6902  0.2860  0.0972
 4351SOL    HW124512   2.670   3.208   4.115 -1.1526  0.0059 -0.4938
 4351SOL    HW224513   2.637   3.147   4.242  2.3169 -0.4072 -1.3529
 4352SOL     OW24514   1.570   3.914   3.040 -0.0423  0.5818  0.3661
 4352SOL    HW124515   1.559   3.929   2.946  3.4693  1.6481  0.1481
 4352SOL    HW224516   1.645   3.971   3.054  1.8144 -1.8316  0.1702
 4353SOL     OW24517   1.715   3.338   7.771 -0.6023 -0.3025 -0.1115
 4353SOL    HW124518   1.637   3.371   7.814 -0.7897  0.4037 -0.9873
 4353SOL    HW224519   1.697   3.247   7.748  1.0136 -0.8609  0.8476
 4354SOL     OW24520   1.039   2.657   6.672  0.0177  0.4141  0.3417
 4354SOL    HW124521   1.128   2.655   6.638 -0.9281 -0.4518 -2.0573
 4354SOL    HW224522   0.984   2.678   6.597 -1.0588 -0.8254  0.7930
 4355SOL     OW24523   0.288   3.505   4.173  0.0699  0.0294  0.3368
 4355SOL    HW124524   0.194   3.493   4.172 -0.0580  1.0563 -0.6194
 4355SOL    HW224525   0.319   3.435   4.116 -1.1506 -0.0513 -0.2138
 4356SOL     OW24526   2.939   2.815   4.556  0.0333  0.3590 -0.3108
 4356SOL    HW124527   3.020   2.765   4.541 -0.3967 -0.2365 -0.6227
 4356SOL    HW224528   2.921   2.823   4.463  1.0474  1.1731 -0.4439
 4357SOL     OW24529   2.359   1.987   3.395 -0.5416  0.4075  0.2427
 4357SOL    HW124530   2.407   2.067   3.419  1.6576 -0.7503 -0.3259
 4357SOL    HW224531   2.375   1.938   3.476 -0.3687 -0.7008 -0.4658
 4358SOL     OW24532   2.981   3.825   1.208 -0.0369  0.3560  0.1890
 4358SOL    HW124533   2.928   3.770   1.151 -0.3998  0.4070  0.4756
 4358SOL    HW224534   2.929   3.828   1.289  1.4059 -0.7518  1.1640
 4359SOL     OW24535   1.327   0.553   8.781  0.1648  0.8513  0.2664
 4359SOL    HW124536   1.243   0.572   8.822  0.1374  1.4389 -0.0619
 4359SOL    HW224537   1.318   0.549   8.686 -1.2484  1.0578  0.4013
 4360SOL     OW24538   2.481   2.229  16.171 -0.2107 -0.0935  0.5699
 4360SOL    HW124539   2.392   2.225  16.137 -0.5931 -0.4183  1.6384
 4360SOL    HW224540   2.513   2.142  16.148  1.2762  0.1762  1.6131
 4361SOL     OW24541   2.327   4.309   9.491  0.6446 -0.0326  0.2801
 4361SOL    HW124542   2.282   4.281   9.411  2.1605 -0.7796 -0.2956
 4361SOL    HW224543   2.263   4.356   9.544  0.9604  1.8152 -0.9865
 4362SOL     OW24544   2.375   1.380   8.216  0.8756 -0.0378  0.0272
 4362SOL    HW124545   2.380   1.347   8.126 -2.1619 -0.7372  0.1111
 4362SOL    HW224546   2.284   1.362   8.237  1.6289 -3.0919  0.7175
 4363SOL     OW24547   4.667   1.582   7.878  0.2380 -0.0804  0.5043
 4363SOL    HW124548   4.666   1.491   7.851  0.2760  0.5484 -1.6354
 4363SOL    HW224549   4.573   1.595   7.892 -0.0459  0.7243 -2.1413
 4364SOL     OW24550   1.739   1.713   5.210  0.1542 -0.6407  0.4510
 4364SOL    HW124551   1.754   1.712   5.115  0.4760  1.6318  0.4951
 4364SOL    HW224552   1.729   1.806   5.227  0.9085 -0.3569 -0.6728
 4365SOL     OW24553   3.094   0.713   6.973  0.4331  0.4078  0.6385
 4365SOL    HW124554   3.101   0.663   7.054 -2.2683  0.1780  0.7456
 4365SOL    HW224555   3.123   0.643   6.915 -2.2509 -2.4121  2.6587
 4366SOL     OW24556   1.403   3.285   8.485  0.2460  0.2551  0.2354
 4366SOL    HW124557   1.470   3.263   8.550  0.4315  0.4321  0.1043
 4366SOL    HW224558   1.369   3.197   8.467  0.2262  0.3395 -0.1450
 4367SOL     OW24559   4.532   1.556   6.274 -0.0540  0.4120  0.5165
 4367SOL    HW124560   4.466   1.541   6.207 -0.0328  0.9892  0.3681
 4367SOL    HW224561   4.528   1.650   6.291 -0.4420  0.5762 -0.4961
 4368SOL     OW24562   0.714   4.367   2.320 -0.6193 -0.5232  0.1188
 4368SOL    HW124563   0.746   4.423   2.249 -3.1965  1.3693  0.4583
 4368SOL    HW224564   0.727   4.282   2.278  4.5476  0.1655  0.2138
 4369SOL     OW24565   0.404   1.647   2.120 -0.4839  0.3603 -0.0382
 4369SOL    HW124566   0.383   1.729   2.165  2.1145  1.4525 -0.8199
 4369SOL    HW224567   0.489   1.644   2.163 -0.9914 -0.6598  0.9043
 4370SOL     OW24568   4.258   3.646   3.833 -0.3754  0.1252 -0.4758
 4370SOL    HW124569   4.302   3.568   3.799 -0.3194 -0.2692  0.5102
 4370SOL    HW224570   4.339   3.694   3.853 -0.9971  1.1808 -0.5313
 4371SOL     OW24571   4.683   4.718   3.644 -0.6725 -0.0487 -0.0314
 4371SOL    HW124572   4.702   0.054   3.570 -3.5707  0.1520 -0.6287
 4371SOL    HW224573   4.633   0.055   3.701 -0.0199 -1.7982  2.3235
 4372SOL     OW24574   2.143   3.237  14.716 -0.2503  0.1775 -0.4851
 4372SOL    HW124575   2.214   3.258  14.655  1.2485  1.5369  1.7441
 4372SOL    HW224576   2.068   3.212  14.662  0.7770 -0.1166 -1.7614
 4373SOL     OW24577   1.006   4.575   0.124 -0.1956 -0.6758  0.4279
 4373SOL    HW124578   1.008   4.633   0.201  0.9588  1.6158 -1.3130
 4373SOL    HW224579   1.093   4.538   0.138 -0.1152 -1.0988 -1.2540
 4374SOL     OW24580   2.791   4.363   7.207  0.0446  0.3218 -0.1073
 4374SOL    HW124581   2.855   4.410   7.154 -0.6994  0.2197 -1.1102
 4374SOL    HW224582   2.722   4.360   7.140 -1.3966 -0.5268  1.4278
 4375SOL     OW24583   1.063   2.495   8.578 -0.1203  0.0935  0.3359
 4375SOL    HW124584   1.050   2.587   8.555 -1.9696 -0.2366 -0.0049
 4375SOL    HW224585   0.976   2.460   8.557 -0.1007  0.1120  0.2217
 4376SOL     OW24586   3.093   0.094   7.202  0.3233 -0.2571  0.5108
 4376SOL    HW124587   3.178   0.101   7.158 -0.7075 -0.6069 -1.5630
 4376SOL    HW224588   3.116   0.100   7.295  1.0265 -1.4375  0.4227
 4377SOL     OW24589   0.700   3.627   6.615 -0.6477 -0.6238 -0.5450
 4377SOL    HW124590   0.725   3.712   6.651 -0.3317 -0.8379 -0.2594
 4377SOL    HW224591   0.697   3.643   6.521  0.6930  1.0639 -0.2984
 4378SOL     OW24592   0.298   0.909   8.865 -0.4195  0.0513  0.7065
 4378SOL    HW124593   0.242   0.841   8.902 -1.7031 -0.7856 -2.7803
 4378SOL    HW224594   0.339   0.944   8.944 -0.5727  0.0104  0.8030
 4379SOL     OW24595   1.603   2.004   3.935  0.3464  0.3548  0.1478
 4379SOL    HW124596   1.609   2.099   3.946  0.7843  0.3394  0.0218
 4379SOL    HW224597   1.526   1.980   3.883 -0.4647  1.1246  0.9859
 4380SOL     OW24598   3.894   2.846   2.679  0.7391 -0.2532 -0.4638
 4380SOL    HW124599   3.943   2.850   2.760 -0.3937 -0.1732  0.2159
 4380SOL    HW224600   3.869   2.936   2.659 -1.1294 -0.5119  0.6864
 4381SOL     OW24601   2.635   2.249   9.304 -0.0757 -0.1902  0.2028
 4381SOL    HW124602   2.568   2.211   9.361 -1.3394  1.5880 -0.1046
 4381SOL    HW224603   2.613   2.341   9.319  0.5874  0.2011 -1.2468
 4382SOL     OW24604   1.820   3.310   9.351 -0.0680  0.5861  0.1945
 4382SOL    HW124605   1.907   3.311   9.392  0.4560  1.6364 -0.9484
 4382SOL    HW224606   1.770   3.373   9.402 -1.9023  0.5256 -1.5182
 4383SOL     OW24607   2.305   3.415   9.542 -0.4540 -0.4706 -0.5205
 4383SOL    HW124608   2.354   3.479   9.593 -0.4712 -0.3131 -0.7015
 4383SOL    HW224609   2.297   3.344   9.606  1.6898  0.0878  0.3495
 4384SOL     OW24610   1.012   0.795  11.910 -0.0486 -0.4960 -0.1312
 4384SOL    HW124611   1.038   0.729  11.975  2.6722  0.1446 -0.5673
 4384SOL    HW224612   1.090   0.848  11.924  0.4251 -1.0429 -0.7221
 4385SOL     OW24613   2.566   1.218   8.458  0.0916  0.0700 -0.0100
 4385SOL    HW124614   2.586   1.293   8.514 -0.6108 -0.9933  1.6587
 4385SOL    HW224615   2.605   1.216   8.371 -0.2505 -0.5678 -0.1503
 4386SOL     OW24616   0.732   0.816   6.422  0.0401 -0.4223 -0.2458
 4386SOL    HW124617   0.795   0.831   6.351  0.5488 -1.6190 -0.0593
 4386SOL    HW224618   0.789   0.800   6.497  2.4118 -0.9661 -2.1393
 4387SOL     OW24619   1.315   1.250   5.625 -0.0355 -0.0014 -0.4123
 4387SOL    HW124620   1.336   1.307   5.551 -0.1964  0.1542 -0.3389
 4387SOL    HW224621   1.282   1.177   5.572 -1.5642 -1.1773  2.1849
 4388SOL     OW24622   2.162   3.984   4.522  0.4001 -0.3862  0.1504
 4388SOL    HW124623   2.242   3.978   4.574  0.1671  1.3598  0.7388
 4388SOL    HW224624   2.092   4.013   4.581 -0.6027  1.5221 -1.9580
 4389SOL     OW24625   3.629   1.414   3.961  0.0368  0.2057  0.1440
 4389SOL    HW124626   3.622   1.321   3.982 -1.8754  0.9315  2.7582
 4389SOL    HW224627   3.546   1.448   3.995 -1.7516 -3.1352 -0.8848
 4390SOL     OW24628   2.948   1.131  10.788 -0.2039 -0.0233 -0.3769
 4390SOL    HW124629   2.912   1.043  10.800 -0.0774 -0.1402 -0.8804
 4390SOL    HW224630   3.026   1.128  10.733  2.2009  1.6873  2.9510
 4391SOL     OW24631   3.015   2.768   7.833 -0.1170 -0.3799 -0.0568
 4391SOL    HW124632   3.083   2.715   7.792  0.3639  1.4544 -1.6296
 4391SOL    HW224633   2.945   2.757   7.769 -1.0473  0.2256  0.8472
 4392SOL     OW24634   1.001   0.046   9.529  0.5113  0.1097 -0.6119
 4392SOL    HW124635   0.925   0.008   9.484  0.8930 -0.1541 -1.0375
 4392SOL    HW224636   1.048   0.100   9.465 -1.3888  0.1353 -1.9983
 4393SOL     OW24637   1.151   2.826  10.580 -0.3509 -0.7682 -0.5686
 4393SOL    HW124638   1.219   2.769  10.616  0.5591  0.5678 -0.1762
 4393SOL    HW224639   1.221   2.887  10.557 -0.5618 -1.0868 -2.0590
 4394SOL     OW24640   3.596   0.177  17.269  0.1576  0.3805  0.5652
 4394SOL    HW124641   3.506   0.143  17.267 -0.4056  1.9930 -1.3581
 4394SOL    HW224642   3.650   0.098  17.265 -0.5468 -0.2124  2.5655
 4395SOL     OW24643   0.018   2.166  10.829  0.9097  0.2562 -0.0400
 4395SOL    HW124644   4.666   2.198  10.881 -0.0518  0.0739 -1.2811
 4395SOL    HW224645   0.043   2.247  10.785 -0.6019  0.1379 -1.1012
 4396SOL     OW24646   2.126   1.055   2.762 -0.0977 -0.1950 -0.3431
 4396SOL    HW124647   2.098   0.970   2.796 -1.3077  0.4644  0.2812
 4396SOL    HW224648   2.090   1.055   2.673 -0.0957  4.1786 -0.3128
 4397SOL     OW24649   1.601   2.697  10.284  0.2147 -1.4305 -0.0496
 4397SOL    HW124650   1.693   2.675  10.302  0.8685 -0.2032 -1.8709
 4397SOL    HW224651   1.564   2.643  10.214  0.0155 -1.2716 -0.0644
 4398SOL     OW24652   3.764   0.245   3.690  0.2220 -0.4359  0.8906
 4398SOL    HW124653   3.850   0.206   3.705  0.1185 -1.4857 -1.2829
 4398SOL    HW224654   3.756   0.307   3.762 -2.2670 -0.7048  0.8632
 4399SOL     OW24655   3.480   2.828   7.678  0.2789 -0.0202 -0.1294
 4399SOL    HW124656   3.568   2.838   7.640  0.6626 -0.6083  0.5800
 4399SOL    HW224657   3.493   2.894   7.747  0.2816 -1.1115  0.9149
 4400SOL     OW24658   0.037   1.333   7.767  0.2523  0.4512 -0.4671
 4400SOL    HW124659   0.017   1.321   7.675  0.3204  2.0942 -0.6940
 4400SOL    HW224660   0.048   1.243   7.798  0.1913  0.0111 -1.7445
 4401SOL     OW24661   3.525   0.210   6.292 -0.1251 -0.5813  0.4079
 4401SOL    HW124662   3.501   0.240   6.204 -0.5854  0.7929  0.9959
 4401SOL    HW224663   3.620   0.205   6.279  0.0463  0.3575  1.2810
 4402SOL     OW24664   3.468   1.854  10.488 -0.1373  0.4031  0.2276
 4402SOL    HW124665   3.452   1.866  10.394 -0.5468 -1.4718  0.0547
 4402SOL    HW224666   3.537   1.788  10.481 -1.3976 -0.6949 -2.2558
 4403SOL     OW24667   1.789   2.859   7.040  0.4435  0.3760  0.3378
 4403SOL    HW124668   1.732   2.921   6.994 -0.0260  0.5849  1.2007
 4403SOL    HW224669   1.824   2.925   7.100 -0.5098  1.0715  0.1261
 4404SOL     OW24670   3.089   2.129   5.277  0.7217  1.0002  0.4314
 4404SOL    HW124671   3.127   2.042   5.286 -1.4147 -0.1562 -1.7915
 4404SOL    HW224672   2.994   2.127   5.292  0.8906  1.0272  1.5276
 4405SOL     OW24673   2.696   1.827  11.009 -0.1665 -0.0012  0.3861
 4405SOL    HW124674   2.708   1.736  10.982 -1.0157 -0.4644  1.5668
 4405SOL    HW224675   2.777   1.865  10.974 -0.2113 -1.8918 -1.8448
 4406SOL     OW24676   0.858   1.982   7.060 -0.0220  0.4778 -0.1031
 4406SOL    HW124677   0.899   2.054   7.013  1.6584 -0.2158  0.3175
 4406SOL    HW224678   0.867   2.017   7.149  0.9877  1.4026 -0.5745
 4407SOL     OW24679   3.749   0.512   6.947  0.0103 -0.6027  0.0068
 4407SOL    HW124680   3.776   0.571   6.877  2.4984 -1.0073  0.6339
 4407SOL    HW224681   3.753   0.430   6.897 -0.0403  0.0064 -0.9904
 4408SOL     OW24682   1.794   3.139   9.129  0.1568 -0.1190  0.0293
 4408SOL    HW124683   1.810   3.219   9.179 -1.1410  0.8568 -1.1284
 4408SOL    HW224684   1.873   3.119   9.079  0.8428  0.6279  0.7956
 4409SOL     OW24685   3.519   1.721  12.377  0.4762  0.8536 -0.5088
 4409SOL    HW124686   3.584   1.761  12.434 -0.0686 -1.6981  1.8725
 4409SOL    HW224687   3.580   1.663  12.332  1.4699  2.0993 -0.7475
 4410SOL     OW24688   0.407   3.739   5.650 -0.5685  0.2294 -0.1396
 4410SOL    HW124689   0.473   3.699   5.593 -1.3208 -0.9610 -0.1824
 4410SOL    HW224690   0.456   3.737   5.733 -1.3151 -0.3019  0.2972
 4411SOL     OW24691   3.287   3.526   6.392 -0.3256 -0.5832  0.0331
 4411SOL    HW124692   3.300   3.449   6.447  0.5786  1.7527  3.1203
 4411SOL    HW224693   3.208   3.561   6.431 -0.5286 -0.1662 -0.7360
 4412SOL     OW24694   0.467   3.607   2.710  0.6260  0.7243 -0.2088
 4412SOL    HW124695   0.483   3.618   2.616  0.2000 -1.1388 -0.4902
 4412SOL    HW224696   0.471   3.513   2.726  1.4933  1.0606  1.5965
 4413SOL     OW24697   2.570   1.910   3.104 -0.6867  0.2343 -0.5323
 4413SOL    HW124698   2.594   1.839   3.044 -0.8637  0.6132 -1.0505
 4413SOL    HW224699   2.498   1.957   3.061 -0.4859 -2.2493 -3.5912
 4414SOL     OW24700   3.160   4.284   8.622  0.3117  0.2266 -0.2554
 4414SOL    HW124701   3.132   4.208   8.571  0.3915 -0.9043  1.3929
 4414SOL    HW224702   3.077   4.315   8.659 -0.5319 -2.6033  0.2121
 4415SOL     OW24703   4.173   0.555  15.300  0.1766 -0.1970 -0.4733
 4415SOL    HW124704   4.130   0.637  15.277  0.3522 -0.7180 -2.6019
 4415SOL    HW224705   4.149   0.491  15.234  1.3011 -1.1737  0.0524
 4416SOL     OW24706   4.221   1.046   5.213 -0.4254  0.2902 -0.1738
 4416SOL    HW124707   4.293   0.990   5.187  0.2994  0.9731  0.3707
 4416SOL    HW224708   4.221   1.109   5.141  0.2979 -1.0484 -1.3348
 4417SOL     OW24709   1.920   3.926   9.255 -0.1549  0.2463  0.3587
 4417SOL    HW124710   1.836   3.881   9.243 -0.0195 -0.7720  3.2771
 4417SOL    HW224711   1.902   3.954   9.344 -1.6290  2.2842 -0.5778
 4418SOL     OW24712   3.244   1.186   3.626 -0.2187  0.3217 -0.0289
 4418SOL    HW124713   3.244   1.135   3.707  0.5279 -0.0505 -0.2597
 4418SOL    HW224714   3.249   1.114   3.563 -0.1860 -1.8039  2.3975
 4419SOL     OW24715   3.797   4.049   5.920  0.2269  0.0861 -0.3262
 4419SOL    HW124716   3.866   4.029   5.983 -0.5750  1.8413  1.0963
 4419SOL    HW224717   3.747   4.112   5.972  1.6607 -1.0930  2.5051
 4420SOL     OW24718   0.732   1.123   3.655  1.2390 -0.0366  0.0748
 4420SOL    HW124719   0.772   1.172   3.583 -1.7397  1.5737 -0.4805
 4420SOL    HW224720   0.683   1.058   3.604 -1.1960  0.8135  1.3253
 4421SOL     OW24721   1.606   0.545  10.781 -0.4040  0.2225  0.1422
 4421SOL    HW124722   1.596   0.507  10.868 -0.5685 -0.3224 -0.1167
 4421SOL    HW224723   1.694   0.524  10.751  0.4005  0.8047  2.1198
 4422SOL     OW24724   3.601   4.582   5.504  0.5052  0.0622  0.1415
 4422SOL    HW124725   3.610   4.674   5.529 -3.2322 -0.1616  2.2301
 4422SOL    HW224726   3.609   4.584   5.408  0.0784  2.0126  0.1488
 4423SOL     OW24727   2.540   1.819   4.824  0.4900  0.3477  0.2958
 4423SOL    HW124728   2.512   1.878   4.753 -1.4561 -2.3172 -1.1144
 4423SOL    HW224729   2.476   1.828   4.894  1.1423  0.9287  0.8293
 4424SOL     OW24730   4.654   4.220   8.824  0.4320 -0.0633 -0.2548
 4424SOL    HW124731   4.649   4.142   8.880  1.8518  0.4498  0.6049
 4424SOL    HW224732   0.023   4.251   8.838  0.4110  0.5705 -1.5049
 4425SOL     OW24733   3.796   3.550  13.927 -0.5831 -0.2582  0.1997
 4425SOL    HW124734   3.833   3.637  13.938 -1.7212  0.6278 -2.9039
 4425SOL    HW224735   3.876   3.501  13.908 -1.4693 -1.5744 -0.1645
 4426SOL     OW24736   0.302   0.047   4.628  0.5212 -0.4950 -0.4790
 4426SOL    HW124737   0.323   4.675   4.631 -2.0179 -1.0603 -0.3220
 4426SOL    HW224738   0.354   0.078   4.555  1.7152  2.2492  1.5293
 4427SOL     OW24739   0.421   1.777   6.896  0.5220 -0.0514  0.4227
 4427SOL    HW124740   0.501   1.822   6.869  0.5157  0.7071  1.6592
 4427SOL    HW224741   0.452   1.712   6.959 -1.9207 -1.0555  0.5984
 4428SOL     OW24742   1.702   1.908   2.226 -0.0718  0.2401  0.5665
 4428SOL    HW124743   1.706   1.841   2.158  0.8729  0.2837  0.5805
 4428SOL    HW224744   1.609   1.896   2.243  0.0494 -0.8930  0.4463
 4429SOL     OW24745   4.201   3.338   7.206 -0.7875 -0.4672  0.2859
 4429SOL    HW124746   4.121   3.306   7.164 -1.5562  0.7323  0.8516
 4429SOL    HW224747   4.272   3.327   7.142 -0.9622 -0.6588  0.1251
 4430SOL     OW24748   4.108   1.348   2.835  0.3990  0.0215 -0.3031
 4430SOL    HW124749   4.014   1.367   2.837  0.4633  0.4074 -1.0827
 4430SOL    HW224750   4.147   1.436   2.838  0.5784 -0.0297 -1.4314
 4431SOL     OW24751   1.271   4.163   4.376 -0.1383  0.1390  0.4111
 4431SOL    HW124752   1.245   4.204   4.294  0.2629  1.3334  0.8926
 4431SOL    HW224753   1.194   4.175   4.430 -0.3538  0.1443  0.1050
 4432SOL     OW24754   4.317   2.835   3.916 -0.1812 -0.2131 -0.2257
 4432SOL    HW124755   4.310   2.887   3.996 -2.1350 -2.1234  0.8499
 4432SOL    HW224756   4.340   2.748   3.951 -0.5540 -0.4635 -0.5983
 4433SOL     OW24757   0.636   1.159   8.876 -0.4596 -0.8880  0.0413
 4433SOL    HW124758   0.652   1.136   8.784  1.2002  2.8261 -0.5763
 4433SOL    HW224759   0.556   1.210   8.872  0.9977  1.3776 -0.2837
 4434SOL     OW24760   4.405   0.361   0.232 -0.3628 -0.2567 -0.2870
 4434SOL    HW124761   4.495   0.337   0.256 -0.1951  0.8462  0.1572
 4434SOL    HW224762   4.405   0.401   0.145  1.0828 -1.1747 -0.7108
 4435SOL     OW24763   1.698   2.367  11.673 -0.5423  0.2180  0.0899
 4435SOL    HW124764   1.769   2.350  11.612  0.8420  1.3771  1.3869
 4435SOL    HW224765   1.749   2.403  11.746  1.6323 -1.0381 -0.8218
 4436SOL     OW24766   2.697   0.954   1.402  0.1734  0.2197  0.0182
 4436SOL    HW124767   2.673   1.027   1.344 -1.9395 -0.1239  0.4822
 4436SOL    HW224768   2.619   0.925   1.448  0.4979 -1.7709 -0.7067
 4437SOL     OW24769   0.944   0.429   8.476  0.1200 -0.5167 -0.1947
 4437SOL    HW124770   0.889   0.502   8.503  3.0568  1.1789  1.2014
 4437SOL    HW224771   0.879   0.363   8.451 -1.6741  0.9394  0.6854
 4438SOL     OW24772   2.488   2.486   7.790 -0.0926  0.2000 -0.7521
 4438SOL    HW124773   2.583   2.499   7.784  0.1551 -1.2471  0.0182
 4438SOL    HW224774   2.467   2.512   7.880 -0.1739 -1.5241 -0.2709
 4439SOL     OW24775   2.553   4.538   6.429  0.5874  0.2933 -0.2482
 4439SOL    HW124776   2.586   4.533   6.518  1.3633  2.8051 -0.4019
 4439SOL    HW224777   2.576   4.621   6.387  0.9748  0.1160 -0.3784
 4440SOL     OW24778   1.856   2.626  12.265  0.1258 -0.3636 -0.0255
 4440SOL    HW124779   1.886   2.611  12.175 -1.1315  0.3864 -0.5706
 4440SOL    HW224780   1.881   2.719  12.265  1.1463 -0.6429 -1.0293
 4441SOL     OW24781   1.360   0.426   2.634  0.0159 -0.6560  0.2658
 4441SOL    HW124782   1.443   0.469   2.654 -0.3693 -0.0582  0.5825
 4441SOL    HW224783   1.358   0.357   2.700  0.8596 -0.9647 -0.0252
 4442SOL     OW24784   4.284   4.530   3.642  0.4543 -0.1793  0.2823
 4442SOL    HW124785   4.366   4.530   3.593  0.9127 -1.3940  1.0444
 4442SOL    HW224786   4.230   4.476   3.585  1.1889 -0.6762  0.0517
 4443SOL     OW24787   4.411   0.441  16.414  0.3891 -0.3745 -0.2305
 4443SOL    HW124788   4.415   0.348  16.393 -0.6717 -0.5281  0.2617
 4443SOL    HW224789   4.381   0.425  16.503  1.1068 -0.5465 -0.0169
 4444SOL     OW24790   0.035   1.602   1.552  0.2758 -0.5313 -0.7222
 4444SOL    HW124791   0.017   1.510   1.531  0.6344 -1.4051  2.8342
 4444SOL    HW224792   0.115   1.595   1.605 -0.8459  0.0172  1.0184
 4445SOL     OW24793   4.199   1.261   3.575  0.3305 -0.1003 -0.0203
 4445SOL    HW124794   4.141   1.270   3.651  1.3284  1.9967  0.4941
 4445SOL    HW224795   4.131   1.221   3.520  0.0556 -0.3946  0.5272
 4446SOL     OW24796   2.856   0.889   4.280 -1.0966 -0.2548  0.2141
 4446SOL    HW124797   2.911   0.895   4.202 -0.5741  0.8115  0.6568
 4446SOL    HW224798   2.893   0.815   4.328  0.1881  1.4522  1.8461
 4447SOL     OW24799   4.595   0.399   7.506 -0.3663  0.2678  0.1110
 4447SOL    HW124800   4.551   0.315   7.492 -1.3125  0.4315  2.1017
 4447SOL    HW224801   4.665   0.375   7.567 -1.2411  0.5995  1.2430
 4448SOL     OW24802   2.559   1.958   2.352 -0.1775  0.4765  0.1958
 4448SOL    HW124803   2.598   1.929   2.269 -2.7593 -0.8573 -0.5761
 4448SOL    HW224804   2.509   2.029   2.312  0.6943  0.8034 -0.3276
 4449SOL     OW24805   0.552   2.759   7.796 -0.6447  0.8378  0.1779
 4449SOL    HW124806   0.460   2.782   7.787 -0.7269 -0.9257 -3.2307
 4449SOL    HW224807   0.560   2.728   7.886  0.9264 -1.2499 -0.6875
 4450SOL     OW24808   1.119   2.831   6.374  0.2135  0.6767  0.3554
 4450SOL    HW124809   1.190   2.771   6.397 -0.0988  0.3784  0.5329
 4450SOL    HW224810   1.054   2.779   6.327  0.2656  0.2871  0.7174
 4451SOL     OW24811   3.030   4.677   2.210 -0.1726 -0.1297  0.5264
 4451SOL    HW124812   3.033   0.014   2.286  2.4410 -0.0657  0.4028
 4451SOL    HW224813   2.974   4.608   2.244  2.8905 -3.3378 -0.9878
 4452SOL     OW24814   1.622   2.635   8.752  0.0499 -1.0969 -0.0680
 4452SOL    HW124815   1.573   2.554   8.762  1.6853 -2.2579 -1.4866
 4452SOL    HW224816   1.621   2.646   8.657  1.1477  1.6375  0.2303
 4453SOL     OW24817   2.288   0.906   8.674  0.0679  0.3793 -0.3803
 4453SOL    HW124818   2.362   0.849   8.695 -0.1740 -0.6402 -2.2616
 4453SOL    HW224819   2.264   0.940   8.760  0.9216  0.5381 -0.2061
 4454SOL     OW24820   2.988   3.645   0.025 -0.0902  0.3062  0.3150
 4454SOL    HW124821   2.973   3.565  17.663 -0.7108 -0.1300  1.1932
 4454SOL    HW224822   3.063   3.612   0.075 -0.5215  1.4577  1.7297
 4455SOL     OW24823   1.314   3.804   6.529  0.8863  0.5030  0.1096
 4455SOL    HW124824   1.388   3.766   6.577  0.1146 -0.9339  0.1561
 4455SOL    HW224825   1.250   3.750   6.575  0.4294  0.6129 -0.4055
 4456SOL     OW24826   3.514   2.541   6.307  0.1788 -0.4397  0.2824
 4456SOL    HW124827   3.579   2.577   6.367  0.6914  0.8808 -1.0610
 4456SOL    HW224828   3.437   2.568   6.357 -0.7758 -2.4884 -0.0659
 4457SOL     OW24829   0.776   1.570   3.000  0.2211  0.4798  0.2240
 4457SOL    HW124830   0.844   1.632   3.027 -0.8405  0.6249  2.5779
 4457SOL    HW224831   0.707   1.634   2.982  0.1422 -0.5778 -3.2903
 4458SOL     OW24832   4.373   4.710   0.781  0.2194 -0.2988 -0.9870
 4458SOL    HW124833   4.361   0.069   0.729 -2.2056  0.8156  1.3193
 4458SOL    HW224834   4.288   4.673   0.756 -0.3199 -0.3379  0.9501
 4459SOL     OW24835   4.104   3.650   2.655  0.5451 -0.0781  0.2016
 4459SOL    HW124836   4.099   3.703   2.734  0.5716  0.4648 -0.1623
 4459SOL    HW224837   4.174   3.586   2.669 -0.8550 -1.0750  2.6825
 4460SOL     OW24838   0.566   2.428   4.799 -0.7921  0.4816 -0.0539
 4460SOL    HW124839   0.531   2.345   4.832  1.1726  0.2671  1.4477
 4460SOL    HW224840   0.603   2.392   4.718 -0.5515 -1.4273  0.8933
 4461SOL     OW24841   1.189   4.551  14.026 -0.6863 -0.7512  0.3625
 4461SOL    HW124842   1.235   4.494  13.963 -3.3879 -0.9084 -1.4949
 4461SOL    HW224843   1.242   4.631  14.022 -0.0858 -1.4062 -5.6866
 4462SOL     OW24844   2.991   4.450   6.159 -0.0632 -0.5720  0.4171
 4462SOL    HW124845   2.964   4.364   6.129  2.0716 -1.4528  0.9940
 4462SOL    HW224846   2.948   4.467   6.243 -2.5799 -2.4794 -0.5097
 4463SOL     OW24847   0.941   0.419   6.995 -0.3986 -0.2249  0.3576
 4463SOL    HW124848   0.904   0.446   7.079 -1.2551  1.3778 -0.5412
 4463SOL    HW224849   0.888   0.340   7.000 -2.1497  0.8353 -1.5502
 4464SOL     OW24850   0.015   3.295   3.067 -0.0479 -0.5531 -0.0882
 4464SOL    HW124851   0.095   3.335   3.031 -0.4447  0.9252  0.6566
 4464SOL    HW224852   0.022   3.201   3.053 -0.5986 -0.7366  0.8955
 4465SOL     OW24853   2.814   3.251  12.673  0.4078  0.0704  0.2709
 4465SOL    HW124854   2.792   3.246  12.580  0.4894  2.4856  0.1122
 4465SOL    HW224855   2.737   3.299  12.702  0.4208  0.0577  0.3260
 4466SOL     OW24856   3.349   0.283   1.315 -0.6135  0.3452 -0.0712
 4466SOL    HW124857   3.312   0.195   1.315  1.5278 -0.5620 -1.7426
 4466SOL    HW224858   3.287   0.343   1.356 -1.5190  0.0673 -1.0680
 4467SOL     OW24859   0.376   3.481   5.404  0.4279  0.2747 -0.6030
 4467SOL    HW124860   0.282   3.499   5.401  0.7994  2.5052  0.9323
 4467SOL    HW224861   0.393   3.493   5.311  0.3566  2.0857 -0.3968
 4468SOL     OW24862   0.746   2.728   1.548 -0.3076 -0.4297  0.3019
 4468SOL    HW124863   0.693   2.697   1.474 -2.9220  2.9404  0.7533
 4468SOL    HW224864   0.824   2.764   1.506  0.4745  0.9493  2.9317
 4469SOL     OW24865   3.393   3.351  12.249 -0.7340  0.4475 -0.1051
 4469SOL    HW124866   3.334   3.378  12.320 -0.5258  3.4096 -1.0373
 4469SOL    HW224867   3.417   3.434  12.208  1.1180  0.0483  0.1705
 4470SOL     OW24868   2.576   1.844  15.844 -0.0389  1.2251  0.0481
 4470SOL    HW124869   2.575   1.749  15.854 -0.1676  1.2161 -0.0435
 4470SOL    HW224870   2.491   1.862  15.803 -1.2012 -2.1004  0.9413
 4471SOL     OW24871   1.097   0.878   2.225 -0.4514 -0.0558  0.0532
 4471SOL    HW124872   1.106   0.787   2.196  0.7892 -0.1849  0.8498
 4471SOL    HW224873   1.023   0.911   2.173  0.0811  1.1278  0.0460
 4472SOL     OW24874   2.058   3.703   9.404 -0.3007 -0.5965 -0.0469
 4472SOL    HW124875   1.973   3.714   9.360  0.1591  3.0898 -0.0277
 4472SOL    HW224876   2.106   3.780   9.373  1.0796 -0.9172  1.2879
 4473SOL     OW24877   3.380   3.256  17.390  0.1249 -0.9310 -0.3644
 4473SOL    HW124878   3.328   3.260  17.309 -0.3400 -1.6387 -0.1039
 4473SOL    HW224879   3.314   3.222  17.451  1.3981 -1.4969  0.6937
 4474SOL     OW24880   0.713   1.499   2.583  0.0951  0.2988  0.2528
 4474SOL    HW124881   0.636   1.487   2.639  0.0996  1.6933  0.5400
 4474SOL    HW224882   0.691   1.439   2.511  0.1468  0.3003  0.2360
 4475SOL     OW24883   3.369   3.930  11.640  0.7904  0.3101 -0.3208
 4475SOL    HW124884   3.333   3.924  11.552  2.2868  1.8529 -1.0379
 4475SOL    HW224885   3.312   3.860  11.673 -1.7766  2.0167 -1.1198
 4476SOL     OW24886   1.896   2.287   5.679 -0.3525  0.4049 -0.2242
 4476SOL    HW124887   1.937   2.347   5.616 -1.8176 -0.2363 -1.7736
 4476SOL    HW224888   1.958   2.287   5.752 -0.8652  0.1963  0.2070
 4477SOL     OW24889   1.450   0.748   7.150 -0.4594 -0.8687  0.1194
 4477SOL    HW124890   1.491   0.678   7.202 -0.3285 -0.3453  0.7305
 4477SOL    HW224891   1.509   0.738   7.075  2.1786  0.9714  1.9389
 4478SOL     OW24892   3.311   1.894   4.887 -0.4914  0.1998 -0.5957
 4478SOL    HW124893   3.250   1.839   4.936  0.4988 -0.4270 -0.0639
 4478SOL    HW224894   3.358   1.938   4.958 -2.3115  2.0381 -0.5296
 4479SOL     OW24895   3.800   2.471  12.739  0.1335 -0.2999 -0.2387
 4479SOL    HW124896   3.788   2.382  12.704  3.3473 -0.6844 -0.3448
 4479SOL    HW224897   3.895   2.475  12.749 -0.1238  2.8587  0.9292
 4480SOL     OW24898   2.621   1.638   2.533 -0.1100 -0.3921 -0.0889
 4480SOL    HW124899   2.564   1.592   2.595  1.0669 -0.8045  0.6853
 4480SOL    HW224900   2.589   1.725   2.557 -1.1315 -0.6559 -0.4780
 4481SOL     OW24901   0.700   3.888   7.720 -0.2262 -0.0209 -0.3141
 4481SOL    HW124902   0.792   3.898   7.696  0.5291 -2.4912  1.5752
 4481SOL    HW224903   0.691   3.807   7.771  1.1130 -0.1039 -0.2313
 4482SOL     OW24904   4.441   1.811   8.758 -0.6888 -0.4664  0.4898
 4482SOL    HW124905   4.369   1.790   8.818 -1.2441  1.5362  0.5500
 4482SOL    HW224906   4.510   1.762   8.802 -1.2069 -0.4030  1.3749
 4483SOL     OW24907   1.237   4.297   4.150 -0.7533 -0.1355 -0.1033
 4483SOL    HW124908   1.287   4.373   4.121  1.6115 -0.9882  1.7709
 4483SOL    HW224909   1.147   4.323   4.132 -0.4135 -0.7083 -2.5591
 4484SOL     OW24910   4.449   0.498   5.962  0.4053 -0.0558  0.2518
 4484SOL    HW124911   4.377   0.484   5.901  0.2366  0.6554  0.2944
 4484SOL    HW224912   4.510   0.433   5.927  0.9329  1.4315 -1.5787
 4485SOL     OW24913   2.955   1.081   5.689  0.0256 -0.0851  0.4595
 4485SOL    HW124914   2.985   1.108   5.602  0.5359 -3.2766 -0.3749
 4485SOL    HW224915   2.971   0.986   5.685 -0.6852 -0.1817 -0.1018
 4486SOL     OW24916   0.254   1.459  10.374 -1.0964  0.2749 -0.4314
 4486SOL    HW124917   0.202   1.407  10.313  0.5846 -0.4237 -1.2839
 4486SOL    HW224918   0.223   1.427  10.459  0.8623  0.2631  0.2918
 4487SOL     OW24919   1.583   3.561  12.074  0.3392 -0.7998 -0.5752
 4487SOL    HW124920   1.628   3.560  11.990  0.6376 -0.2189 -0.4192
 4487SOL    HW224921   1.627   3.639  12.106  0.0046 -2.5030  4.0376
 4488SOL     OW24922   3.631   3.414   4.334  0.2325  0.4036  0.4243
 4488SOL    HW124923   3.678   3.459   4.404  0.7019 -1.5642  1.3704
 4488SOL    HW224924   3.598   3.336   4.379 -0.4848  1.0532  1.0206
 4489SOL     OW24925   2.357   2.928   2.376  0.6294  0.3224  0.1605
 4489SOL    HW124926   2.424   2.912   2.309 -2.6342 -2.9921 -2.2783
 4489SOL    HW224927   2.289   2.985   2.339 -1.9788 -3.0080 -0.2053
 4490SOL     OW24928   0.971   3.277   1.775  0.1275  0.5541  0.5160
 4490SOL    HW124929   0.909   3.209   1.801  0.8287 -0.6089 -0.8543
 4490SOL    HW224930   0.969   3.332   1.853  1.1493 -0.1165  1.0204
 4491SOL     OW24931   0.852   0.913  10.303  0.3062  0.3974 -0.0266
 4491SOL    HW124932   0.885   1.003  10.302  1.7866 -0.1322  0.8864
 4491SOL    HW224933   0.933   0.865  10.287  0.8176  1.0480  0.6096
 4492SOL     OW24934   3.175   4.389   5.211 -0.5612 -0.1331 -0.3603
 4492SOL    HW124935   3.134   4.321   5.265  2.6374 -1.5437  0.3513
 4492SOL    HW224936   3.166   4.352   5.123  0.8245 -1.1597 -0.0790
 4493SOL     OW24937   2.978   0.019  10.952  0.0935 -0.1263 -0.0826
 4493SOL    HW124938   3.023   0.084  11.007  1.1755  0.3245 -1.4704
 4493SOL    HW224939   2.952   4.678  11.019  0.8506  1.2439  1.4824
 4494SOL     OW24940   1.410   2.165   3.782  0.4188  0.4050 -0.5165
 4494SOL    HW124941   1.376   2.235   3.839  0.9523  0.4890 -0.2989
 4494SOL    HW224942   1.327   2.126   3.755  0.2518 -1.5141  2.7329
 4495SOL     OW24943   3.612   2.558   2.265  0.0890 -0.3537 -0.1032
 4495SOL    HW124944   3.629   2.549   2.171  0.9992 -0.1884  0.0497
 4495SOL    HW224945   3.530   2.509   2.270 -0.6093  0.8199 -0.0851
 4496SOL     OW24946   2.084   3.973   9.063  0.1255 -0.0369 -0.4475
 4496SOL    HW124947   2.019   3.986   9.132  1.3342 -0.0802  0.7022
 4496SOL    HW224948   2.109   3.882   9.081  0.2104  0.3185  1.2328
 4497SOL     OW24949   2.045   2.987  10.183  0.0474  0.2055 -0.5266
 4497SOL    HW124950   1.977   2.928  10.152  0.6743 -0.8011  0.0143
 4497SOL    HW224951   2.065   3.034  10.102 -1.9342 -0.7473 -1.5640
 4498SOL     OW24952   2.549   0.953   5.413  0.4778 -0.0441 -0.5878
 4498SOL    HW124953   2.537   0.908   5.497 -0.0893 -0.4065 -0.8621
 4498SOL    HW224954   2.456   0.965   5.397 -0.0192 -0.7247  1.8071
 4499SOL     OW24955   2.738   3.276   3.109 -0.2174  0.5169  0.4732
 4499SOL    HW124956   2.699   3.361   3.091 -1.9770  0.3910  3.6931
 4499SOL    HW224957   2.663   3.236   3.152  0.7437 -1.5220  0.2757
 4500SOL     OW24958   2.694   2.262   2.348  0.5515 -0.1385  0.2733
 4500SOL    HW124959   2.656   2.264   2.261  0.0454  1.5393  0.5367
 4500SOL    HW224960   2.660   2.342   2.386  1.0244 -0.5329  1.5431
 4501SOL     OW24961   1.595   2.410  13.970 -0.3051  0.7897 -0.1481
 4501SOL    HW124962   1.525   2.433  14.031  0.0994  1.1957  0.1652
 4501SOL    HW224963   1.661   2.388  14.036  0.9124  1.5277 -1.1244
 4502SOL     OW24964   0.791   3.382  17.141 -0.0829 -0.1573  0.2535
 4502SOL    HW124965   0.832   3.426  17.066  0.1307 -1.5784 -0.4588
 4502SOL    HW224966   0.777   3.298  17.097 -2.9791  0.6954 -0.4781
 4503SOL     OW24967   4.288   4.394  17.067 -0.0182  0.1768  0.0640
 4503SOL    HW124968   4.274   4.335  16.993 -1.3031  1.5675 -0.8064
 4503SOL    HW224969   4.236   4.355  17.137  1.9174 -2.7142 -0.0957
 4504SOL     OW24970   0.459   4.343   0.751 -0.1149 -0.3643 -0.4367
 4504SOL    HW124971   0.370   4.324   0.720 -1.1702  0.1736  2.2543
 4504SOL    HW224972   0.451   4.436   0.771 -0.8831 -1.1530  2.9806
 4505SOL     OW24973   0.196   3.281   6.205 -0.2795  0.0202  0.2286
 4505SOL    HW124974   0.261   3.346   6.230  0.8268 -1.2855  0.7701
 4505SOL    HW224975   0.162   3.308   6.119 -0.7782  1.8983  1.0271
 4506SOL     OW24976   4.058   3.655   0.627  0.1777  0.2393 -0.3289
 4506SOL    HW124977   4.072   3.584   0.564  1.2851 -0.6687  0.9449
 4506SOL    HW224978   4.092   3.735   0.586 -1.5843 -0.2167 -2.7040
 4507SOL     OW24979   2.686   2.264   3.564 -0.1646  0.2295  0.0673
 4507SOL    HW124980   2.779   2.271   3.544 -0.2793 -0.6221 -0.7559
 4507SOL    HW224981   2.666   2.173   3.544 -1.6840 -0.1928  3.5143
 4508SOL     OW24982   0.377   4.024   6.809  0.3012  0.1852 -0.1225
 4508SOL    HW124983   0.305   4.062   6.859 -0.6537 -1.7876 -0.0168
 4508SOL    HW224984   0.382   3.947   6.864 -2.7071  0.2024  0.1897
 4509SOL     OW24985   4.587   4.275   5.709  0.6140  0.0381  0.3588
 4509SOL    HW124986   4.627   4.258   5.794 -0.7989  0.6709  1.1582
 4509SOL    HW224987   4.631   4.356   5.684 -0.5118 -0.0648 -2.0410
 4510SOL     OW24988   0.484   4.718   2.844 -0.1686 -0.1411  0.2633
 4510SOL    HW124989   0.427   4.655   2.886 -0.8984 -0.5636 -1.3977
 4510SOL    HW224990   0.427   0.013   2.769 -1.3284 -1.2195  0.9098
 4511SOL     OW24991   0.878   0.699   5.005  0.3119  0.0005 -0.6726
 4511SOL    HW124992   0.888   0.768   5.070  1.6584 -2.0868  1.3288
 4511SOL    HW224993   0.830   0.753   4.942  1.2840  2.1722  0.4815
 4512SOL     OW24994   4.372   3.243   3.030 -0.2692 -1.1330  0.3596
 4512SOL    HW124995   4.411   3.325   2.999 -1.4669 -1.1967 -1.3479
 4512SOL    HW224996   4.280   3.265   3.016 -0.2643 -0.5076  1.3208
 4513SOL     OW24997   0.836   4.572   5.791  0.0004 -0.3139  0.1073
 4513SOL    HW124998   0.797   4.565   5.704 -0.6051  1.8819  0.2152
 4513SOL    HW224999   0.757   4.593   5.841 -0.7439  0.8328 -1.5490
 4514SOL     OW25000   2.196   3.386  11.765  0.5787 -0.3703  0.1419
 4514SOL    HW125001   2.122   3.369  11.707 -0.9590  1.7053  1.4714
 4514SOL    HW225002   2.177   3.480  11.776 -0.2708 -0.6859  1.3642
 4515SOL     OW25003   1.978   2.313  10.483  0.3234  0.1308  0.1626
 4515SOL    HW125004   2.065   2.309  10.523  0.3891  1.2981  0.1247
 4515SOL    HW225005   1.953   2.403  10.503 -0.2184 -0.1934  0.9409
 4516SOL     OW25006   2.212   0.724  10.591  0.3319 -0.2203 -0.4866
 4516SOL    HW125007   2.287   0.671  10.564 -0.1604 -0.5412 -1.1989
 4516SOL    HW225008   2.154   0.653  10.620 -0.5346  0.8275  0.3551
 4517SOL     OW25009   1.044   4.306  16.904  0.3795 -0.1003  0.1844
 4517SOL    HW125010   1.040   4.377  16.841 -0.9698 -1.4062 -1.1916
 4517SOL    HW225011   1.135   4.277  16.894  0.7417  0.0948  2.8693
 4518SOL     OW25012   3.070   1.645   3.846 -0.0613  0.0689  0.2000
 4518SOL    HW125013   3.120   1.723   3.822  0.7563 -0.9683 -1.4961
 4518SOL    HW225014   3.130   1.572   3.831  1.3103  1.2328 -0.0126
 4519SOL     OW25015   1.534   4.437   7.311  0.3711  0.1446 -0.1067
 4519SOL    HW125016   1.520   4.373   7.241 -1.2559 -0.9798  1.2478
 4519SOL    HW225017   1.624   4.416   7.336 -0.1943  0.0484  1.8347
 4520SOL     OW25018   0.029   0.459   5.246 -0.2589  0.3037 -0.5660
 4520SOL    HW125019   4.705   0.390   5.199 -1.0958 -0.3206  1.1665
 4520SOL    HW225020   0.082   0.404   5.304 -0.4639 -0.7242 -1.3521
 4521SOL     OW25021   1.300   2.538   0.656  0.2883  0.0646 -0.5254
 4521SOL    HW125022   1.280   2.540   0.750 -1.0049  0.6754 -0.8037
 4521SOL    HW225023   1.274   2.627   0.629 -0.9576  0.3683  1.6419
 4522SOL     OW25024   1.172   0.115   9.758 -0.2644 -0.0785  0.8944
 4522SOL    HW125025   1.100   0.108   9.821 -2.5321  2.6523 -1.3812
 4522SOL    HW225026   1.140   0.071   9.678  2.2395  2.6947 -1.6072
 4523SOL     OW25027   1.619   4.329  15.448  0.1063 -0.3047 -0.4834
 4523SOL    HW125028   1.581   4.388  15.513 -2.1359 -2.8543  0.5198
 4523SOL    HW225029   1.708   4.327  15.485 -1.4529  1.0104  3.3048
 4524SOL     OW25030   4.373   3.952   8.517 -0.3366  0.0821  0.0954
 4524SOL    HW125031   4.422   3.939   8.436 -1.3835  1.7716 -0.8124
 4524SOL    HW225032   4.331   3.866   8.520 -0.5498  0.2371  1.6055
 4525SOL     OW25033   1.993   3.834   6.032  0.4352 -0.0361 -0.1555
 4525SOL    HW125034   2.073   3.820   6.083  0.8287 -0.1895 -0.8244
 4525SOL    HW225035   2.021   3.872   5.949  0.2438 -0.2749 -0.3288
 4526SOL     OW25036   4.193   1.141   3.208 -0.0430 -0.2796  0.5083
 4526SOL    HW125037   4.112   1.186   3.232  0.5925 -0.0899  2.2721
 4526SOL    HW225038   4.238   1.207   3.155 -2.5915  0.0222 -1.2229
 4527SOL     OW25039   0.468   0.602  13.729 -0.8367 -0.1015  0.1081
 4527SOL    HW125040   0.396   0.578  13.787 -1.4132 -0.7597 -0.8984
 4527SOL    HW225041   0.435   0.572  13.645 -0.4520  0.8148 -0.3692
 4528SOL     OW25042   1.014   2.726  13.739  0.4486  0.5448 -0.3712
 4528SOL    HW125043   1.099   2.682  13.751 -0.8191 -1.5158  1.2363
 4528SOL    HW225044   1.028   2.805  13.791 -0.8168  1.5224 -1.5417
 4529SOL     OW25045   1.914   3.211   2.818  0.6386  0.0810 -0.5060
 4529SOL    HW125046   1.873   3.228   2.733  0.9782 -1.4389 -0.9686
 4529SOL    HW225047   1.866   3.276   2.870 -0.8355 -1.0453 -0.4787
 4530SOL     OW25048   4.098   3.654   6.643  0.0409  0.6777 -0.9846
 4530SOL    HW125049   4.181   3.629   6.684 -0.1247  0.2831 -0.8954
 4530SOL    HW225050   4.033   3.595   6.680 -0.6082  2.0043 -0.0325
 4531SOL     OW25051   1.736   3.122   6.584 -0.5575  0.2100 -0.3376
 4531SOL    HW125052   1.738   3.065   6.507  1.5070  0.4195 -0.4418
 4531SOL    HW225053   1.807   3.182   6.558 -0.4240 -0.6914 -2.0584
 4532SOL     OW25054   0.153   3.171  13.359 -0.1092 -0.7159 -0.0213
 4532SOL    HW125055   0.185   3.244  13.307  1.2492 -2.8177 -2.1610
 4532SOL    HW225056   0.173   3.197  13.449 -0.7462  0.1327 -0.1320
 4533SOL     OW25057   2.522   1.210   7.335 -0.0426  0.2668  0.5243
 4533SOL    HW125058   2.544   1.278   7.399  0.7560  0.2801  0.2322
 4533SOL    HW225059   2.577   1.239   7.263  0.8732 -0.5530  0.8913
 4534SOL     OW25060   4.081   3.497  15.678  0.4308 -0.1303 -0.6768
 4534SOL    HW125061   4.018   3.426  15.691  2.2222 -1.1009  2.7371
 4534SOL    HW225062   4.135   3.469  15.752  0.6049  0.1198 -0.7113
 4535SOL     OW25063   3.827   0.120   9.210 -0.2044  0.0908  0.1462
 4535SOL    HW125064   3.803   0.154   9.296 -1.1159  1.1581 -0.5364
 4535SOL    HW225065   3.768   0.165   9.149  0.1324  0.0221 -0.2288
 4536SOL     OW25066   2.993   2.111   2.934 -0.1089  0.7073  0.4255
 4536SOL    HW125067   2.977   2.027   2.978  0.9064  0.9153  1.1938
 4536SOL    HW225068   2.974   2.163   3.013  0.9702  0.3720  0.8983
 4537SOL     OW25069   0.817   3.119   2.025 -0.2721 -0.2339  0.3010
 4537SOL    HW125070   0.782   3.134   2.113  2.2437 -1.3524  1.4854
 4537SOL    HW225071   0.759   3.172   1.970  0.7391  0.5685  0.0138
 4538SOL     OW25072   3.836   3.573   6.737 -0.5557  0.1605  0.5658
 4538SOL    HW125073   3.795   3.659   6.744 -1.8135 -0.4899  1.1039
 4538SOL    HW225074   3.849   3.558   6.831  0.4669 -2.8008 -0.0656
 4539SOL     OW25075   1.910   0.936  12.601  0.1560  0.4734 -0.2133
 4539SOL    HW125076   1.951   0.879  12.537  1.1916  1.6118 -0.5612
 4539SOL    HW225077   1.933   1.018  12.558  1.9645  0.9563  1.6838
 4540SOL     OW25078   0.996   4.708   5.409 -0.4653 -0.1540 -0.1829
 4540SOL    HW125079   1.030   0.002   5.497 -1.0003 -2.9202  0.4868
 4540SOL    HW225080   0.902   4.709   5.423 -0.4616  3.6212 -0.4585
 4541SOL     OW25081   1.015   4.462  16.656 -0.3698  0.1119 -0.0434
 4541SOL    HW125082   1.033   4.552  16.681 -1.9414  0.5275 -0.3869
 4541SOL    HW225083   1.065   4.448  16.575  0.9506  0.4031  0.7240
 4542SOL     OW25084   0.837   4.267   8.171 -0.0688  0.6834 -0.6572
 4542SOL    HW125085   0.763   4.310   8.214 -0.3736 -1.9593  1.4476
 4542SOL    HW225086   0.882   4.347   8.143  0.2742  1.9572  3.5003
 4543SOL     OW25087   2.041   2.729   3.825 -0.5868 -0.2775  0.3048
 4543SOL    HW125088   2.045   2.643   3.784  0.4070 -0.3024  0.4385
 4543SOL    HW225089   2.021   2.786   3.750  0.0556 -1.0112 -0.4315
 4544SOL     OW25090   0.446   0.760   1.541 -0.3490 -0.0887  0.6588
 4544SOL    HW125091   0.528   0.787   1.498  0.2018  1.5273  2.7235
 4544SOL    HW225092   0.471   0.758   1.634  0.0523 -1.2581  0.5382
 4545SOL     OW25093   3.131   1.664   3.383 -0.1396  0.6878  0.4187
 4545SOL    HW125094   3.177   1.585   3.412 -0.6045  0.4083  0.3798
 4545SOL    HW225095   3.087   1.624   3.308  0.6321  2.6062 -1.0613
 4546SOL     OW25096   3.355   3.040   9.817 -0.0433 -0.8740 -0.4819
 4546SOL    HW125097   3.371   3.092   9.897 -0.1963 -1.5445 -0.0204
 4546SOL    HW225098   3.383   3.101   9.749  0.2823  0.0679  0.4898
 4547SOL     OW25099   1.603   3.588  17.158 -0.4877 -0.1750  0.2231
 4547SOL    HW125100   1.668   3.633  17.213 -1.3905 -0.1500  1.2805
 4547SOL    HW225101   1.606   3.507  17.208  1.0639 -0.4413 -0.2947
 4548SOL     OW25102   4.429   1.990   3.836 -0.3434  0.0783  0.7020
 4548SOL    HW125103   4.509   2.042   3.840 -0.6771  0.6411  0.1325
 4548SOL    HW225104   4.469   1.910   3.802  0.2337  1.4065 -1.7071
 4549SOL     OW25105   1.926   3.999   5.523 -0.3426  0.0632 -0.1243
 4549SOL    HW125106   1.831   4.009   5.518 -0.3874 -1.7787 -2.8220
 4549SOL    HW225107   1.940   3.913   5.484 -1.0275  0.1938 -0.6620
 4550SOL     OW25108   2.959   4.428   6.733  0.2751 -0.5870  0.3419
 4550SOL    HW125109   3.005   4.451   6.653 -1.1124  3.3010  0.6685
 4550SOL    HW225110   3.028   4.449   6.797  0.6773 -0.1149 -0.2478
 4551SOL     OW25111   3.763   3.922   6.279  0.2050 -0.2374  0.4095
 4551SOL    HW125112   3.832   3.948   6.218 -0.6465 -1.0400 -0.8878
 4551SOL    HW225113   3.802   3.926   6.367  0.0290 -0.9883  0.5280
 4552SOL     OW25114   0.189   2.892  11.014 -0.3147 -0.2100  0.1922
 4552SOL    HW125115   0.223   2.882  10.925 -0.0661 -2.7858  0.5846
 4552SOL    HW225116   0.262   2.916  11.071  0.3942 -0.9021 -0.4250
 4553SOL     OW25117   4.440   1.448  10.319 -0.1537  0.1876  0.9087
 4553SOL    HW125118   4.386   1.484  10.389  2.7978  4.0540  1.1764
 4553SOL    HW225119   4.522   1.496  10.330  1.0251 -1.4661 -0.6182
 4554SOL     OW25120   2.888   3.205   5.948 -0.1839  0.0484  0.2819
 4554SOL    HW125121   2.939   3.286   5.951  0.0565 -0.0615 -0.9719
 4554SOL    HW225122   2.837   3.222   6.027 -1.2951 -0.0998 -0.4017
 4555SOL     OW25123   0.284   4.427   7.626 -0.1527 -0.7752 -0.4355
 4555SOL    HW125124   0.340   4.357   7.592  0.0423 -1.9448  2.2741
 4555SOL    HW225125   0.218   4.437   7.558  0.0986 -1.2610 -0.7562
 4556SOL     OW25126   0.073   1.574  12.165 -0.0630  0.3403 -0.7939
 4556SOL    HW125127   0.049   1.524  12.087  0.0623  0.4603 -0.9095
 4556SOL    HW225128   0.037   1.661  12.147 -0.3908  0.6066  1.2315
 4557SOL     OW25129   1.887   1.133   3.663 -0.9580 -0.1778 -0.0212
 4557SOL    HW125130   1.934   1.054   3.688 -1.5431  0.0672  1.9324
 4557SOL    HW225131   1.941   1.161   3.589  2.6012 -0.4648  2.4661
 4558SOL     OW25132   1.942   1.725  12.230 -0.0629  0.2583  0.8445
 4558SOL    HW125133   2.033   1.701  12.247 -1.0795 -2.9549  1.8366
 4558SOL    HW225134   1.950   1.756  12.140 -0.2122 -1.0461  0.3858
 4559SOL     OW25135   0.166   3.046   5.880  0.1947  0.6040 -0.9356
 4559SOL    HW125136   0.137   3.120   5.826 -0.2908  0.6134 -0.6649
 4559SOL    HW225137   0.198   2.991   5.809  0.3690 -1.7740  0.9925
 4560SOL     OW25138   3.151   4.678   2.741 -0.0021  0.2370 -0.2474
 4560SOL    HW125139   3.116   0.041   2.768  1.0757  0.0822  1.6465
 4560SOL    HW225140   3.087   4.623   2.787  0.6627  0.8756  1.4293
 4561SOL     OW25141   1.128   4.049   5.035 -0.2776  0.0458 -0.0369
 4561SOL    HW125142   1.036   4.068   5.050  0.1656  1.2003  1.1549
 4561SOL    HW225143   1.166   4.130   5.068 -0.2465  0.3824 -0.8824
 4562SOL     OW25144   0.767   0.491  16.315  0.2253  0.1428 -0.3440
 4562SOL    HW125145   0.724   0.573  16.288  1.0052  1.2417  1.7781
 4562SOL    HW225146   0.799   0.451  16.234 -3.0021 -0.7655 -1.1877
 4563SOL     OW25147   0.050   0.510   1.322 -0.0874 -0.1095  0.0213
 4563SOL    HW125148   0.142   0.515   1.348 -0.3533  0.8861  0.7329
 4563SOL    HW225149   0.021   0.430   1.366  0.0700 -0.3170 -0.2456
 4564SOL     OW25150   2.446   2.529   6.867  0.0990  0.0616 -0.4788
 4564SOL    HW125151   2.357   2.547   6.836 -0.4718 -1.8330  0.0701
 4564SOL    HW225152   2.490   2.512   6.783 -1.4163 -2.5727 -0.7210
 4565SOL     OW25153   2.572   0.839   4.566 -0.2639 -0.4203  0.1953
 4565SOL    HW125154   2.653   0.798   4.534 -0.5422 -0.0640 -0.9897
 4565SOL    HW225155   2.579   0.929   4.535 -1.2083  0.1580  1.6998
 4566SOL     OW25156   2.740   2.276  10.799  0.1007  0.3390 -0.1573
 4566SOL    HW125157   2.650   2.308  10.791  0.0712  0.3428  0.1785
 4566SOL    HW225158   2.772   2.348  10.854 -0.6249  0.9044 -0.4801
 4567SOL     OW25159   2.109   4.565   8.751 -0.0797 -0.1634  0.0433
 4567SOL    HW125160   2.189   4.537   8.797  0.0730  1.6734  0.9080
 4567SOL    HW225161   2.129   4.530   8.665  2.9083  0.4493  0.4817
 4568SOL     OW25162   1.373   1.066   2.841 -0.4929 -0.4407  0.5284
 4568SOL    HW125163   1.415   1.068   2.755 -2.2835  0.4672 -0.3102
 4568SOL    HW225164   1.284   1.041   2.818 -0.2580 -0.5683 -0.2431
 4569SOL     OW25165   0.738   1.758   3.412  0.1261 -0.6385 -0.5688
 4569SOL    HW125166   0.686   1.790   3.486  1.6223  2.2444 -0.7618
 4569SOL    HW225167   0.757   1.669   3.441  0.7063 -0.0085  0.9530
 4570SOL     OW25168   2.054   4.307  17.156  0.1821  0.7780  0.5402
 4570SOL    HW125169   2.126   4.303  17.093  0.7884  0.0501  1.2762
 4570SOL    HW225170   2.088   4.246  17.221  1.1782 -0.5269 -1.1912
 4571SOL     OW25171   0.054   0.513  12.452  0.3425  0.6544  0.2215
 4571SOL    HW125172   0.120   0.456  12.412  0.8527  0.0217  1.9820
 4571SOL    HW225173   4.702   0.452  12.460  1.4276 -0.8020 -0.8847
 4572SOL     OW25174   2.861   0.651   2.642 -0.1069 -0.1584  0.0671
 4572SOL    HW125175   2.890   0.736   2.674 -2.9651  0.6560  0.4585
 4572SOL    HW225176   2.769   0.667   2.624 -0.1914  0.2475  0.8502
 4573SOL     OW25177   2.239   4.680   8.343  0.1138 -0.2763  0.2768
 4573SOL    HW125178   2.221   0.053   8.337  0.5595 -0.2279 -0.3314
 4573SOL    HW225179   2.327   4.684   8.305 -0.5856 -0.4762 -1.3597
 4574SOL     OW25180   1.254   3.464   7.702 -0.2143  0.0803 -0.5779
 4574SOL    HW125181   1.311   3.409   7.649 -0.0976  1.0284 -1.4258
 4574SOL    HW225182   1.307   3.544   7.706  1.9880 -1.4691  1.3870
 4575SOL     OW25183   3.693   1.301   5.445  0.3223  0.0735 -0.2047
 4575SOL    HW125184   3.652   1.215   5.434 -1.5364  1.2201 -2.3711
 4575SOL    HW225185   3.678   1.338   5.357  0.9326 -1.4166 -0.9360
 4576SOL     OW25186   0.134   3.580   4.673  0.3134  0.5930  0.3729
 4576SOL    HW125187   0.103   3.521   4.604  2.0999  0.4619 -0.3015
 4576SOL    HW225188   0.228   3.563   4.675  0.4202  1.1964  0.3739
 4577SOL     OW25189   3.432   1.541   3.379 -0.3452  0.2755  0.1120
 4577SOL    HW125190   3.419   1.636   3.372 -0.4539  0.2014 -0.6167
 4577SOL    HW225191   3.384   1.524   3.460 -0.5381  0.2174 -0.0165
 4578SOL     OW25192   2.856   2.031  13.720 -0.0228 -0.3055  0.5286
 4578SOL    HW125193   2.853   2.067  13.808 -2.1114  0.8422 -0.0214
 4578SOL    HW225194   2.804   2.084  13.659  0.7409 -0.5874 -0.3728
 4579SOL     OW25195   0.977   3.554   5.782  0.0998 -0.4106 -0.1970
 4579SOL    HW125196   0.978   3.648   5.761  3.4731 -0.7511 -1.5349
 4579SOL    HW225197   1.030   3.522   5.709  0.1808  0.1972 -0.4067
 4580SOL     OW25198   0.212   3.387   7.228 -0.1609 -0.0368  0.1664
 4580SOL    HW125199   0.221   3.402   7.134 -3.0720 -2.9488 -0.5414
 4580SOL    HW225200   0.163   3.305   7.228 -3.5065  1.9896 -0.9851
 4581SOL     OW25201   1.305   2.305   4.009 -0.4212  0.1848  0.2309
 4581SOL    HW125202   1.218   2.328   4.039 -0.3389  0.7011  0.0810
 4581SOL    HW225203   1.317   2.214   4.037  0.6408  0.4881  0.7655
 4582SOL     OW25204   3.471   1.299  15.969  0.1179  0.0821  0.2345
 4582SOL    HW125205   3.415   1.364  15.927 -0.2756  0.5848  1.5376
 4582SOL    HW225206   3.547   1.343  16.008  0.0448  1.1540 -0.8112
 4583SOL     OW25207   4.530   4.269   6.381  0.1731  0.1023  0.4355
 4583SOL    HW125208   4.562   4.220   6.306  0.8450  1.4623 -0.1714
 4583SOL    HW225209   4.533   4.211   6.458 -0.7868 -0.9313 -0.3137
 4584SOL     OW25210   2.260   0.261   6.616  0.3153  0.2873  0.3360
 4584SOL    HW125211   2.168   0.237   6.630  0.1954  0.4923 -0.0971
 4584SOL    HW225212   2.293   0.173   6.597  1.5475  0.2752  2.5108
 4585SOL     OW25213   0.430   3.560  11.460 -0.0607  0.1964 -0.2549
 4585SOL    HW125214   0.369   3.501  11.417  0.1187 -0.2126  0.0499
 4585SOL    HW225215   0.374   3.637  11.463 -1.5941 -0.9557  0.7505
 4586SOL     OW25216   3.634   3.405   1.823  0.3073  0.3947  0.0075
 4586SOL    HW125217   3.647   3.408   1.728 -0.2850 -0.4247 -0.0923
 4586SOL    HW225218   3.639   3.310   1.835 -0.8919  0.2582 -0.6070
 4587SOL     OW25219   2.183   1.803   9.186  0.1168 -0.0705 -0.2591
 4587SOL    HW125220   2.232   1.762   9.257  0.2984 -1.6724 -1.2965
 4587SOL    HW225221   2.247   1.805   9.115  1.9418  1.2045  1.4370
 4588SOL     OW25222   3.069   1.100  11.053 -0.2113 -0.2237 -0.2056
 4588SOL    HW125223   3.111   1.071  10.972  2.5146  1.6085  0.5772
 4588SOL    HW225224   2.995   1.150  11.020  0.4550  0.6973 -0.2821
 4589SOL     OW25225   2.671   3.514   8.190 -0.5544  0.8047 -0.1114
 4589SOL    HW125226   2.643   3.564   8.114 -2.2352  1.2835  0.8224
 4589SOL    HW225227   2.606   3.444   8.185 -0.6941  0.8224  1.5535
 4590SOL     OW25228   4.608   2.524   7.935 -0.4211 -0.7498  0.1214
 4590SOL    HW125229   4.594   2.479   8.019 -0.7437 -1.6244 -0.4004
 4590SOL    HW225230   4.635   2.451   7.880  0.0119 -2.4102  2.5438
 4591SOL     OW25231   1.560   3.906   2.762  0.8313  0.0695  0.1651
 4591SOL    HW125232   1.549   3.977   2.699  1.4998  0.4813  0.5105
 4591SOL    HW225233   1.592   3.841   2.700  2.2646 -1.4453  2.4916
 4592SOL     OW25234   2.799   4.167   7.840  0.1900  0.2587 -0.4258
 4592SOL    HW125235   2.750   4.227   7.785  1.5437  3.0110  1.3913
 4592SOL    HW225236   2.885   4.199   7.813 -0.7345  2.5716 -0.5599
 4593SOL     OW25237   2.591   4.610   0.003  0.2560 -0.0001 -0.3014
 4593SOL    HW125238   2.552   4.598   0.089 -0.5637  0.9675 -0.5443
 4593SOL    HW225239   2.682   4.625   0.029  0.3650  0.4818 -0.9470
 4594SOL     OW25240   1.790   2.351   8.037 -0.0724  0.4281  0.2760
 4594SOL    HW125241   1.824   2.280   8.090  1.0451  1.4393  0.9152
 4594SOL    HW225242   1.858   2.419   8.046  2.6048 -2.4653  1.8169
 4595SOL     OW25243   3.962   2.492   5.475  0.2507 -0.3484  0.4788
 4595SOL    HW125244   4.048   2.535   5.472  0.7441 -1.4801 -1.6923
 4595SOL    HW225245   3.986   2.414   5.525 -0.3695 -0.4371  0.6328
 4596SOL     OW25246   0.015   3.112  16.447  0.4581 -0.4653  0.0412
 4596SOL    HW125247   4.686   3.101  16.366 -0.9915  0.6842  0.7753
 4596SOL    HW225248   0.068   3.188  16.422  1.6000 -0.8700  1.2750
 4597SOL     OW25249   0.163   0.718   6.576 -0.4994  0.0086 -0.0225
 4597SOL    HW125250   0.106   0.759   6.512 -0.0760  0.4356 -0.1277
 4597SOL    HW225251   0.126   0.761   6.653 -0.6959  0.5152 -0.3997
 4598SOL     OW25252   0.430   0.337   7.546 -0.1219  0.0561  0.0293
 4598SOL    HW125253   0.432   0.392   7.468  2.2280  1.4268  1.0596
 4598SOL    HW225254   0.345   0.295   7.534 -0.2475 -0.5968  3.0677
 4599SOL     OW25255   1.399   1.180   5.189  0.1281 -0.2994  0.0034
 4599SOL    HW125256   1.492   1.172   5.209  0.6759  0.9574 -2.0614
 4599SOL    HW225257   1.382   1.255   5.246  2.4483 -1.0623  1.6844
 4600SOL     OW25258   4.617   1.706   5.719 -0.2424  0.4879 -0.1862
 4600SOL    HW125259   4.626   1.775   5.785 -1.3447  1.7346 -1.3503
 4600SOL    HW225260   4.593   1.764   5.647  0.2030 -0.7750 -1.3543
 4601SOL     OW25261   0.497   3.382   4.029  0.2505 -0.3751 -0.3673
 4601SOL    HW125262   0.578   3.372   3.979  1.7953  0.2844  2.0613
 4601SOL    HW225263   0.466   3.449   3.968  1.7466 -0.4454 -1.1948
 4602SOL     OW25264   4.409   2.292  11.168  0.1443 -0.4096  0.5150
 4602SOL    HW125265   4.361   2.311  11.248  2.7777  1.1750  1.7433
 4602SOL    HW225266   4.334   2.270  11.113  0.1584  3.5100 -1.0301
 4603SOL     OW25267   3.287   0.942   8.133 -0.6017 -0.0946  0.3822
 4603SOL    HW125268   3.344   0.876   8.172  0.3582  1.1510  1.0899
 4603SOL    HW225269   3.312   1.019   8.185 -0.2209 -1.4366  2.1956
 4604SOL     OW25270   0.612   2.953   6.020 -0.0808  0.1687 -0.5616
 4604SOL    HW125271   0.524   2.916   6.028  0.6210 -1.9009 -2.3413
 4604SOL    HW225272   0.611   2.977   5.928 -0.5655  1.2354 -0.2679
 4605SOL     OW25273   4.461   0.040   7.976 -0.2230 -0.0893  0.0650
 4605SOL    HW125274   4.451   0.130   8.008  0.4856  0.1946 -0.4988
 4605SOL    HW225275   4.371   0.015   7.957  0.6990 -1.3480 -2.6685
 4606SOL     OW25276   3.056   1.358   9.014 -0.2975  0.3893 -0.1011
 4606SOL    HW125277   3.103   1.376   8.933  3.0239 -0.7465  1.5407
 4606SOL    HW225278   3.014   1.441   9.037  1.2971  0.9300  0.8377
 4607SOL     OW25279   3.420   2.706   3.957 -0.1080 -0.4508  0.1398
 4607SOL    HW125280   3.460   2.663   3.882  2.0818  0.6648  0.6799
 4607SOL    HW225281   3.333   2.716   3.918  0.4944 -2.8674 -1.8392
 4608SOL     OW25282   4.601   3.195   5.396  0.3403  0.0933  0.1358
 4608SOL    HW125283   4.620   3.132   5.466  1.2268  0.0520 -0.1444
 4608SOL    HW225284   4.583   3.276   5.444  2.3975  0.4945  0.2197
 4609SOL     OW25285   2.200   3.287   6.193 -0.6488  0.1762  0.4927
 4609SOL    HW125286   2.146   3.289   6.114  1.5171  0.0527 -0.9937
 4609SOL    HW225287   2.255   3.215   6.163  1.6687  3.0019 -2.0234
 4610SOL     OW25288   2.337   1.756   3.213 -0.2568  0.3782 -0.0879
 4610SOL    HW125289   2.399   1.790   3.149  1.8644 -0.0466  1.7512
 4610SOL    HW225290   2.330   1.835   3.266  1.0203  1.7509 -1.9461
 4611SOL     OW25291   4.529   0.785   6.700 -0.3463 -0.4052 -0.0090
 4611SOL    HW125292   4.599   0.840   6.664 -0.9561  0.5180  0.2103
 4611SOL    HW225293   4.570   0.745   6.776  1.6550 -2.1825 -2.0067
 4612SOL     OW25294   2.174   1.811  13.057  0.2251 -0.2897  0.4122
 4612SOL    HW125295   2.213   1.890  13.093 -0.5777  0.9330 -1.3702
 4612SOL    HW225296   2.093   1.804  13.107 -0.4675  0.7094 -0.5786
 4613SOL     OW25297   4.340   1.470  12.082 -0.3385 -0.2623  0.2650
 4613SOL    HW125298   4.418   1.440  12.129 -0.5130 -1.7274 -0.3747
 4613SOL    HW225299   4.383   1.529  12.021  0.2807  1.1948  2.1254
 4614SOL     OW25300   0.454   0.103   6.455 -0.4108 -0.0647  0.2015
 4614SOL    HW125301   0.373   0.124   6.501  0.0844  1.1368  0.5355
 4614SOL    HW225302   0.500   0.187   6.464 -2.6275  1.0088  1.5508
 4615SOL     OW25303   4.575   4.450  15.595  0.7757 -0.4290 -0.0268
 4615SOL    HW125304   4.547   4.493  15.514  0.0628 -0.0789  0.4072
 4615SOL    HW225305   4.608   4.527  15.641 -0.1151 -0.5166  0.7530
 4616SOL     OW25306   2.993   2.520   7.036  0.3505 -0.4117 -0.0666
 4616SOL    HW125307   3.071   2.514   6.981  1.5260  1.8713  1.3707
 4616SOL    HW225308   2.940   2.452   6.995  1.1564 -2.0221  1.5506
 4617SOL     OW25309   0.636   1.052  10.519  0.0574 -0.1485 -0.2753
 4617SOL    HW125310   0.606   1.136  10.554 -2.0079 -1.2202  0.5474
 4617SOL    HW225311   0.698   1.025  10.587  0.0443  0.1307 -0.1516
 4618SOL     OW25312   4.659   4.705   7.100  0.8473 -0.0570 -0.2275
 4618SOL    HW125313   0.020   4.703   7.052 -0.6098 -2.1190 -2.6559
 4618SOL    HW225314   4.624   0.071   7.083  1.7895  0.2234 -0.7055
 4619SOL     OW25315   0.340   3.363   5.653  0.1843 -0.4686  0.2173
 4619SOL    HW125316   0.417   3.309   5.667 -0.4398 -1.7353 -1.1849
 4619SOL    HW225317   0.351   3.406   5.568 -0.0472  1.3047  1.0923
 4620SOL     OW25318   0.246   1.800   4.295 -0.1165  0.6028  0.1605
 4620SOL    HW125319   0.192   1.775   4.220  0.0511  1.7664 -0.3569
 4620SOL    HW225320   0.294   1.718   4.305 -0.3970  0.1277 -2.1885
 4621SOL     OW25321   1.041   1.183  15.305  1.0001  0.2282 -0.4516
 4621SOL    HW125322   1.013   1.177  15.213 -1.6750 -0.6671  0.4397
 4621SOL    HW225323   1.099   1.107  15.312 -1.2355 -1.5196 -0.9694
 4622SOL     OW25324   1.896   3.490   5.558  0.7103 -0.1088  0.1352
 4622SOL    HW125325   1.851   3.575   5.548 -2.0428 -1.3611  1.7573
 4622SOL    HW225326   1.824   3.431   5.538  0.0866  0.5034  0.5643
 4623SOL     OW25327   1.893   0.820   6.325  0.1474 -0.3431 -0.5784
 4623SOL    HW125328   1.973   0.771   6.341 -0.5686 -1.8934 -1.7236
 4623SOL    HW225329   1.840   0.774   6.390 -0.1098 -0.5094 -0.9050
 4624SOL     OW25330   3.593   3.144   5.195 -0.8760  0.4659 -0.0684
 4624SOL    HW125331   3.676   3.156   5.149 -1.0226  1.5765 -0.0635
 4624SOL    HW225332   3.592   3.231   5.236  1.1227  0.4317  0.0282
 4625SOL     OW25333   1.176   3.213   4.740 -0.4262 -0.0583  0.5300
 4625SOL    HW125334   1.244   3.253   4.687  1.7165 -0.8655  2.6366
 4625SOL    HW225335   1.106   3.185   4.681 -0.9652  0.5185  0.8966
 4626SOL     OW25336   2.160   1.692  15.587 -0.4108  0.2366  0.4588
 4626SOL    HW125337   2.071   1.728  15.585 -0.6132 -0.3329 -1.1783
 4626SOL    HW225338   2.132   1.602  15.571  1.3089 -0.9095  3.9524
 4627SOL     OW25339   3.613   3.059   8.406 -0.4438  0.1308 -0.2180
 4627SOL    HW125340   3.638   3.049   8.498 -0.5190 -1.6077 -0.3841
 4627SOL    HW225341   3.642   2.974   8.373 -1.5099 -0.0119 -0.7540
 4628SOL     OW25342   3.042   1.712  10.673  0.1666  0.7501  0.0479
 4628SOL    HW125343   3.137   1.720  10.687  0.2514 -2.7652  1.3147
 4628SOL    HW225344   3.029   1.798  10.632  0.0706  0.6690 -0.0899
 4629SOL     OW25345   1.403   1.413   2.586  0.8668  0.0129  0.3551
 4629SOL    HW125346   1.360   1.487   2.544  0.8812 -1.1524 -1.7188
 4629SOL    HW225347   1.324   1.369   2.617  0.2694  0.0756 -1.0777
 4630SOL     OW25348   0.734   0.965  14.261  0.0622 -0.5778  0.1286
 4630SOL    HW125349   0.779   0.948  14.178  1.7215 -1.4048  1.2038
 4630SOL    HW225350   0.771   1.046  14.297  1.4986 -1.2729  0.2176
 4631SOL     OW25351   3.676   4.623   8.963 -0.3029 -0.2428  0.1146
 4631SOL    HW125352   3.639   4.679   8.895 -0.7046  0.4430  0.8948
 4631SOL    HW225353   3.768   4.648   8.957 -0.2970 -0.1107  0.7539
 4632SOL     OW25354   1.200   0.765   7.842  0.0970 -0.0960 -0.1590
 4632SOL    HW125355   1.208   0.698   7.910 -1.3232  1.9240  1.9900
 4632SOL    HW225356   1.285   0.754   7.799  1.6196  1.5696  2.4329
 4633SOL     OW25357   2.332   3.623  17.350 -0.2445  0.1164  0.3955
 4633SOL    HW125358   2.247   3.626  17.394 -1.0970 -5.2675 -0.8936
 4633SOL    HW225359   2.387   3.651  17.424 -0.0543  2.4465 -0.6401
 4634SOL     OW25360   1.558   3.088   7.736 -0.0673  0.2879 -0.2977
 4634SOL    HW125361   1.492   3.018   7.734  0.1486  0.1026 -1.3592
 4634SOL    HW225362   1.578   3.085   7.829 -1.7892 -2.8072 -0.0124
 4635SOL     OW25363   0.187   3.599  11.077 -0.0013 -0.1103 -0.3519
 4635SOL    HW125364   0.276   3.585  11.108  0.4279  1.0136 -1.0820
 4635SOL    HW225365   0.158   3.682  11.114 -0.2442  0.7781 -2.5464
 4636SOL     OW25366   3.221   3.171  16.033 -0.4008 -0.3227 -0.0414
 4636SOL    HW125367   3.268   3.102  16.080  0.9361 -0.3042 -1.3551
 4636SOL    HW225368   3.138   3.143  16.071  0.9830 -1.9831  1.7573
 4637SOL     OW25369   2.879   0.920   2.745  0.6743  0.5672  0.3288
 4637SOL    HW125370   2.881   1.015   2.754 -2.6002  0.7367 -0.7085
 4637SOL    HW225371   2.963   0.891   2.782  0.8253 -0.0447 -0.4810
 4638SOL     OW25372   4.479   4.476   2.954 -0.7646  0.1922  0.2760
 4638SOL    HW125373   4.481   4.385   2.985 -1.2773  0.1789  0.2717
 4638SOL    HW225374   4.530   4.515   3.025  1.7172  0.0990 -1.4715
 4639SOL     OW25375   0.491   4.471  16.496  0.2338  0.1069  0.0373
 4639SOL    HW125376   0.569   4.415  16.499  0.2702  0.1874  0.7161
 4639SOL    HW225377   0.469   4.485  16.588 -2.7463 -0.2446 -0.6389
 4640SOL     OW25378   2.892   0.883   5.988 -0.3162  0.1900 -1.0340
 4640SOL    HW125379   2.856   0.849   6.069  0.5255 -0.4157 -0.9123
 4640SOL    HW225380   2.985   0.890   6.010 -0.7985  1.2647  0.6498
 4641SOL     OW25381   4.498   0.107   5.354 -0.2567  0.5185  0.2043
 4641SOL    HW125382   4.431   0.119   5.421 -0.7033 -1.9001  0.1938
 4641SOL    HW225383   4.555   0.181   5.371  0.6835 -0.0023 -0.6503
 4642SOL     OW25384   0.824   3.328   3.363 -0.3388  0.1938 -0.2775
 4642SOL    HW125385   0.800   3.410   3.321 -3.8591 -1.3229 -1.1850
 4642SOL    HW225386   0.916   3.341   3.386 -0.8655 -0.5968  2.2597
 4643SOL     OW25387   0.687   0.228  12.345  0.4343  0.5126 -0.4617
 4643SOL    HW125388   0.621   0.208  12.412  1.1238  1.8722  0.6440
 4643SOL    HW225389   0.637   0.305  12.316 -0.1404  0.1150 -0.5273
 4644SOL     OW25390   0.708   1.356   2.356  0.1287  0.6783 -0.0184
 4644SOL    HW125391   0.789   1.358   2.305 -1.2361 -2.3610 -2.2862
 4644SOL    HW225392   0.666   1.287   2.306 -1.5990  1.3068  0.5834
 4645SOL     OW25393   1.449   4.172   8.503  0.2808 -0.3890 -0.1165
 4645SOL    HW125394   1.399   4.165   8.421  1.5811  1.5937 -1.0874
 4645SOL    HW225395   1.418   4.099   8.557 -1.3175 -0.1280 -0.6830
 4646SOL     OW25396   3.739   0.899   3.006  0.1709  0.1385 -0.4892
 4646SOL    HW125397   3.808   0.950   2.963  0.6393 -0.1311 -0.0688
 4646SOL    HW225398   3.782   0.903   3.092 -2.4728  1.3378  0.7760
 4647SOL     OW25399   4.632   1.450   4.879 -0.7292 -0.1419  0.6714
 4647SOL    HW125400   4.573   1.497   4.938 -1.0987  0.8231 -0.4824
 4647SOL    HW225401   4.686   1.403   4.943 -0.8543 -1.6542 -0.3375
 4648SOL     OW25402   1.830   1.034   6.115 -0.1738 -0.0189 -0.2053
 4648SOL    HW125403   1.842   1.126   6.140  1.9438 -1.0203  2.4141
 4648SOL    HW225404   1.849   0.969   6.183 -1.9768 -0.8514 -0.4829
 4649SOL     OW25405   1.797   1.658   8.728 -0.4484 -0.4973  0.4379
 4649SOL    HW125406   1.755   1.639   8.812 -3.3065 -0.2722 -0.9420
 4649SOL    HW225407   1.758   1.740   8.698  0.8546  0.4416  1.3238
 4650SOL     OW25408   4.193   2.930  17.122 -0.5733 -0.3944 -0.6634
 4650SOL    HW125409   4.149   2.978  17.051  2.3133  1.3370 -1.2943
 4650SOL    HW225410   4.275   2.978  17.133 -1.2479  0.7569 -0.6488
 4651SOL     OW25411   1.426   2.404  13.738  0.1810 -0.0255  0.0772
 4651SOL    HW125412   1.489   2.414  13.809  0.1922 -2.6125  0.4357
 4651SOL    HW225413   1.411   2.310  13.742  0.5251 -0.0317  1.2900
 4652SOL     OW25414   4.338   2.340  14.582  0.1275 -0.3282  0.0488
 4652SOL    HW125415   4.357   2.247  14.570 -1.1365 -0.5214 -0.4041
 4652SOL    HW225416   4.245   2.345  14.559  0.9957  1.5420 -3.1707
 4653SOL     OW25417   1.404   0.104   2.562 -0.0553  0.2149 -0.4015
 4653SOL    HW125418   1.322   0.087   2.516 -1.9410  2.7817  2.0004
 4653SOL    HW225419   1.361   0.164   2.623 -0.1491  0.3162 -0.5706
 4654SOL     OW25420   1.723   1.156   2.181 -0.2303  0.6031 -0.5004
 4654SOL    HW125421   1.685   1.074   2.152  2.2930 -0.8348  0.2565
 4654SOL    HW225422   1.814   1.139   2.157  0.3378  2.9011  0.0106
 4655SOL     OW25423   4.660   1.950   1.322  0.2978 -0.4215  0.5339
 4655SOL    HW125424   4.638   1.965   1.231  0.5042  1.9094  0.8827
 4655SOL    HW225425   4.665   1.854   1.318 -0.9711 -0.4254 -1.0110
 4656SOL     OW25426   3.848   1.164   9.345  0.6292  0.5515 -0.2446
 4656SOL    HW125427   3.860   1.249   9.303 -1.0839 -0.0847 -2.0283
 4656SOL    HW225428   3.924   1.176   9.402  0.3177  0.2356  0.2396
 4657SOL     OW25429   1.267   0.811  12.807 -0.2748  0.2581 -0.1430
 4657SOL    HW125430   1.224   0.735  12.767 -1.5624 -0.1762  2.0777
 4657SOL    HW225431   1.187   0.841  12.850 -0.3047 -0.9360  0.6433
 4658SOL     OW25432   1.060   3.005   8.018  0.0882  0.4506  0.3452
 4658SOL    HW125433   1.138   3.060   8.008 -0.8919  1.8972  0.6778
 4658SOL    HW225434   1.096   2.922   7.988 -0.0060  0.9576 -1.1560
 4659SOL     OW25435   4.245   2.810   3.651 -0.2839  0.1938  0.1315
 4659SOL    HW125436   4.275   2.813   3.741 -0.7008 -0.0724  0.2799
 4659SOL    HW225437   4.294   2.882   3.612 -1.2958  0.8899  0.1814
 4660SOL     OW25438   4.626   3.463   7.394  0.0090  0.0429  0.2317
 4660SOL    HW125439   4.632   3.369   7.407 -0.3997  0.0312  0.3172
 4660SOL    HW225440   4.545   3.487   7.439  0.5977  2.7896 -0.1262
 4661SOL     OW25441   2.644   1.930  10.648 -0.4062  0.4868  0.4759
 4661SOL    HW125442   2.562   1.942  10.600 -1.3317 -0.9732  1.6819
 4661SOL    HW225443   2.649   1.836  10.665 -0.9977  0.1468 -1.2555
 4662SOL     OW25444   1.323   3.505   2.339  0.3542  0.2260  0.2769
 4662SOL    HW125445   1.256   3.513   2.271 -1.2200 -0.4809  1.7502
 4662SOL    HW225446   1.274   3.489   2.419 -0.9453  2.1036 -0.1426
 4663SOL     OW25447   4.641   0.925   2.310  0.0736  0.1672 -0.0479
 4663SOL    HW125448   0.008   0.945   2.341  0.6782 -0.7708 -1.1737
 4663SOL    HW225449   4.606   1.013   2.323 -1.3935 -0.1304 -2.0125
 4664SOL     OW25450   0.548   3.590  15.783 -0.3427 -0.0143 -0.0195
 4664SOL    HW125451   0.580   3.500  15.790 -1.5999 -0.6272 -2.4415
 4664SOL    HW225452   0.464   3.581  15.739  1.1916 -4.5530 -1.9929
 4665SOL     OW25453   1.644   0.476   4.083  0.1919  0.1352  0.1922
 4665SOL    HW125454   1.622   0.512   3.998  1.0514  0.5873  0.1561
 4665SOL    HW225455   1.707   0.407   4.064  1.5818  1.3479  0.3823
 4666SOL     OW25456   4.366   1.397   5.620 -0.0723  0.3496 -0.1973
 4666SOL    HW125457   4.351   1.312   5.578 -1.9082  0.8328 -0.5143
 4666SOL    HW225458   4.326   1.387   5.707  1.4044 -0.9446  0.3403
 4667SOL     OW25459   0.652   3.500   9.564  0.0380 -0.6885 -0.5084
 4667SOL    HW125460   0.673   3.490   9.657  0.6443 -0.2005 -0.5905
 4667SOL    HW225461   0.665   3.594   9.550  0.8379 -0.7128  0.0619
 4668SOL     OW25462   1.709   1.418   2.093  0.4925 -0.2343  0.5452
 4668SOL    HW125463   1.721   1.326   2.116 -1.5838 -0.8579 -0.8392
 4668SOL    HW225464   1.626   1.437   2.138  0.6384 -0.8358  1.0604
 4669SOL     OW25465   4.647   3.712   3.326 -0.2585  0.4204 -0.2607
 4669SOL    HW125466   4.626   3.648   3.258  0.4809 -0.6933  0.5581
 4669SOL    HW225467   0.017   3.698   3.354  0.4932 -0.0816 -2.9939
 4670SOL     OW25468   3.568   1.986   5.546  0.3743 -0.1505 -0.3036
 4670SOL    HW125469   3.509   1.913   5.528 -0.9306  0.9206 -0.3843
 4670SOL    HW225470   3.509   2.061   5.532  1.1917  0.5674  0.0667
 4671SOL     OW25471   0.385   0.150   4.357  0.1448 -0.5164 -0.0970
 4671SOL    HW125472   0.296   0.145   4.323  0.0320  0.7783  0.0185
 4671SOL    HW225473   0.395   0.245   4.355  0.6229 -0.5754 -0.6028
 4672SOL     OW25474   3.530   0.942   1.817 -0.2732  0.0507 -0.1670
 4672SOL    HW125475   3.480   1.006   1.768 -0.9852 -0.4163 -0.0493
 4672SOL    HW225476   3.551   0.891   1.738  0.9030 -1.4191  1.0703
 4673SOL     OW25477   0.424   1.269   6.929 -0.1903  0.1193  0.0976
 4673SOL    HW125478   0.504   1.248   6.881 -0.5290  0.5166 -0.6435
 4673SOL    HW225479   0.418   1.192   6.985  2.7338 -0.1229  0.1054
 4674SOL     OW25480   0.581   0.783  12.542 -0.2168 -0.0005 -0.1128
 4674SOL    HW125481   0.492   0.771  12.509  0.2113 -1.6997 -0.6504
 4674SOL    HW225482   0.596   0.689  12.551 -1.7865 -0.4456 -1.9080
 4675SOL     OW25483   3.851   3.567  16.341  0.2653  0.3207 -0.3489
 4675SOL    HW125484   3.792   3.627  16.296  1.3481  0.8537 -1.0593
 4675SOL    HW225485   3.780   3.520  16.385 -1.0256  1.8308 -0.8256
 4676SOL     OW25486   0.852   1.244   5.886 -0.2210 -0.5392  0.1033
 4676SOL    HW125487   0.936   1.291   5.882 -0.8854  0.6168 -0.2663
 4676SOL    HW225488   0.789   1.311   5.860 -0.2368 -0.6169 -0.0594
 4677SOL     OW25489   0.239   1.474  15.122 -0.0587 -0.4715  0.3483
 4677SOL    HW125490   0.212   1.534  15.054 -0.4625  0.8417  1.6678
 4677SOL    HW225491   0.333   1.489  15.127 -0.2216  0.2738  1.2252
 4678SOL     OW25492   3.654   1.234   0.150  0.5161 -0.3186  0.2708
 4678SOL    HW125493   3.666   1.273   0.237 -0.0378  1.5319 -0.4997
 4678SOL    HW225494   3.748   1.238   0.132  0.7219  2.0121  1.8094
 4679SOL     OW25495   3.982   0.779   8.030 -0.0522  0.2062  0.1955
 4679SOL    HW125496   3.965   0.797   8.122 -0.2123 -2.7441  0.7645
 4679SOL    HW225497   4.050   0.846   8.021 -0.2098  0.3906  0.3987
 4680SOL     OW25498   3.512   1.324   4.907  0.4986 -0.7225  0.7756
 4680SOL    HW125499   3.548   1.273   4.979  1.1565 -1.7833 -0.3124
 4680SOL    HW225500   3.585   1.343   4.848 -1.3291  0.2808 -1.2100
 4681SOL     OW25501   3.131   2.727   5.618  0.2681 -0.3177 -0.9123
 4681SOL    HW125502   3.126   2.656   5.554  2.2168 -0.3377 -1.0382
 4681SOL    HW225503   3.207   2.696   5.667 -1.4420  0.7727  2.5160
 4682SOL     OW25504   2.959   1.535  15.087  0.3516  0.2272  0.4144
 4682SOL    HW125505   2.907   1.598  15.038  0.0799  0.8725  1.5270
 4682SOL    HW225506   2.891   1.489  15.136  0.0140  1.2603  0.9158
 4683SOL     OW25507   1.576   1.975  12.526 -0.1228  0.6568 -0.3474
 4683SOL    HW125508   1.639   1.922  12.575  0.6495  1.7557 -0.1706
 4683SOL    HW225509   1.525   2.013  12.598 -1.4252 -1.9832  0.1481
 4684SOL     OW25510   2.262   1.175   1.353  0.1268  0.1933  0.1131
 4684SOL    HW125511   2.311   1.120   1.292 -0.2523  0.5823 -0.5430
 4684SOL    HW225512   2.210   1.229   1.294  1.4018  0.1237 -1.0818
 4685SOL     OW25513   0.778   2.477   8.542 -0.2570 -0.1894  0.1512
 4685SOL    HW125514   0.770   2.402   8.484 -1.8571 -0.1103  0.2798
 4685SOL    HW225515   0.702   2.454   8.596  0.2460  0.3271  1.0935
 4686SOL     OW25516   1.018   0.459   4.907  0.7812 -0.4566  0.0590
 4686SOL    HW125517   0.944   0.409   4.941  0.0583 -1.6772 -3.2938
 4686SOL    HW225518   0.993   0.549   4.928 -0.8329 -0.9155  0.1097
 4687SOL     OW25519   3.938   0.239   4.339  0.3138  0.4700  0.1434
 4687SOL    HW125520   4.003   0.198   4.397  0.6656  0.2191 -0.4272
 4687SOL    HW225521   3.916   0.320   4.385 -0.4374 -0.4550  1.4191
 4688SOL     OW25522   1.721   1.484  17.560 -0.1031 -0.7690 -0.3777
 4688SOL    HW125523   1.656   1.459  17.625 -0.0988  0.7427  0.2088
 4688SOL    HW225524   1.768   1.550  17.610  0.0485 -0.4333 -0.9594
 4689SOL     OW25525   0.670   3.687   6.355 -0.2731 -0.0089 -0.6594
 4689SOL    HW125526   0.726   3.733   6.293  1.7449  0.4131  1.4785
 4689SOL    HW225527   0.658   3.601   6.314  0.7898  0.2319 -1.4600
 4690SOL     OW25528   3.469   1.087  11.571 -0.2974  0.2381 -0.2852
 4690SOL    HW125529   3.561   1.081  11.596  0.0765  0.1088 -1.6854
 4690SOL    HW225530   3.432   1.003  11.600  0.0385  0.4854  0.8497
 4691SOL     OW25531   3.615   1.732   2.646  0.3635  0.0204 -0.0378
 4691SOL    HW125532   3.546   1.668   2.633  0.3285 -0.1139  0.8333
 4691SOL    HW225533   3.561   1.811   2.639  1.2062  0.6097  0.0518
 4692SOL     OW25534   4.643   1.967  16.548  0.1494 -0.7672  0.3550
 4692SOL    HW125535   4.555   1.970  16.587  0.3768  1.2911  0.7002
 4692SOL    HW225536   4.692   2.028  16.603  0.4589 -1.5400  0.9349
 4693SOL     OW25537   1.523   3.429  17.396  0.7349  0.0656  0.0212
 4693SOL    HW125538   1.517   3.428  17.491  0.6652 -0.6356  0.0081
 4693SOL    HW225539   1.466   3.500  17.368 -0.0431  0.4245  2.5112
 4694SOL     OW25540   2.286   1.658  12.852 -0.5825 -0.1089  0.4029
 4694SOL    HW125541   2.236   1.713  12.912 -2.2968  0.5051 -1.6133
 4694SOL    HW225542   2.362   1.639  12.908  1.0334  0.3140 -1.6314
 4695SOL     OW25543   4.262   0.736   2.671  0.4293  0.3088 -0.1757
 4695SOL    HW125544   4.304   0.748   2.586  3.3268  3.4342  1.6903
 4695SOL    HW225545   4.245   0.642   2.677 -1.1311  0.7360  2.0899
 4696SOL     OW25546   3.073   1.856   1.776 -0.1062 -0.2876  0.6180
 4696SOL    HW125547   3.041   1.788   1.717  3.2609 -0.3801 -1.1238
 4696SOL    HW225548   3.080   1.930   1.715  2.4641 -1.5740 -0.6506
 4697SOL     OW25549   1.209   0.006   7.522  0.1002  0.1979  0.1671
 4697SOL    HW125550   1.142   4.682   7.574 -0.0648  0.6113  0.3178
 4697SOL    HW225551   1.286   4.682   7.557  1.7410  2.6997 -0.1660
 4698SOL     OW25552   1.849   2.026  14.723  0.1438 -0.0936 -0.3862
 4698SOL    HW125553   1.789   2.088  14.682  2.0410  1.6339 -0.5382
 4698SOL    HW225554   1.792   1.950  14.709  0.4694 -0.4946  0.4512
 4699SOL     OW25555   4.178   0.271   2.873 -0.2125 -0.5511  0.2818
 4699SOL    HW125556   4.253   0.211   2.873  1.2610  1.2980  0.1680
 4699SOL    HW225557   4.170   0.291   2.966  1.0090 -1.9947  0.6867
 4700SOL     OW25558   2.546   3.481   2.161 -0.2974 -0.1554  0.6147
 4700SOL    HW125559   2.472   3.494   2.102  0.3351  0.3684 -0.0588
 4700SOL    HW225560   2.570   3.573   2.173 -0.1481 -0.3835  2.0899
 4701SOL     OW25561   0.347   4.471  13.360 -0.2434 -0.2475 -0.3147
 4701SOL    HW125562   0.254   4.454  13.367 -0.2120 -1.0118 -1.8683
 4701SOL    HW225563   0.338   4.532  13.287 -1.7217  0.8739  0.8193
 4702SOL     OW25564   1.223   1.025   3.553  0.2885  0.0276 -0.2177
 4702SOL    HW125565   1.176   0.942   3.547  0.4676 -0.2165  1.8831
 4702SOL    HW225566   1.295   0.992   3.605 -0.6600  1.9910  2.3510
 4703SOL     OW25567   1.026   1.107   2.477  0.5708  0.0262 -0.2896
 4703SOL    HW125568   0.947   1.059   2.503 -0.0124  1.5777  0.7653
 4703SOL    HW225569   1.002   1.187   2.523 -0.8683 -1.6306  1.8329
 4704SOL     OW25570   0.983   2.599  13.010 -0.3553 -0.0646 -0.3982
 4704SOL    HW125571   1.056   2.646  12.970  1.1028 -0.5312  1.7163
 4704SOL    HW225572   0.992   2.526  12.949  1.6405  0.3889 -0.6404
 4705SOL     OW25573   4.496   3.196   8.044 -0.3394 -0.6857  0.0531
 4705SOL    HW125574   4.446   3.242   8.112  0.2132 -1.7985  1.1968
 4705SOL    HW225575   4.501   3.114   8.092  0.8247 -0.2343  0.6873
 4706SOL     OW25576   1.024   3.864   0.914 -0.4355  0.2508  0.0159
 4706SOL    HW125577   1.027   3.769   0.905 -1.1868  0.2082  0.2032
 4706SOL    HW225578   0.930   3.879   0.927 -0.4221 -0.5978  1.0650
 4707SOL     OW25579   0.681   4.618   8.240 -0.8362  0.1161  0.2613
 4707SOL    HW125580   0.752   4.678   8.266 -0.6347 -0.8151  1.8397
 4707SOL    HW225581   0.614   4.642   8.303 -1.6430  0.5903 -0.7768
 4708SOL     OW25582   4.097   0.492  17.581  0.0407  0.3081 -0.1454
 4708SOL    HW125583   4.113   0.584  17.601  1.3058  0.2569 -0.9283
 4708SOL    HW225584   4.041   0.509  17.505 -0.4441 -3.3389 -0.5901
 4709SOL     OW25585   0.888   2.141   2.553  0.1249 -0.1418 -0.5310
 4709SOL    HW125586   0.905   2.113   2.643  1.9017 -0.5057 -0.9859
 4709SOL    HW225587   0.856   2.230   2.566 -3.1219 -1.4400  0.6365
 4710SOL     OW25588   2.030   2.464   3.678 -0.2737 -0.1660  0.0961
 4710SOL    HW125589   1.984   2.381   3.694 -0.7608  0.4793  1.9600
 4710SOL    HW225590   1.962   2.513   3.632 -1.8814 -0.7772  1.8329
 4711SOL     OW25591   2.913   3.692   4.795  0.4589  0.2336 -0.0002
 4711SOL    HW125592   2.913   3.606   4.837 -0.1067  0.2464  0.0252
 4711SOL    HW225593   2.822   3.711   4.819 -0.0907 -0.8858 -1.1908
 4712SOL     OW25594   4.415   4.037  16.461  0.4785  0.4192 -0.0217
 4712SOL    HW125595   4.422   3.944  16.440 -0.6838  0.5772 -1.1433
 4712SOL    HW225596   4.390   4.079  16.378  1.0264  0.9953  0.1097
 4713SOL     OW25597   2.429   2.560  10.972 -0.0514 -0.2840  0.1432
 4713SOL    HW125598   2.512   2.568  11.020  0.1684  0.8966 -0.4429
 4713SOL    HW225599   2.371   2.527  11.041 -1.8853  2.1010 -0.3016
 4714SOL     OW25600   4.282   1.792   5.480  0.1836  0.6739  0.4812
 4714SOL    HW125601   4.304   1.714   5.430  0.2812  0.9600  0.0689
 4714SOL    HW225602   4.195   1.810   5.445 -0.0544 -0.9088  0.2612
 4715SOL     OW25603   0.626   2.382   8.096  0.2124 -0.2169 -0.3982
 4715SOL    HW125604   0.642   2.297   8.053 -0.3176  0.3736 -1.7691
 4715SOL    HW225605   0.714   2.409   8.122 -0.0490  1.5075 -1.3150
 4716SOL     OW25606   4.470   4.535  17.194 -1.1544  0.8338  0.2078
 4716SOL    HW125607   4.406   4.489  17.140  1.4683 -0.6152 -1.6964
 4716SOL    HW225608   4.463   4.476  17.269 -1.5350  1.8587  0.9752
 4717SOL     OW25609   1.929   2.128   4.992 -0.3405  0.2680  0.1518
 4717SOL    HW125610   1.851   2.181   5.010  0.0376  0.0906  2.3929
 4717SOL    HW225611   2.005   2.180   5.017 -0.8601  0.6036  1.0608
 4718SOL     OW25612   1.043   2.533  17.283  0.1216 -0.3819  0.4914
 4718SOL    HW125613   1.136   2.545  17.262  0.3423  1.7642  2.7156
 4718SOL    HW225614   1.015   2.625  17.287  0.8428 -0.1264 -0.1088
 4719SOL     OW25615   0.612   3.954   7.181 -0.0882 -0.1015  0.5505
 4719SOL    HW125616   0.524   3.963   7.217 -0.2183 -0.3298  0.2824
 4719SOL    HW225617   0.658   3.960   7.265 -0.9218  1.7224  0.8751
 4720SOL     OW25618   1.852   1.098  10.871 -0.1446 -0.5337  0.2491
 4720SOL    HW125619   1.795   1.147  10.931  1.5831  0.9381  0.7248
 4720SOL    HW225620   1.792   1.080  10.799 -1.2414 -1.0051  1.2993
 4721SOL     OW25621   2.999   3.744  12.020  0.5071  0.5039  0.5458
 4721SOL    HW125622   3.023   3.678  11.955 -1.9310 -0.1610  0.3193
 4721SOL    HW225623   3.053   3.720  12.096  0.5912  0.1916  0.3882
 4722SOL     OW25624   1.314   0.988   8.431  0.2944  0.1055 -0.3427
 4722SOL    HW125625   1.352   1.066   8.390 -2.2609  0.4267 -2.1172
 4722SOL    HW225626   1.280   0.936   8.358 -1.0280  0.6276 -0.0971
 4723SOL     OW25627   0.250   3.798   4.023  0.0126 -0.0562  0.5814
 4723SOL    HW125628   0.227   3.792   4.116  1.9645 -2.4787  0.9023
 4723SOL    HW225629   0.221   3.886   4.002 -0.8197 -0.5129 -0.1938
 4724SOL     OW25630   2.972   0.604   0.341  1.4628 -0.0104 -0.7939
 4724SOL    HW125631   2.982   0.542   0.268 -0.1886  1.0716 -1.9370
 4724SOL    HW225632   3.044   0.664   0.320  1.5217  0.3819  0.5545
 4725SOL     OW25633   0.596   4.361   8.267 -0.1096 -0.2317 -0.1302
 4725SOL    HW125634   0.628   4.449   8.245  1.8511 -1.4554 -2.1246
 4725SOL    HW225635   0.539   4.365   8.344 -0.9694 -0.3652 -0.7578
 4726SOL     OW25636   0.360   1.875   4.993 -0.3825 -0.3517 -0.3000
 4726SOL    HW125637   0.336   1.939   4.927  0.2247 -1.6679 -1.8018
 4726SOL    HW225638   0.375   1.921   5.076 -0.8491  1.1024 -1.0420
 4727SOL     OW25639   0.353   1.578   2.647  0.1638  0.2560 -0.7100
 4727SOL    HW125640   0.391   1.507   2.699  1.3882  1.2094 -0.3060
 4727SOL    HW225641   0.386   1.659   2.685 -0.7502 -0.1350  0.9177
 4728SOL     OW25642   2.440   4.252   3.804 -0.1746  0.2878  0.1498
 4728SOL    HW125643   2.520   4.269   3.755 -0.1464 -0.9622 -0.2390
 4728SOL    HW225644   2.370   4.286   3.748  2.1453  3.1383 -1.0158
 4729SOL     OW25645   1.131   0.695   5.578 -0.0051  0.6983 -0.3277
 4729SOL    HW125646   1.143   0.774   5.632  0.8133 -0.0815  0.6413
 4729SOL    HW225647   1.145   0.742   5.496 -1.6168 -0.7716 -1.4375
 4730SOL     OW25648   1.609   2.144   7.240  0.6325  0.3141 -0.3169
 4730SOL    HW125649   1.696   2.182   7.233  1.1192 -1.2221 -2.3557
 4730SOL    HW225650   1.563   2.226   7.223  1.1129  0.9511  1.4423
 4731SOL     OW25651   3.542   3.696  16.778  0.0082 -0.0656 -0.3973
 4731SOL    HW125652   3.460   3.738  16.803 -0.7074 -1.1924 -0.8445
 4731SOL    HW225653   3.515   3.605  16.772 -2.5147  0.6749 -0.4058
 4732SOL     OW25654   2.434   0.676   7.228 -0.1042 -0.2275  0.7268
 4732SOL    HW125655   2.430   0.768   7.254 -0.2871  0.3688 -1.3810
 4732SOL    HW225656   2.529   0.663   7.236 -0.0830 -0.0056  0.8423
 4733SOL     OW25657   3.811   3.461   0.873  1.1385 -0.1513 -0.1537
 4733SOL    HW125658   3.890   3.501   0.836 -0.1642  0.3601 -2.3473
 4733SOL    HW225659   3.830   3.368   0.863  0.8050 -0.2716  0.3161
 4734SOL     OW25660   3.121   2.955  17.285 -0.2399  0.1527  0.1789
 4734SOL    HW125661   3.131   2.968  17.380  0.3973 -2.5870  0.4870
 4734SOL    HW225662   3.076   2.870  17.280 -0.8217  0.3266  2.3263
 4735SOL     OW25663   3.037   2.845  10.794 -0.2320  0.2741  0.4533
 4735SOL    HW125664   2.971   2.775  10.784  0.6823 -0.2196 -2.1592
 4735SOL    HW225665   3.112   2.787  10.786  0.7952  1.6310  0.3975
 4736SOL     OW25666   1.216   0.127   5.304  0.2115  0.1471  0.8403
 4736SOL    HW125667   1.271   0.057   5.341  1.2050  0.6124  0.2359
 4736SOL    HW225668   1.135   0.096   5.345  0.3219  1.3238  1.9559
 4737SOL     OW25669   1.120   4.336   6.552  0.0825 -0.4745  0.4850
 4737SOL    HW125670   1.094   4.309   6.464 -0.5347 -0.7256  0.7519
 4737SOL    HW225671   1.044   4.366   6.602  0.5301  0.1786  0.7876
 4738SOL     OW25672   3.449   3.390   3.251 -0.2213 -0.2514 -0.4671
 4738SOL    HW125673   3.391   3.325   3.290  0.3770 -0.9882 -0.8198
 4738SOL    HW225674   3.387   3.460   3.229  0.6038  0.2546 -1.2129
 4739SOL     OW25675   2.961   0.249   3.981  0.1813 -0.0528  0.4105
 4739SOL    HW125676   2.899   0.247   4.054 -2.0209  1.4768 -1.4511
 4739SOL    HW225677   2.921   0.321   3.933 -0.7935  0.0321  1.3593
 4740SOL     OW25678   3.959   4.579   3.455 -0.0503 -1.0209 -0.5172
 4740SOL    HW125679   3.904   4.591   3.378 -0.7059  1.9160  0.3974
 4740SOL    HW225680   3.946   4.486   3.474  0.2575 -1.1566 -0.9957
 4741SOL     OW25681   0.234   2.066  15.478 -0.5039  0.0158  0.6949
 4741SOL    HW125682   0.193   1.990  15.436 -0.8749  1.1861 -1.0600
 4741SOL    HW225683   0.239   2.120  15.398  0.9086 -1.1626 -0.0234
 4742SOL     OW25684   1.199   3.575   2.578  0.0741 -0.5765  0.5131
 4742SOL    HW125685   1.116   3.595   2.620  0.9240  1.4263  1.1978
 4742SOL    HW225686   1.264   3.609   2.639  0.9817 -3.3847  1.1191
 4743SOL     OW25687   2.179   0.521   6.702  0.4015 -0.1132 -0.2049
 4743SOL    HW125688   2.157   0.530   6.795 -0.2096 -0.1229 -0.3510
 4743SOL    HW225689   2.226   0.437   6.708  1.7531  0.8377  2.6413
 4744SOL     OW25690   3.508   4.364   1.918  0.3144  0.0685  0.0762
 4744SOL    HW125691   3.525   4.432   1.983 -1.8471  0.7836 -0.0816
 4744SOL    HW225692   3.438   4.310   1.956  1.1275 -0.8081  0.3158
 4745SOL     OW25693   3.800   1.231  12.122 -0.2723  0.3408  0.5493
 4745SOL    HW125694   3.854   1.154  12.101 -1.3404  0.0533 -1.0889
 4745SOL    HW225695   3.825   1.255  12.211  0.3194  0.7818  0.2642
 4746SOL     OW25696   2.873   0.105   5.492  0.0043  0.5995  0.2925
 4746SOL    HW125697   2.880   0.136   5.401  0.6012 -1.5156 -0.3770
 4746SOL    HW225698   2.820   0.027   5.478  2.3832 -0.5755 -2.1526
 4747SOL     OW25699   1.578   0.849   5.471 -0.3198  0.7376 -0.6422
 4747SOL    HW125700   1.632   0.875   5.546  1.1913 -1.2836 -1.0139
 4747SOL    HW225701   1.577   0.753   5.472  2.8438  0.6985  0.6348
 4748SOL     OW25702   1.834   4.054   9.483  0.5382  0.4219 -0.2997
 4748SOL    HW125703   1.753   4.032   9.528 -0.4081  1.1014 -1.6729
 4748SOL    HW225704   1.886   4.060   9.563  0.5053 -2.5710 -0.0809
 4749SOL     OW25705   1.137   4.333  10.947 -0.6422 -0.3536  0.4511
 4749SOL    HW125706   1.046   4.343  10.973 -0.9715 -1.0505 -0.4214
 4749SOL    HW225707   1.156   4.407  10.889  0.0851  0.6171  1.9281
 4750SOL     OW25708   3.508   3.653  17.145 -0.0452  0.3595  0.1613
 4750SOL    HW125709   3.482   3.637  17.236  0.2496  1.8388  0.4998
 4750SOL    HW225710   3.461   3.580  17.105 -0.1528 -0.2153  1.3410
 4751SOL     OW25711   1.527   1.683   6.502  0.3509  0.4600  0.4860
 4751SOL    HW125712   1.565   1.769   6.484  0.6639 -0.3923 -2.9626
 4751SOL    HW225713   1.440   1.693   6.464  0.6043  3.3467  0.6764
 4752SOL     OW25714   2.732   3.297   2.170 -0.1396 -0.6724 -0.4623
 4752SOL    HW125715   2.672   3.371   2.160  0.7004  0.0642 -0.1953
 4752SOL    HW225716   2.817   3.342   2.175 -0.7881  0.5505 -0.2081
 4753SOL     OW25717   1.654   1.554   5.662  0.4206  0.0258  0.7840
 4753SOL    HW125718   1.658   1.525   5.753  0.7324  0.3346  0.8674
 4753SOL    HW225719   1.600   1.633   5.667  1.2743  0.8262 -2.7203
 4754SOL     OW25720   1.589   0.430   8.206 -0.3294  0.0716 -0.0732
 4754SOL    HW125721   1.503   0.429   8.162 -0.3109 -2.8679  0.0247
 4754SOL    HW225722   1.648   0.478   8.148  1.5541 -2.5102 -0.2766
 4755SOL     OW25723   1.147   3.236  15.530  0.1291 -0.3677  0.6222
 4755SOL    HW125724   1.071   3.257  15.476  0.2106  1.6901  1.3396
 4755SOL    HW225725   1.149   3.141  15.540  1.3124 -0.5482 -1.2943
 4756SOL     OW25726   3.034   3.661   6.144 -0.3209 -0.7428  0.3314
 4756SOL    HW125727   3.017   3.688   6.234  0.1665 -0.5790  0.3741
 4756SOL    HW225728   3.129   3.665   6.135 -0.6047 -1.2592 -2.8510
 4757SOL     OW25729   3.290   2.677   4.790  0.0004 -0.7905 -0.8281
 4757SOL    HW125730   3.302   2.582   4.796 -1.2735 -0.9252 -0.2914
 4757SOL    HW225731   3.299   2.704   4.881  0.2049 -0.1247 -1.0447
 4758SOL     OW25732   4.382   3.415  15.155 -0.0830  0.3054 -0.7090
 4758SOL    HW125733   4.401   3.323  15.135 -0.8940 -0.3295  1.3815
 4758SOL    HW225734   4.455   3.469  15.127  1.9025 -1.2963  1.3864
 4759SOL     OW25735   1.986   3.588   1.026 -0.1380  0.2721  0.4240
 4759SOL    HW125736   1.947   3.516   0.976 -1.5728  1.1522  0.3095
 4759SOL    HW225737   1.944   3.661   0.981  1.3104  1.0951  0.3930
 4760SOL     OW25738   1.313   0.934   2.365 -0.2655 -0.6226  0.7138
 4760SOL    HW125739   1.355   0.957   2.282  0.0563 -4.0503 -0.0812
 4760SOL    HW225740   1.222   0.930   2.336  0.4910 -0.6563 -1.7037
 4761SOL     OW25741   0.603   1.925   9.267  0.2549  0.4352 -0.1329
 4761SOL    HW125742   0.536   1.856   9.268  0.4696  0.2686  2.5224
 4761SOL    HW225743   0.665   1.906   9.197 -0.0612  0.4310 -0.4078
 4762SOL     OW25744   1.112   1.908   5.577  0.0827  0.2086 -0.5511
 4762SOL    HW125745   1.140   1.947   5.659  2.9283 -1.0732 -0.9040
 4762SOL    HW225746   1.094   1.987   5.527  2.4172  1.1838  0.1225
 4763SOL     OW25747   0.815   2.973   5.335  0.3813  0.8347 -0.2694
 4763SOL    HW125748   0.777   2.958   5.422 -0.4138  0.5839 -0.6598
 4763SOL    HW225749   0.878   2.905   5.313  1.0976  1.1938  0.6602
 4764SOL     OW25750   1.834   0.212   4.834 -0.0021 -0.0475 -0.1715
 4764SOL    HW125751   1.891   0.287   4.817 -0.2147  0.0279 -0.5486
 4764SOL    HW225752   1.753   0.251   4.800 -1.0352 -1.1326  1.0148
 4765SOL     OW25753   1.447   4.472  15.295 -0.3403  0.2229 -0.5489
 4765SOL    HW125754   1.476   4.474  15.204  1.4070  1.3706  0.0345
 4765SOL    HW225755   1.519   4.429  15.341  0.3126  3.3142  1.3452
 4766SOL     OW25756   2.691   0.123   2.492 -0.3676  0.4872  0.1580
 4766SOL    HW125757   2.619   0.093   2.547  1.0373 -3.0815  0.0269
 4766SOL    HW225758   2.737   0.182   2.552  1.0086 -1.9283  1.4829
 4767SOL     OW25759   4.462   2.711   6.825 -0.4170  0.8625  0.1752
 4767SOL    HW125760   4.410   2.666   6.759  0.8777 -0.2818 -0.0635
 4767SOL    HW225761   4.513   2.775   6.776  1.1946 -2.6713 -2.7550
 4768SOL     OW25762   3.779   2.185  16.204 -0.1408 -0.2311  0.6214
 4768SOL    HW125763   3.868   2.214  16.184 -0.6284 -0.8702 -2.4187
 4768SOL    HW225764   3.782   2.208  16.297 -0.1634  1.3762  0.2371
 4769SOL     OW25765   3.090   1.913  13.084 -0.5280 -0.3322  0.3401
 4769SOL    HW125766   3.025   1.862  13.036  0.6271 -2.2393  0.7906
 4769SOL    HW225767   3.169   1.888  13.036 -1.6367 -3.5510  0.2359
 4770SOL     OW25768   1.615   2.720  16.862  0.1555 -0.3358 -0.1533
 4770SOL    HW125769   1.694   2.712  16.808  0.3895  2.2984 -0.2267
 4770SOL    HW225770   1.581   2.799  16.819  0.4510  1.2635  2.5407
 4771SOL     OW25771   3.057   2.946   5.403  0.0813 -0.1703  0.2463
 4771SOL    HW125772   3.086   2.887   5.472 -1.8215 -0.4790  0.7803
 4771SOL    HW225773   3.142   2.955   5.359  1.1845 -2.5671  1.8927
 4772SOL     OW25774   2.437   0.351  16.239  0.3653 -0.0561 -0.7084
 4772SOL    HW125775   2.383   0.280  16.204 -1.4036  1.6145 -1.3870
 4772SOL    HW225776   2.493   0.364  16.163  0.3277 -0.4290 -0.8038
 4773SOL     OW25777   1.662   2.442   5.261 -0.5143  0.5164  0.6976
 4773SOL    HW125778   1.739   2.497   5.274 -0.8356  1.1864 -0.2203
 4773SOL    HW225779   1.640   2.438   5.354  0.9111 -1.1826  0.9574
 4774SOL     OW25780   0.779   0.598   6.205 -1.3602  0.5995  0.1043
 4774SOL    HW125781   0.773   0.673   6.147 -0.8168  0.1976 -0.4755
 4774SOL    HW225782   0.685   0.582   6.213 -1.1240  0.3927  2.3447
 4775SOL     OW25783   2.558   2.480   2.503  0.2259  0.4154  0.0749
 4775SOL    HW125784   2.473   2.517   2.524  0.0377  0.2662 -0.4337
 4775SOL    HW225785   2.573   2.412   2.570  2.4976  0.5832 -0.2427
 4776SOL     OW25786   1.892   1.514   4.843 -0.1014  0.1657 -0.7434
 4776SOL    HW125787   1.925   1.432   4.807  1.7434  0.0736  1.1452
 4776SOL    HW225788   1.800   1.496   4.865  0.2620 -1.1504 -0.3123
 4777SOL     OW25789   0.006   2.467  16.863 -0.2293 -0.1822 -0.0273
 4777SOL    HW125790   4.643   2.442  16.900  1.5392 -0.8641  3.4768
 4777SOL    HW225791   0.067   2.413  16.913 -2.6021 -0.4331  2.5517
 4778SOL     OW25792   4.408   0.380   3.445 -0.0497  0.1884  0.1809
 4778SOL    HW125793   4.384   0.315   3.379  0.0907  0.3069  0.0168
 4778SOL    HW225794   4.337   0.444   3.433  1.9220  1.9578 -1.9413
 4779SOL     OW25795   4.253   2.134   3.475 -0.5826 -0.2721 -0.4124
 4779SOL    HW125796   4.284   2.122   3.565 -2.4791  1.2564  0.4474
 4779SOL    HW225797   4.297   2.212   3.441 -2.6386  0.0251 -2.3543
 4780SOL     OW25798   0.439   3.570  16.494  0.6154 -0.1712  0.5665
 4780SOL    HW125799   0.383   3.631  16.447 -0.7091 -1.2652  0.7130
 4780SOL    HW225800   0.472   3.638  16.552  0.7240  0.0512  0.2381
 4781SOL     OW25801   1.032   0.850   1.859  0.4569 -0.0949 -0.1988
 4781SOL    HW125802   1.028   0.780   1.925  1.5741  0.0711  0.0405
 4781SOL    HW225803   0.943   0.863   1.826 -0.4546 -1.6354  1.6194
 4782SOL     OW25804   1.745   0.557   6.011 -0.1279 -0.0027 -0.5209
 4782SOL    HW125805   1.651   0.546   6.026 -0.1739  2.1714  0.7035
 4782SOL    HW225806   1.765   0.464   6.004  3.7412  0.6492  1.8554
 4783SOL     OW25807   3.868   3.445   6.974  0.4418 -0.1033 -0.1046
 4783SOL    HW125808   3.823   3.413   7.052  0.1977 -0.7833 -0.5329
 4783SOL    HW225809   3.892   3.364   6.930  0.0308  1.2925 -2.8736
 4784SOL     OW25810   1.088   1.185   8.116  0.1150 -0.5301  0.2924
 4784SOL    HW125811   1.074   1.141   8.200 -1.6476 -1.3929 -0.4582
 4784SOL    HW225812   1.106   1.277   8.138  2.6696 -0.7759 -0.7561
 4785SOL     OW25813   2.157   3.941   7.386  0.1754 -0.4157  0.2240
 4785SOL    HW125814   2.201   3.881   7.447  0.5620 -0.3158  0.0457
 4785SOL    HW225815   2.230   3.984   7.341  0.7644 -1.1239  0.5062
 4786SOL     OW25816   2.377   4.508   7.370 -0.1152  0.3893  0.3547
 4786SOL    HW125817   2.415   4.423   7.390  1.5630  0.6072 -1.9415
 4786SOL    HW225818   2.347   4.522   7.460 -0.7618 -0.0320  0.2049
 4787SOL     OW25819   2.567   2.747  15.213  0.0283 -0.0273 -0.0400
 4787SOL    HW125820   2.487   2.716  15.254  0.2313  1.0826  1.1731
 4787SOL    HW225821   2.567   2.839  15.241  2.0462 -0.3210  0.9134
 4788SOL     OW25822   1.466   1.198  12.795 -0.1366  0.1740  0.0512
 4788SOL    HW125823   1.561   1.195  12.779  0.2208  3.2982  1.4690
 4788SOL    HW225824   1.439   1.286  12.768 -0.6058 -0.0742 -0.2900
 4789SOL     OW25825   0.247   3.779   7.623  0.0166  0.3734  0.3248
 4789SOL    HW125826   0.298   3.848   7.579  1.5017 -0.5548  0.5884
 4789SOL    HW225827   0.314   3.712   7.616 -2.0126 -1.4583 -1.2928
 4790SOL     OW25828   0.675   0.660   2.195 -0.8084  0.1036  0.0511
 4790SOL    HW125829   0.743   0.593   2.182 -1.4483 -1.3888  4.5553
 4790SOL    HW225830   0.607   0.615   2.145 -0.0144 -0.2180 -0.7381
 4791SOL     OW25831   0.010   0.133  12.123  0.2038  0.0912  0.9401
 4791SOL    HW125832   0.106   0.143  12.120  0.4901 -2.7065  1.1149
 4791SOL    HW225833   4.698   0.201  12.181 -0.2256  0.7014 -0.0200
 4792SOL     OW25834   4.597   4.369   6.764 -0.0478 -0.0173 -0.1804
 4792SOL    HW125835   4.567   4.288   6.722 -0.5615 -0.3310  0.7924
 4792SOL    HW225836   4.683   4.339   6.794 -0.1228 -2.1428 -2.0154
 4793SOL     OW25837   1.644   0.674   3.858 -0.1085 -0.1358 -0.2870
 4793SOL    HW125838   1.568   0.638   3.812  0.7178  1.4990 -2.9302
 4793SOL    HW225839   1.716   0.672   3.795 -0.2672 -2.7586 -0.3841
 4794SOL     OW25840   3.163   2.662   4.541 -0.1427 -0.2183  0.5664
 4794SOL    HW125841   3.206   2.577   4.550 -0.3150 -0.1730  1.8237
 4794SOL    HW225842   3.180   2.698   4.628  0.9485 -1.7261  0.9800
 4795SOL     OW25843   3.616   4.713  10.118 -0.2452  0.1500  0.9866
 4795SOL    HW125844   3.630   0.077  10.077  2.6539 -0.3018  1.0862
 4795SOL    HW225845   3.658   0.008  10.203  0.1744  3.5880  0.1391
 4796SOL     OW25846   1.555   4.343   0.224 -0.5440  0.1582  0.3605
 4796SOL    HW125847   1.518   4.428   0.250 -2.2639 -0.0514 -1.3444
 4796SOL    HW225848   1.497   4.330   0.149  0.7376  0.1389 -0.6266
 4797SOL     OW25849   0.444   3.046   5.473  0.2007  0.1965 -0.8576
 4797SOL    HW125850   0.494   3.103   5.416  2.0241 -2.1559 -1.6111
 4797SOL    HW225851   0.499   2.967   5.472 -2.0069 -1.4183  1.5759
 4798SOL     OW25852   4.057   0.398  12.998 -0.3881 -0.0900 -0.2589
 4798SOL    HW125853   4.041   0.473  13.055  1.4858  1.3079 -1.5974
 4798SOL    HW225854   3.980   0.343  13.016 -1.6232  1.1188 -1.7867
 4799SOL     OW25855   3.639   4.121   8.854  0.3914 -0.3856 -0.1018
 4799SOL    HW125856   3.691   4.041   8.847  1.5579  0.1737  1.9658
 4799SOL    HW225857   3.697   4.194   8.832 -1.9190  2.0019  1.6763
 4800SOL     OW25858   1.259   2.484   6.561  0.1479  0.4836  0.2272
 4800SOL    HW125859   1.294   2.397   6.577  3.3886  2.0464  1.4725
 4800SOL    HW225860   1.274   2.482   6.467 -0.0690  2.3702  0.1464
 4801SOL     OW25861   3.330   1.542  10.215 -0.2907 -0.6065  0.4578
 4801SOL    HW125862   3.269   1.527  10.143  1.2161  4.2195 -1.7831
 4801SOL    HW225863   3.380   1.613  10.173 -0.9413 -0.3600  0.1038
 4802SOL     OW25864   1.342   3.300   4.190 -0.0990 -0.2411  0.0918
 4802SOL    HW125865   1.377   3.364   4.128  0.3836  0.0316  0.6403
 4802SOL    HW225866   1.418   3.252   4.224  0.4639  1.0833  0.7019
 4803SOL     OW25867   0.794   2.444   9.454 -0.2218  0.1121  0.0734
 4803SOL    HW125868   0.800   2.401   9.539 -1.4707  0.0222  0.1276
 4803SOL    HW225869   0.701   2.469   9.459 -0.9990 -3.0922  1.6198
 4804SOL     OW25870   4.191   0.744   6.798  0.0507  0.1753  0.4973
 4804SOL    HW125871   4.168   0.711   6.711 -0.1087 -1.7690  1.2690
 4804SOL    HW225872   4.248   0.813   6.764 -1.7069  1.1755 -0.4192
 4805SOL     OW25873   2.866   2.762   2.151  0.0834 -0.4628 -0.5372
 4805SOL    HW125874   2.854   2.723   2.238 -0.2233  1.7073  0.3715
 4805SOL    HW225875   2.933   2.704   2.116  0.8075 -0.1681  0.3581
 4806SOL     OW25876   0.098   4.321  12.675 -0.0206 -0.1632 -0.1873
 4806SOL    HW125877   0.179   4.342  12.722  0.8176  0.3453 -1.8606
 4806SOL    HW225878   0.127   4.262  12.606  0.2202 -0.3542  0.0746
 4807SOL     OW25879   4.434   0.463  15.046 -0.5964  1.0213  0.4782
 4807SOL    HW125880   4.524   0.493  15.030 -0.8401  0.6121 -1.6942
 4807SOL    HW225881   4.375   0.506  14.984 -1.8417 -0.9182  0.3233
 4808SOL     OW25882   3.825   2.294  16.460 -0.5530 -0.1240  0.0623
 4808SOL    HW125883   3.766   2.364  16.488 -0.4018 -0.8589  2.2664
 4808SOL    HW225884   3.784   2.218  16.501  0.5582 -1.0116 -0.4671
 4809SOL     OW25885   3.980   3.387   7.795  0.0437 -0.4106 -0.0087
 4809SOL    HW125886   4.023   3.303   7.777  2.0025  0.6229 -0.1571
 4809SOL    HW225887   3.953   3.404   7.705  2.8867  0.9220 -0.6039
 4810SOL     OW25888   3.979   1.844   9.642 -0.1007 -0.3245  0.1154
 4810SOL    HW125889   4.050   1.788   9.610 -1.1629 -1.3559 -0.4285
 4810SOL    HW225890   3.997   1.851   9.736 -1.0918 -1.0446  0.3557
 4811SOL     OW25891   2.329   4.719   7.580  0.3269 -0.2422 -0.5658
 4811SOL    HW125892   2.234   0.003   7.576  0.1861 -0.9995  1.7808
 4811SOL    HW225893   2.345   0.063   7.649 -1.4907  0.8184 -1.1676
 4812SOL     OW25894   0.097   3.401  10.044 -0.2064  0.1813 -0.2573
 4812SOL    HW125895   0.141   3.437  10.121 -0.6364  1.0882 -0.4333
 4812SOL    HW225896   0.115   3.468   9.978 -1.6166 -1.5045 -2.3372
 4813SOL     OW25897   3.211   4.714   4.390 -0.1876 -0.1423 -0.2259
 4813SOL    HW125898   3.235   0.052   4.320  1.8146  2.5414  2.7333
 4813SOL    HW225899   3.264   0.016   4.467 -2.3432  0.6060  1.0168
 4814SOL     OW25900   4.298   3.475   6.733 -0.1155 -0.0782  0.6429
 4814SOL    HW125901   4.384   3.516   6.742 -0.3827  0.5240  0.4230
 4814SOL    HW225902   4.269   3.479   6.824 -2.0601 -2.8565  0.1563
 4815SOL     OW25903   0.705   2.566   8.851  0.3254 -0.0112  0.1025
 4815SOL    HW125904   0.663   2.602   8.773 -0.4285  1.8162  1.3574
 4815SOL    HW225905   0.762   2.639   8.874 -1.4746  1.4578 -0.1199
 4816SOL     OW25906   2.100   4.467   8.021  0.2860  0.3206  0.1429
 4816SOL    HW125907   2.074   4.501   8.107  1.5822  1.7077 -0.0154
 4816SOL    HW225908   2.181   4.425   8.050  1.5740  1.5031 -1.7907
 4817SOL     OW25909   2.480   4.423   1.151 -0.6226  0.4056 -0.0001
 4817SOL    HW125910   2.517   4.466   1.228  1.9163  0.9983 -1.5446
 4817SOL    HW225911   2.524   4.338   1.157  0.6033  1.1154  0.9497
 4818SOL     OW25912   0.287   0.544   4.940  0.2856 -0.1929 -0.0898
 4818SOL    HW125913   0.351   0.555   4.870 -0.2372 -1.4650 -0.7707
 4818SOL    HW225914   0.269   0.450   4.941 -0.3068 -0.0728  0.9677
 4819SOL     OW25915   2.098   1.002  10.107  0.2392  0.4293  0.3996
 4819SOL    HW125916   2.133   0.964  10.188  1.7721 -1.1963 -1.0352
 4819SOL    HW225917   2.159   0.961  10.046 -0.5930  0.0693 -0.1838
 4820SOL     OW25918   4.223   0.153  13.206  0.3770 -0.4930  0.0301
 4820SOL    HW125919   4.184   0.098  13.138  1.0009  2.0083 -2.3390
 4820SOL    HW225920   4.257   0.217  13.144  1.7040  1.1723  2.4381
 4821SOL     OW25921   3.452   1.094   6.422 -0.0518  0.4546 -0.5213
 4821SOL    HW125922   3.485   1.040   6.350  1.6993  0.4036  0.3069
 4821SOL    HW225923   3.370   1.047   6.427 -0.6530  1.4655 -0.8471
 4822SOL     OW25924   4.232   2.786   8.017  0.6280  1.0465  0.2521
 4822SOL    HW125925   4.320   2.802   7.985  1.4958 -1.8163  1.1544
 4822SOL    HW225926   4.208   2.700   7.983  0.7162  1.1340 -0.0270
 4823SOL     OW25927   4.169   4.576   3.979 -0.8606 -0.5365 -0.2856
 4823SOL    HW125928   4.227   4.624   3.920  1.2487 -2.0351  0.5701
 4823SOL    HW225929   4.219   4.494   3.977  0.7587  0.4783 -2.0767
 4824SOL     OW25930   1.763   4.357  15.992 -0.2264 -0.4748 -0.2421
 4824SOL    HW125931   1.683   4.313  15.965 -0.8212 -0.1794  1.0173
 4824SOL    HW225932   1.823   4.288  15.964 -0.0455  0.3537 -1.8885
 4825SOL     OW25933   0.595   3.619   4.205 -0.1009  0.4939  0.5613
 4825SOL    HW125934   0.587   3.530   4.169  0.5870  0.0337  1.5616
 4825SOL    HW225935   0.682   3.612   4.243  0.1330  1.7596  0.2568
 4826SOL     OW25936   3.778   2.679  12.529  0.2892 -0.7970  0.5579
 4826SOL    HW125937   3.806   2.746  12.591 -2.7385  0.2589  0.8045
 4826SOL    HW225938   3.816   2.604  12.576  2.3677  0.7986  1.3856
 4827SOL     OW25939   0.722   0.051   3.766  0.1653 -0.1285 -0.5556
 4827SOL    HW125940   0.662   0.103   3.712 -1.6283  0.2717  1.8030
 4827SOL    HW225941   0.770   0.007   3.695 -2.3606 -2.3984 -0.8632
 4828SOL     OW25942   2.921   1.792  10.026 -0.4665  0.4154  0.1080
 4828SOL    HW125943   2.900   1.848  10.102 -0.8709 -1.7503  1.6056
 4828SOL    HW225944   2.886   1.711  10.064  1.6775 -0.7296 -0.4187
 4829SOL     OW25945   3.097   2.701   2.803 -0.1679 -0.3265  0.0277
 4829SOL    HW125946   3.038   2.627   2.819 -1.1981 -0.1170 -2.8207
 4829SOL    HW225947   3.177   2.663   2.840  1.0086  0.9335 -1.2190
 4830SOL     OW25948   3.953   3.226  12.711 -0.4241 -0.0888  0.0285
 4830SOL    HW125949   3.984   3.307  12.754  0.0755  0.7528 -1.9203
 4830SOL    HW225950   3.867   3.219  12.752 -0.4194  1.0550  0.2334
 4831SOL     OW25951   2.895   2.505   4.110  0.0261  0.7113 -0.1510
 4831SOL    HW125952   2.895   2.525   4.204  1.0798 -0.6669  0.1494
 4831SOL    HW225953   2.972   2.447   4.109  0.3531  1.1158  1.2076
 4832SOL     OW25954   1.864   3.979   7.385 -0.0680 -0.8014  0.2756
 4832SOL    HW125955   1.956   3.956   7.393 -0.0792 -0.2621  2.0292
 4832SOL    HW225956   1.818   3.898   7.407 -2.7165  0.9304  1.2049
 4833SOL     OW25957   2.534   0.830   5.661 -0.5361 -0.0189 -0.0102
 4833SOL    HW125958   2.552   0.849   5.753  0.1613 -0.1832 -0.1159
 4833SOL    HW225959   2.576   0.744   5.666  0.1696  0.2667 -1.0931
 4834SOL     OW25960   0.042   3.334   4.074  0.4814 -0.5372  0.3887
 4834SOL    HW125961   4.685   3.310   4.025  2.6811 -3.2315 -1.8383
 4834SOL    HW225962   0.099   3.365   4.003  0.7536 -1.5086  0.1884
 4835SOL     OW25963   2.668   0.867   2.605 -0.0111  0.7469 -0.1357
 4835SOL    HW125964   2.666   0.948   2.555 -0.7875  0.0754 -1.2093
 4835SOL    HW225965   2.745   0.890   2.656 -0.4519  1.3004  0.2713
 4836SOL     OW25966   3.397   2.008   9.005  0.3172  0.2331 -0.2611
 4836SOL    HW125967   3.363   1.926   9.042 -1.3912  0.2813 -1.7301
 4836SOL    HW225968   3.346   2.064   9.063 -0.0213  0.1742 -0.5003
 4837SOL     OW25969   0.135   4.323  11.862  0.2376  0.3347 -0.0568
 4837SOL    HW125970   0.171   4.349  11.777  2.4335  2.6997  1.6015
 4837SOL    HW225971   0.207   4.345  11.922 -0.1337  0.8692  0.1876
 4838SOL     OW25972   1.690   2.621   4.141 -0.2881 -0.0081  0.3413
 4838SOL    HW125973   1.605   2.664   4.138  0.8518  2.2974  1.0509
 4838SOL    HW225974   1.689   2.583   4.053  1.2807  0.0578  0.2974
 4839SOL     OW25975   1.302   0.737  13.841  0.0030 -0.3284 -0.2627
 4839SOL    HW125976   1.299   0.779  13.756 -2.2347 -2.3331 -1.1474
 4839SOL    HW225977   1.287   0.815  13.895  1.1699  0.4008 -0.9850
 4840SOL     OW25978   0.062   4.191   9.129  0.1160  0.0231  0.0663
 4840SOL    HW125979   0.001   4.216   9.198 -0.5356  0.7212 -0.7642
 4840SOL    HW225980   0.008   4.122   9.090 -0.9459  0.8065  0.1388
 4841SOL     OW25981   4.463   3.438   5.835  0.1350 -0.0467  0.6712
 4841SOL    HW125982   4.377   3.476   5.817  0.8735  0.4172 -1.9618
 4841SOL    HW225983   4.486   3.490   5.912  0.1088  3.1209 -1.4369
 4842SOL     OW25984   0.604   2.596   1.340  0.0381 -0.4579 -0.2167
 4842SOL    HW125985   0.549   2.566   1.268 -0.0912 -0.5906 -0.0631
 4842SOL    HW225986   0.669   2.526   1.332 -0.1985 -0.5897 -0.9276
 4843SOL     OW25987   2.480   3.853   5.066 -0.1942  0.3273 -0.0907
 4843SOL    HW125988   2.479   3.889   5.154 -1.4520 -0.2411  0.1254
 4843SOL    HW225989   2.409   3.791   5.079 -0.5204  0.2807 -2.0367
 4844SOL     OW25990   4.365   3.600  16.667  0.2402  0.0029 -0.0222
 4844SOL    HW125991   4.296   3.534  16.677 -0.3011  0.5080 -0.3712
 4844SOL    HW225992   4.337   3.684  16.704 -0.6714  0.7407 -2.3675
 4845SOL     OW25993   4.096   4.164   4.765 -0.5303 -1.0843 -0.3032
 4845SOL    HW125994   4.015   4.114   4.754 -2.2476  1.6801 -0.1564
 4845SOL    HW225995   4.070   4.252   4.739  3.3981  0.1154 -0.1571
 4846SOL     OW25996   3.304   2.380   3.699 -0.1850 -0.4737  0.1884
 4846SOL    HW125997   3.348   2.461   3.726  1.0468 -1.4998  1.2889
 4846SOL    HW225998   3.260   2.352   3.780  1.4293 -2.4902  0.3461
 4847SOL     OW25999   0.170   0.070  16.392 -0.2168 -0.1572  0.2299
 4847SOL    HW126000   0.138   0.140  16.334  2.3244  0.0831 -0.8748
 4847SOL    HW226001   0.264   0.084  16.397 -0.2079 -0.5673  1.2516
 4848SOL     OW26002   2.408   3.776   1.567 -0.2073 -0.0886  0.0430
 4848SOL    HW126003   2.405   3.710   1.497  1.1181 -0.0807 -0.0198
 4848SOL    HW226004   2.315   3.783   1.589 -0.0877 -0.6819  0.7224
 4849SOL     OW26005   0.385   3.619   5.131  0.0130  0.2936  0.1690
 4849SOL    HW126006   0.418   3.695   5.083 -1.4328  0.2989 -0.8326
 4849SOL    HW226007   0.309   3.594   5.078  0.8205 -1.9964  0.1191
 4850SOL     OW26008   1.235   3.807   5.309  0.2289 -0.4880  0.6672
 4850SOL    HW126009   1.234   3.779   5.401  1.4888 -0.8447  0.5750
 4850SOL    HW226010   1.160   3.866   5.310 -1.2433 -2.3418 -2.6003
 4851SOL     OW26011   2.371   4.640   5.581  0.9011  0.0422  0.3292
 4851SOL    HW126012   2.379   4.632   5.676  2.3104  1.1873  0.2973
 4851SOL    HW226013   2.357   4.547   5.559 -1.0780  0.1793  1.0306
 4852SOL     OW26014   1.484   1.529  16.570  0.6659  0.6988 -0.2298
 4852SOL    HW126015   1.448   1.478  16.642  0.9423 -0.7519 -1.1153
 4852SOL    HW226016   1.508   1.609  16.617  0.1865  0.2282  0.8006
 4853SOL     OW26017   2.416   2.964   2.657  0.0722  0.3178  0.4738
 4853SOL    HW126018   2.431   2.967   2.563 -1.1588  2.1944  0.3210
 4853SOL    HW226019   2.342   3.024   2.666 -0.1518  0.0544  0.3986
 4854SOL     OW26020   3.751   4.379   4.613 -0.5793 -0.6357 -0.0121
 4854SOL    HW126021   3.691   4.438   4.660 -0.8317 -1.0403  0.1711
 4854SOL    HW226022   3.828   4.434   4.595 -0.1283 -1.7339 -1.4057
 4855SOL     OW26023   1.508   4.166   5.294 -0.1043  0.3916  0.1226
 4855SOL    HW126024   1.590   4.213   5.279 -0.2238  0.5027 -0.1956
 4855SOL    HW226025   1.456   4.242   5.319 -1.5737 -0.2836 -0.8829
 4856SOL     OW26026   3.875   3.722  14.136 -0.3495 -0.0834  1.1150
 4856SOL    HW126027   3.945   3.666  14.168 -0.1372  0.0421  0.8697
 4856SOL    HW226028   3.829   3.727  14.219  1.1988  1.8019  1.8524
 4857SOL     OW26029   4.475   1.695   2.911 -0.5052  0.9799 -0.2075
 4857SOL    HW126030   4.539   1.626   2.925 -0.7375  0.4512 -1.7369
 4857SOL    HW226031   4.468   1.689   2.816 -0.1971 -0.0921 -0.1611
 4858SOL     OW26032   1.973   4.209   7.451  0.6173  0.3817  0.1554
 4858SOL    HW126033   2.035   4.196   7.380  1.1847 -1.4322  0.9737
 4858SOL    HW226034   1.934   4.124   7.433  0.9634  0.6182 -1.6217
 4859SOL     OW26035   2.992   0.528   4.165  0.2394  0.1296 -0.5017
 4859SOL    HW126036   2.996   0.516   4.260  0.3841  1.8087 -0.2876
 4859SOL    HW226037   2.898   0.518   4.147  0.1036 -1.9839  1.3991
 4860SOL     OW26038   0.389   1.430   0.838  0.0629 -0.1954 -0.5332
 4860SOL    HW126039   0.336   1.361   0.798 -1.0707 -0.5632  1.5711
 4860SOL    HW226040   0.332   1.502   0.812  1.2425  1.4993  1.5590
 4861SOL     OW26041   4.624   0.647   6.112 -0.2799  0.4797  0.4915
 4861SOL    HW126042   4.573   0.607   6.041  0.3363 -1.2900  1.0518
 4861SOL    HW226043   4.674   0.709   6.059  0.4146 -0.2553  0.2971
 4862SOL     OW26044   0.902   3.285   4.839 -0.0063  0.2724 -0.1025
 4862SOL    HW126045   0.922   3.249   4.925  0.5270 -0.8351 -0.6816
 4862SOL    HW226046   0.921   3.379   4.848  0.5750  0.0204  1.1986
 4863SOL     OW26047   0.447   2.642  15.134  0.0605 -0.4679  0.3720
 4863SOL    HW126048   0.498   2.568  15.167  2.0083  0.2694 -0.9392
 4863SOL    HW226049   0.382   2.667  15.199  0.3467 -1.1894  0.9306
 4864SOL     OW26050   3.825   4.045   3.417 -0.0105 -0.0103 -0.0159
 4864SOL    HW126051   3.894   4.048   3.350 -0.6472  1.7813 -0.6067
 4864SOL    HW226052   3.779   3.964   3.397  0.7942 -0.3580 -0.4825
 4865SOL     OW26053   3.970   4.101   3.139 -0.0906  0.1921  0.6993
 4865SOL    HW126054   3.883   4.083   3.106  0.2006 -0.8928  0.5370
 4865SOL    HW226055   3.977   4.194   3.116  0.8161 -0.1693 -0.5279
 4866SOL     OW26056   2.634   1.850  13.631  0.3163  0.0173  0.4786
 4866SOL    HW126057   2.711   1.879  13.679 -0.3961  1.4755  0.7538
 4866SOL    HW226058   2.636   1.759  13.662  0.5605 -0.5455 -1.2167
 4867SOL     OW26059   2.070   2.999   6.908 -0.1787  0.0508  0.2201
 4867SOL    HW126060   2.147   2.997   6.851 -1.5027  1.6955 -1.5944
 4867SOL    HW226061   2.038   2.913   6.880  1.6383 -0.4364 -0.4226
 4868SOL     OW26062   1.342   2.036   6.043 -0.0538  0.2807 -0.0538
 4868SOL    HW126063   1.286   1.979   6.096 -1.0483  1.1413 -0.1926
 4868SOL    HW226064   1.378   1.968   5.986 -0.8965  0.1096 -0.3846
 4869SOL     OW26065   2.784   1.745   4.748  0.2361 -0.0952 -0.1827
 4869SOL    HW126066   2.755   1.662   4.709  1.6757 -0.1667 -1.1164
 4869SOL    HW226067   2.707   1.796   4.772  0.6573 -0.0860  1.1869
 4870SOL     OW26068   2.345   0.119   7.837  0.1567 -0.5036 -0.6481
 4870SOL    HW126069   2.264   0.101   7.885 -0.8296  3.4294 -0.7992
 4870SOL    HW226070   2.410   0.102   7.905  0.4871  0.9775 -0.5801
 4871SOL     OW26071   1.470   1.582   5.206  0.2780  0.0860  0.2119
 4871SOL    HW126072   1.561   1.591   5.233  0.8387 -0.0894 -1.6115
 4871SOL    HW226073   1.432   1.666   5.232  2.2773  0.8275  0.7041
 4872SOL     OW26074   3.650   1.569   5.873 -0.4425  0.1070  0.2698
 4872SOL    HW126075   3.650   1.648   5.819 -0.8525  0.1750  0.3646
 4872SOL    HW226076   3.745   1.560   5.880 -0.1380  3.1240 -0.0483
 4873SOL     OW26077   0.034   1.996  17.650  0.4910  0.1532  0.5837
 4873SOL    HW126078   0.097   2.043   0.016 -0.3515  0.9374  0.8859
 4873SOL    HW226079   4.688   2.061  17.632  0.6598 -0.6032 -2.7571
 4874SOL     OW26080   2.098   3.565  17.514 -0.0152 -0.1590  0.3478
 4874SOL    HW126081   2.013   3.585  17.554 -0.7720 -0.5811 -1.0648
 4874SOL    HW226082   2.100   3.470  17.525 -1.5045 -0.5074 -2.6350
 4875SOL     OW26083   3.769   2.893   4.452 -0.1216 -0.3892 -0.5071
 4875SOL    HW126084   3.686   2.862   4.486  0.4913 -0.3146  1.0568
 4875SOL    HW226085   3.794   2.827   4.387 -2.2801 -1.0737 -0.6126
 4876SOL     OW26086   0.109   2.519   5.226  0.3192 -0.0642 -0.8051
 4876SOL    HW126087   0.021   2.547   5.251  1.1542  1.5043  0.3604
 4876SOL    HW226088   0.127   2.570   5.148  3.4890 -2.3035 -1.5341
 4877SOL     OW26089   2.708   0.445   0.144 -0.4716  0.5331 -0.2786
 4877SOL    HW126090   2.718   0.458   0.049 -1.7431 -0.6647 -0.5838
 4877SOL    HW226091   2.625   0.398   0.144  0.7525 -1.6021  1.6131
 4878SOL     OW26092   2.461   3.288   5.681  0.0620  0.0471 -0.0611
 4878SOL    HW126093   2.472   3.316   5.590 -0.1005 -1.3093 -0.5033
 4878SOL    HW226094   2.418   3.365   5.719  0.8416  2.0158 -3.1956
 4879SOL     OW26095   0.707   0.695   7.440  0.0020  0.0591  0.1657
 4879SOL    HW126096   0.801   0.713   7.430  0.4970 -1.9271  1.2339
 4879SOL    HW226097   0.689   0.657   7.354 -0.0280  0.3453  0.0448
 4880SOL     OW26098   0.018   1.731   8.092 -0.1780 -0.8863  0.1977
 4880SOL    HW126099   4.666   1.686   8.134  0.3713 -2.2415 -0.3265
 4880SOL    HW226100   0.010   1.694   8.004  1.5079  0.4508 -0.5331
 4881SOL     OW26101   1.202   4.674   6.814 -0.0374  0.2539  0.2158
 4881SOL    HW126102   1.134   0.021   6.812 -2.0829 -1.8629 -2.0016
 4881SOL    HW226103   1.270   0.010   6.849 -0.6199  1.4367 -0.5986
 4882SOL     OW26104   4.437   3.862   2.409 -0.2326  0.0691  0.1370
 4882SOL    HW126105   4.508   3.926   2.414  0.0532 -0.3410  1.3776
 4882SOL    HW226106   4.385   3.897   2.336 -2.0354 -0.8070  0.9973
 4883SOL     OW26107   4.500   2.203   7.561  0.8996 -0.0451  0.0382
 4883SOL    HW126108   4.475   2.191   7.469 -0.0933 -2.1934  0.5926
 4883SOL    HW226109   4.419   2.181   7.607  0.6211 -0.5162 -0.6770
 4884SOL     OW26110   2.142   1.162  11.182 -0.1679  0.1841  0.2557
 4884SOL    HW126111   2.202   1.097  11.144 -2.6672 -0.5945 -2.3347
 4884SOL    HW226112   2.135   1.230  11.116 -0.4597 -0.1242 -0.0265
 4885SOL     OW26113   2.623   1.266   7.665 -0.7883  0.0742 -0.4091
 4885SOL    HW126114   2.597   1.179   7.634  0.4946 -0.4128 -0.1159
 4885SOL    HW226115   2.647   1.305   7.581  1.5262  0.1732  0.3087
 4886SOL     OW26116   2.101   1.807  11.333 -0.4288  0.0372  0.5637
 4886SOL    HW126117   2.104   1.801  11.238 -0.1966  0.5478  0.5388
 4886SOL    HW226118   2.006   1.802  11.349 -0.8259  0.5906 -1.6239
 4887SOL     OW26119   2.276   0.962   6.325 -0.2022 -0.5002  0.0757
 4887SOL    HW126120   2.288   1.015   6.404 -1.1197  1.8919 -1.3665
 4887SOL    HW226121   2.221   1.018   6.270  1.1184 -2.0586 -2.7770
 4888SOL     OW26122   0.097   3.346   1.216  0.4097  0.1487 -0.4003
 4888SOL    HW126123   0.048   3.407   1.271 -0.6798 -1.8151  0.7896
 4888SOL    HW226124   0.032   3.297   1.165  0.7533 -1.1065  0.3634
 4889SOL     OW26125   3.728   1.677   2.943 -0.8262 -0.2776  0.0591
 4889SOL    HW126126   3.736   1.713   2.855 -4.9921  1.0830  0.2283
 4889SOL    HW226127   3.680   1.599   2.915 -0.5923 -0.5420  0.3815
 4890SOL     OW26128   1.817   0.882  16.588 -0.0097  0.2382  0.2071
 4890SOL    HW126129   1.748   0.912  16.529  0.9534  0.5943 -0.7382
 4890SOL    HW226130   1.864   0.964  16.604 -0.3206  0.4503  0.0394
 4891SOL     OW26131   2.878   1.534   0.435  0.2192 -0.1893  0.7973
 4891SOL    HW126132   2.942   1.549   0.504 -1.1221 -0.3793  2.0827
 4891SOL    HW226133   2.823   1.611   0.447  1.3226  0.5532  1.0867
 4892SOL     OW26134   2.944   3.674   4.114 -0.3987  0.3805  0.0010
 4892SOL    HW126135   2.983   3.748   4.160  1.2928 -2.0648  2.4503
 4892SOL    HW226136   2.979   3.697   4.028 -0.3724 -3.2178 -0.9330
 4893SOL     OW26137   0.645   3.530   8.465 -0.0773  0.5580  0.0966
 4893SOL    HW126138   0.683   3.605   8.420 -1.9391  1.1290 -0.5012
 4893SOL    HW226139   0.719   3.472   8.483 -1.1128 -0.9990 -0.6415
 4894SOL     OW26140   0.988   3.159   5.201  0.4606  0.6750  0.3840
 4894SOL    HW126141   0.909   3.135   5.250 -0.2485 -1.0279 -1.5978
 4894SOL    HW226142   1.059   3.150   5.265 -0.2138  1.4329  1.2503
 4895SOL     OW26143   4.525   1.297   8.498 -0.3419  0.1832  0.0140
 4895SOL    HW126144   4.484   1.279   8.414  1.8330 -0.9443 -0.8071
 4895SOL    HW226145   4.454   1.346   8.540 -1.2132 -1.5114  0.5070
 4896SOL     OW26146   0.924   4.475   7.230 -0.6330  0.1714  0.2908
 4896SOL    HW126147   0.954   4.469   7.139 -0.1864 -0.5006  0.4819
 4896SOL    HW226148   1.001   4.451   7.282  0.1071 -0.2444 -0.9921
 4897SOL     OW26149   3.764   1.429   6.945  1.0949 -0.6506 -0.0238
 4897SOL    HW126150   3.708   1.378   6.887  0.8955 -1.5724  0.9711
 4897SOL    HW226151   3.728   1.413   7.032 -1.1148 -1.5291 -1.1081
 4898SOL     OW26152   0.269   3.752   1.579 -0.1146 -0.1185 -0.2306
 4898SOL    HW126153   0.354   3.793   1.592  0.1051 -0.3315 -1.0490
 4898SOL    HW226154   0.222   3.806   1.516 -2.3881  0.5428  2.0035
 4899SOL     OW26155   4.368   2.660   2.325 -0.1458  0.1019 -0.2647
 4899SOL    HW126156   4.437   2.638   2.263 -0.4739 -0.2533 -0.5081
 4899SOL    HW226157   4.323   2.578   2.346 -0.7011  0.8566  1.5552
 4900SOL     OW26158   1.622   4.079   9.203 -0.8960 -0.3303  0.4982
 4900SOL    HW126159   1.607   4.119   9.288 -0.2165 -2.9583  1.8563
 4900SOL    HW226160   1.655   4.155   9.154 -3.6073 -1.0857 -2.4724
 4901SOL     OW26161   4.383   0.168   3.618 -0.1514 -0.6188  0.5867
 4901SOL    HW126162   4.417   0.250   3.582 -0.2040 -0.1028  1.7256
 4901SOL    HW226163   4.308   0.140   3.565 -0.7188 -0.5016  1.3280
 4902SOL     OW26164   4.536   3.377   8.764 -0.8286  0.5687 -0.4733
 4902SOL    HW126165   4.463   3.403   8.821  0.7506  2.6156  0.6190
 4902SOL    HW226166   4.574   3.462   8.745  0.7116 -0.1153 -0.4156
 4903SOL     OW26167   2.761   0.531   8.520 -0.3470  0.6206 -0.7161
 4903SOL    HW126168   2.723   0.458   8.472  3.0484 -1.8747  0.3390
 4903SOL    HW226169   2.704   0.607   8.508 -1.8482  0.0148  2.8458
 4904SOL     OW26170   3.931   0.743   4.790 -0.0234 -0.0264 -0.1765
 4904SOL    HW126171   4.007   0.704   4.747 -0.3909  2.0013 -2.6360
 4904SOL    HW226172   3.898   0.812   4.732  0.9254  1.9460  1.6163
 4905SOL     OW26173   1.951   1.016   7.648 -0.7863 -0.6332  0.4536
 4905SOL    HW126174   1.867   0.995   7.608  0.7081 -1.1264 -2.4778
 4905SOL    HW226175   1.986   1.067   7.574  2.1829  0.1326  2.3781
 4906SOL     OW26176   4.192   0.114   4.793 -0.3008 -0.2922  0.3848
 4906SOL    HW126177   4.203   0.123   4.888  1.1821 -1.7358  0.3471
 4906SOL    HW226178   4.097   0.127   4.791 -0.2734  0.3434  3.0788
 4907SOL     OW26179   2.358   2.689   2.527  0.4313  0.1871  0.1227
 4907SOL    HW126180   2.390   2.736   2.604 -0.8622  0.8006  0.2880
 4907SOL    HW226181   2.337   2.764   2.471  2.7239  0.0447 -0.9318
 4908SOL     OW26182   0.325   1.353   6.350  0.1172 -0.5734  0.7122
 4908SOL    HW126183   0.329   1.355   6.446  0.6074 -0.2598  0.6797
 4908SOL    HW226184   0.251   1.293   6.339 -0.6786  1.0277 -2.3788
 4909SOL     OW26185   2.228   3.596  12.913  0.5176 -0.0819  0.3505
 4909SOL    HW126186   2.229   3.553  12.998  0.7246 -0.7539  0.0106
 4909SOL    HW226187   2.320   3.584  12.889 -0.5243 -2.5324 -2.4556
 4910SOL     OW26188   0.321   4.307   6.264 -0.3021 -0.6293  0.4404
 4910SOL    HW126189   0.316   4.400   6.286 -0.0773 -0.2653 -1.1143
 4910SOL    HW226190   0.316   4.267   6.351 -1.6626 -1.2780  0.0559
 4911SOL     OW26191   1.861   2.292  11.920 -0.1369  0.3829  0.1180
 4911SOL    HW126192   1.950   2.319  11.899  0.0534 -0.1918  0.1706
 4911SOL    HW226193   1.874   2.209  11.966 -1.2436  0.5937  0.8278
 4912SOL     OW26194   1.288   1.537   3.947  0.0121 -0.5145  1.0195
 4912SOL    HW126195   1.200   1.541   3.908  1.3343  1.1452 -1.7952
 4912SOL    HW226196   1.343   1.506   3.875  1.1933  3.5512  0.1996
 4913SOL     OW26197   3.151   1.843  12.711  0.0398  0.0562 -0.0121
 4913SOL    HW126198   3.063   1.845  12.748  0.0013 -2.2304 -0.0002
 4913SOL    HW226199   3.195   1.835  12.795  1.0965 -0.3113 -0.6017
 4914SOL     OW26200   0.955   4.085   7.290  0.6018  0.0792 -0.3111
 4914SOL    HW126201   0.967   4.102   7.196 -0.7161 -1.1456 -0.7040
 4914SOL    HW226202   0.876   4.138   7.289  2.4348  2.8500  0.5220
 4915SOL     OW26203   3.804   3.902  15.150  0.7074 -0.4961 -0.4163
 4915SOL    HW126204   3.761   3.916  15.066  1.9814 -1.6425 -1.2444
 4915SOL    HW226205   3.883   3.956  15.148 -1.0837  2.1521  0.6885
 4916SOL     OW26206   0.624   3.023   2.815  0.5662 -0.6134 -0.7653
 4916SOL    HW126207   0.572   3.086   2.865  2.7014 -0.0803  0.8010
 4916SOL    HW226208   0.714   3.045   2.841 -0.3279  3.4376 -1.1960
 4917SOL     OW26209   0.545   0.358   4.143 -0.5502  0.2876  0.1243
 4917SOL    HW126210   0.573   0.338   4.233  1.2031 -0.8539 -0.6847
 4917SOL    HW226211   0.530   0.267   4.120 -1.9505  0.1641  1.4916
 4918SOL     OW26212   2.420   0.486   7.466 -0.2408 -0.4916 -0.4571
 4918SOL    HW126213   2.355   0.511   7.532  1.3048 -0.7390  1.1672
 4918SOL    HW226214   2.443   0.564   7.414  4.8828 -0.5970  1.6430
 4919SOL     OW26215   4.161   3.152  10.595  0.4262  0.2889  0.4351
 4919SOL    HW126216   4.215   3.201  10.656  1.0890  0.1288 -0.0233
 4919SOL    HW226217   4.232   3.123  10.537  0.3913  1.0229  0.0276
 4920SOL     OW26218   3.596   4.438   6.704 -0.2635  0.0243  0.0740
 4920SOL    HW126219   3.615   4.491   6.782 -1.4103 -1.9507  1.6921
 4920SOL    HW226220   3.681   4.430   6.660 -0.1318 -0.5509  0.4347
 4921SOL     OW26221   0.062   2.964  15.034  0.0630 -0.0144 -0.8536
 4921SOL    HW126222   0.057   3.004  14.946  0.4681 -0.6855 -1.1785
 4921SOL    HW226223   0.146   2.918  15.032  0.9403  1.6369 -1.7230
 4922SOL     OW26224   3.703   2.051  16.551  0.1570  0.2435 -0.0789
 4922SOL    HW126225   3.684   2.016  16.464 -0.2292 -0.9058  0.4768
 4922SOL    HW226226   3.768   1.987  16.579 -0.1224 -0.0521 -0.1001
 4923SOL     OW26227   3.411   1.125   4.448  0.2327  0.3869  0.0275
 4923SOL    HW126228   3.379   1.153   4.533  2.2165  2.4840  0.1017
 4923SOL    HW226229   3.506   1.132   4.459  0.2428  1.1745 -0.5879
 4924SOL     OW26230   1.485   2.213  11.389 -0.0426  0.5060 -0.1342
 4924SOL    HW126231   1.565   2.249  11.352  1.0947  0.1574  1.9801
 4924SOL    HW226232   1.434   2.292  11.401  1.3356  1.5597 -1.2234
 4925SOL     OW26233   0.505   2.001   7.831  0.2868 -0.2639 -0.3271
 4925SOL    HW126234   0.498   2.004   7.736  3.4004  2.8056 -0.4455
 4925SOL    HW226235   0.413   1.988   7.854 -0.0372  1.2636 -0.7821
 4926SOL     OW26236   4.521   0.782   2.834 -0.0651 -0.0155  0.3403
 4926SOL    HW126237   4.429   0.778   2.807 -0.2085 -2.1879  1.1205
 4926SOL    HW226238   4.559   0.697   2.812  0.3876  0.7161 -1.6606
 4927SOL     OW26239   1.114   2.204   9.604 -0.4667  0.3145  0.2591
 4927SOL    HW126240   1.020   2.217   9.589 -0.7155 -2.8523 -1.0297
 4927SOL    HW226241   1.144   2.294   9.610 -1.4967  0.7447 -1.0325
 4928SOL     OW26242   2.724   0.112   4.367 -0.6946  0.2110 -0.1946
 4928SOL    HW126243   2.727   0.120   4.272  2.2510  1.2204 -0.0284
 4928SOL    HW226244   2.651   0.051   4.377  1.0911 -1.8981  0.1730
 4929SOL     OW26245   2.727   2.338  13.891  0.5406  0.0442  0.0835
 4929SOL    HW126246   2.705   2.405  13.955 -0.3525  0.2730 -0.4537
 4929SOL    HW226247   2.745   2.398  13.819 -0.6306 -0.8463 -0.9690
 4930SOL     OW26248   0.057   1.910   1.939  0.3782 -0.3531  0.7066
 4930SOL    HW126249   0.082   1.819   1.959 -2.2591 -1.2645 -0.1006
 4930SOL    HW226250   0.099   1.945   2.018  1.3962  1.8837 -0.8304
 4931SOL     OW26251   2.693   1.367   8.747 -1.2604 -0.2477 -0.1673
 4931SOL    HW126252   2.737   1.449   8.724 -3.9012  1.2513  0.1835
 4931SOL    HW226253   2.766   1.315   8.780 -0.2917  1.7262  0.7900
 4932SOL     OW26254   3.902   0.097   5.437 -0.1258 -0.0808  0.3168
 4932SOL    HW126255   3.967   0.070   5.502 -1.7609  0.5874  2.2145
 4932SOL    HW226256   3.825   0.112   5.492  1.0178 -0.0264  1.9242
 4933SOL     OW26257   4.196   4.633   7.918 -0.4645 -0.4538  0.0895
 4933SOL    HW126258   4.141   4.710   7.932 -0.1865  0.2320 -2.4677
 4933SOL    HW226259   4.148   4.571   7.973 -1.2525 -0.2608 -0.3639
 4934SOL     OW26260   3.877   3.022   7.795 -0.3352 -0.1850  0.2953
 4934SOL    HW126261   3.861   2.991   7.884 -0.8320 -2.0360 -0.4473
 4934SOL    HW226262   3.944   3.084   7.827 -1.2256  1.4665 -1.0386
 4935SOL     OW26263   4.336   0.100   2.699 -0.3351 -0.0396 -0.1631
 4935SOL    HW126264   4.338   0.183   2.652  0.0173  0.2059  0.2912
 4935SOL    HW226265   4.276   0.064   2.633 -1.5310 -1.6567  1.8274
 4936SOL     OW26266   0.774   0.638  11.214  0.3758  0.5138  0.3800
 4936SOL    HW126267   0.830   0.713  11.234 -0.2489  0.8767  0.7437
 4936SOL    HW226268   0.789   0.597  11.299 -1.4312 -0.9695 -0.0155
 4937SOL     OW26269   1.619   0.552   2.421  0.5074 -0.9933 -0.3414
 4937SOL    HW126270   1.548   0.594   2.373 -1.1467 -1.4206  1.7593
 4937SOL    HW226271   1.612   0.589   2.509 -0.2727 -1.6370 -0.1436
 4938SOL     OW26272   2.296   3.884  13.730  0.1514 -0.0214  0.0258
 4938SOL    HW126273   2.260   3.809  13.778 -0.2173 -0.0610 -0.3109
 4938SOL    HW226274   2.309   3.849  13.642  2.7075  1.0128 -0.0126
 4939SOL     OW26275   0.424   2.085   2.851 -0.2551  0.6713  0.2378
 4939SOL    HW126276   0.517   2.063   2.858 -0.8596 -2.3144 -0.9873
 4939SOL    HW226277   0.398   2.117   2.937  0.3460  0.5152  0.4720
 4940SOL     OW26278   3.762   4.548  12.794 -0.6041 -0.6459  0.1353
 4940SOL    HW126279   3.682   4.597  12.815  0.6782  1.2469  0.6352
 4940SOL    HW226280   3.723   4.465  12.768  1.0331 -1.4823  0.3431
 4941SOL     OW26281   3.082   4.443   1.225 -0.2217 -0.3056 -0.3413
 4941SOL    HW126282   3.012   4.505   1.245 -0.4829 -0.3702 -1.0517
 4941SOL    HW226283   3.135   4.440   1.305  1.3578 -0.8341 -1.4213
 4942SOL     OW26284   3.829   0.614  14.728  0.3883 -0.1771  0.1867
 4942SOL    HW126285   3.861   0.524  14.726 -2.0275 -1.0704  0.8783
 4942SOL    HW226286   3.799   0.609  14.819  1.8638 -1.5570  0.5921
 4943SOL     OW26287   3.014   3.604  10.072 -0.4288 -0.2685  0.3852
 4943SOL    HW126288   3.020   3.638  10.161 -0.1418 -0.9633  0.6290
 4943SOL    HW226289   3.106   3.614  10.051 -1.0856  0.9988 -1.8615
 4944SOL     OW26290   3.448   2.032   7.229 -0.3587  0.0382  0.1285
 4944SOL    HW126291   3.371   2.087   7.239 -0.6284 -0.1218 -1.1856
 4944SOL    HW226292   3.521   2.091   7.212 -0.9436  0.7188  0.0030
 4945SOL     OW26293   2.994   2.544  10.599 -0.1828  0.4749  0.2041
 4945SOL    HW126294   3.087   2.567  10.609 -0.5921  2.0663  0.2040
 4945SOL    HW226295   2.953   2.586  10.674 -0.9148  0.2456 -0.0658
 4946SOL     OW26296   2.732   4.271  16.789 -0.9747  0.0244 -0.2784
 4946SOL    HW126297   2.720   4.289  16.883  0.8504  3.4038 -0.6829
 4946SOL    HW226298   2.823   4.298  16.776 -1.2986  1.8197  1.0380
 4947SOL     OW26299   3.846   0.847   7.673  0.0199 -0.0499  0.0929
 4947SOL    HW126300   3.832   0.872   7.764 -0.4749  0.8752 -0.2307
 4947SOL    HW226301   3.937   0.876   7.666 -0.0632  0.5137  1.3217
 4948SOL     OW26302   0.585   2.525   4.421  0.3244 -0.1786 -0.0887
 4948SOL    HW126303   0.537   2.598   4.458 -0.1974 -0.6362  0.1275
 4948SOL    HW226304   0.537   2.451   4.458  1.1854  0.1497  1.6527
 4949SOL     OW26305   4.625   4.247   8.563  0.4468  0.1515  0.0671
 4949SOL    HW126306   4.530   4.256   8.575  0.4853 -2.8985  2.5067
 4949SOL    HW226307   4.647   4.241   8.656  0.5290 -2.8975 -0.1505
 4950SOL     OW26308   3.982   1.563  14.104  0.0825  0.2737 -0.1327
 4950SOL    HW126309   3.966   1.483  14.053 -1.5243  0.3001  0.3399
 4950SOL    HW226310   4.034   1.607  14.038  1.5022  0.3211  1.0211
 4951SOL     OW26311   1.459   3.748   6.746 -0.4434  0.4139  0.2533
 4951SOL    HW126312   1.541   3.796   6.745 -1.0945  1.5273  0.1677
 4951SOL    HW226313   1.402   3.810   6.792  1.6624  2.6462 -0.1710
 4952SOL     OW26314   0.256   2.034  12.896 -0.4570 -0.3516 -0.2920
 4952SOL    HW126315   0.227   1.968  12.833  0.4502  0.9242 -2.0279
 4952SOL    HW226316   0.340   1.998  12.923  0.0252  1.2554  0.2985
 4953SOL     OW26317   3.954   0.008   2.965 -0.4139 -0.1751 -0.3102
 4953SOL    HW126318   3.971   4.661   2.900  1.8218 -1.4684  1.6755
 4953SOL    HW226319   3.925   0.082   2.910 -2.1267 -1.0736 -0.6343
 4954SOL     OW26320   2.868   0.070  10.054  0.3537  0.3322  0.0305
 4954SOL    HW126321   2.799   0.019  10.096 -1.1826  1.0855 -1.5779
 4954SOL    HW226322   2.820   0.092   9.975  1.4600  1.2776 -0.3920
 4955SOL     OW26323   2.767   3.988   4.682 -0.2087 -0.4704  0.6805
 4955SOL    HW126324   2.736   3.932   4.754  2.2240 -2.8991 -0.1618
 4955SOL    HW226325   2.797   3.923   4.619 -3.2004 -0.9414 -0.2719
 4956SOL     OW26326   4.637   3.553   8.262 -0.9610 -0.2780 -0.3828
 4956SOL    HW126327   4.591   3.582   8.340 -0.4158 -0.1858 -0.0954
 4956SOL    HW226328   4.668   3.636   8.225 -1.0654 -0.0787 -0.0145
 4957SOL     OW26329   0.612   3.638  12.816  0.1327  0.1729 -0.0658
 4957SOL    HW126330   0.633   3.667  12.727  1.8365 -1.3735 -0.1698
 4957SOL    HW226331   0.554   3.566  12.792  1.6787 -1.0022 -0.2431
 4958SOL     OW26332   1.394   4.545   0.266 -0.2896 -0.0021 -0.5344
 4958SOL    HW126333   1.412   4.602   0.341  0.5977 -0.0273 -0.7277
 4958SOL    HW226334   1.378   4.612   0.200 -0.3451  1.2078  0.6914
 4959SOL     OW26335   2.443   0.825  10.307 -0.0784 -0.1038  0.5312
 4959SOL    HW126336   2.412   0.915  10.311  0.1665 -0.0432  0.9973
 4959SOL    HW226337   2.359   0.782  10.325 -0.2461  0.5683  1.3386
 4960SOL     OW26338   1.367   3.962  15.025  0.4135 -0.5673 -0.1438
 4960SOL    HW126339   1.425   4.034  15.053 -2.5323  0.9445  2.0822
 4960SOL    HW226340   1.415   3.888  14.988 -0.6274 -0.5701 -1.4789
 4961SOL     OW26341   1.587   4.605   4.370 -0.4294 -0.0063  0.5951
 4961SOL    HW126342   1.562   4.515   4.351  1.2604 -0.2017 -0.6421
 4961SOL    HW226343   1.511   4.654   4.339  0.5887 -0.6808 -2.8872
 4962SOL     OW26344   4.386   4.692   4.577 -0.6055 -0.3007  0.0981
 4962SOL    HW126345   4.437   4.679   4.657  1.7340 -0.0904 -1.3677
 4962SOL    HW226346   4.456   4.721   4.519 -1.4718 -1.7032 -1.6460
 4963SOL     OW26347   0.856   3.505  13.227 -0.0482 -0.1836 -0.1332
 4963SOL    HW126348   0.817   3.431  13.181 -0.1212  1.3284 -2.4761
 4963SOL    HW226349   0.913   3.540  13.160  1.0631  0.4320  1.1387
 4964SOL     OW26350   1.933   4.170   5.332  0.3449  0.4182  0.1647
 4964SOL    HW126351   1.993   4.234   5.370  2.5484 -0.9635 -1.0201
 4964SOL    HW226352   1.943   4.094   5.390  0.7919  0.8037  0.6002
 4965SOL     OW26353   1.845   1.090  11.212 -0.5601 -0.0224 -0.3112
 4965SOL    HW126354   1.932   1.100  11.173  0.2648  1.0991  1.7968
 4965SOL    HW226355   1.845   1.000  11.243 -0.4649 -0.1071 -0.5583
 4966SOL     OW26356   0.931   0.917   8.191  0.7992 -0.1857  0.1427
 4966SOL    HW126357   0.952   0.948   8.103  0.6791 -1.3996 -0.3215
 4966SOL    HW226358   0.888   0.835   8.168 -0.8976  0.7359  0.0661
 4967SOL     OW26359   0.038   1.939  12.260 -0.0815  0.2914 -0.1186
 4967SOL    HW126360   4.689   1.975  12.313 -0.8186 -1.4399  0.0691
 4967SOL    HW226361   4.712   1.891  12.192  0.3790 -0.4956  0.1208
 4968SOL     OW26362   4.028   0.290  12.182  0.2333  0.3161 -0.4488
 4968SOL    HW126363   4.022   0.195  12.191 -0.5062  0.4813  0.7684
 4968SOL    HW226364   3.947   0.332  12.210  0.9682  2.2439 -1.1826
 4969SOL     OW26365   0.406   1.631  13.382  0.4948  0.5033  0.1165
 4969SOL    HW126366   0.398   1.715  13.427 -2.4790  0.2889 -0.0239
 4969SOL    HW226367   0.367   1.657  13.298  0.3207 -0.6478 -0.1552
 4970SOL     OW26368   2.710   4.399   5.588 -0.3090 -0.7081  0.4744
 4970SOL    HW126369   2.763   4.471   5.622  0.0314  0.0094 -1.6028
 4970SOL    HW226370   2.770   4.326   5.606 -1.2901 -1.7817 -0.6518
 4971SOL     OW26371   2.092   2.256  17.050  0.7433 -0.7055 -0.5110
 4971SOL    HW126372   2.123   2.323  17.111 -0.1139  1.6807 -2.6590
 4971SOL    HW226373   2.049   2.196  17.111  0.7867 -0.0772  0.1327
 4972SOL     OW26374   1.895   3.978   3.131  0.2285  0.3461 -0.4338
 4972SOL    HW126375   1.863   3.889   3.146  1.8064 -0.1605 -0.0326
 4972SOL    HW226376   1.925   4.002   3.219 -2.7325 -0.9341  0.9557
 4973SOL     OW26377   2.671   4.079   7.547  0.6304  0.1120  0.1506
 4973SOL    HW126378   2.728   4.007   7.522 -2.1480 -1.4504 -1.6615
 4973SOL    HW226379   2.723   4.156   7.524 -0.0478  0.3704 -0.5094
 4974SOL     OW26380   1.654   0.412   6.409  0.3406  0.5372  0.3741
 4974SOL    HW126381   1.624   0.324   6.428 -0.2621  0.5817 -0.3776
 4974SOL    HW226382   1.748   0.401   6.399  0.5931  1.1672  2.1856
 4975SOL     OW26383   3.597   4.100  11.139  0.2612  0.4029 -0.0186
 4975SOL    HW126384   3.554   4.160  11.078 -1.0224  2.0708  2.5475
 4975SOL    HW226385   3.687   4.131  11.126  0.3494  0.0862 -0.1722
 4976SOL     OW26386   0.282   2.595  10.643  0.2122 -0.3740  0.2765
 4976SOL    HW126387   0.291   2.569  10.551  1.9002  0.9454  0.0607
 4976SOL    HW226388   0.192   2.570  10.664 -0.3000 -1.8095 -3.6763
 4977SOL     OW26389   2.897   0.111   8.756  0.2924 -0.2294 -0.4555
 4977SOL    HW126390   2.974   0.058   8.778  0.5278  0.3845  0.2173
 4977SOL    HW226391   2.939   0.197   8.752 -0.9981  0.3305 -1.7624
 4978SOL     OW26392   4.167   3.395   4.866  0.3805 -0.6198 -0.5499
 4978SOL    HW126393   4.106   3.329   4.834  0.0182  0.0439 -1.2216
 4978SOL    HW226394   4.188   3.356   4.951 -1.2401  1.8902  1.0052
 4979SOL     OW26395   1.217   1.317   2.967 -0.8088 -0.2979 -0.0041
 4979SOL    HW126396   1.174   1.375   3.030 -1.4562 -0.4043 -0.3510
 4979SOL    HW226397   1.197   1.357   2.883  0.0549 -0.3801 -0.2476
 4980SOL     OW26398   1.638   4.201   0.803  0.4891  0.2462  0.0380
 4980SOL    HW126399   1.725   4.174   0.833  1.4640  1.5223 -1.6004
 4980SOL    HW226400   1.617   4.161   0.718  1.8814  1.8173 -1.0565
 4981SOL     OW26401   2.565   3.145   6.045  0.0284 -0.3542  0.0952
 4981SOL    HW126402   2.625   3.216   6.069 -3.1477  2.3695  0.0398
 4981SOL    HW226403   2.508   3.195   5.987 -0.4177 -0.9602  0.0133
 4982SOL     OW26404   1.038   1.423   4.266 -0.2456 -0.6373  0.0146
 4982SOL    HW126405   1.079   1.507   4.245  0.9176 -2.0198 -3.3291
 4982SOL    HW226406   1.015   1.386   4.180 -0.6057 -0.7353  0.1528
 4983SOL     OW26407   2.375   0.260  15.127  0.3890  0.3085  0.0309
 4983SOL    HW126408   2.404   0.288  15.214  0.1088 -3.5857  1.3783
 4983SOL    HW226409   2.282   0.271  15.147  0.3724 -0.7327  0.5444
 4984SOL     OW26410   1.896   1.495   1.116 -0.1603  0.3639 -0.1688
 4984SOL    HW126411   1.857   1.546   1.046 -1.6440 -2.8646 -1.7107
 4984SOL    HW226412   1.862   1.546   1.190 -0.5556  0.3560 -0.3448
 4985SOL     OW26413   2.897   3.412   4.924 -0.1124 -0.3565 -0.1964
 4985SOL    HW126414   2.832   3.399   4.993  0.0645 -0.3343 -0.0227
 4985SOL    HW226415   2.956   3.460   4.983  0.1210 -2.1276  1.0164
 4986SOL     OW26416   2.501   0.925   3.352  0.1614  0.3393  0.3833
 4986SOL    HW126417   2.472   0.976   3.276 -1.5967  1.2821  1.7077
 4986SOL    HW226418   2.566   0.868   3.310  1.2785  2.2068 -0.4266
 4987SOL     OW26419   3.193   0.779   0.332  0.1051  0.4155 -0.0434
 4987SOL    HW126420   3.270   0.789   0.275  0.7960 -0.1611  0.7917
 4987SOL    HW226421   3.226   0.794   0.421 -0.4117 -0.8195  0.3545
 4988SOL     OW26422   0.497   4.248   7.037  0.1990  0.5593 -0.5481
 4988SOL    HW126423   0.460   4.317   7.092 -0.8565 -0.7919  0.4246
 4988SOL    HW226424   0.419   4.198   7.014  0.5671 -1.2872  2.2091
 4989SOL     OW26425   0.034   2.485  13.605  0.3254 -0.3876  0.0139
 4989SOL    HW126426   4.665   2.506  13.581 -0.3814 -0.7017  2.3726
 4989SOL    HW226427   0.087   2.548  13.556  1.2759 -1.0950  0.1527
 4990SOL     OW26428   3.647   1.362  10.277  0.3472  0.7651 -0.4391
 4990SOL    HW126429   3.612   1.378  10.365 -1.0948 -1.1745 -0.6604
 4990SOL    HW226430   3.570   1.335  10.227  0.4574  0.3937 -0.4067
 4991SOL     OW26431   1.775   3.645  15.385  0.4894 -0.4575 -0.0432
 4991SOL    HW126432   1.808   3.643  15.295 -0.0215  1.0285 -0.2481
 4991SOL    HW226433   1.815   3.720  15.428  0.7961 -0.7105  0.1193
 4992SOL     OW26434   3.673   3.532   2.151  0.4250 -0.3412  0.4816
 4992SOL    HW126435   3.675   3.599   2.220  0.8366  0.4264 -0.2808
 4992SOL    HW226436   3.685   3.453   2.203  2.2224 -0.8917 -0.7837
 4993SOL     OW26437   4.344   2.235   8.209  0.1875 -0.0521 -0.4632
 4993SOL    HW126438   4.319   2.252   8.300 -0.9921 -2.8594 -0.2720
 4993SOL    HW226439   4.403   2.161   8.217  0.1622 -0.3633 -3.1587
 4994SOL     OW26440   4.340   4.241   7.265 -0.5641 -0.3190 -0.2937
 4994SOL    HW126441   4.421   4.189   7.261  0.3307  1.0334  0.4979
 4994SOL    HW226442   4.361   4.282   7.348 -0.8813  1.1653 -0.9407
 4995SOL     OW26443   3.411   0.642   9.006  0.4631  0.1967 -0.1388
 4995SOL    HW126444   3.339   0.696   9.039  1.1669  1.0961 -0.0781
 4995SOL    HW226445   3.419   0.691   8.924 -0.7992  0.1033 -0.3231
 4996SOL     OW26446   3.236   2.462   6.904 -0.6115 -0.7345 -0.2819
 4996SOL    HW126447   3.270   2.373   6.899  2.2893  0.1577  2.8394
 4996SOL    HW226448   3.184   2.458   6.825 -0.8268 -1.8929 -0.0705
 4997SOL     OW26449   4.607   2.194   6.868 -0.0346 -0.5128 -0.1942
 4997SOL    HW126450   4.631   2.284   6.889 -1.0564 -0.1909 -0.4149
 4997SOL    HW226451   4.659   2.187   6.788 -0.5787 -0.4580 -0.5517
 4998SOL     OW26452   4.715   2.016   6.272  0.1762  0.2423  0.1918
 4998SOL    HW126453   0.030   1.928   6.265  2.2603  1.0663  0.7200
 4998SOL    HW226454   4.693   2.014   6.365 -0.9680 -0.0711 -0.0881
 4999SOL     OW26455   4.323   0.204   2.205 -0.3176  0.4322 -0.2276
 4999SOL    HW126456   4.335   0.246   2.120 -1.4700  0.9747 -0.1208
 4999SOL    HW226457   4.243   0.159   2.179 -1.0168  2.5751 -1.7518
 5000SOL     OW26458   0.636   3.473  17.521  0.2829  0.1269  0.3087
 5000SOL    HW126459   0.719   3.426  17.513 -0.7333 -1.4248 -1.0854
 5000SOL    HW226460   0.616   3.480  17.428 -0.6519 -0.8144  0.4429
 5001SOL     OW26461   2.179   3.668   2.982 -0.2451  0.0584 -0.2759
 5001SOL    HW126462   2.141   3.756   2.979 -3.2128 -1.1657  1.4358
 5001SOL    HW226463   2.259   3.686   3.032 -0.0861 -1.0572 -0.1272
 5002SOL     OW26464   4.083   2.820   1.654 -0.4299  0.1387 -0.2410
 5002SOL    HW126465   4.035   2.816   1.571 -1.6825  1.9428  0.3953
 5002SOL    HW226466   4.109   2.728   1.658 -0.2318  0.2527  1.1934
 5003SOL     OW26467   4.714   0.731   3.468 -0.1270 -0.3229  0.3996
 5003SOL    HW126468   4.636   0.717   3.415  0.8877  2.3443 -1.8152
 5003SOL    HW226469   0.009   0.639   3.489  0.1624 -0.5121 -0.6223
 5004SOL     OW26470   3.612   2.127   3.095  0.4116 -0.2430 -0.2349
 5004SOL    HW126471   3.614   2.123   2.999  0.1826 -0.3859 -0.2349
 5004SOL    HW226472   3.660   2.209   3.108  0.2120 -0.1117 -0.3291
 5005SOL     OW26473   1.426   0.205  10.896 -0.1169  0.0859 -0.5770
 5005SOL    HW126474   1.362   0.202  10.967 -0.2351  1.1116 -0.6419
 5005SOL    HW226475   1.475   0.282  10.925 -0.8501 -0.3775  1.8685
 5006SOL     OW26476   3.908   0.226  17.526 -0.0866  0.0989 -0.3164
 5006SOL    HW126477   3.984   0.226  17.583 -1.1992 -0.2369  1.1649
 5006SOL    HW226478   3.915   0.302  17.468  2.7441  0.0322 -0.0569
 5007SOL     OW26479   3.691   2.182   5.997 -0.0179 -0.1526 -0.4357
 5007SOL    HW126480   3.629   2.126   6.044  1.3588 -0.6807  0.7568
 5007SOL    HW226481   3.625   2.218   5.939  2.8287  2.7301 -1.9022
 5008SOL     OW26482   4.300   3.260  10.831 -0.5131  0.2372 -0.7697
 5008SOL    HW126483   4.274   3.255  10.923  0.1361  1.6686 -0.5146
 5008SOL    HW226484   4.327   3.351  10.820 -1.6196  0.6104 -0.3325
 5009SOL     OW26485   0.932   0.097   9.904  0.6081  0.4173 -0.4532
 5009SOL    HW126486   0.924   0.192   9.896 -1.7477  0.5762  3.8438
 5009SOL    HW226487   0.967   0.085   9.992 -0.9747  1.1643  0.2798
 5010SOL     OW26488   4.112   3.506   5.860 -0.4436  0.3028 -0.7261
 5010SOL    HW126489   4.130   3.596   5.834 -1.9673  0.6492 -0.5750
 5010SOL    HW226490   4.038   3.504   5.921  2.4542  0.0311  2.7480
 5011SOL     OW26491   2.764   2.908   7.379 -0.5286  0.4115 -0.0504
 5011SOL    HW126492   2.679   2.950   7.362 -0.4844  0.9650  1.1090
 5011SOL    HW226493   2.744   2.815   7.372 -2.8872  0.9362 -0.5521
 5012SOL     OW26494   3.755   0.967   7.930 -0.3825 -0.1920 -0.1093
 5012SOL    HW126495   3.743   0.917   8.011  1.4105  0.3403  0.4797
 5012SOL    HW226496   3.673   0.959   7.880 -0.6925  0.2692  0.3297
 5013SOL     OW26497   3.298   4.242   6.124 -0.0484 -0.6142 -0.4942
 5013SOL    HW126498   3.333   4.284   6.046  1.1052  0.4229  0.5822
 5013SOL    HW226499   3.222   4.197   6.086  0.9364 -2.1128 -0.6997
 5014SOL     OW26500   1.358   3.617  11.746 -0.3073 -0.0527 -0.3062
 5014SOL    HW126501   1.339   3.645  11.656 -3.2728 -1.5453 -0.1275
 5014SOL    HW226502   1.396   3.698  11.779 -0.9941 -0.2472  0.9377
 5015SOL     OW26503   2.965   0.362   5.841  0.5488 -0.5616 -0.2401
 5015SOL    HW126504   3.013   0.280   5.839  1.0338 -0.2726 -0.6656
 5015SOL    HW226505   2.886   0.333   5.796  1.7173 -2.7207 -0.9001
 5016SOL     OW26506   2.182   0.537  16.789 -0.2859 -0.1804 -0.0624
 5016SOL    HW126507   2.227   0.606  16.839 -4.1637  1.3531  1.3327
 5016SOL    HW226508   2.148   0.574  16.707  1.1767  1.4108  0.0382
 5017SOL     OW26509   0.571   1.530   9.438 -0.1095  0.8829  0.3880
 5017SOL    HW126510   0.660   1.519   9.406 -0.0905  1.0468  0.3854
 5017SOL    HW226511   0.525   1.523   9.354 -1.7399 -0.5127  1.3969
 5018SOL     OW26512   0.197   2.851   3.189  0.3902 -0.3379  0.1105
 5018SOL    HW126513   0.270   2.905   3.161  0.4902 -0.0114  0.9846
 5018SOL    HW226514   0.169   2.832   3.100 -3.0838  0.4887  1.0050
 5019SOL     OW26515   4.493   1.356   1.668  0.1613 -0.0090 -0.5199
 5019SOL    HW126516   4.513   1.262   1.674 -0.1220 -0.0909 -0.8307
 5019SOL    HW226517   4.562   1.386   1.609 -1.2166  0.0947 -2.0703
 5020SOL     OW26518   0.948   2.644   0.702 -1.1144 -0.1663 -0.0428
 5020SOL    HW126519   1.009   2.678   0.636 -0.0337  0.1857  1.1305
 5020SOL    HW226520   0.916   2.561   0.666  0.0474 -0.6901  0.1267
 5021SOL     OW26521   4.298   2.445   4.932  0.3600  0.3564 -0.5002
 5021SOL    HW126522   4.320   2.526   4.887 -1.8004  0.5058 -1.2659
 5021SOL    HW226523   4.376   2.389   4.927  0.9294  1.2189 -1.3628
 5022SOL     OW26524   3.425   0.663   7.605 -0.0341  0.1248  0.1279
 5022SOL    HW126525   3.430   0.642   7.698 -1.4190  0.9760  0.3992
 5022SOL    HW226526   3.355   0.603   7.578  1.1176 -1.0552 -0.2108
 5023SOL     OW26527   0.798   4.052   9.031 -0.0725 -0.5151  0.1111
 5023SOL    HW126528   0.850   4.081   9.105  2.4826  1.2642 -2.3777
 5023SOL    HW226529   0.764   3.973   9.072 -0.9149 -0.3278 -0.2058
 5024SOL     OW26530   2.980   4.209   3.717  0.7366  0.1560  0.3329
 5024SOL    HW126531   3.023   4.293   3.733  2.8857 -0.9487  0.3642
 5024SOL    HW226532   3.058   4.161   3.689  1.3066  1.3931 -0.2079
 5025SOL     OW26533   4.217   2.132   3.930  0.2457  0.5986 -0.1654
 5025SOL    HW126534   4.265   2.066   3.880 -0.7100 -1.4493  1.5613
 5025SOL    HW226535   4.273   2.121   4.007 -2.4455 -0.1075  1.7246
 5026SOL     OW26536   1.150   2.536   5.286 -0.0494 -0.6012 -0.6515
 5026SOL    HW126537   1.107   2.571   5.364 -0.7082  0.5301 -1.5206
 5026SOL    HW226538   1.242   2.559   5.299 -0.2686  0.8339 -1.6176
 5027SOL     OW26539   0.135   1.251  11.747 -0.5690 -0.5578 -0.2887
 5027SOL    HW126540   0.108   1.277  11.658 -1.7167 -0.9308 -0.0474
 5027SOL    HW226541   0.163   1.162  11.729 -1.8557 -1.3121  1.4344
 5028SOL     OW26542   1.883   3.767   5.007  0.0899 -0.1553 -0.1149
 5028SOL    HW126543   1.803   3.787   4.958  1.0079 -1.2374 -2.0769
 5028SOL    HW226544   1.896   3.851   5.051 -0.5970 -1.1541  1.9782
 5029SOL     OW26545   0.652   0.798   4.840  0.1140  0.0896 -0.0107
 5029SOL    HW126546   0.701   0.792   4.758  0.6722  1.5465  0.2211
 5029SOL    HW226547   0.581   0.859   4.824 -1.4262 -1.9503 -0.9410
 5030SOL     OW26548   3.558   3.121   6.543  0.5817 -0.2847 -0.1584
 5030SOL    HW126549   3.476   3.161   6.516  0.7816  0.9112  0.9776
 5030SOL    HW226550   3.530   3.077   6.623  0.4226 -1.7707 -1.0422
 5031SOL     OW26551   1.088   3.837   8.034  0.1600 -0.5394  0.4842
 5031SOL    HW126552   1.158   3.861   8.095  0.2006  0.6381 -0.0280
 5031SOL    HW226553   1.024   3.907   8.045 -0.6028 -1.1462 -0.0475
 5032SOL     OW26554   1.344   0.425   8.027  0.0910  0.3526 -0.2206
 5032SOL    HW126555   1.272   0.487   8.016  0.1122  0.7668  1.9819
 5032SOL    HW226556   1.297   0.362   8.081 -3.3317  0.4674 -3.0418
 5033SOL     OW26557   4.017   4.348   6.418  0.5965  0.0604  0.3174
 5033SOL    HW126558   3.959   4.379   6.349 -0.0046 -2.6198 -0.3743
 5033SOL    HW226559   4.051   4.268   6.378 -0.4486  0.2546 -0.9610
 5034SOL     OW26560   2.542   0.011   6.717 -0.0316  0.3471 -0.3869
 5034SOL    HW126561   2.450   4.711   6.733 -0.4715  1.7603 -1.0507
 5034SOL    HW226562   2.597   4.656   6.736  1.1668  1.3684  0.3366
 5035SOL     OW26563   3.095   4.152   2.235 -0.3933 -0.1962  0.0752
 5035SOL    HW126564   3.094   4.201   2.317 -0.6913  0.1458 -0.1348
 5035SOL    HW226565   3.110   4.069   2.280  0.3870 -0.3983 -0.5579
 5036SOL     OW26566   3.451   4.572  17.285  0.5581  0.1536 -0.1063
 5036SOL    HW126567   3.540   4.608  17.280  0.9078 -0.6723  0.3394
 5036SOL    HW226568   3.448   4.558  17.380 -2.2025 -4.4199 -0.9071
 5037SOL     OW26569   3.047   1.248   6.779 -0.1457 -0.3224  0.4608
 5037SOL    HW126570   3.113   1.179   6.782  0.6670  0.6330  4.4253
 5037SOL    HW226571   3.011   1.231   6.692  1.4460 -3.3047  0.3931
 5038SOL     OW26572   1.762   2.048  11.600 -0.0684  0.3459 -0.0174
 5038SOL    HW126573   1.727   2.007  11.521 -0.9481  1.0435  0.0026
 5038SOL    HW226574   1.705   2.021  11.672 -0.4761 -1.0333 -0.8729
 5039SOL     OW26575   1.452   0.298  12.648 -0.2704  0.1197  0.8281
 5039SOL    HW126576   1.545   0.281  12.637 -0.0903  0.7688  1.3720
 5039SOL    HW226577   1.416   0.229  12.592  0.0902  0.2312  0.4668
 5040SOL     OW26578   4.652   0.030   9.043  0.2142  0.1842  0.0519
 5040SOL    HW126579   4.637   0.122   9.022 -0.3258  0.1332  0.2183
 5040SOL    HW226580   4.623   0.030   9.134 -1.5861 -0.2442 -0.5231
 5041SOL     OW26581   0.132   2.710  16.736 -1.0591  0.3611 -0.8456
 5041SOL    HW126582   0.078   2.632  16.752  2.6436 -2.2259 -0.9785
 5041SOL    HW226583   0.104   2.739  16.649 -0.6483 -0.0860 -1.1261
 5042SOL     OW26584   3.093   0.843   7.529  0.5247  0.2186 -0.2633
 5042SOL    HW126585   3.027   0.826   7.596  1.3555 -0.5847  0.3591
 5042SOL    HW226586   3.049   0.805   7.454  1.4997 -2.1790  0.3716
 5043SOL     OW26587   2.031   0.201   3.372  0.3146 -0.0623 -0.1160
 5043SOL    HW126588   2.057   0.113   3.348 -2.2844 -1.8191  3.5977
 5043SOL    HW226589   1.972   0.206   3.296  1.4921  0.9760 -0.9717
 5044SOL     OW26590   3.707   2.498   3.513  0.6037  0.7944 -0.5549
 5044SOL    HW126591   3.664   2.433   3.456 -0.6493 -0.0791  1.3653
 5044SOL    HW226592   3.786   2.450   3.536  0.5741  0.6235 -0.7982
 5045SOL     OW26593   2.104   1.292  14.549  0.4075 -0.5523 -0.1042
 5045SOL    HW126594   2.075   1.360  14.610 -0.6962  1.2187 -2.6115
 5045SOL    HW226595   2.097   1.336  14.464 -3.1475  0.4510  0.7328
 5046SOL     OW26596   3.961   2.652  12.098  0.5735 -0.2156  0.3747
 5046SOL    HW126597   3.947   2.731  12.046  1.0856 -1.1323 -1.1562
 5046SOL    HW226598   3.883   2.648  12.154 -0.4385 -0.8770 -1.0927
 5047SOL     OW26599   3.055   4.225   1.513 -0.5836  0.4494  0.6591
 5047SOL    HW126600   3.095   4.155   1.565 -0.3054  0.8746  1.0120
 5047SOL    HW226601   3.120   4.296   1.520 -2.6624  2.5215 -1.0628
 5048SOL     OW26602   2.710   0.570   4.840 -0.0047 -0.4584  0.0819
 5048SOL    HW126603   2.666   0.567   4.925  3.1483  0.8775  1.7463
 5048SOL    HW226604   2.765   0.647   4.852  0.7170 -1.1343  1.0588
 5049SOL     OW26605   4.451   2.403  16.655 -0.0345 -0.0685  0.3041
 5049SOL    HW126606   4.470   2.404  16.749  2.3363  0.6411 -0.1865
 5049SOL    HW226607   4.367   2.450  16.657  0.1239  0.3696 -3.0292
 5050SOL     OW26608   3.161   0.198   3.512  0.6458 -0.0003 -0.2424
 5050SOL    HW126609   3.144   0.292   3.521 -1.4988 -0.2801 -1.3057
 5050SOL    HW226610   3.112   0.161   3.585  1.0915 -0.9003 -0.3992
 5051SOL     OW26611   1.391   4.396  14.742  0.8064 -0.3226  0.6864
 5051SOL    HW126612   1.388   4.492  14.742 -0.7107 -0.3582  0.8015
 5051SOL    HW226613   1.381   4.387  14.648  0.5719  0.0855  0.6719
 5052SOL     OW26614   3.223   4.653  16.864  0.0865  0.6108  0.1635
 5052SOL    HW126615   3.284   4.609  16.805 -0.6998 -0.5344  0.1999
 5052SOL    HW226616   3.257   0.021  16.872 -1.0440  1.0865 -0.3705
 5053SOL     OW26617   0.382   3.697  11.904  1.2982 -0.1733  0.3159
 5053SOL    HW126618   0.326   3.728  11.833  0.1113  0.4779  1.5177
 5053SOL    HW226619   0.354   3.761  11.970  0.3311 -0.7947  0.5146
 5054SOL     OW26620   0.757   4.511   3.080  0.2396  0.3328 -0.1212
 5054SOL    HW126621   0.755   4.534   2.988 -0.9043  0.0758 -0.1648
 5054SOL    HW226622   0.788   4.591   3.121  1.4354 -0.1081 -0.1755
 5055SOL     OW26623   3.103   3.936   9.952  0.3682 -0.4561  0.4336
 5055SOL    HW126624   3.060   4.020   9.968  0.8815 -0.3662  1.3596
 5055SOL    HW226625   3.192   3.961   9.928  0.1212 -0.8005 -0.8480
 5056SOL     OW26626   2.292   0.531   3.707 -0.0718 -0.4135  0.4889
 5056SOL    HW126627   2.305   0.453   3.654 -0.6778 -1.3000  1.6444
 5056SOL    HW226628   2.330   0.504   3.791  0.3082 -0.9070  0.1571
 5057SOL     OW26629   3.476   1.890   7.533  0.1925 -0.1112  0.2146
 5057SOL    HW126630   3.383   1.903   7.514  0.3479  0.7072  0.0195
 5057SOL    HW226631   3.519   1.889   7.448 -3.4455 -0.8430 -1.6222
 5058SOL     OW26632   3.320   3.640   3.168  0.2861 -0.3416 -0.7354
 5058SOL    HW126633   3.406   3.663   3.132  1.8703 -1.6731  2.2174
 5058SOL    HW226634   3.260   3.664   3.097  1.1725 -1.1365 -1.7361
 5059SOL     OW26635   0.978   1.926   4.404  0.0444 -0.6323 -0.1184
 5059SOL    HW126636   1.064   1.902   4.370 -0.1130  0.7379 -1.4646
 5059SOL    HW226637   0.924   1.864   4.355 -0.8913  0.1113 -0.0243
 5060SOL     OW26638   3.873   2.150  13.752 -0.4496  0.2107 -0.4066
 5060SOL    HW126639   3.871   2.198  13.834 -3.1976 -0.7399  0.0998
 5060SOL    HW226640   3.864   2.219  13.686 -0.1166 -0.2872 -0.9796
 5061SOL     OW26641   1.578   2.204   6.865  0.2655  0.1601  0.2315
 5061SOL    HW126642   1.612   2.175   6.780 -1.0360  0.5092 -0.4042
 5061SOL    HW226643   1.644   2.271   6.882  0.3615  0.2113 -0.3520
 5062SOL     OW26644   3.925   4.597  13.697 -0.3753 -0.6882  0.0016
 5062SOL    HW126645   3.874   4.640  13.765 -0.9935 -1.9626  0.3321
 5062SOL    HW226646   3.878   4.604  13.614  0.5736 -2.2076 -0.6605
 5063SOL     OW26647   0.060   0.312   7.706  0.6584 -0.0281  0.2625
 5063SOL    HW126648   0.120   0.373   7.749 -1.0326  0.4390  1.9735
 5063SOL    HW226649   0.054   0.247   7.776  0.6846 -0.7911 -0.4498
 5064SOL     OW26650   2.815   2.467   6.591 -0.5115 -0.1321  0.0399
 5064SOL    HW126651   2.767   2.547   6.611 -0.1058  0.0539  0.2651
 5064SOL    HW226652   2.773   2.432   6.513  0.0463 -1.2753  0.2489
 5065SOL     OW26653   2.216   3.315   1.984  0.3432 -0.1714 -0.0079
 5065SOL    HW126654   2.241   3.269   1.904  1.3288 -0.2429  0.3365
 5065SOL    HW226655   2.257   3.399   1.968  0.5257 -0.0998  0.8384
 5066SOL     OW26656   1.516   1.255  17.394 -0.2567 -0.1893  0.1432
 5066SOL    HW126657   1.596   1.204  17.382 -1.3625 -2.1838  1.1725
 5066SOL    HW226658   1.461   1.238  17.317 -0.2505  0.0052  0.0941
 5067SOL     OW26659   4.112   0.546   6.257  0.1394 -0.2734  0.6154
 5067SOL    HW126660   4.153   0.632   6.247 -2.9788  1.0528 -1.1573
 5067SOL    HW226661   4.188   0.493   6.234  0.5709  0.4520  0.3862
 5068SOL     OW26662   1.713   4.077   8.295  0.2270 -0.0117  0.4341
 5068SOL    HW126663   1.787   4.134   8.275 -0.4829  1.2549  1.4102
 5068SOL    HW226664   1.641   4.134   8.325 -0.3127 -1.6851  2.3327
 5069SOL     OW26665   1.341   4.403  15.833 -0.2884 -0.4720  0.3896
 5069SOL    HW126666   1.332   4.489  15.874 -0.7811 -0.2724 -0.1256
 5069SOL    HW226667   1.336   4.418  15.738  3.7084 -0.0082  0.2640
 5070SOL     OW26668   4.546   4.066   5.516  0.1721  0.0965  0.4316
 5070SOL    HW126669   4.571   4.128   5.585 -1.0603  0.9488  0.1027
 5070SOL    HW226670   4.638   4.044   5.501  0.0188  0.2357 -0.6828
 5071SOL     OW26671   4.286   2.802   4.358  0.2516 -0.1298 -0.1974
 5071SOL    HW126672   4.212   2.741   4.357 -0.4174  0.7057 -0.8073
 5071SOL    HW226673   4.343   2.752   4.299  2.5342  0.1463  1.7575
 5072SOL     OW26674   0.481   0.550   2.844 -0.7887  0.2394  0.0173
 5072SOL    HW126675   0.547   0.489   2.811  1.2574  2.7520 -0.5028
 5072SOL    HW226676   0.452   0.597   2.766 -1.7269 -0.7638 -0.2373
 5073SOL     OW26677   2.402   1.904   9.895 -0.7714 -0.1609 -0.1911
 5073SOL    HW126678   2.475   1.845   9.913  0.4337  1.9745  1.8295
 5073SOL    HW226679   2.361   1.897   9.981 -1.9756 -0.7009 -0.8029
 5074SOL     OW26680   3.542   0.595   8.648 -0.2883 -0.2363  0.6196
 5074SOL    HW126681   3.528   0.678   8.695  0.9058  0.3654 -0.1002
 5074SOL    HW226682   3.621   0.567   8.693  1.2747  2.9116 -0.2129
 5075SOL     OW26683   4.153   4.050   5.355 -0.0726  0.0346  0.3319
 5075SOL    HW126684   4.067   4.084   5.379 -0.7229 -1.1322 -0.3227
 5075SOL    HW226685   4.123   3.982   5.294  0.3356  1.5618 -1.5641
 5076SOL     OW26686   0.602   3.894  12.264  0.4342  0.2860 -0.2887
 5076SOL    HW126687   0.528   3.834  12.278 -0.0361  1.1958  1.1741
 5076SOL    HW226688   0.606   3.906  12.169  1.3689 -2.3196 -0.5962
 5077SOL     OW26689   0.959   4.076   3.780  0.2458  0.2675  0.4192
 5077SOL    HW126690   0.911   3.995   3.796  0.4024 -0.2598 -1.7257
 5077SOL    HW226691   1.045   4.043   3.751 -0.0002  0.0685 -0.0848
 5078SOL     OW26692   3.707   0.667   3.749 -0.0178  0.0536 -0.1576
 5078SOL    HW126693   3.771   0.597   3.760 -0.0780  0.0155 -0.0415
 5078SOL    HW226694   3.639   0.632   3.807  1.0327  1.4384  1.9132
 5079SOL     OW26695   0.161   0.702   7.803 -0.5640  0.5916  0.0693
 5079SOL    HW126696   0.190   0.616   7.775 -0.5111  0.9466 -0.9606
 5079SOL    HW226697   0.210   0.761   7.746  0.1949 -0.4306 -0.3255
 5080SOL     OW26698   4.502   2.318  15.669 -0.3371  0.4247 -0.2802
 5080SOL    HW126699   4.561   2.328  15.594 -0.8751  1.4213 -0.5563
 5080SOL    HW226700   4.473   2.409  15.665  0.5910  0.7229 -0.2128
 5081SOL     OW26701   3.534   2.327   2.021 -0.4244  0.3863 -0.2080
 5081SOL    HW126702   3.458   2.342   2.078  0.1320  3.0036 -0.1835
 5081SOL    HW226703   3.491   2.358   1.941 -0.7022  1.9819  0.5799
 5082SOL     OW26704   0.814   2.746   6.823 -0.2079 -0.6280  0.1967
 5082SOL    HW126705   0.882   2.689   6.786  0.3281 -0.1724  0.4805
 5082SOL    HW226706   0.792   2.686   6.895  0.1252  0.6408  1.3549
 5083SOL     OW26707   3.778   1.845   4.074 -0.0099  0.1943 -0.0592
 5083SOL    HW126708   3.848   1.902   4.042 -1.8353  2.1136 -0.6426
 5083SOL    HW226709   3.778   1.779   4.004  2.5408  1.6149 -1.3757
 5084SOL     OW26710   3.122   0.910  14.975 -0.3189 -0.1608 -0.9208
 5084SOL    HW126711   3.135   0.832  14.921 -0.9567 -1.4671  0.8341
 5084SOL    HW226712   3.045   0.952  14.937 -1.8989 -2.1626  0.1083
 5085SOL     OW26713   3.453   3.786   5.198  0.6089  1.0280  0.5177
 5085SOL    HW126714   3.387   3.822   5.139  1.1197 -0.0053 -0.6857
 5085SOL    HW226715   3.433   3.807   5.289  2.4279  0.9764  0.9465
 5086SOL     OW26716   0.394   0.682  16.040 -0.0198 -0.2026 -0.8523
 5086SOL    HW126717   0.403   0.666  15.946 -2.9870  1.4179 -1.4182
 5086SOL    HW226718   0.326   0.616  16.055 -0.8322  0.2825 -2.3695
 5087SOL     OW26719   3.259   4.621   3.905  0.2747 -0.3382 -0.0641
 5087SOL    HW126720   3.318   4.559   3.948 -1.3639 -1.5728  0.3706
 5087SOL    HW226721   3.320   4.678   3.858 -0.5879 -1.8035 -2.9171
 5088SOL     OW26722   0.075   1.041   8.196  0.1581  1.0058  0.6736
 5088SOL    HW126723   4.717   0.992   8.218  0.0197 -0.2292 -2.4493
 5088SOL    HW226724   0.135   0.983   8.242 -1.5372 -1.6102 -0.3962
 5089SOL     OW26725   0.613   0.708  16.227  0.8513 -0.3099 -0.1244
 5089SOL    HW126726   0.555   0.724  16.302  1.1083 -0.1920  0.0463
 5089SOL    HW226727   0.547   0.669  16.169 -1.0011  2.9132 -0.1518
 5090SOL     OW26728   4.573   0.299   7.060  0.2880  0.0978 -0.4191
 5090SOL    HW126729   4.480   0.309   7.038 -0.3171  0.5641  2.3209
 5090SOL    HW226730   4.596   0.368   7.122 -1.2599 -1.0138  1.4185
 5091SOL     OW26731   4.032   2.894   5.977  0.3331  0.8200 -0.3266
 5091SOL    HW126732   4.019   2.813   6.027  1.5771 -0.6989 -2.4565
 5091SOL    HW226733   4.057   2.955   6.046  0.1752  1.0736 -0.4949
 5092SOL     OW26734   1.190   2.754   2.979 -0.1540  0.1516 -0.2627
 5092SOL    HW126735   1.222   2.822   3.039  0.8747 -0.2251 -0.3849
 5092SOL    HW226736   1.099   2.743   3.006  0.4413 -0.1494  1.6476
 5093SOL     OW26737   0.649   1.908   2.596  0.3936 -0.2788 -0.0162
 5093SOL    HW126738   0.681   1.941   2.680 -0.2409 -1.2341  0.5961
 5093SOL    HW226739   0.721   1.921   2.535  1.4362  1.1970  1.5333
 5094SOL     OW26740   3.257   3.599  17.681  0.5869 -0.3257 -0.1175
 5094SOL    HW126741   3.339   3.616   0.039  0.9675  0.3561 -1.0643
 5094SOL    HW226742   3.247   3.689  17.651  0.1418  0.0457  1.1408
 5095SOL     OW26743   3.837   2.866   3.116 -0.0967  0.0791 -0.0603
 5095SOL    HW126744   3.768   2.933   3.120 -0.2168  0.0718 -1.8934
 5095SOL    HW226745   3.901   2.900   3.178  1.1224 -0.2873 -1.1213
 5096SOL     OW26746   1.568   1.164  11.344  0.3117 -0.4867 -0.2453
 5096SOL    HW126747   1.657   1.141  11.316  1.8288  0.7236  3.6672
 5096SOL    HW226748   1.584   1.251  11.379  2.6757 -1.3182  0.6977
 5097SOL     OW26749   0.999   1.164  10.238  0.0925  0.2482 -0.0336
 5097SOL    HW126750   0.963   1.181  10.151 -1.5143  1.9722  0.9772
 5097SOL    HW226751   1.080   1.214  10.231 -0.2163  0.7782  0.2031
 5098SOL     OW26752   3.969   3.098   4.534  0.2034  0.2531  0.6790
 5098SOL    HW126753   3.890   3.045   4.536  1.3975 -1.5396  0.7657
 5098SOL    HW226754   4.007   3.087   4.446 -1.7596 -1.3665  0.0274
 5099SOL     OW26755   2.564   3.183   1.553 -0.2751  0.4225 -0.1640
 5099SOL    HW126756   2.484   3.229   1.526 -0.9847 -0.7768 -0.0908
 5099SOL    HW226757   2.629   3.185   1.483  0.5809  2.6941  0.6855
 5100SOL     OW26758   1.968   1.505   1.724  1.3347 -0.4008  0.6994
 5100SOL    HW126759   1.920   1.538   1.648 -0.7252 -3.2530  0.7671
 5100SOL    HW226760   2.008   1.427   1.687 -1.2244 -1.7857  0.8717
 5101SOL     OW26761   3.575   0.475   4.619  0.6148 -0.1211 -0.2024
 5101SOL    HW126762   3.566   0.391   4.574  0.9653  0.2730 -1.0101
 5101SOL    HW226763   3.591   0.524   4.539 -0.0690  1.2007  0.4654
 5102SOL     OW26764   0.203   3.994   0.426  0.0925  0.1933  0.5919
 5102SOL    HW126765   0.169   3.989   0.337 -1.0809  0.8882  0.9971
 5102SOL    HW226766   0.296   3.992   0.402  0.6338 -4.2427  3.1455
 5103SOL     OW26767   1.936   1.101   4.346 -0.1390  0.5216 -0.3612
 5103SOL    HW126768   1.864   1.053   4.306  0.4406  0.5432 -1.4370
 5103SOL    HW226769   1.941   1.066   4.435  0.9720  0.4788 -0.4352
 5104SOL     OW26770   4.298   2.556   5.221 -0.1784 -0.0031  0.2322
 5104SOL    HW126771   4.206   2.567   5.241 -0.2078 -3.6426  2.1961
 5104SOL    HW226772   4.293   2.527   5.130  2.2578  1.6676 -0.4488
 5105SOL     OW26773   1.618   1.869   4.750  0.1752  0.2809 -0.0556
 5105SOL    HW126774   1.648   1.833   4.834 -1.0158 -0.1478  0.1812
 5105SOL    HW226775   1.693   1.926   4.730 -0.3499  1.2996  0.8733
 5106SOL     OW26776   4.311   2.735   0.090  0.5652  0.3780 -0.0953
 5106SOL    HW126777   4.221   2.742   0.056 -0.2671  1.5207  2.3704
 5106SOL    HW226778   4.350   2.653   0.059  1.2646  0.6245  0.1462
 5107SOL     OW26779   3.439   0.388   3.228 -0.4067 -0.1377 -0.6911
 5107SOL    HW126780   3.447   0.294   3.244  0.5105  0.0646  0.0278
 5107SOL    HW226781   3.512   0.434   3.271  0.5935 -1.5855 -0.8627
 5108SOL     OW26782   1.171   2.605   3.294 -0.2639 -0.2312 -0.3994
 5108SOL    HW126783   1.253   2.585   3.339 -1.9961 -1.0630  2.4105
 5108SOL    HW226784   1.199   2.686   3.252 -2.4147  1.2908  1.1373
 5109SOL     OW26785   1.004   0.270  17.580  0.4870 -0.3195  0.6798
 5109SOL    HW126786   1.061   0.294  17.653  0.1758 -0.9373  1.1243
 5109SOL    HW226787   0.946   0.345  17.572  2.1118  0.7400 -1.3372
 5110SOL     OW26788   1.831   1.702   6.011 -0.0427 -0.0719  0.3258
 5110SOL    HW126789   1.867   1.711   5.923 -1.7595 -1.7410 -0.5409
 5110SOL    HW226790   1.754   1.648   5.992  0.0435 -0.5666  1.3815
 5111SOL     OW26791   0.128   0.748   8.985 -0.3206  0.1870  0.4221
 5111SOL    HW126792   0.041   0.786   8.978  0.8737  2.8322  0.0360
 5111SOL    HW226793   0.115   0.669   9.038 -0.7570 -0.5139 -0.7294
 5112SOL     OW26794   4.522   4.377   5.407  0.9005 -0.3173  0.5921
 5112SOL    HW126795   4.501   4.468   5.428 -0.7071 -0.8461  1.2230
 5112SOL    HW226796   4.608   4.365   5.449  1.5637  0.6340 -0.4835
 5113SOL     OW26797   0.992   3.080   5.757 -0.5640  0.0689 -0.2674
 5113SOL    HW126798   0.908   3.065   5.714 -0.8617 -0.1472  0.3868
 5113SOL    HW226799   1.010   3.167   5.722  0.7682 -0.2752 -0.4672
 5114SOL     OW26800   0.168   3.939  12.677 -0.4414 -0.3587  0.5845
 5114SOL    HW126801   0.112   3.972  12.748  0.1344  1.3232  0.2515
 5114SOL    HW226802   0.214   3.866  12.720  0.0932  0.3652  1.2394
 5115SOL     OW26803   0.886   4.208   2.782 -0.5081  0.8190 -0.2098
 5115SOL    HW126804   0.936   4.238   2.858 -0.4791  2.0273 -0.7020
 5115SOL    HW226805   0.907   4.281   2.723  1.1752  0.9566  0.5424
 5116SOL     OW26806   1.264   4.184   8.284 -0.5138 -0.0025 -0.2563
 5116SOL    HW126807   1.315   4.251   8.238  0.7591  0.2666  1.5446
 5116SOL    HW226808   1.175   4.214   8.303  0.0276  0.1304  2.1214
 5117SOL     OW26809   1.567   2.686   0.227  0.2697 -0.1278 -0.1629
 5117SOL    HW126810   1.557   2.646   0.314 -1.2206  0.2455 -0.1568
 5117SOL    HW226811   1.579   2.610   0.171 -1.0345 -0.8771  0.5681
 5118SOL     OW26812   0.707   3.464   5.767 -0.1503  0.0844 -0.3676
 5118SOL    HW126813   0.669   3.549   5.785 -0.8707 -0.5841  1.2689
 5118SOL    HW226814   0.800   3.484   5.778 -0.0507  0.1640 -1.4130
 5119SOL     OW26815   2.376   2.901   5.898  0.1780  0.0517  0.0269
 5119SOL    HW126816   2.422   2.949   5.829  0.2225  0.1954  0.1562
 5119SOL    HW226817   2.442   2.837   5.923 -2.1319 -2.4309 -0.2854
 5120SOL     OW26818   0.628   2.325  17.307 -1.1457  0.1014 -0.6195
 5120SOL    HW126819   0.606   2.339  17.399  0.2282 -0.4287 -0.2105
 5120SOL    HW226820   0.719   2.354  17.300 -0.9777 -0.5207 -1.1033
 5121SOL     OW26821   4.403   2.984   3.154  0.8325  0.3409  0.5597
 5121SOL    HW126822   4.390   3.068   3.110  0.1301  0.2033  0.5024
 5121SOL    HW226823   4.415   2.928   3.077  1.0766  0.1928  0.7048
 5122SOL     OW26824   0.710   0.722  13.784 -0.3561 -0.1672 -0.9057
 5122SOL    HW126825   0.644   0.655  13.763  1.3739 -2.3768  0.7510
 5122SOL    HW226826   0.658   0.801  13.771  0.1213  0.7664  3.0437
 5123SOL     OW26827   0.143   0.560  12.038  0.4606 -0.3045 -0.4343
 5123SOL    HW126828   0.186   0.634  12.081  0.6491  0.6937 -2.3515
 5123SOL    HW226829   0.210   0.493  12.045  0.8516  0.1951  0.6883
 5124SOL     OW26830   0.807   0.750   5.775  0.2622  0.2153 -0.4395
 5124SOL    HW126831   0.820   0.686   5.705 -0.2782 -0.1143 -0.2390
 5124SOL    HW226832   0.881   0.741   5.835 -1.2978 -0.1833  1.4277
 5125SOL     OW26833   2.436   4.466   4.866 -0.0682  0.2552 -0.0069
 5125SOL    HW126834   2.468   4.553   4.841 -0.7816  0.7194  0.6966
 5125SOL    HW226835   2.496   4.411   4.816 -0.5994 -2.0897  1.9656
 5126SOL     OW26836   1.245   0.860  10.619 -1.0329 -0.5114 -0.6005
 5126SOL    HW126837   1.297   0.827  10.692  0.5756 -0.3849 -1.6811
 5126SOL    HW226838   1.321   0.852  10.561 -2.7123  0.2091 -2.8567
 5127SOL     OW26839   4.071   2.344   6.788  0.5967  0.2100 -0.6493
 5127SOL    HW126840   4.142   2.282   6.800  0.5906  0.2343 -0.4823
 5127SOL    HW226841   4.008   2.278   6.760  0.9723 -1.1798  1.7902
 5128SOL     OW26842   4.343   3.459  15.432 -0.6688 -0.2387 -0.5697
 5128SOL    HW126843   4.356   3.437  15.340 -0.1127  0.1595 -0.5851
 5128SOL    HW226844   4.407   3.394  15.461 -2.4951 -2.3558 -1.3129
 5129SOL     OW26845   3.988   4.469   4.705 -0.1345  0.1056  0.0780
 5129SOL    HW126846   3.976   4.534   4.774  0.5183 -0.7494  0.9854
 5129SOL    HW226847   4.055   4.510   4.650  0.6212 -0.4527  0.5961
 5130SOL     OW26848   3.122   1.752   2.742  0.0671 -0.0616 -0.1191
 5130SOL    HW126849   3.182   1.790   2.677  0.5221  0.2923  0.5104
 5130SOL    HW226850   3.038   1.789   2.716  0.1980 -0.9224 -1.8115
 5131SOL     OW26851   2.505   1.516   0.521 -0.2602  0.5238  0.1190
 5131SOL    HW126852   2.426   1.463   0.511 -0.2284  0.2753  1.2455
 5131SOL    HW226853   2.571   1.456   0.555 -0.3825  1.3685  1.7933
 5132SOL     OW26854   0.586   1.565   0.426  0.3602 -0.2614  0.4517
 5132SOL    HW126855   0.567   1.474   0.400 -0.2516  0.5250 -1.8296
 5132SOL    HW226856   0.523   1.591   0.493 -0.2463 -0.8852  0.1208
 5133SOL     OW26857   3.443   3.763   2.752 -0.0768 -0.1858  0.0998
 5133SOL    HW126858   3.376   3.807   2.804 -2.5655 -2.3236 -1.3176
 5133SOL    HW226859   3.431   3.669   2.763  4.0866 -0.9307 -1.7849
 5134SOL     OW26860   2.183   1.529   3.901  0.5565 -0.4171 -0.1390
 5134SOL    HW126861   2.092   1.518   3.928  0.4858 -1.6710 -0.9561
 5134SOL    HW226862   2.206   1.605   3.956 -0.9809 -0.3691  0.4513
 5135SOL     OW26863   4.396   3.410   0.739 -0.6961 -0.4534 -0.1818
 5135SOL    HW126864   4.406   3.497   0.701  0.8354 -1.0835 -1.2329
 5135SOL    HW226865   4.415   3.356   0.662  2.7774  3.2472 -1.9257
 5136SOL     OW26866   0.527   2.691  10.961  0.0997 -0.6705  0.2417
 5136SOL    HW126867   0.474   2.737  11.026 -0.8856 -0.1572 -0.9088
 5136SOL    HW226868   0.598   2.754  10.949  0.6462 -1.4357 -0.5093
 5137SOL     OW26869   4.254   2.333   6.541 -0.4164  0.0713 -0.3819
 5137SOL    HW126870   4.286   2.388   6.613 -1.9949 -0.1132  0.4775
 5137SOL    HW226871   4.241   2.401   6.475 -1.1078  1.5510  1.2529
 5138SOL     OW26872   3.680   2.509  15.760  0.4508  0.6515  0.2207
 5138SOL    HW126873   3.769   2.524  15.727 -0.4453  2.2588 -1.4380
 5138SOL    HW226874   3.681   2.559  15.842  2.6726 -0.3329  0.7979
 5139SOL     OW26875   0.732   3.823   9.140 -0.2502  0.2315 -0.0517
 5139SOL    HW126876   0.799   3.811   9.207  2.1509  1.5477 -2.1975
 5139SOL    HW226877   0.688   3.739   9.143 -1.0791  0.6751  0.0305
 5140SOL     OW26878   1.177   4.583   7.970  0.2018  0.0826  0.8666
 5140SOL    HW126879   1.270   4.607   7.974 -0.4128  2.5848  0.3767
 5140SOL    HW226880   1.187   4.493   7.939  0.0564 -0.1698  1.5555
 5141SOL     OW26881   1.662   3.813   9.206  0.3088 -0.2956  0.2180
 5141SOL    HW126882   1.620   3.898   9.191 -2.7229 -1.9133 -0.3107
 5141SOL    HW226883   1.686   3.797   9.115 -0.4985  1.7618 -0.3718
 5142SOL     OW26884   3.215   0.329   2.707  0.3802  0.6612 -0.1134
 5142SOL    HW126885   3.139   0.286   2.747  1.9129  0.6095  2.7487
 5142SOL    HW226886   3.185   0.328   2.616 -0.3612  2.9626  0.1104
 5143SOL     OW26887   0.859   3.442   2.867 -0.0843 -0.3442  1.2332
 5143SOL    HW126888   0.841   3.386   2.792  0.7471  0.6709  0.2749
 5143SOL    HW226889   0.942   3.403   2.892 -0.1530 -0.1317  1.7926
 5144SOL     OW26890   2.874   3.334   8.717 -0.0604 -0.1244  0.7865
 5144SOL    HW126891   2.812   3.263   8.733 -0.1686  0.0325  1.0566
 5144SOL    HW226892   2.860   3.396   8.789 -1.6950  0.0828  0.2943
 5145SOL     OW26893   2.566   0.544   7.878 -0.1409 -0.5392  0.0620
 5145SOL    HW126894   2.620   0.487   7.933  1.7922  0.0683 -1.2053
 5145SOL    HW226895   2.530   0.477   7.819  0.0830  2.4874 -3.5172
 5146SOL     OW26896   3.035   3.856   3.181  0.4115 -0.2023  0.1481
 5146SOL    HW126897   3.062   3.909   3.256 -1.3474  2.7293 -1.2782
 5146SOL    HW226898   2.941   3.873   3.189  0.6076  0.9846  0.0299
 5147SOL     OW26899   1.815   0.399   0.345  0.2084 -0.8823 -0.4678
 5147SOL    HW126900   1.793   0.490   0.326  1.8991  0.0371  1.8861
 5147SOL    HW226901   1.866   0.381   0.266  1.8111 -2.1486  0.8537
 5148SOL     OW26902   2.856   2.041  10.804 -0.3917 -0.1960 -0.1249
 5148SOL    HW126903   2.786   1.997  10.756  0.2699  0.6213 -1.8129
 5148SOL    HW226904   2.808   2.124  10.813 -0.5460 -0.2832 -0.1509
 5149SOL     OW26905   0.099   3.976   6.557  0.5414  0.1734 -0.1583
 5149SOL    HW126906   0.073   3.904   6.500 -1.2899  0.4645  0.3052
 5149SOL    HW226907   0.182   3.933   6.580  0.9616  0.7360 -0.6378
 5150SOL     OW26908   1.856   4.164  11.762  0.1626 -0.4721  0.1372
 5150SOL    HW126909   1.766   4.193  11.772 -0.7492 -2.9013 -1.2148
 5150SOL    HW226910   1.881   4.188  11.673 -0.1359 -0.0107  0.1770
 5151SOL     OW26911   3.253   1.681   1.503 -0.3013 -0.1519 -0.6676
 5151SOL    HW126912   3.262   1.771   1.470 -2.4436  0.7643  1.2019
 5151SOL    HW226913   3.165   1.695   1.539  0.8874  0.8121  1.9161
 5152SOL     OW26914   4.067   1.135   2.639  0.7059  0.0050  0.4217
 5152SOL    HW126915   4.070   1.195   2.565  1.3593 -0.5790 -0.0171
 5152SOL    HW226916   4.114   1.189   2.704  0.3775  0.1606  0.5328
 5153SOL     OW26917   1.493   0.556  16.491  0.3044 -0.6615 -0.2924
 5153SOL    HW126918   1.443   0.637  16.481  1.1574  0.6901  6.3032
 5153SOL    HW226919   1.470   0.515  16.408  1.7671  0.7318 -1.3867
 5154SOL     OW26920   2.866   3.367   0.890 -0.4693 -0.7757 -0.5070
 5154SOL    HW126921   2.848   3.381   0.797  1.2998  2.1697 -0.4011
 5154SOL    HW226922   2.915   3.286   0.877 -0.7353 -0.7125 -1.9610
 5155SOL     OW26923   0.654   2.617   4.137  0.3605  1.0898 -0.1570
 5155SOL    HW126924   0.685   2.536   4.177  2.5414  2.1389  0.2662
 5155SOL    HW226925   0.563   2.626   4.165  0.4742  0.2854  0.4703
 5156SOL     OW26926   1.500   3.189   6.674  0.1274  0.4925 -0.3740
 5156SOL    HW126927   1.484   3.137   6.753  0.8975  0.3834 -0.2920
 5156SOL    HW226928   1.585   3.155   6.647  0.0704  1.1348 -1.3507
 5157SOL     OW26929   2.742   3.757   3.840 -0.4193  0.3212 -0.4803
 5157SOL    HW126930   2.822   3.704   3.840 -0.0482  0.8854 -0.5408
 5157SOL    HW226931   2.670   3.704   3.805 -1.5888  2.6111 -1.5106
 5158SOL     OW26932   2.913   4.433  11.972 -0.0291  0.0310  0.1734
 5158SOL    HW126933   2.988   4.490  11.987  1.1074 -1.8039  1.4572
 5158SOL    HW226934   2.846   4.496  11.998 -0.8816 -0.1266 -1.5813
 5159SOL     OW26935   0.349   1.316  12.433  0.6176 -0.0730  0.6967
 5159SOL    HW126936   0.299   1.396  12.446  1.8037  0.9459 -1.0358
 5159SOL    HW226937   0.323   1.292  12.344  1.4562 -0.4493  0.5552
 5160SOL     OW26938   1.908   3.359   3.482 -0.0622  0.3004  0.2647
 5160SOL    HW126939   1.912   3.429   3.417 -1.3430 -0.2791 -0.4261
 5160SOL    HW226940   1.826   3.314   3.461  0.6468  0.3568 -2.6260
 5161SOL     OW26941   2.559   3.888   5.767 -0.0707 -0.6523  0.3054
 5161SOL    HW126942   2.552   3.793   5.758 -1.2670 -0.6644  1.4488
 5161SOL    HW226943   2.491   3.908   5.703  0.2499 -1.1530 -0.1908
 5162SOL     OW26944   4.065   1.674   4.660 -0.1166 -0.5648 -0.1306
 5162SOL    HW126945   4.075   1.579   4.660 -0.8565 -0.6498  0.5722
 5162SOL    HW226946   4.071   1.692   4.754 -2.7518  0.2045 -0.1120
 5163SOL     OW26947   3.817   2.914   6.972  0.5375  0.1666  0.0242
 5163SOL    HW126948   3.769   2.997   6.976  0.7053  0.2561  0.1451
 5163SOL    HW226949   3.859   2.913   6.886 -1.2669  2.9005 -0.9046
 5164SOL     OW26950   0.755   3.647  12.284  0.0629  0.0228 -0.0633
 5164SOL    HW126951   0.792   3.723  12.238  2.0613  0.0262  1.5495
 5164SOL    HW226952   0.706   3.625  12.206  0.8842 -0.7099 -0.3711
 5165SOL     OW26953   0.699   4.196   7.820  0.4595  0.1498 -0.3023
 5165SOL    HW126954   0.652   4.223   7.899 -0.9832 -2.0070 -0.4352
 5165SOL    HW226955   0.745   4.124   7.862  1.9384  1.4203  0.2766
 5166SOL     OW26956   0.956   0.406   7.691 -0.2528 -0.5369 -0.2137
 5166SOL    HW126957   0.944   0.395   7.596 -0.8875  0.4678 -0.2428
 5166SOL    HW226958   1.050   0.423   7.688 -0.5026  0.7416 -0.8956
 5167SOL     OW26959   1.746   0.130   7.766 -0.6417 -0.2617 -0.1851
 5167SOL    HW126960   1.817   0.191   7.744  0.4382 -0.2598  3.3198
 5167SOL    HW226961   1.735   0.133   7.861 -0.6576  0.7021 -0.2175
 5168SOL     OW26962   0.868   0.999   6.916 -0.2767  0.2482 -0.2268
 5168SOL    HW126963   0.857   1.057   6.991 -2.9275 -0.9324  0.3177
 5168SOL    HW226964   0.916   0.925   6.953 -0.8004 -1.2797 -2.5958
 5169SOL     OW26965   1.375   0.894   9.725  0.3017  0.1896  0.4249
 5169SOL    HW126966   1.432   0.859   9.794  0.2772  0.1831  0.4419
 5169SOL    HW226967   1.406   0.824   9.668  0.6406  2.6187 -2.3714
 5170SOL     OW26968   4.426   1.285  15.774 -0.4716  0.6325 -0.8506
 5170SOL    HW126969   4.479   1.354  15.815 -0.8795  0.1393  0.5015
 5170SOL    HW226970   4.409   1.235  15.854  0.8701 -1.1917 -1.7017
 5171SOL     OW26971   2.552   1.482   6.424  0.4592 -0.7305 -0.3749
 5171SOL    HW126972   2.512   1.403   6.461 -0.9231  0.2966  0.3079
 5171SOL    HW226973   2.620   1.444   6.367  0.7663 -0.8711  0.0798
 5172SOL     OW26974   1.767   1.806   6.888 -0.1324  0.6656  0.0994
 5172SOL    HW126975   1.721   1.810   6.972  2.9616 -1.0743  1.8521
 5172SOL    HW226976   1.827   1.878   6.906 -2.0730  1.9091  1.5862
 5173SOL     OW26977   4.052   3.009   6.419 -0.5851  0.0375 -0.3315
 5173SOL    HW126978   4.046   3.051   6.505  1.9720  1.2769 -0.7366
 5173SOL    HW226979   4.119   2.945   6.443 -0.2938  1.0769  1.6772
 5174SOL     OW26980   4.635   3.434   1.011 -1.0287 -0.6734  0.3065
 5174SOL    HW126981   4.576   3.450   1.085 -1.9151  0.5748 -0.6443
 5174SOL    HW226982   4.598   3.349   0.986  1.0920 -1.9947  1.7420
 5175SOL     OW26983   1.444   2.452   6.178  0.4997 -0.1485  0.7814
 5175SOL    HW126984   1.516   2.423   6.122 -0.2213  0.5644 -0.5225
 5175SOL    HW226985   1.384   2.393   6.132 -0.1396  0.8833  0.2922
 5176SOL     OW26986   3.193   1.381  14.414 -0.5166  0.0634 -0.4867
 5176SOL    HW126987   3.262   1.400  14.350  1.4325 -0.3028  1.4935
 5176SOL    HW226988   3.181   1.287  14.402 -0.9232 -0.0671  0.9254
 5177SOL     OW26989   1.813   1.985   7.766 -0.6838 -0.3426 -0.4683
 5177SOL    HW126990   1.796   2.076   7.743  1.2008 -0.2281 -1.3587
 5177SOL    HW226991   1.875   1.991   7.838 -0.6594  1.1149 -0.6043
 5178SOL     OW26992   3.410   2.473  15.653  0.0751 -0.2663  0.0338
 5178SOL    HW126993   3.352   2.481  15.729 -0.6936 -0.3141 -0.5563
 5178SOL    HW226994   3.491   2.462  15.702 -0.5823 -1.4342  0.8551
 5179SOL     OW26995   0.156   1.162   2.890  0.1755 -0.0235  0.1214
 5179SOL    HW126996   0.110   1.237   2.851 -0.1467 -0.4215 -0.2703
 5179SOL    HW226997   0.198   1.137   2.808 -0.9097 -4.7028  0.9836
 5180SOL     OW26998   0.159   3.488  13.852  0.0139 -0.2056 -0.1941
 5180SOL    HW126999   0.170   3.416  13.913  1.0187 -1.4628 -1.8773
 5180SOL    HW227000   0.164   3.451  13.764  0.7446  1.1144 -0.7113
 5181SOL     OW27001   3.022   2.063   6.610 -0.2696  0.3247  0.2072
 5181SOL    HW127002   3.113   2.037   6.627 -0.1317 -0.4318 -1.7414
 5181SOL    HW227003   2.986   2.098   6.691  1.5344 -0.2059  1.2397
 5182SOL     OW27004   2.189   1.747   2.811 -0.0509 -0.2848  0.1031
 5182SOL    HW127005   2.168   1.829   2.768 -0.3847  0.6784  2.1063
 5182SOL    HW227006   2.202   1.778   2.900  1.6549 -0.6310 -0.0244
 5183SOL     OW27007   0.549   4.577   7.894  0.1153  0.2360  0.0764
 5183SOL    HW127008   0.479   4.513   7.890  2.0281 -1.7765 -1.3256
 5183SOL    HW227009   0.577   4.575   7.803 -0.6464 -0.7300 -0.1311
 5184SOL     OW27010   0.293   0.227  14.827  0.4025  0.0558 -0.4826
 5184SOL    HW127011   0.386   0.246  14.839  0.6669 -1.5380  0.0133
 5184SOL    HW227012   0.268   0.219  14.919  1.1586  2.4365 -0.0575
 5185SOL     OW27013   1.361   1.595  14.961  0.2249  0.2821 -0.3452
 5185SOL    HW127014   1.385   1.616  15.052  0.3757 -0.6395 -0.1689
 5185SOL    HW227015   1.288   1.535  14.969  0.8386 -0.4139  0.0437
 5186SOL     OW27016   4.651   0.243   8.295 -0.2969  0.5202 -0.0984
 5186SOL    HW127017   0.005   0.276   8.246 -1.4631  2.2782 -0.7236
 5186SOL    HW227018   4.620   0.167   8.245 -0.6048  0.5393  0.0655
 5187SOL     OW27019   0.599   3.733   7.032 -0.2181 -0.1227 -0.1674
 5187SOL    HW127020   0.622   3.808   7.088 -0.5394 -1.7654  2.1556
 5187SOL    HW227021   0.540   3.693   7.096  1.6778 -1.4700  0.7326
 5188SOL     OW27022   0.732   2.531   5.785  0.0489 -0.3453  0.5686
 5188SOL    HW127023   0.791   2.570   5.721 -0.6887 -2.1080 -1.1826
 5188SOL    HW227024   0.681   2.472   5.729  0.5843  2.9396 -3.3886
 5189SOL     OW27025   0.628   1.390   5.778 -0.0358  0.3254  0.4811
 5189SOL    HW127026   0.641   1.449   5.703 -1.8489 -0.6270 -0.5742
 5189SOL    HW227027   0.555   1.439   5.816 -2.5885 -1.4757 -2.1207
 5190SOL     OW27028   3.147   3.268   7.367 -0.2190 -0.3871  0.6085
 5190SOL    HW127029   3.095   3.334   7.412  0.5397  0.9997 -0.5718
 5190SOL    HW227030   3.072   3.209   7.364 -0.8946  0.4843  0.5922
 5191SOL     OW27031   0.917   4.423   6.682  0.2117  0.0510 -0.0145
 5191SOL    HW127032   0.853   4.377   6.735  1.3057 -1.3419  0.1254
 5191SOL    HW227033   0.864   4.497   6.655  0.9698  1.4665  2.3738
 5192SOL     OW27034   1.466   4.659   5.490  0.4271  0.3508 -0.7385
 5192SOL    HW127035   1.435   4.636   5.577  0.2821 -0.2788 -0.9556
 5192SOL    HW227036   1.523   0.015   5.498 -0.3775  0.7466  1.0393
 5193SOL     OW27037   3.172   1.975   3.125  0.0487 -0.0468  0.0697
 5193SOL    HW127038   3.228   1.901   3.148  0.7798  1.2385  2.5171
 5193SOL    HW227039   3.093   1.929   3.097 -0.7022  1.5129 -0.3844
 5194SOL     OW27040   1.258   0.798   4.932  0.4333  0.7846  0.2395
 5194SOL    HW127041   1.317   0.855   4.981  1.8196 -2.8294  2.7802
 5194SOL    HW227042   1.233   0.856   4.860 -1.3008  0.1958  0.3801
 5195SOL     OW27043   2.301   2.724   1.650 -0.3638  0.4108  0.0861
 5195SOL    HW127044   2.362   2.792   1.624  1.9261 -1.8597 -0.4298
 5195SOL    HW227045   2.228   2.774   1.688  0.4936  0.7507  1.2805
 5196SOL     OW27046   0.805   0.155   6.506  0.4786  0.0497 -0.0494
 5196SOL    HW127047   0.774   0.159   6.597  0.7271  0.0507  0.0344
 5196SOL    HW227048   0.789   0.243   6.472 -1.7743 -0.8143 -1.2399
 5197SOL     OW27049   2.539   1.398  14.933  0.3461  0.0753  0.0576
 5197SOL    HW127050   2.454   1.426  14.899  1.4798  0.6387 -2.3031
 5197SOL    HW227051   2.511   1.345  15.007 -1.7013  1.1285  0.0338
 5198SOL     OW27052   4.513   0.116   8.662 -0.1376  0.2155  0.4187
 5198SOL    HW127053   4.427   0.103   8.621  1.7973  2.3382 -4.3744
 5198SOL    HW227054   4.491   0.123   8.754  1.5747 -2.2563  1.0240
 5199SOL     OW27055   3.810   2.869   6.504  0.3365 -0.0065  0.5655
 5199SOL    HW127056   3.740   2.908   6.451 -0.0555 -0.4830  0.7257
 5199SOL    HW227057   3.890   2.895   6.459  0.0966  0.4840  0.4256
 5200SOL     OW27058   3.619   0.570   4.372  0.1108  0.1249  0.5409
 5200SOL    HW127059   3.594   0.539   4.284 -0.0282  1.3321  0.1514
 5200SOL    HW227060   3.637   0.659   4.344 -0.6186  0.4277  1.0368
 5201SOL     OW27061   2.976   3.988   5.276 -0.2681  0.4548  0.2308
 5201SOL    HW127062   2.991   4.013   5.185  3.4008  0.8196  0.9648
 5201SOL    HW227063   3.047   4.029   5.325  0.0965  1.3234 -1.0391
 5202SOL     OW27064   4.697   4.261  11.446 -0.7390  0.2266  0.0132
 5202SOL    HW127065   4.652   4.235  11.527 -0.7489  2.0487  0.6002
 5202SOL    HW227066   4.633   4.324  11.412 -0.4322  0.4184 -0.2103
 5203SOL     OW27067   0.240   3.608   1.216 -0.4125 -0.3281 -0.2223
 5203SOL    HW127068   0.191   3.535   1.255  0.1389 -0.3020  0.5274
 5203SOL    HW227069   0.205   3.596   1.128 -1.2939 -4.9413  0.7491
 5204SOL     OW27070   3.168   2.849   5.008  0.1545 -0.0357  0.3174
 5204SOL    HW127071   3.146   2.915   5.073 -2.2276 -0.3928 -0.1076
 5204SOL    HW227072   3.159   2.900   4.928 -0.1829 -0.3148  0.1773
 5205SOL     OW27073   1.349   4.458  11.462  0.5048 -0.4301  0.7257
 5205SOL    HW127074   1.270   4.450  11.514  0.0162  0.7470  0.1628
 5205SOL    HW227075   1.313   4.468  11.374  0.7180 -1.5925  0.5121
 5206SOL     OW27076   2.769   1.347   9.780  0.4791  0.1275 -0.5063
 5206SOL    HW127077   2.743   1.426   9.733 -0.3245  0.2031  0.0650
 5206SOL    HW227078   2.739   1.286   9.713 -1.3825  0.4264  0.0753
 5207SOL     OW27079   0.514   0.081   6.162  0.4054 -0.3012 -0.4333
 5207SOL    HW127080   0.428   0.119   6.145  1.0835  1.3695 -0.0604
 5207SOL    HW227081   0.513   0.080   6.257 -1.9534 -1.0999 -0.4651
 5208SOL     OW27082   0.745   4.618  16.382  0.0473 -0.6868  0.0479
 5208SOL    HW127083   0.801   4.563  16.328  1.1955 -1.1033  1.6442
 5208SOL    HW227084   0.656   4.592  16.360 -1.0292  2.5191  0.5468
 5209SOL     OW27085   3.298   0.824   1.004  0.7707 -0.2436 -0.8033
 5209SOL    HW127086   3.370   0.823   0.941  0.0101  0.2473 -1.6791
 5209SOL    HW227087   3.261   0.910   0.984  3.1082  0.5186 -1.7703
 5210SOL     OW27088   3.237   0.793   0.606  0.0036 -0.9270  0.0932
 5210SOL    HW127089   3.193   0.716   0.641  0.2973 -0.7220  0.9138
 5210SOL    HW227090   3.306   0.798   0.672  0.0490 -1.7042  0.1048
 5211SOL     OW27091   0.609   2.018  13.522 -0.1632 -0.4333 -0.0667
 5211SOL    HW127092   0.703   2.001  13.516 -0.0220  0.5497 -0.6375
 5211SOL    HW227093   0.595   2.078  13.448 -0.8640  1.1678  1.3538
 5212SOL     OW27094   0.038   4.185   0.507 -0.4009 -0.3769 -0.2719
 5212SOL    HW127095   4.705   4.155   0.580  0.6959  2.2747  1.6289
 5212SOL    HW227096   0.095   4.109   0.496  0.2935  0.1395 -0.2181
 5213SOL     OW27097   2.621   1.858   6.462 -0.0765 -0.1198 -0.5151
 5213SOL    HW127098   2.547   1.798   6.466 -0.9795  0.7192 -4.0543
 5213SOL    HW227099   2.684   1.807   6.512 -2.1226 -0.4198  1.7117
 5214SOL     OW27100   2.797   1.254  11.059 -0.2486 -0.2265 -0.0751
 5214SOL    HW127101   2.730   1.186  11.068 -1.8371  0.9232 -3.0988
 5214SOL    HW227102   2.793   1.283  10.968  0.4096  0.8628  0.2446
 5215SOL     OW27103   1.745   1.468  12.179  0.2559 -0.0223  0.1597
 5215SOL    HW127104   1.714   1.559  12.181 -0.4966 -0.2860  0.8427
 5215SOL    HW227105   1.670   1.434  12.131 -0.5781 -0.2961  1.6575
 5216SOL     OW27106   3.402   1.886  10.204 -0.1140  0.2563  0.1568
 5216SOL    HW127107   3.338   1.818  10.183 -0.1787  0.1654  0.6525
 5216SOL    HW227108   3.472   1.852  10.147 -0.0287  0.1406  0.3298
 5217SOL     OW27109   4.203   1.030   4.692  0.6940  0.0230  0.4104
 5217SOL    HW127110   4.263   1.097   4.659 -1.5807  2.0035  0.2688
 5217SOL    HW227111   4.138   1.034   4.622  0.2386  0.1845  0.8462
 5218SOL     OW27112   0.232   1.546   7.808  0.6552  0.5905 -0.2110
 5218SOL    HW127113   0.246   1.568   7.716 -0.8518 -2.1918 -1.0947
 5218SOL    HW227114   0.138   1.528   7.812  1.0843 -1.8418 -0.8531
 5219SOL     OW27115   2.576   1.361   7.079  0.5000  0.3276 -0.2251
 5219SOL    HW127116   2.637   1.287   7.085  0.9539  0.5036 -2.5110
 5219SOL    HW227117   2.494   1.321   7.051  1.9247 -1.2747 -2.0797
 5220SOL     OW27118   2.992   1.628  11.062  0.1863 -0.0870 -0.0033
 5220SOL    HW127119   2.917   1.586  11.104 -0.2244  2.0332  1.3734
 5220SOL    HW227120   3.054   1.617  11.134 -0.6653 -1.3218  0.5492
 5221SOL     OW27121   1.238   1.198   4.759  0.1396  0.0696 -0.4238
 5221SOL    HW127122   1.306   1.200   4.692  0.7413  2.3083  0.2406
 5221SOL    HW227123   1.157   1.198   4.708  0.0540  3.0890 -0.2915
 5222SOL     OW27124   1.819   1.573   3.636 -0.7354 -0.6197  0.6374
 5222SOL    HW127125   1.847   1.622   3.713  1.4560 -2.1921  0.8381
 5222SOL    HW227126   1.754   1.624   3.588 -0.8797 -0.5588  0.8993
 5223SOL     OW27127   3.675   1.402   3.264  0.0975  0.1073 -0.5961
 5223SOL    HW127128   3.679   1.364   3.177  3.3954 -0.7965 -0.0385
 5223SOL    HW227129   3.596   1.455   3.278  0.8957  1.6811 -2.0961
 5224SOL     OW27130   3.792   0.043   7.181 -0.1976 -0.3940  0.6968
 5224SOL    HW127131   3.733   0.036   7.106 -0.6868  1.5235  0.8866
 5224SOL    HW227132   3.830   4.677   7.177 -0.6903 -0.5609 -0.4603
 5225SOL     OW27133   2.294   2.666   5.475  0.0053  0.1224 -0.3946
 5225SOL    HW127134   2.223   2.727   5.497  0.2393  0.5801 -0.9236
 5225SOL    HW227135   2.368   2.723   5.495  2.0313 -2.6821  0.0368
 5226SOL     OW27136   4.282   1.391   7.014  0.0611  0.2554 -0.2323
 5226SOL    HW127137   4.318   1.450   7.080  1.5051  0.6187 -1.3631
 5226SOL    HW227138   4.197   1.435   7.008  0.1063  0.5248  1.1004
 5227SOL     OW27139   0.526   3.175   7.196  0.2691  0.2524 -0.1002
 5227SOL    HW127140   0.499   3.235   7.126  0.2957  0.1967 -0.1587
 5227SOL    HW227141   0.488   3.228   7.266  0.8421 -1.3001  1.3790
 5228SOL     OW27142   3.033   1.247  12.554  0.2116 -0.2437  0.0412
 5228SOL    HW127143   3.103   1.226  12.491 -1.1715 -0.5603 -1.4022
 5228SOL    HW227144   3.010   1.339  12.545 -0.2940 -0.6416 -2.9212
 5229SOL     OW27145   2.037   3.972   8.024 -0.7539  0.6087  0.4675
 5229SOL    HW127146   2.097   3.968   8.099 -1.4038 -1.0567  0.8919
 5229SOL    HW227147   2.090   3.932   7.955  0.6937  0.5045  1.6431
 5230SOL     OW27148   3.737   2.764   3.497  0.0647  0.0170  0.3314
 5230SOL    HW127149   3.831   2.756   3.483  0.1049 -0.4968  0.8650
 5230SOL    HW227150   3.723   2.670   3.513 -1.7154  0.1276 -0.5712
 5231SOL     OW27151   2.676   4.558   4.204 -0.1187 -0.2079  0.0671
 5231SOL    HW127152   2.652   4.552   4.296 -0.0275 -0.3377  0.0817
 5231SOL    HW227153   2.678   4.467   4.174  1.8259 -0.9123  2.3727
 5232SOL     OW27154   0.945   2.730   7.754  0.5261  0.1630  0.1331
 5232SOL    HW127155   1.023   2.685   7.785  0.3829 -0.1023  0.1049
 5232SOL    HW227156   0.876   2.704   7.816 -1.4855 -0.2599 -2.2822
 5233SOL     OW27157   3.612   4.486   0.762 -0.3617 -0.2308 -0.2759
 5233SOL    HW127158   3.553   4.540   0.710 -0.3320  0.1497  0.0881
 5233SOL    HW227159   3.547   4.437   0.813  0.3964 -0.5530  0.3811
 5234SOL     OW27160   3.079   0.723   4.709  0.3574  0.0243 -0.0714
 5234SOL    HW127161   3.093   0.629   4.724  0.5864  0.2877  1.3504
 5234SOL    HW227162   3.033   0.744   4.791  1.0809 -0.6126  0.5012
 5235SOL     OW27163   4.015   4.140   1.807 -0.1780  0.1542 -0.4993
 5235SOL    HW127164   3.927   4.166   1.780  0.2748  3.1475  0.9430
 5235SOL    HW227165   4.044   4.221   1.848 -0.3799 -0.6341  1.1769
 5236SOL     OW27166   3.713   4.190  10.712 -0.0946 -0.4195 -0.1803
 5236SOL    HW127167   3.755   4.276  10.718 -0.6375  0.0319 -2.9321
 5236SOL    HW227168   3.629   4.231  10.690 -0.6271 -0.8559  1.0872
 5237SOL     OW27169   3.593   3.833  11.782 -0.7750  0.0000  0.2749
 5237SOL    HW127170   3.651   3.909  11.782  0.6525 -1.0938  0.3673
 5237SOL    HW227171   3.535   3.851  11.707 -0.6138  0.2233  0.2052
 5238SOL     OW27172   4.346   1.542   1.795 -0.5340  0.5247  0.1112
 5238SOL    HW127173   4.291   1.468   1.823 -2.5547  1.5810 -1.0471
 5238SOL    HW227174   4.419   1.494   1.757  0.7044  1.9784  0.6285
 5239SOL     OW27175   0.331   1.006   8.371 -0.3060  0.3317  1.0244
 5239SOL    HW127176   0.347   0.973   8.460  1.3235 -1.9047 -0.1232
 5239SOL    HW227177   0.386   1.084   8.360  0.1403  0.1311  1.7997
 5240SOL     OW27178   2.948   4.509   8.934 -0.1153 -0.5959  0.4030
 5240SOL    HW127179   3.007   4.518   8.859 -2.7627 -1.9559 -1.8462
 5240SOL    HW227180   2.991   4.555   9.006  1.3537  2.4376 -2.4044
 5241SOL     OW27181   3.942   0.040   6.814  0.4492  0.1953 -0.1666
 5241SOL    HW127182   4.024   0.023   6.860  0.5604  0.7564 -0.1517
 5241SOL    HW227183   3.961   0.017   6.724  1.1833 -2.6028  0.6918
 5242SOL     OW27184   2.207   4.703   4.693  0.5484 -0.0706  0.2723
 5242SOL    HW127185   2.224   0.073   4.668  0.2658  0.0974  0.6966
 5242SOL    HW227186   2.195   4.707   4.788 -0.5377  1.9020  0.0571
 5243SOL     OW27187   4.471   0.808   2.486  0.1218  0.2616 -0.1095
 5243SOL    HW127188   4.406   0.877   2.497  0.4612  0.0465  3.3269
 5243SOL    HW227189   4.533   0.843   2.423  1.4608 -0.7359  0.6436
 5244SOL     OW27190   2.211   2.963   9.889 -0.3225  0.2116  0.1101
 5244SOL    HW127191   2.159   3.044   9.882 -1.6709 -0.7065 -0.4392
 5244SOL    HW227192   2.269   2.987   9.961 -0.8517  0.2678  0.5167
 5245SOL     OW27193   1.388   1.242   2.321  0.4553 -0.4861 -0.2633
 5245SOL    HW127194   1.383   1.317   2.380  0.4332 -1.1471  0.5725
 5245SOL    HW227195   1.296   1.214   2.319  0.2639  0.1565 -0.3165
 5246SOL     OW27196   4.338   2.228   2.478  0.0322  0.3840  0.4219
 5246SOL    HW127197   4.244   2.246   2.475 -0.2688 -1.2214  0.3746
 5246SOL    HW227198   4.342   2.133   2.490  0.6927  0.2008 -1.3410
 5247SOL     OW27199   1.827   2.040   4.733  0.1901  0.2462 -0.4664
 5247SOL    HW127200   1.870   2.049   4.818 -0.0295 -1.4675 -0.1616
 5247SOL    HW227201   1.814   2.134   4.724 -1.2885  0.1508  0.7751
 5248SOL     OW27202   2.058   2.316   4.394 -0.3245 -0.2443  0.0529
 5248SOL    HW127203   2.102   2.293   4.312  0.6066  0.8535  0.2364
 5248SOL    HW227204   1.969   2.340   4.368  0.8080  3.2359 -0.6634
 5249SOL     OW27205   0.068   3.181   7.232  0.0079 -0.2915  0.3915
 5249SOL    HW127206   0.018   3.187   7.313 -2.5245  1.5859 -1.2962
 5249SOL    HW227207   0.068   3.087   7.212  0.8680 -0.2339  0.1163
 5250SOL     OW27208   1.961   2.747   5.763  0.0018  0.0238  0.0102
 5250SOL    HW127209   1.957   2.816   5.829 -0.6839 -0.4478  0.4640
 5250SOL    HW227210   1.876   2.703   5.761  0.3222 -0.6607  1.9562
 5251SOL     OW27211   0.399   0.893   0.429  0.2551 -0.0027 -0.5826
 5251SOL    HW127212   0.415   0.987   0.419 -3.0356  0.5315 -0.6013
 5251SOL    HW227213   0.492   0.870   0.420  0.7223  2.1635 -1.3762
 5252SOL     OW27214   4.334   2.167   5.616  0.1830 -0.2140 -0.5424
 5252SOL    HW127215   4.318   2.159   5.522  1.5050  1.5519 -0.9039
 5252SOL    HW227216   4.427   2.145   5.622 -0.3001 -2.3336 -1.1438
 5253SOL     OW27217   4.538   1.944  12.681  0.1775 -0.4613 -0.4728
 5253SOL    HW127218   4.543   2.038  12.702  1.8487 -0.9237  1.2139
 5253SOL    HW227219   4.446   1.921  12.685 -0.0384  0.7704  1.4736
 5254SOL     OW27220   3.290   0.872   2.022  0.2749 -0.3415 -0.1305
 5254SOL    HW127221   3.343   0.884   1.944  1.2275 -2.4469  0.1827
 5254SOL    HW227222   3.232   0.948   2.015  1.2574  0.0489 -3.8641
 5255SOL     OW27223   1.678   0.072   1.931 -0.6555  0.3992 -0.3763
 5255SOL    HW127224   1.607   0.135   1.931 -1.3333 -0.3765  1.0972
 5255SOL    HW227225   1.749   0.116   1.884  0.3173  0.8739  1.5733
 5256SOL     OW27226   2.904   3.551   7.282 -0.3129 -0.2005  0.1665
 5256SOL    HW127227   2.970   3.576   7.217  1.0952 -2.2309  0.8436
 5256SOL    HW227228   2.961   3.545   7.358  0.6702 -0.9632 -0.6322
 5257SOL     OW27229   2.146   3.519  14.806 -0.0918  0.7598 -0.2184
 5257SOL    HW127230   2.056   3.526  14.837  0.2980  0.2695  1.0207
 5257SOL    HW227231   2.142   3.430  14.770  0.8153  1.3998 -1.9001
 5258SOL     OW27232   1.387   0.019   4.075 -0.2209  0.3130  0.7481
 5258SOL    HW127233   1.370   0.045   4.166 -2.0255  0.4324  0.3817
 5258SOL    HW227234   1.376   4.646   4.074  1.9746  0.0734 -0.1553
 5259SOL     OW27235   1.076   1.085   2.006  0.1904  0.2155 -0.2197
 5259SOL    HW127236   1.066   1.155   1.942 -1.4276  0.9005  0.7953
 5259SOL    HW227237   1.087   1.012   1.946 -0.8953 -0.0034 -0.1452
 5260SOL     OW27238   1.669   4.459   8.800  0.3682  0.0804 -0.8116
 5260SOL    HW127239   1.732   4.525   8.771 -1.8833  2.2348 -0.7393
 5260SOL    HW227240   1.688   4.391   8.735  0.9761 -0.4992 -0.0368
 5261SOL     OW27241   0.510   1.395   7.752  0.1937 -0.4740 -0.3015
 5261SOL    HW127242   0.497   1.427   7.841 -0.7737  1.7013 -1.2142
 5261SOL    HW227243   0.484   1.303   7.761 -2.2229  0.3675  1.5062
 5262SOL     OW27244   3.658   3.923  12.519 -0.2978 -0.2756 -0.1280
 5262SOL    HW127245   3.592   3.936  12.588  1.2551  0.6366  1.1777
 5262SOL    HW227246   3.728   3.889  12.574  0.2966 -1.0023 -1.3402
 5263SOL     OW27247   2.565   2.107  15.314 -0.0947  0.0603  0.0739
 5263SOL    HW127248   2.610   2.087  15.231 -1.4090 -0.5782 -0.4744
 5263SOL    HW227249   2.614   2.052  15.375 -1.3806 -0.1898  0.8735
 5264SOL     OW27250   0.497   0.390  15.910  0.5863 -0.0361 -0.4140
 5264SOL    HW127251   0.538   0.316  15.957  0.7999  1.5962  1.9675
 5264SOL    HW227252   0.451   0.433  15.982  0.5870  0.4423 -0.7018
 5265SOL     OW27253   2.764   1.741   5.845  0.2206  0.8629  0.3462
 5265SOL    HW127254   2.679   1.778   5.821 -0.2606 -0.7412 -0.4157
 5265SOL    HW227255   2.730   1.653   5.860  2.3188  0.2350  1.5284
 5266SOL     OW27256   2.489   2.381  17.552 -0.0267 -0.1932  0.1909
 5266SOL    HW127257   2.477   2.290  17.580  3.1599 -0.2942  1.2484
 5266SOL    HW227258   2.569   2.374  17.500  0.2389  2.0576  0.2945
 5267SOL     OW27259   4.249   3.018  11.000 -0.1802  0.0466 -0.0820
 5267SOL    HW127260   4.287   2.982  11.080  0.0034  1.0927  0.3025
 5267SOL    HW227261   4.159   2.986  11.000 -0.1286 -0.0998 -0.5728
 5268SOL     OW27262   0.257   2.325   8.301 -0.1706  0.1778 -0.0695
 5268SOL    HW127263   0.211   2.366   8.375 -2.0273  0.8618 -1.6012
 5268SOL    HW227264   0.257   2.230   8.317 -3.3816  0.1289 -0.2587
 5269SOL     OW27265   0.707   3.616   9.794  0.3914 -0.2342  0.2726
 5269SOL    HW127266   0.745   3.695   9.832  2.6508 -0.8725 -0.5895
 5269SOL    HW227267   0.755   3.547   9.840 -0.7962  0.3344  2.3369
 5270SOL     OW27268   3.117   1.034   4.855  0.2756 -0.0878  0.2305
 5270SOL    HW127269   3.185   0.985   4.903  0.0858 -0.7896 -0.2104
 5270SOL    HW227270   3.176   1.074   4.792  1.6037 -2.2119  0.1001
 5271SOL     OW27271   1.664   3.828   0.591 -0.0656 -0.0107 -0.4259
 5271SOL    HW127272   1.730   3.873   0.643 -0.9501  1.5910 -0.6752
 5271SOL    HW227273   1.714   3.806   0.513  0.1182  1.3019 -0.6821
 5272SOL     OW27274   2.905   3.323   1.858  0.3442 -0.3271 -0.3992
 5272SOL    HW127275   2.826   3.270   1.845 -0.5039  0.9635 -0.5364
 5272SOL    HW227276   2.961   3.270   1.914  0.7239 -1.2269 -1.6361
 5273SOL     OW27277   2.184   2.176  16.144  1.0811  0.1717  0.1869
 5273SOL    HW127278   2.169   2.170  16.049  1.7016  1.3235  0.0041
 5273SOL    HW227279   2.156   2.092  16.178 -0.7873  0.3246 -0.9748
 5274SOL     OW27280   1.255   0.402  13.389 -0.2732 -0.4504 -0.4894
 5274SOL    HW127281   1.218   0.458  13.457 -1.7674 -1.3327 -0.5875
 5274SOL    HW227282   1.302   0.473  13.344  0.0961  0.4391  1.3112
 5275SOL     OW27283   1.551   2.596   0.830 -0.2219  0.9870 -0.0241
 5275SOL    HW127284   1.536   2.630   0.741  0.5173  2.1273  0.2848
 5275SOL    HW227285   1.549   2.501   0.824  2.0950  0.8712  1.3153
 5276SOL     OW27286   0.615   3.157   2.530  0.5455 -0.4987  1.3918
 5276SOL    HW127287   0.531   3.119   2.502  1.4947 -1.1050 -0.6343
 5276SOL    HW227288   0.640   3.099   2.602  0.8567 -1.3506  0.5926
 5277SOL     OW27289   3.655   0.444  10.993 -0.4267 -0.1345 -1.0650
 5277SOL    HW127290   3.566   0.410  11.003 -0.0126 -0.6710  0.7747
 5277SOL    HW227291   3.690   0.385  10.926 -1.2615 -0.5663 -1.1217
 5278SOL     OW27292   4.152   4.379  17.621  0.4618  0.2549 -0.6683
 5278SOL    HW127293   4.083   4.430  17.577 -1.0795  0.7687  2.3928
 5278SOL    HW227294   4.127   4.379   0.025 -2.0816 -1.8653 -1.3613
 5279SOL     OW27295   2.662   4.208   1.181 -0.5838  0.1086 -0.1773
 5279SOL    HW127296   2.747   4.210   1.224  0.0972 -0.8756 -1.4930
 5279SOL    HW227297   2.693   4.168   1.100 -3.7668 -1.1252 -0.8117
 5280SOL     OW27298   1.957   4.272   6.494  0.3869 -0.0081  0.4794
 5280SOL    HW127299   1.876   4.323   6.502  0.3601 -0.4022  2.5813
 5280SOL    HW227300   2.004   4.285   6.576  0.1187  0.8054  0.5096
 5281SOL     OW27301   4.461   2.627   5.596 -0.0998 -0.1956  0.2344
 5281SOL    HW127302   4.414   2.698   5.553  0.2700 -0.0143  0.1308
 5281SOL    HW227303   4.388   2.578   5.636  1.5867 -1.9512  1.1698
 5282SOL     OW27304   0.907   0.874  11.645 -0.0239 -0.1366 -0.5049
 5282SOL    HW127305   0.985   0.869  11.590 -0.3940  1.8704 -1.2123
 5282SOL    HW227306   0.942   0.849  11.730 -1.7347  2.2238  0.8826
 5283SOL     OW27307   3.391   4.557   7.548  0.6059 -0.2201 -0.2256
 5283SOL    HW127308   3.401   4.493   7.619 -1.4390  1.0160  1.1912
 5283SOL    HW227309   3.461   4.531   7.488  0.9168 -1.3123  0.6173
 5284SOL     OW27310   4.006   3.181   4.795 -0.7797 -0.0967  0.2037
 5284SOL    HW127311   4.007   3.092   4.831 -1.8524 -1.1631 -2.4190
 5284SOL    HW227312   4.003   3.163   4.701 -1.7340 -1.4070  0.4812
 5285SOL     OW27313   4.484   1.598   2.668 -0.5382  0.0303  0.3918
 5285SOL    HW127314   4.551   1.595   2.599 -0.5442  1.9286  0.3049
 5285SOL    HW227315   4.419   1.533   2.642 -0.6237  0.7271 -1.1204
 5286SOL     OW27316   2.258   2.249  10.079 -0.1766 -0.0403 -0.3212
 5286SOL    HW127317   2.342   2.224  10.042 -0.9254 -2.0537 -0.7056
 5286SOL    HW227318   2.266   2.338  10.046  1.3818 -0.4722 -1.0987
 5287SOL     OW27319   4.096   3.005   7.441 -0.1149 -0.1839 -0.3657
 5287SOL    HW127320   4.166   2.942   7.459  0.3194  0.3231 -0.2957
 5287SOL    HW227321   4.030   2.951   7.398  0.7294 -2.2096  0.8757
 5288SOL     OW27322   1.901   0.541  13.281  0.4677  0.3475 -0.6270
 5288SOL    HW127323   1.811   0.563  13.305  0.5700  1.8839 -1.5934
 5288SOL    HW227324   1.909   0.447  13.297  1.7964  0.5508 -0.0777
 5289SOL     OW27325   1.306   2.760   8.408 -0.2117 -0.4035  0.2242
 5289SOL    HW127326   1.329   2.845   8.447 -0.0020 -0.6567  0.6587
 5289SOL    HW227327   1.283   2.714   8.489  1.0969  1.2566  1.5429
 5290SOL     OW27328   1.923   2.469   0.802  0.3002  0.2991 -0.1215
 5290SOL    HW127329   1.843   2.504   0.761 -0.1769  0.3718  0.8804
 5290SOL    HW227330   1.950   2.542   0.858  0.7043 -0.6907  0.9567
 5291SOL     OW27331   0.305   2.558   5.484 -0.5415  0.3559 -0.5074
 5291SOL    HW127332   0.257   2.636   5.456 -3.0186 -1.0954 -0.2445
 5291SOL    HW227333   0.254   2.489   5.443 -3.1830  1.0653  1.6202
 5292SOL     OW27334   1.805   0.040   3.738 -0.0580 -0.1135 -0.1771
 5292SOL    HW127335   1.856   4.691   3.698 -1.6067 -0.4039 -1.6257
 5292SOL    HW227336   1.867   0.070   3.805  0.2899 -1.4455  0.0977
 5293SOL     OW27337   3.475   1.627   4.923  0.1243  0.6812  0.1870
 5293SOL    HW127338   3.517   1.712   4.907 -1.4849  1.5887  0.7859
 5293SOL    HW227339   3.468   1.593   4.834 -1.5533  2.2366 -0.2676
 5294SOL     OW27340   0.631   3.534   4.987  0.3199  0.3275 -0.3666
 5294SOL    HW127341   0.565   3.547   4.919  1.4541  0.7581 -1.3857
 5294SOL    HW227342   0.664   3.623   4.999 -0.4264  0.5117  0.3034
 5295SOL     OW27343   1.911   1.026   8.126 -0.1335  0.3527  0.0620
 5295SOL    HW127344   1.872   1.114   8.127 -1.0297 -0.0449 -0.0228
 5295SOL    HW227345   1.999   1.051   8.097  0.2713 -0.8848  0.2331
 5296SOL     OW27346   0.620   1.806   4.494 -0.2302  0.4417  0.5885
 5296SOL    HW127347   0.665   1.746   4.435 -0.8992  0.8086 -0.2878
 5296SOL    HW227348   0.626   1.757   4.576  0.0256 -0.0586  0.2720
 5297SOL     OW27349   3.542   4.714   9.207 -0.7915 -0.6929 -0.1159
 5297SOL    HW127350   3.590   4.695   9.126 -2.4740 -2.9757 -0.5578
 5297SOL    HW227351   3.617   4.702   9.265 -0.5564  1.3812  0.0400
 5298SOL     OW27352   4.098   0.085   4.511  0.5931 -0.6679  0.1240
 5298SOL    HW127353   4.123   0.073   4.602 -1.7098  1.2266  1.0226
 5298SOL    HW227354   4.156   0.027   4.462  0.4667  1.8856 -3.0584
 5299SOL     OW27355   2.362   0.055   2.933 -0.2311 -0.2171  0.6684
 5299SOL    HW127356   2.269   0.037   2.941 -0.2730 -1.4361 -2.8579
 5299SOL    HW227357   2.396   4.714   2.998  1.6415 -0.5592 -0.6283
 5300SOL     OW27358   1.044   3.407   5.114 -0.4728 -0.0082  0.1048
 5300SOL    HW127359   1.129   3.429   5.151  0.8562 -1.4732 -2.1539
 5300SOL    HW227360   1.035   3.317   5.146  0.8699  0.2495  1.2140
 5301SOL     OW27361   2.912   0.332  14.840  0.4487 -0.2413  0.2420
 5301SOL    HW127362   2.905   0.421  14.807 -1.0448 -0.5355 -0.2213
 5301SOL    HW227363   2.958   0.292  14.766 -1.2560 -1.0072 -0.3997
 5302SOL     OW27364   0.345   4.009   2.884 -0.1150  0.3598 -0.1911
 5302SOL    HW127365   0.392   3.932   2.854  1.5124  0.1390  2.9400
 5302SOL    HW227366   0.411   4.078   2.873 -0.4509  0.9537  1.4014
 5303SOL     OW27367   0.729   2.670   2.004 -0.0623  0.0940 -0.5675
 5303SOL    HW127368   0.798   2.656   2.069  1.3963 -1.5201 -2.4676
 5303SOL    HW227369   0.762   2.744   1.954  0.5071 -0.0899 -0.4627
 5304SOL     OW27370   1.123   2.843   4.740  0.4199  0.0221  0.1696
 5304SOL    HW127371   1.079   2.858   4.823  2.5216 -2.9056  1.8151
 5304SOL    HW227372   1.197   2.785   4.761 -0.6359 -1.6829 -0.8007
 5305SOL     OW27373   0.616   3.186   5.805  0.0918  0.2346  0.1075
 5305SOL    HW127374   0.561   3.191   5.883  1.5024  0.2318  1.0929
 5305SOL    HW227375   0.632   3.279   5.784 -1.2502  0.3903 -0.2130
 5306SOL     OW27376   4.216   2.160   4.850  0.6001 -0.5272 -0.2894
 5306SOL    HW127377   4.302   2.203   4.855 -0.9147  2.7430 -2.2296
 5306SOL    HW227378   4.224   2.130   4.759 -1.2731 -0.4051 -0.4896
 5307SOL     OW27379   2.015   0.226   5.534  0.3587 -0.0641 -0.0090
 5307SOL    HW127380   1.943   0.218   5.596  1.4757 -1.0203  1.1626
 5307SOL    HW227381   1.970   0.230   5.450 -1.3837  0.7917  0.9826
 5308SOL     OW27382   3.022   4.335   4.069 -0.0076  0.3459  0.7648
 5308SOL    HW127383   3.013   4.374   3.982 -3.9256 -1.8783  0.1951
 5308SOL    HW227384   3.016   4.241   4.054 -3.5001  0.6682  0.1756
 5309SOL     OW27385   0.257   4.678   8.577 -0.1096 -0.4483  0.8900
 5309SOL    HW127386   0.195   4.606   8.571 -0.6767  0.2508 -1.4055
 5309SOL    HW227387   0.200   0.033   8.567  1.4083  0.4160 -1.2224
 5310SOL     OW27388   1.989   3.151   9.939 -0.1138  0.0588 -0.0403
 5310SOL    HW127389   1.951   3.124   9.856  0.0185 -0.8998  0.2084
 5310SOL    HW227390   1.945   3.231   9.966 -0.3587 -0.3166  0.6703
 5311SOL     OW27391   0.725   4.041  12.029  0.1158  0.3242 -0.7613
 5311SOL    HW127392   0.739   4.046  11.935 -0.2758 -0.6903 -0.8702
 5311SOL    HW227393   0.643   4.085  12.049  0.7659  0.7737  1.0089
 5312SOL     OW27394   2.103   3.320   4.050 -0.8285 -0.1865 -0.3675
 5312SOL    HW127395   2.092   3.365   4.133 -0.9095  0.3469 -0.6687
 5312SOL    HW227396   2.193   3.291   4.066 -1.5184 -1.0180  1.9956
 5313SOL     OW27397   2.392   1.905  16.627 -0.1990 -0.0863 -0.0163
 5313SOL    HW127398   2.423   1.995  16.612 -0.3519 -0.1187 -0.5595
 5313SOL    HW227399   2.475   1.860  16.616  0.9627  1.3649  2.8818
 5314SOL     OW27400   1.889   2.689  17.420  0.6279  0.2969  0.7237
 5314SOL    HW127401   1.891   2.760  17.485  1.5617  0.8356  0.1016
 5314SOL    HW227402   1.934   2.625  17.476  0.6260 -0.3367 -0.0060
 5315SOL     OW27403   1.372   3.127  13.753 -0.1106  0.1888  0.0096
 5315SOL    HW127404   1.286   3.088  13.741  0.6413 -1.0783 -1.1727
 5315SOL    HW227405   1.337   3.201  13.803  0.4389  0.5013 -0.0693
 5316SOL     OW27406   4.443   3.789   7.778  0.7513  0.1864  0.1547
 5316SOL    HW127407   4.462   3.741   7.859 -3.0911  2.2385  2.2979
 5316SOL    HW227408   4.494   3.745   7.710  0.8881 -1.0697  1.0656
 5317SOL     OW27409   1.148   0.373   1.907 -0.2294  0.3881 -0.0374
 5317SOL    HW127410   1.188   0.288   1.888  0.6146  0.6910  0.3846
 5317SOL    HW227411   1.214   0.431   1.943 -0.4685  1.3222 -1.1067
 5318SOL     OW27412   4.258   1.894   5.072  0.2840  0.0766 -0.4537
 5318SOL    HW127413   4.193   1.958   5.101  0.3234 -0.4716  0.8936
 5318SOL    HW227414   4.235   1.825   5.135  1.0621  0.0700 -0.1815
 5319SOL     OW27415   3.518   3.900   7.200  0.5163 -0.2708  0.8729
 5319SOL    HW127416   3.507   3.822   7.146 -0.7590  0.5639 -0.0921
 5319SOL    HW227417   3.461   3.871   7.271  1.5719 -1.7495  1.0901
 5320SOL     OW27418   2.307   4.427   6.440 -0.3318  0.0277 -0.1920
 5320SOL    HW127419   2.291   4.384   6.356 -0.3116 -0.5854  0.1138
 5320SOL    HW227420   2.398   4.454   6.429  0.0978 -1.9369 -1.3663
 5321SOL     OW27421   0.026   2.258   8.764  0.6433 -0.4142 -0.1993
 5321SOL    HW127422   0.076   2.299   8.834 -0.4040 -1.7436  1.3356
 5321SOL    HW227423   4.666   2.226   8.804 -0.0491 -0.2882 -1.4828
 5322SOL     OW27424   3.248   0.024  17.559  0.4969  0.4077  0.6641
 5322SOL    HW127425   3.248   0.099  17.618  1.7659 -1.1058  2.5732
 5322SOL    HW227426   3.212   0.072  17.485  0.3658 -2.0376 -0.8660
 5323SOL     OW27427   0.622   2.146   6.947 -0.0193 -0.2238  0.0883
 5323SOL    HW127428   0.690   2.152   7.014  0.0413 -1.4167  0.1327
 5323SOL    HW227429   0.643   2.073   6.888  1.4447 -0.4994  0.9525
 5324SOL     OW27430   0.911   1.566   5.101  0.0579 -0.0840 -0.0791
 5324SOL    HW127431   0.902   1.595   5.191 -2.0051  2.7197 -1.2025
 5324SOL    HW227432   0.904   1.653   5.062  1.5239 -0.1755 -0.5657
 5325SOL     OW27433   2.224   1.548   8.938 -0.6096 -0.0572  0.4571
 5325SOL    HW127434   2.165   1.538   8.863 -0.0615  0.5666 -0.0549
 5325SOL    HW227435   2.309   1.518   8.904 -1.0872 -0.6611 -0.2077
 5326SOL     OW27436   2.809   3.200  17.653  0.2390 -0.3727  0.2435
 5326SOL    HW127437   2.754   3.128  17.686 -1.3206 -0.0686 -1.7397
 5326SOL    HW227438   2.878   3.142  17.619  0.3141  0.7740 -1.5254
 5327SOL     OW27439   3.736   2.884  17.516 -0.1783 -0.1822  0.2080
 5327SOL    HW127440   3.687   2.967  17.514 -2.8765 -1.7669  0.4195
 5327SOL    HW227441   3.737   2.860  17.423  1.5533  0.4624  0.0673
 5328SOL     OW27442   4.601   3.042  12.466  0.4769  0.7104 -0.1742
 5328SOL    HW127443   4.615   3.137  12.468  0.1090  0.7651 -0.1833
 5328SOL    HW227444   4.523   3.041  12.521  0.3035 -1.1150 -0.4524
 5329SOL     OW27445   3.581   1.624   5.172  0.3728 -0.2627  0.0674
 5329SOL    HW127446   3.640   1.699   5.180  1.2500 -0.7837 -1.5773
 5329SOL    HW227447   3.537   1.641   5.089  3.2396 -3.5179 -2.1240
 5330SOL     OW27448   4.077   4.572   7.656 -0.1287  0.2980 -0.3195
 5330SOL    HW127449   4.098   4.481   7.633  0.3234  0.1945  0.5124
 5330SOL    HW227450   4.120   4.573   7.741 -0.2904  1.3230 -0.2559
 5331SOL     OW27451   1.401   1.449   3.431  0.7344  0.6685 -0.3105
 5331SOL    HW127452   1.390   1.359   3.400  1.0085  0.0735  1.2742
 5331SOL    HW227453   1.496   1.444   3.446  0.5278  0.2785  0.8759
 5332SOL     OW27454   0.326   1.410  10.943  0.2578  0.5476  0.2812
 5332SOL    HW127455   0.357   1.463  10.870 -0.5961  1.1529  0.3631
 5332SOL    HW227456   0.233   1.413  10.922 -0.1482 -0.5040  1.8744
 5333SOL     OW27457   1.903   1.194  11.664 -0.6540  0.4213  1.0699
 5333SOL    HW127458   1.929   1.233  11.581 -0.7930 -0.6839  0.5000
 5333SOL    HW227459   1.973   1.226  11.720 -0.5980  1.6110  0.3130
 5334SOL     OW27460   1.394   4.449  15.574 -0.0487 -0.0991  0.4895
 5334SOL    HW127461   1.311   4.424  15.533 -0.6895  0.5543  1.3991
 5334SOL    HW227462   1.398   4.542  15.550  0.8232 -0.1677  0.3518
 5335SOL     OW27463   2.193   3.058   7.160 -0.0642 -0.0348 -0.3887
 5335SOL    HW127464   2.198   3.036   7.067  0.3560  0.4146 -0.4727
 5335SOL    HW227465   2.242   2.981   7.189 -0.6692 -0.5445 -0.7256
 5336SOL     OW27466   2.044   3.490   2.587 -0.6504  0.5642 -0.4527
 5336SOL    HW127467   2.012   3.498   2.676 -0.6121 -0.0096 -0.3906
 5336SOL    HW227468   1.971   3.449   2.540  0.5788 -1.9548 -0.1284
 5337SOL     OW27469   1.683   0.310   2.554 -0.1965  0.6252 -0.2889
 5337SOL    HW127470   1.708   0.246   2.488 -1.5164  1.1606 -1.2973
 5337SOL    HW227471   1.655   0.383   2.499 -0.2684  0.4815 -0.4423
 5338SOL     OW27472   4.556   4.629   2.691 -0.0503 -0.0328  0.3011
 5338SOL    HW127473   4.482   4.689   2.704 -0.3225 -0.2385 -0.3140
 5338SOL    HW227474   4.566   4.604   2.783 -1.9485 -1.4315  0.1227
 5339SOL     OW27475   4.627   2.433   6.581  0.4244 -0.1457  0.2851
 5339SOL    HW127476   4.668   2.476   6.506  0.8857  0.3347  0.8142
 5339SOL    HW227477   4.677   2.465   6.656  2.2604  0.1669 -1.0654
 5340SOL     OW27478   3.728   4.109  17.328  0.5355 -0.7631  0.0155
 5340SOL    HW127479   3.709   4.081  17.417  0.5590  1.2045  0.6471
 5340SOL    HW227480   3.737   4.026  17.282 -1.0608 -1.5108  1.0958
 5341SOL     OW27481   0.030   1.429   3.677 -0.8177  0.2680 -0.2320
 5341SOL    HW127482   4.701   1.369   3.732  1.4210  0.7946  2.4009
 5341SOL    HW227483   0.056   1.372   3.605 -1.9390  0.1193 -0.5164
 5342SOL     OW27484   1.493   2.179   8.562  0.7044  0.2123 -0.2276
 5342SOL    HW127485   1.574   2.217   8.597 -0.4933 -0.2086  3.0691
 5342SOL    HW227486   1.534   2.103   8.522  1.4017  0.4066  0.1127
 5343SOL     OW27487   0.608   1.905   7.151 -0.2971 -0.1589  0.0549
 5343SOL    HW127488   0.525   1.948   7.129  0.8559  2.7963  1.4445
 5343SOL    HW227489   0.654   1.903   7.067 -0.5068 -0.4116 -0.0558
 5344SOL     OW27490   1.064   2.493   2.464 -0.7927  0.0130  0.2810
 5344SOL    HW127491   1.122   2.557   2.423  0.7476 -1.6786 -0.1911
 5344SOL    HW227492   1.088   2.418   2.408  0.7837  0.3528  0.5278
 5345SOL     OW27493   3.163   0.504  11.415  0.4909  0.1721  0.0303
 5345SOL    HW127494   3.225   0.493  11.343  1.1639 -2.3539  0.9972
 5345SOL    HW227495   3.160   0.419  11.458  2.0573  0.0965 -0.0029
 5346SOL     OW27496   2.379   0.293   1.337 -0.0778  0.9398 -0.2962
 5346SOL    HW127497   2.315   0.344   1.386 -0.5585 -0.2963  0.3797
 5346SOL    HW227498   2.322   0.286   1.260  2.1142 -0.3055 -1.8292
 5347SOL     OW27499   0.864   2.019   2.988  0.7504 -0.3578  0.7224
 5347SOL    HW127500   0.941   1.988   3.036 -0.1740 -1.1191  1.7160
 5347SOL    HW227501   0.801   1.962   3.032 -0.7279 -0.8534 -2.0188
 5348SOL     OW27502   1.201   4.687   3.562 -0.0452 -0.5259 -0.2761
 5348SOL    HW127503   1.277   4.642   3.599  0.2237 -0.0883 -0.2917
 5348SOL    HW227504   1.198   4.635   3.482  0.1238  0.1944 -0.7555
 5349SOL     OW27505   2.416   3.703  15.430 -0.0439  0.4876 -0.0995
 5349SOL    HW127506   2.470   3.732  15.504 -2.2383 -0.2140  1.7708
 5349SOL    HW227507   2.445   3.613  15.414  0.8539  0.6651  0.4904
 5350SOL     OW27508   4.600   0.929   4.457  0.1703  0.0367  0.6152
 5350SOL    HW127509   4.635   1.011   4.492  0.6917 -0.2970  0.8727
 5350SOL    HW227510   4.605   0.866   4.529 -3.4950 -0.6522  0.2845
 5351SOL     OW27511   0.350   0.030   3.886  0.3063  0.1605 -0.1327
 5351SOL    HW127512   0.320   4.687   3.822  0.1726 -2.1092  2.2270
 5351SOL    HW227513   0.313   0.112   3.854 -0.1475 -0.2833 -0.7300
 5352SOL     OW27514   2.383   1.683   5.190 -0.0971 -0.0367 -0.0649
 5352SOL    HW127515   2.292   1.658   5.179 -0.2247  0.9597 -1.2217
 5352SOL    HW227516   2.371   1.778   5.184 -0.5516 -0.1578 -0.9346
 5353SOL     OW27517   2.882   4.688   4.058  0.3066 -0.0556  0.0943
 5353SOL    HW127518   2.818   4.644   4.114 -1.1241  1.0117 -0.6882
 5353SOL    HW227519   2.971   4.670   4.088  0.8791  2.5148 -0.0389
 5354SOL     OW27520   1.539   1.448   0.773  0.4277  0.1088 -0.1485
 5354SOL    HW127521   1.568   1.365   0.735 -1.9303 -0.3043 -1.0184
 5354SOL    HW227522   1.452   1.429   0.809  0.7393  0.7738  0.9388
 5355SOL     OW27523   3.133   3.153   6.681  0.3319  0.1437  0.4393
 5355SOL    HW127524   3.120   3.058   6.689 -1.4698  0.5281  1.9395
 5355SOL    HW227525   3.118   3.174   6.773  0.2431 -0.5221  0.5754
 5356SOL     OW27526   2.120   2.440   9.582  0.7847 -0.6153  0.6013
 5356SOL    HW127527   2.115   2.355   9.625 -0.8384 -1.0477 -0.4499
 5356SOL    HW227528   2.048   2.495   9.615  1.4451 -0.6696  2.1442
 5357SOL     OW27529   2.133   1.119   8.381 -0.5528 -0.6578  0.9382
 5357SOL    HW127530   2.144   1.168   8.300 -4.5365 -0.5580  0.4543
 5357SOL    HW227531   2.217   1.077   8.401  0.2630  0.4070 -0.3007
 5358SOL     OW27532   0.055   2.468  10.744 -0.0276  0.7898  0.1319
 5358SOL    HW127533   0.070   2.522  10.822 -0.7735  2.2575 -0.7450
 5358SOL    HW227534   4.689   2.501  10.723  0.3315  0.7997 -1.3453
 5359SOL     OW27535   2.159   2.520   9.128 -0.5189  0.3217 -0.0898
 5359SOL    HW127536   2.196   2.432   9.123  1.3662  1.1093 -0.2006
 5359SOL    HW227537   2.245   2.563   9.131  0.1166 -0.8710 -1.0279
 5360SOL     OW27538   1.245   0.328  16.357 -0.0521 -0.0156 -0.0051
 5360SOL    HW127539   1.203   0.379  16.288 -0.6242 -1.4615 -0.7355
 5360SOL    HW227540   1.337   0.350  16.342  0.9350 -2.5658  2.1441
 5361SOL     OW27541   0.964   0.673  16.909 -0.0859  0.2454 -0.1363
 5361SOL    HW127542   1.031   0.631  16.962  0.3679  0.5916 -0.4408
 5361SOL    HW227543   0.896   0.606  16.904 -0.2039  0.4399 -1.0878
 5362SOL     OW27544   2.708   1.361   0.588  0.3927  0.2207  0.4900
 5362SOL    HW127545   2.746   1.274   0.574 -0.2992 -0.1897  1.0943
 5362SOL    HW227546   2.760   1.408   0.524  1.4696 -0.2830  0.9932
 5363SOL     OW27547   0.423   4.450  11.226 -0.4698  0.3699  0.1553
 5363SOL    HW127548   0.358   4.447  11.296  1.4903  1.5610  2.0581
 5363SOL    HW227549   0.366   4.423  11.154 -1.4627  1.0296  0.6929
 5364SOL     OW27550   2.518   0.790   8.757  0.3653  0.6017  0.5425
 5364SOL    HW127551   2.586   0.722   8.758 -1.3976 -1.2061 -3.3220
 5364SOL    HW227552   2.558   0.857   8.813 -0.6029  1.5407  0.1262
 5365SOL     OW27553   4.667   1.187   2.091 -0.8575  0.5019 -0.4426
 5365SOL    HW127554   4.652   1.261   2.032  0.5184 -1.0591 -2.7640
 5365SOL    HW227555   0.040   1.198   2.105 -1.3501  2.1044  1.6897
 5366SOL     OW27556   1.595   3.495   7.426 -0.1675 -0.4242  0.0816
 5366SOL    HW127557   1.528   3.548   7.383  1.8901  0.0561 -2.5550
 5366SOL    HW227558   1.555   3.467   7.508 -2.3812  0.0742 -0.8316
 5367SOL     OW27559   0.047   4.079  15.205 -0.1644  0.2519 -0.1128
 5367SOL    HW127560   0.011   4.117  15.285 -0.7172 -0.8793  0.1735
 5367SOL    HW227561   0.139   4.095  15.227 -0.6624  2.0803  0.6627
 5368SOL     OW27562   2.208   1.051   6.861  0.4143 -0.0139 -0.2703
 5368SOL    HW127563   2.238   1.135   6.896  1.9832 -0.5495 -0.3195
 5368SOL    HW227564   2.115   1.058   6.879  0.8625 -0.2447  2.1549
 5369SOL     OW27565   0.466   2.548   2.883  0.5598 -0.0926 -0.0864
 5369SOL    HW127566   0.450   2.628   2.832 -2.0603 -0.8997 -0.5386
 5369SOL    HW227567   0.420   2.487   2.825 -2.3704  0.3057  1.7870
 5370SOL     OW27568   3.836   1.251   1.016  0.1691 -0.6720 -0.0080
 5370SOL    HW127569   3.748   1.264   0.980 -0.0150 -0.2441  0.5968
 5370SOL    HW227570   3.829   1.202   1.098 -1.2960  0.3905  0.4868
 5371SOL     OW27571   2.533   4.398   5.133 -0.0508  0.1067  0.1621
 5371SOL    HW127572   2.497   4.439   5.054  0.5843 -0.0910 -0.2299
 5371SOL    HW227573   2.460   4.388   5.195  0.2408  0.3883  0.5544
 5372SOL     OW27574   3.381   3.927   1.946 -0.3539 -0.2175  0.0560
 5372SOL    HW127575   3.450   3.956   1.887 -1.1452  1.3781 -0.0803
 5372SOL    HW227576   3.377   3.991   2.017 -3.1355 -0.9007  0.5198
 5373SOL     OW27577   2.947   1.762  12.897  0.6828  0.1786  0.1286
 5373SOL    HW127578   2.934   1.679  12.852  2.1106  1.2627 -2.2943
 5373SOL    HW227579   2.858   1.795  12.886  0.5666 -0.4255 -0.7157
 5374SOL     OW27580   3.322   2.980   5.317 -0.5297  0.4026 -0.2456
 5374SOL    HW127581   3.350   3.037   5.388  0.7504 -0.2083 -0.2689
 5374SOL    HW227582   3.402   2.951   5.272  0.4858  2.3307  0.3443
 5375SOL     OW27583   0.419   4.587   6.340 -0.2115  0.7678 -0.1839
 5375SOL    HW127584   0.494   4.535   6.368 -1.2316 -1.7430 -2.1245
 5375SOL    HW227585   0.450   4.671   6.374  1.6301  0.8850 -2.1140
 5376SOL     OW27586   1.383   4.070   1.436 -0.3511  0.3166  0.2350
 5376SOL    HW127587   1.476   4.081   1.456 -0.1091 -1.8587  0.3299
 5376SOL    HW227588   1.376   3.976   1.418  1.0082  0.3521 -0.4366
 5377SOL     OW27589   1.382   1.447  17.510  0.1448  0.4862  0.2256
 5377SOL    HW127590   1.413   1.437  17.601  0.6729 -1.4400 -0.1521
 5377SOL    HW227591   1.444   1.392  17.461 -1.2454  0.6720 -1.7292
 5378SOL     OW27592   0.621   1.962   2.256  0.2403 -0.0965 -0.6630
 5378SOL    HW127593   0.538   2.000   2.285 -0.6118 -2.4584 -0.0807
 5378SOL    HW227594   0.607   1.869   2.242  1.0015 -0.2919 -0.1149
 5379SOL     OW27595   3.668   4.037  15.383  0.2656 -0.3295  0.3602
 5379SOL    HW127596   3.614   3.973  15.429  1.5367 -0.7831  1.2349
 5379SOL    HW227597   3.754   3.995  15.383  1.3494  1.8609  2.6787
 5380SOL     OW27598   2.458   3.446   7.301  0.1416 -0.7289 -1.2419
 5380SOL    HW127599   2.515   3.370   7.294 -0.7317 -1.4266 -0.6738
 5380SOL    HW227600   2.402   3.442   7.223  0.7673  0.8840 -1.7950
 5381SOL     OW27601   1.951   2.025   0.637  0.4084 -0.1849  0.0012
 5381SOL    HW127602   1.894   1.949   0.646  1.1886 -1.0325 -2.0663
 5381SOL    HW227603   1.932   2.074   0.717  1.7676 -2.9900  2.0426
 5382SOL     OW27604   0.871   1.288  11.218  0.2085 -0.2420 -0.4159
 5382SOL    HW127605   0.921   1.335  11.151 -0.6856  0.4369 -0.6168
 5382SOL    HW227606   0.907   1.317  11.302 -0.8688  0.7092 -0.2822
 5383SOL     OW27607   4.442   3.194   4.565 -0.0173 -0.0248  0.1366
 5383SOL    HW127608   4.487   3.166   4.645  0.8006  0.9995  0.0246
 5383SOL    HW227609   4.381   3.123   4.544  0.2697  0.3788 -2.0726
 5384SOL     OW27610   2.372   1.498   9.262  0.3710 -0.0610  0.1449
 5384SOL    HW127611   2.376   1.411   9.301 -0.1381 -0.0818  0.1616
 5384SOL    HW227612   2.321   1.549   9.325 -0.8962 -1.5008  0.2940
 5385SOL     OW27613   2.645   2.563   5.477  0.0237 -0.3035 -0.4213
 5385SOL    HW127614   2.711   2.573   5.409 -0.1468  2.6578 -0.1639
 5385SOL    HW227615   2.616   2.653   5.496  1.6885  0.0179  0.6041
 5386SOL     OW27616   4.171   2.466   8.168 -0.3232 -0.2309 -0.3031
 5386SOL    HW127617   4.155   2.371   8.170  1.9145 -0.5365  2.9104
 5386SOL    HW227618   4.166   2.484   8.075 -0.0355 -1.1222 -0.4931
 5387SOL     OW27619   3.088   2.645   0.565 -0.4815  0.6403  0.2929
 5387SOL    HW127620   3.080   2.555   0.532  0.4527  0.0080  1.7992
 5387SOL    HW227621   3.096   2.643   0.660 -1.2926  0.2149  0.3583
 5388SOL     OW27622   0.094   3.616   7.274 -0.0367  0.1697  0.1555
 5388SOL    HW127623   0.143   3.537   7.256 -0.6436  0.6163 -3.4919
 5388SOL    HW227624   0.017   3.573   7.313 -0.7863 -1.8731 -3.6396
 5389SOL     OW27625   1.321   4.673  16.634  0.1505  0.3512 -0.3040
 5389SOL    HW127626   1.376   4.607  16.675  0.0765  0.0249 -0.7332
 5389SOL    HW227627   1.304   4.631  16.549  1.2980 -0.0127 -0.3538
 5390SOL     OW27628   2.843   1.783   6.602  0.3819  0.1527  0.2036
 5390SOL    HW127629   2.927   1.738   6.597  0.2566  0.0591 -1.0117
 5390SOL    HW227630   2.877   1.870   6.579 -1.9342  1.3001  1.1221
 5391SOL     OW27631   2.732   0.305   5.617  0.3025  0.3250  1.2362
 5391SOL    HW127632   2.640   0.291   5.591  0.1643  1.3524  1.1730
 5391SOL    HW227633   2.770   0.219   5.598 -0.5130 -0.1538  1.7813
 5392SOL     OW27634   3.853   1.847   2.711 -0.0084 -0.1854 -0.1312
 5392SOL    HW127635   3.841   1.939   2.734 -1.7057 -0.4038 -0.0834
 5392SOL    HW227636   3.776   1.824   2.658  0.7770  1.9674 -2.2074
 5393SOL     OW27637   3.715   1.345   0.398  0.6347  0.2143 -0.1832
 5393SOL    HW127638   3.704   1.354   0.492 -2.3645 -3.0992 -0.2239
 5393SOL    HW227639   3.805   1.375   0.385  1.3558 -1.5961  0.5799
 5394SOL     OW27640   1.032   4.593   3.862 -0.4647 -0.5986  0.2223
 5394SOL    HW127641   1.078   4.522   3.817 -1.9184 -2.4151  1.6091
 5394SOL    HW227642   0.955   4.615   3.810 -0.5746 -1.0222  0.2076
 5395SOL     OW27643   1.351   1.441   7.824  0.2647 -0.1769  0.0049
 5395SOL    HW127644   1.381   1.459   7.735  1.5131  0.7021  0.6123
 5395SOL    HW227645   1.257   1.452   7.805  0.3708 -0.9682 -0.9727
 5396SOL     OW27646   3.384   2.845   7.236 -0.5955  0.2618  0.2212
 5396SOL    HW127647   3.348   2.798   7.311 -2.2532  2.3205  0.7126
 5396SOL    HW227648   3.469   2.868   7.273 -1.4241  2.1498  0.9874
 5397SOL     OW27649   4.660   2.014   3.118  0.2218 -0.1520  0.5606
 5397SOL    HW127650   4.705   1.978   3.195 -0.6023 -2.3211  0.0345
 5397SOL    HW227651   4.691   2.104   3.109 -0.1249 -0.0220  0.7110
 5398SOL     OW27652   2.459   2.898   9.418 -0.0896  0.1992 -0.3546
 5398SOL    HW127653   2.490   2.810   9.440  0.3703  0.3303 -0.4708
 5398SOL    HW227654   2.490   2.906   9.327  0.8334 -0.9854 -0.1419
 5399SOL     OW27655   3.305   2.265   1.291 -0.4494  0.6123  0.0643
 5399SOL    HW127656   3.365   2.210   1.239  0.8128  3.9685 -2.0555
 5399SOL    HW227657   3.223   2.247   1.246 -1.2415  0.5758  1.5223
 5400SOL     OW27658   4.357   4.287   7.792  0.1391  0.5954 -0.4031
 5400SOL    HW127659   4.442   4.324   7.813 -0.6601  2.1252  0.1204
 5400SOL    HW227660   4.379   4.194   7.787 -0.2035  0.4740  0.3526
 5401SOL     OW27661   0.137   3.144   7.983  0.2991  0.1013 -0.1934
 5401SOL    HW127662   0.105   3.054   7.987  1.3496 -0.2432  0.6015
 5401SOL    HW227663   0.063   3.182   8.030  0.6330 -0.1555  0.5454
 5402SOL     OW27664   1.801   0.391   8.371  0.1612  0.1088  0.2805
 5402SOL    HW127665   1.797   0.471   8.424 -1.1894  0.6275 -0.6228
 5402SOL    HW227666   1.724   0.405   8.316  1.3185  0.2337 -1.3034
 5403SOL     OW27667   0.554   0.445   1.486  0.2916  0.2244 -0.5517
 5403SOL    HW127668   0.609   0.372   1.459 -0.3200 -1.0533  1.6277
 5403SOL    HW227669   0.603   0.483   1.559 -0.9818 -0.1255  0.4964
 5404SOL     OW27670   4.468   3.761  12.225 -0.8363 -0.4316  0.2406
 5404SOL    HW127671   4.375   3.765  12.202 -0.4779 -1.0564 -1.2799
 5404SOL    HW227672   4.508   3.792  12.145 -1.8648  0.1245 -0.0528
 5405SOL     OW27673   1.140   3.711   8.362  0.2052 -0.2115 -0.0096
 5405SOL    HW127674   1.166   3.778   8.299 -1.9235  0.3000 -0.3491
 5405SOL    HW227675   1.196   3.634   8.354 -1.4848 -1.3662 -0.6872
 5406SOL     OW27676   0.621   4.216   0.168 -0.0117  0.1318 -0.0896
 5406SOL    HW127677   0.529   4.207   0.145 -0.1162 -1.1540  0.8105
 5406SOL    HW227678   0.646   4.301   0.132 -0.2561 -0.0826 -0.7660
 5407SOL     OW27679   4.443   4.465   1.403  0.2099  0.4525  0.2543
 5407SOL    HW127680   4.367   4.437   1.454 -0.0416 -0.9292 -0.8635
 5407SOL    HW227681   4.395   4.530   1.352 -1.3781 -1.2038 -0.3672
 5408SOL     OW27682   4.429   2.859   2.875 -0.1283 -0.1598 -0.3201
 5408SOL    HW127683   4.409   2.921   2.805 -0.1058  0.1643 -0.0384
 5408SOL    HW227684   4.506   2.811   2.846 -0.7016 -1.0526 -0.3764
 5409SOL     OW27685   0.598   0.760   2.601  0.1372  0.1076 -0.4934
 5409SOL    HW127686   0.570   0.765   2.509  2.0638 -1.7022 -1.1889
 5409SOL    HW227687   0.521   0.790   2.648  0.5086 -3.4333  2.4161
 5410SOL     OW27688   1.695   0.311   1.433  0.4844  0.3584 -0.2184
 5410SOL    HW127689   1.729   0.241   1.489 -2.1997 -0.4492  0.3868
 5410SOL    HW227690   1.738   0.388   1.471  1.8883  0.0434 -1.1564
 5411SOL     OW27691   3.408   2.903   9.572  0.2461  0.2893  0.8569
 5411SOL    HW127692   3.391   2.808   9.574 -1.0783  0.4554 -1.3597
 5411SOL    HW227693   3.387   2.930   9.661 -0.4925 -0.8294  1.0230
 5412SOL     OW27694   1.340   0.463  15.729  0.0213 -0.6081  0.2775
 5412SOL    HW127695   1.287   0.384  15.722 -0.5525 -0.1596 -0.4533
 5412SOL    HW227696   1.291   0.533  15.686  0.2548 -0.8485 -0.3826
 5413SOL     OW27697   2.977   2.844  16.081  0.1811  0.0804 -0.2921
 5413SOL    HW127698   3.060   2.819  16.039  0.7598  1.3356  0.1085
 5413SOL    HW227699   2.923   2.766  16.082  0.8409 -0.3303  2.0884
 5414SOL     OW27700   2.481   3.345   6.629 -0.2823 -0.0474 -0.7784
 5414SOL    HW127701   2.388   3.338   6.650 -0.5901  3.1845 -1.0966
 5414SOL    HW227702   2.514   3.337   6.718 -0.3958 -0.0936 -0.7401
 5415SOL     OW27703   3.616   1.254   7.409  0.8501  0.3209 -0.5325
 5415SOL    HW127704   3.609   1.164   7.376 -0.3621  0.6125 -1.0669
 5415SOL    HW227705   3.586   1.236   7.498  2.3117  1.0135  0.0969
 5416SOL     OW27706   2.148   3.041  13.157 -0.7159  0.3830 -0.6461
 5416SOL    HW127707   2.212   3.034  13.085  0.9996  0.2764  0.8902
 5416SOL    HW227708   2.157   3.132  13.184 -1.9426 -0.0513  1.1969
 5417SOL     OW27709   2.655   1.847   1.506  0.0059  0.6639 -0.4390
 5417SOL    HW127710   2.591   1.796   1.457  0.4973 -0.0835 -0.3025
 5417SOL    HW227711   2.653   1.792   1.584  1.8803 -0.0848 -0.8984
 5418SOL     OW27712   3.129   3.047  12.490 -0.0884 -0.4085  0.1851
 5418SOL    HW127713   3.189   2.973  12.491  2.0183  1.2823 -2.8375
 5418SOL    HW227714   3.133   3.082  12.579 -0.8037 -1.7463  0.7406
 5419SOL     OW27715   3.612   3.591   6.370 -0.5475 -0.0707 -0.2715
 5419SOL    HW127716   3.561   3.524   6.325 -0.7271  0.1345 -0.3776
 5419SOL    HW227717   3.636   3.649   6.298 -1.2884 -1.0951 -1.3250
 5420SOL     OW27718   3.589   3.636  10.446 -0.4723 -0.3370  0.3458
 5420SOL    HW127719   3.610   3.713  10.393 -1.8563  0.0709  0.4086
 5420SOL    HW227720   3.608   3.569  10.379 -0.3162  0.2273 -0.1758
 5421SOL     OW27721   2.525   3.059   7.446 -0.4521  0.1955  0.3370
 5421SOL    HW127722   2.532   3.067   7.541 -1.6380 -0.0150  0.4517
 5421SOL    HW227723   2.431   3.078   7.443 -0.6306 -0.5545  1.3794
 5422SOL     OW27724   3.713   3.854   5.761  0.5158 -0.1817 -0.2269
 5422SOL    HW127725   3.727   3.917   5.831 -1.2127 -0.9066  0.7661
 5422SOL    HW227726   3.801   3.847   5.725  0.0599  2.4952 -1.8759
 5423SOL     OW27727   0.713   0.289  10.608 -0.4439  0.1112  0.3855
 5423SOL    HW127728   0.707   0.353  10.536 -0.2725  1.3141  1.4362
 5423SOL    HW227729   0.699   0.349  10.681  1.2435  2.0254 -0.8619
 5424SOL     OW27730   4.575   0.802  13.516  0.5418  0.1581  0.6614
 5424SOL    HW127731   4.526   0.730  13.477  1.4983 -0.0706 -0.1251
 5424SOL    HW227732   4.666   0.775  13.502  0.4662  0.3879 -0.2957
 5425SOL     OW27733   2.242   0.075   2.314  0.0080  0.1331  0.0913
 5425SOL    HW127734   2.278   0.156   2.350  4.0828 -2.3836  1.7533
 5425SOL    HW227735   2.276   0.065   2.225  1.3092  0.9089  0.4958
 5426SOL     OW27736   1.545   2.840   7.249  0.5803 -0.3019 -0.3098
 5426SOL    HW127737   1.584   2.914   7.202  2.2923  0.3825  2.2269
 5426SOL    HW227738   1.508   2.783   7.181 -1.1721 -0.3577  0.6962
 5427SOL     OW27739   2.732   2.606   3.260 -0.2837 -0.9940 -0.1224
 5427SOL    HW127740   2.823   2.591   3.283 -0.7411 -1.1447  1.6131
 5427SOL    HW227741   2.711   2.664   3.333 -0.5915 -0.7892 -0.3715
 5428SOL     OW27742   3.929   1.386   4.967  0.4075  0.0043  0.2559
 5428SOL    HW127743   4.008   1.439   4.957  0.1365  0.8168  2.5128
 5428SOL    HW227744   3.961   1.302   4.933 -0.3349 -0.9528  1.9162
 5429SOL     OW27745   3.300   1.133   5.155  0.1927  0.0343 -0.0016
 5429SOL    HW127746   3.270   1.161   5.241  0.4297  1.0128 -0.2381
 5429SOL    HW227747   3.286   1.210   5.100 -1.3819 -0.8705 -0.8671
 5430SOL     OW27748   4.523   2.166  17.610  0.2022 -0.1790  0.6185
 5430SOL    HW127749   4.529   2.238  17.673 -0.2376  0.9642 -0.6615
 5430SOL    HW227750   4.496   2.215  17.533 -0.0464 -0.3207  0.6164
 5431SOL     OW27751   2.816   0.490  12.179 -0.3136 -0.4774  0.2913
 5431SOL    HW127752   2.733   0.527  12.151 -0.6557  0.3425  2.3516
 5431SOL    HW227753   2.809   0.508  12.273  1.8181 -1.9442  0.7537
 5432SOL     OW27754   2.209   2.867   1.881  0.3359  0.2772  0.1604
 5432SOL    HW127755   2.275   2.936   1.877  0.3187  0.3050  0.3615
 5432SOL    HW227756   2.132   2.915   1.852  0.2416 -0.2758 -0.5051
 5433SOL     OW27757   0.816   3.309   2.640 -0.3101 -0.5478 -0.3242
 5433SOL    HW127758   0.765   3.388   2.623 -0.4495 -0.4668  0.4735
 5433SOL    HW227759   0.761   3.249   2.589 -0.9248 -0.4337  0.1998
 5434SOL     OW27760   4.370   1.499   8.661 -0.1360 -0.0403 -0.5763
 5434SOL    HW127761   4.334   1.576   8.706  0.1507  1.3800 -2.7888
 5434SOL    HW227762   4.326   1.488   8.577  1.7793 -0.2280 -1.5482
 5435SOL     OW27763   1.037   3.010   7.677 -0.1999  0.3894 -0.4372
 5435SOL    HW127764   0.966   3.039   7.620  0.4070  0.3964 -1.1867
 5435SOL    HW227765   0.991   2.941   7.726  1.6128  0.0817  0.8215
 5436SOL     OW27766   2.108   0.487   3.110  0.6072 -0.1815 -0.1442
 5436SOL    HW127767   2.019   0.511   3.081  0.6193 -1.3287 -1.0934
 5436SOL    HW227768   2.122   0.552   3.179 -1.1184 -0.2854  0.3235
 5437SOL     OW27769   4.447   3.441  13.907  0.3811  0.5717 -0.6725
 5437SOL    HW127770   4.369   3.476  13.948  0.9889  0.9931  0.1207
 5437SOL    HW227771   4.511   3.436  13.979 -1.3420 -0.7935  0.7484
 5438SOL     OW27772   1.637   1.044   3.522 -0.1550 -0.3028 -0.3202
 5438SOL    HW127773   1.708   1.068   3.581 -0.4749 -0.7121  0.2315
 5438SOL    HW227774   1.685   0.974   3.478 -0.5585 -0.3723 -0.6539
 5439SOL     OW27775   3.274   1.523   6.614  0.1903  0.2812 -0.0931
 5439SOL    HW127776   3.367   1.537   6.601 -0.0727  2.3610  0.3509
 5439SOL    HW227777   3.269   1.428   6.598 -0.2587  0.2118  0.4630
 5440SOL     OW27778   4.296   1.384   4.209 -0.5206  0.3731 -0.0533
 5440SOL    HW127779   4.368   1.416   4.153 -0.4569 -0.0241 -0.1988
 5440SOL    HW227780   4.281   1.446   4.280 -0.9694 -0.3371  0.4646
 5441SOL     OW27781   0.644   2.343   5.608 -0.2292 -0.1168  0.1319
 5441SOL    HW127782   0.636   2.252   5.635  0.2470  0.2102  1.3526
 5441SOL    HW227783   0.701   2.332   5.532 -0.7352 -0.0111 -0.2724
 5442SOL     OW27784   1.679   4.001   8.682  0.3000  0.5670 -0.7478
 5442SOL    HW127785   1.584   4.004   8.699  0.1514 -0.7778 -1.4065
 5442SOL    HW227786   1.732   4.043   8.750  0.3265  1.9365 -1.6176
 5443SOL     OW27787   2.928   2.736   9.729  0.2295  0.5692  0.2873
 5443SOL    HW127788   2.930   2.828   9.704  0.1227  0.9117  1.5423
 5443SOL    HW227789   2.989   2.722   9.801  0.5471  3.6239  0.6280
 5444SOL     OW27790   2.819   3.984   6.949  0.3489  0.1408 -0.2960
 5444SOL    HW127791   2.866   4.032   6.880 -2.6543  3.3887 -0.0988
 5444SOL    HW227792   2.746   4.046   6.955 -0.2461 -0.4391 -1.7816
 5445SOL     OW27793   1.287   4.276   6.948  0.2226  0.2038 -0.1398
 5445SOL    HW127794   1.345   4.243   7.016 -0.0981  0.5212  0.2886
 5445SOL    HW227795   1.333   4.350   6.908 -1.1784  0.5917 -1.0666
 5446SOL     OW27796   0.834   4.152   4.824 -0.2536 -0.6435  0.2415
 5446SOL    HW127797   0.859   4.161   4.916  0.4356 -0.7229  0.0642
 5446SOL    HW227798   0.861   4.237   4.790 -0.9629 -0.1981  0.8013
 5447SOL     OW27799   2.361   1.631   7.091 -0.0900 -0.0619 -0.3388
 5447SOL    HW127800   2.446   1.613   7.131 -0.5461 -1.5504 -0.0731
 5447SOL    HW227801   2.388   1.639   6.999  0.2967  1.4885 -0.0881
 5448SOL     OW27802   3.108   2.801   6.123  0.1338 -0.1618  0.6816
 5448SOL    HW127803   3.197   2.770   6.106  0.7060  1.2466  1.0862
 5448SOL    HW227804   3.065   2.717   6.137  0.1657 -0.2976 -0.0597
 5449SOL     OW27805   4.031   0.846   6.993 -0.7453 -0.3971  0.0376
 5449SOL    HW127806   4.047   0.786   7.066  2.7403 -0.6617 -0.9842
 5449SOL    HW227807   4.052   0.785   6.923  2.1186  1.8283 -1.0082
 5450SOL     OW27808   1.709   1.610   0.925  0.4208 -0.5218  0.1044
 5450SOL    HW127809   1.652   1.543   0.887  2.8512 -2.3645 -0.2387
 5450SOL    HW227810   1.642   1.674   0.950 -0.0034 -0.8266 -0.2596
 5451SOL     OW27811   2.064   1.945  15.369  0.0769 -0.1749 -0.9619
 5451SOL    HW127812   2.114   1.866  15.346  0.0700 -0.0161 -1.5189
 5451SOL    HW227813   2.058   1.979  15.280  1.3916  1.7261 -0.3319
 5452SOL     OW27814   3.293   1.218   2.487 -0.2519 -0.2227  0.2371
 5452SOL    HW127815   3.236   1.294   2.476 -0.2330 -0.2566 -0.0816
 5452SOL    HW227816   3.278   1.168   2.407  0.2819 -0.5515  0.3468
 5453SOL     OW27817   0.488   4.145   4.921  1.2714 -0.3563 -0.6971
 5453SOL    HW127818   0.461   4.113   5.007 -0.4186 -2.5586 -2.0390
 5453SOL    HW227819   0.583   4.155   4.933  1.2634  0.1221 -1.0278
 5454SOL     OW27820   3.884   0.285   7.112  0.0785  0.0323  0.6382
 5454SOL    HW127821   3.880   0.281   7.017  1.5345 -2.5365  0.6574
 5454SOL    HW227822   3.877   0.193   7.138  2.7232 -0.4198 -0.2174
 5455SOL     OW27823   3.846   2.844   8.005 -0.2004  0.3032 -0.5712
 5455SOL    HW127824   3.872   2.843   8.097 -2.2040 -1.3788 -0.0317
 5455SOL    HW227825   3.781   2.774   7.996 -0.0248  0.2452 -1.4359
 5456SOL     OW27826   2.307   4.611   1.068  0.4594 -0.4392 -0.0412
 5456SOL    HW127827   2.354   4.546   1.121 -0.6629  0.4873  2.0718
 5456SOL    HW227828   2.265   4.668   1.132  0.6510 -1.4372  0.9649
 5457SOL     OW27829   4.653   1.572   6.844  0.2124  0.2141  0.0179
 5457SOL    HW127830   4.601   1.496   6.818  0.3206  0.3050 -0.4782
 5457SOL    HW227831   0.002   1.528   6.891 -0.0213 -0.0911  0.0826
 5458SOL     OW27832   0.975   2.846   1.416  0.3049 -0.0158  0.0641
 5458SOL    HW127833   0.983   2.829   1.322  0.1309 -0.4948  0.1338
 5458SOL    HW227834   1.039   2.782   1.446  0.5096 -0.0888 -0.5356
 5459SOL     OW27835   3.724   2.707   2.923  0.0124 -0.4397  0.4996
 5459SOL    HW127836   3.695   2.635   2.979  1.1321 -0.6363  0.8299
 5459SOL    HW227837   3.774   2.758   2.986 -1.6546  1.5717  0.1862
 5460SOL     OW27838   4.623   3.247  10.887  0.3727 -0.3548  0.6558
 5460SOL    HW127839   4.684   3.310  10.851  0.6343 -0.7299  0.4442
 5460SOL    HW227840   4.540   3.279  10.853  1.1627 -0.4935 -1.3703
 5461SOL     OW27841   3.716   3.886  16.951  0.1447  0.3543  0.4419
 5461SOL    HW127842   3.672   3.825  16.892  0.6954  0.9253 -0.5606
 5461SOL    HW227843   3.743   3.833  17.026  0.9307 -0.2837 -0.2941
 5462SOL     OW27844   0.988   4.384  14.524  0.1114  0.4144 -0.0781
 5462SOL    HW127845   1.024   4.437  14.594  2.2347  0.5953 -1.3205
 5462SOL    HW227846   1.035   4.425  14.452 -0.6730 -2.2508 -2.1040
 5463SOL     OW27847   2.653   3.549   5.011 -0.4370  0.3249 -0.3256
 5463SOL    HW127848   2.574   3.495   5.006 -1.2495  1.3544  1.4635
 5463SOL    HW227849   2.684   3.554   5.102  0.2275 -1.1646 -0.4609
 5464SOL     OW27850   1.456   3.079   4.582  0.9389 -0.9181  0.4500
 5464SOL    HW127851   1.363   3.057   4.573  0.5773  1.9941 -2.8274
 5464SOL    HW227852   1.436   3.171   4.602 -1.4069 -1.3430  0.1274
 5465SOL     OW27853   3.023   2.372   6.749 -0.0217  0.1478  0.3039
 5465SOL    HW127854   2.998   2.291   6.793  0.5907 -0.5443 -0.6095
 5465SOL    HW227855   2.946   2.397   6.698  0.4625  1.2078  0.0856
 5466SOL     OW27856   4.711   2.953   6.122 -0.5981 -0.2701  0.1514
 5466SOL    HW127857   0.032   2.991   6.045  0.1482 -0.3867  0.5047
 5466SOL    HW227858   4.712   2.865   6.085  2.4559 -0.4448  0.6510
 5467SOL     OW27859   4.024   2.025  17.531 -0.3896  0.1865  0.3968
 5467SOL    HW127860   4.023   1.957  17.598 -1.6527  1.5716  1.7769
 5467SOL    HW227861   4.095   1.994  17.474  1.0866 -0.3166  2.5059
 5468SOL     OW27862   1.684   3.358   4.966 -0.2214  0.3263 -0.0659
 5468SOL    HW127863   1.666   3.421   4.896 -1.0166 -0.7060 -0.7746
 5468SOL    HW227864   1.603   3.307   4.963 -0.6545  0.9421  1.0727
 5469SOL     OW27865   4.099   3.998   7.731 -0.5835 -0.0013 -0.1993
 5469SOL    HW127866   4.158   3.960   7.796  0.3563 -0.9657 -1.6095
 5469SOL    HW227867   4.034   4.037   7.790 -0.3132 -0.2058  0.2302
 5470SOL     OW27868   0.262   0.963   6.431 -0.5193 -0.2636 -0.3407
 5470SOL    HW127869   0.173   0.995   6.423 -0.3753 -0.4816 -2.6864
 5470SOL    HW227870   0.252   0.895   6.498  0.1849 -1.1438 -1.1393
 5471SOL     OW27871   1.786   2.738   6.605  0.5445 -0.2700  0.2979
 5471SOL    HW127872   1.736   2.667   6.565 -1.8472  1.0654  0.9480
 5471SOL    HW227873   1.863   2.743   6.548  0.7604  0.8214  0.6889
 5472SOL     OW27874   4.617   0.417  13.478 -0.1101  0.8550 -0.1648
 5472SOL    HW127875   4.602   0.330  13.516 -1.3948  0.8216 -0.7446
 5472SOL    HW227876   4.555   0.463  13.535 -0.6271 -1.0148  0.7795
 5473SOL     OW27877   4.132   3.946   6.330 -0.3621  0.0549 -0.3055
 5473SOL    HW127878   4.061   3.971   6.389  1.7336  1.0546  1.7826
 5473SOL    HW227879   4.159   4.033   6.299  0.1560  0.4775  1.3036
 5474SOL     OW27880   4.644   3.823  15.174  0.0152 -0.2659 -0.0641
 5474SOL    HW127881   4.676   3.913  15.162 -0.0745 -0.3105 -0.6522
 5474SOL    HW227882   4.713   3.774  15.219  0.1726 -1.8085 -1.9930
 5475SOL     OW27883   2.372   4.613  10.851 -0.0438  0.2641 -0.0905
 5475SOL    HW127884   2.308   4.652  10.911 -0.8436  0.9145 -1.3761
 5475SOL    HW227885   2.312   4.566  10.793  2.3247 -0.8785 -1.6267
 5476SOL     OW27886   4.707   4.303   7.180 -0.2684 -0.1539  0.1345
 5476SOL    HW127887   4.648   4.272   7.111 -0.7594 -0.8448  0.8621
 5476SOL    HW227888   4.692   4.228   7.237  1.2919  0.1713  0.9788
 5477SOL     OW27889   1.888   2.688   6.071  0.4355  0.6256 -0.1098
 5477SOL    HW127890   1.896   2.618   6.006 -2.1636  0.0203  0.2258
 5477SOL    HW227891   1.872   2.768   6.021 -0.2663 -0.2560 -1.2943
 5478SOL     OW27892   4.526   1.018   6.187 -0.4572 -0.0570 -0.0092
 5478SOL    HW127893   4.525   1.102   6.141 -1.9227  0.1632  0.4248
 5478SOL    HW227894   4.574   0.970   6.119 -1.4789 -0.9445 -0.1022
 5479SOL     OW27895   3.901   4.107   8.609  0.2813 -0.3810  0.3229
 5479SOL    HW127896   3.918   4.013   8.612 -1.0064 -0.6270 -0.3301
 5479SOL    HW227897   3.958   4.141   8.679  0.2991  1.7347 -0.7231
 5480SOL     OW27898   1.617   0.004   3.398  0.0819  0.1678 -0.6506
 5480SOL    HW127899   1.605   4.681   3.483  1.0335  0.7803 -0.1946
 5480SOL    HW227900   1.699   0.047   3.424 -0.5614  2.4299 -2.3628
 5481SOL     OW27901   0.833   0.900   2.962 -0.1560  0.0091 -0.3149
 5481SOL    HW127902   0.871   0.834   2.904  1.0074  0.7915 -0.4276
 5481SOL    HW227903   0.901   0.966   2.973 -1.5908  1.5701 -0.7788
 5482SOL     OW27904   0.994   2.236  13.149 -0.2517 -0.1796 -0.6567
 5482SOL    HW127905   1.024   2.158  13.196  1.4355  1.5548  1.1536
 5482SOL    HW227906   0.958   2.290  13.219  0.8926 -1.2872  0.7981
 5483SOL     OW27907   2.808   1.634   2.272  0.6152  0.0848  0.4884
 5483SOL    HW127908   2.903   1.637   2.282  0.7323 -0.3070 -0.5603
 5483SOL    HW227909   2.782   1.591   2.354  2.0807  0.2913  1.0696
 5484SOL     OW27910   3.207   4.458   8.153 -0.0457  0.7491 -0.1409
 5484SOL    HW127911   3.168   4.545   8.143  1.1743  1.4248  0.8877
 5484SOL    HW227912   3.229   4.462   8.246  0.9746 -2.5252 -0.2552
 5485SOL     OW27913   2.669   1.583  15.843 -0.0993  0.1508 -0.5441
 5485SOL    HW127914   2.753   1.609  15.879 -2.0019  3.0077  1.7788
 5485SOL    HW227915   2.701   1.501  15.804  2.3681  0.0195  1.7215
 5486SOL     OW27916   1.985   0.405   1.259 -0.1226  0.1612  0.9480
 5486SOL    HW127917   2.050   0.386   1.193 -2.5419  0.9893 -1.6999
 5486SOL    HW227918   1.988   0.332   1.321  1.2434 -2.2208 -1.9726
 5487SOL     OW27919   2.460   2.560   9.754  0.1865  0.0028  0.2013
 5487SOL    HW127920   2.410   2.550   9.673 -2.0231  2.4542  1.2490
 5487SOL    HW227921   2.493   2.649   9.748 -1.0379  0.3655 -1.2461
 5488SOL     OW27922   2.137   1.312   2.297 -0.5684  0.6157  0.0781
 5488SOL    HW127923   2.184   1.365   2.233  1.5287  1.1100  2.0234
 5488SOL    HW227924   2.139   1.378   2.366 -1.0712 -1.1430  1.7676
 5489SOL     OW27925   1.934   0.186  17.087  0.0886 -0.4700  0.0471
 5489SOL    HW127926   1.944   0.237  17.007  1.9023 -0.1865  0.4366
 5489SOL    HW227927   2.020   0.210  17.123  0.3308  0.8585 -1.4433
 5490SOL     OW27928   2.451   0.602  11.072  0.7560 -0.1068 -1.1355
 5490SOL    HW127929   2.519   0.670  11.079  2.1157 -1.3353 -2.2225
 5490SOL    HW227930   2.416   0.607  11.160  0.1759  1.0962 -1.4388
 5491SOL     OW27931   2.643   1.477   5.805 -0.4215  0.5295 -0.1445
 5491SOL    HW127932   2.621   1.393   5.765 -0.1104 -0.2733  1.3693
 5491SOL    HW227933   2.725   1.464   5.853 -0.2196 -0.8576 -0.8628
 5492SOL     OW27934   4.384   2.250  16.122  0.0565 -0.0920 -0.3155
 5492SOL    HW127935   4.367   2.243  16.028  1.9139 -3.2428 -0.4451
 5492SOL    HW227936   4.462   2.196  16.137 -0.0713 -0.7203 -1.8585
 5493SOL     OW27937   3.552   2.284   8.935  0.0108  0.0077  0.1266
 5493SOL    HW127938   3.635   2.286   8.887 -0.0349 -0.7660  0.0173
 5493SOL    HW227939   3.514   2.207   8.895  0.3895 -0.6992  1.1360
 5494SOL     OW27940   2.263   2.267   7.790  0.0093 -0.1963  0.3758
 5494SOL    HW127941   2.348   2.235   7.822  0.4805  0.1175 -0.5491
 5494SOL    HW227942   2.264   2.362   7.790  3.2735 -0.2053  0.2924
 5495SOL     OW27943   4.576   2.067  15.714 -0.1996 -0.4341 -0.1154
 5495SOL    HW127944   4.590   2.072  15.809  0.6999  0.0834 -0.2766
 5495SOL    HW227945   4.569   2.160  15.691  1.1074 -0.1331  0.6913
 5496SOL     OW27946   4.334   0.258  15.198 -0.4168  0.7939  0.4134
 5496SOL    HW127947   4.370   0.336  15.156 -0.3763  0.9351  0.7090
 5496SOL    HW227948   4.244   0.289  15.204 -0.3687  0.9642  0.2688
 5497SOL     OW27949   0.938   1.396  15.006  0.7705 -0.0683  0.0454
 5497SOL    HW127950   0.879   1.456  15.053  2.3605  1.0020  0.6989
 5497SOL    HW227951   1.026   1.424  15.032  0.4670 -0.6332  1.6988
 5498SOL     OW27952   1.508   3.274   1.159  0.1980  0.2082 -0.2808
 5498SOL    HW127953   1.482   3.354   1.203  0.7479 -0.2122  0.8267
 5498SOL    HW227954   1.420   3.246   1.134  0.7068 -1.2318 -0.4634
 5499SOL     OW27955   2.543   0.757   1.243  0.0009 -0.3533  0.1052
 5499SOL    HW127956   2.496   0.819   1.299  0.7430 -0.3908  0.7738
 5499SOL    HW227957   2.477   0.689   1.241  0.2599 -0.5658 -1.1173
 5500SOL     OW27958   1.826   3.503   8.468  0.0382 -0.0398  0.8969
 5500SOL    HW127959   1.778   3.576   8.506  0.4537  0.4812  0.4111
 5500SOL    HW227960   1.918   3.530   8.464  0.4575 -1.6731 -0.4497
 5501SOL     OW27961   0.526   1.761  10.343  0.3731 -0.0566  0.0842
 5501SOL    HW127962   0.452   1.726  10.293  2.0160 -2.5529 -0.5980
 5501SOL    HW227963   0.476   1.799  10.416  0.0139 -0.2791 -0.0476
 5502SOL     OW27964   4.312   0.884   7.044 -0.4333 -0.9135  0.4878
 5502SOL    HW127965   4.340   0.965   7.001 -0.0533 -1.4526 -0.2623
 5502SOL    HW227966   4.227   0.861   7.005 -1.2293  1.2939  0.9233
 5503SOL     OW27967   2.488   0.991   8.157 -0.3081 -0.5411  0.2006
 5503SOL    HW127968   2.473   0.996   8.251 -0.5264 -0.6645  0.1720
 5503SOL    HW227969   2.426   0.926   8.124 -0.1478 -0.1144 -0.9731
 5504SOL     OW27970   1.685   2.139   9.432  0.1407 -0.5163 -0.5705
 5504SOL    HW127971   1.697   2.222   9.385 -1.6784  1.0111  1.7157
 5504SOL    HW227972   1.651   2.174   9.514  0.2778 -0.4741 -0.5333
 5505SOL     OW27973   0.013   3.930   3.779  0.0973 -0.2848 -0.1256
 5505SOL    HW127974   0.073   3.890   3.715  0.9494 -1.5793  1.4781
 5505SOL    HW227975   0.077   3.980   3.830 -1.2297  1.3388 -0.0605
 5506SOL     OW27976   3.749   3.159   6.746 -0.0086  0.3363 -0.0679
 5506SOL    HW127977   3.678   3.096   6.737 -0.1920  0.6323 -0.6888
 5506SOL    HW227978   3.727   3.215   6.672  0.3871 -0.8700 -1.0894
 5507SOL     OW27979   2.322   1.929   7.738  0.1123 -0.1202  0.0041
 5507SOL    HW127980   2.369   1.848   7.757 -0.6329 -0.1457  1.7111
 5507SOL    HW227981   2.388   1.997   7.752  0.5217 -0.0134 -2.3874
 5508SOL     OW27982   3.727   1.965   6.839 -0.5081 -0.0701  0.1417
 5508SOL    HW127983   3.749   1.882   6.883  0.6390  0.4770  0.5948
 5508SOL    HW227984   3.636   1.976   6.867 -0.5777 -0.9559  0.2936
 5509SOL     OW27985   3.293   0.261   3.001  0.4693 -0.1776 -0.7851
 5509SOL    HW127986   3.372   0.220   3.036  0.6805  0.3936 -0.5769
 5509SOL    HW227987   3.285   0.250   2.906  0.1910  1.0535 -0.9069
 5510SOL     OW27988   3.160   3.447  15.047 -0.4740 -0.2558 -0.0390
 5510SOL    HW127989   3.196   3.535  15.059 -0.1239 -0.1477 -1.8698
 5510SOL    HW227990   3.107   3.431  15.125 -2.0285  0.4528 -0.9368
 5511SOL     OW27991   3.020   0.506   4.844 -1.1025 -0.2481 -0.2751
 5511SOL    HW127992   2.953   0.450   4.803 -0.4735 -1.9098  0.9250
 5511SOL    HW227993   2.997   0.489   4.935 -0.0359 -1.6564 -0.2609
 5512SOL     OW27994   3.474   3.699   0.133 -0.2888  0.7265 -0.6313
 5512SOL    HW127995   3.563   3.718   0.104 -0.1586  2.6113  1.0183
 5512SOL    HW227996   3.473   3.732   0.223 -3.3317 -0.5063 -0.2125
 5513SOL     OW27997   3.951   3.685  16.682 -0.6889  0.2621 -0.0114
 5513SOL    HW127998   3.928   3.607  16.732 -1.1348 -0.2213 -0.9803
 5513SOL    HW227999   3.868   3.716  16.647 -1.0638 -1.4042 -0.5955
 5514SOL     OW28000   3.854   4.609   0.714  0.3349  0.4289 -0.1666
 5514SOL    HW128001   3.841   4.602   0.619  0.2499 -2.2526  0.0450
 5514SOL    HW228002   3.767   4.580   0.740 -0.0195  1.0901 -0.6050
 5515SOL     OW28003   1.333   3.500   1.818 -0.2925 -0.1932  0.0739
 5515SOL    HW128004   1.313   3.456   1.735  2.7919  2.6919 -2.2167
 5515SOL    HW228005   1.291   3.447   1.885 -0.1214  1.6377  1.6071
 5516SOL     OW28006   1.094   1.189  17.507 -0.2157 -0.1805  0.4610
 5516SOL    HW128007   1.045   1.268  17.482  0.8029  0.2584 -0.1637
 5516SOL    HW228008   1.156   1.220  17.573  1.5979 -1.6618 -0.5510
 5517SOL     OW28009   0.004   0.602   5.016  0.1486  0.5283 -0.2280
 5517SOL    HW128010   0.091   0.596   4.978  0.0261  1.4390 -0.6565
 5517SOL    HW228011   0.025   0.567   5.103  1.1764  1.2868 -0.1728
 5518SOL     OW28012   0.667   3.316  16.812  0.1566 -0.7365 -0.5332
 5518SOL    HW128013   0.711   3.301  16.728  1.1348 -1.8922  0.1909
 5518SOL    HW228014   0.709   3.252  16.869 -0.0300  1.2323  1.8190
 5519SOL     OW28015   2.984   3.068   9.667  0.1146  0.2800 -0.1532
 5519SOL    HW128016   3.065   3.017   9.671 -0.1766 -0.2708 -1.2809
 5519SOL    HW228017   3.026   3.148   9.635  1.8754 -1.4735 -2.2413
 5520SOL     OW28018   1.752   3.228  16.366  0.4753  0.0569  0.0917
 5520SOL    HW128019   1.807   3.156  16.398  3.0694  2.6689  1.4437
 5520SOL    HW228020   1.801   3.257  16.290  1.2754 -1.7764 -0.1111
 5521SOL     OW28021   2.616   0.200   0.334 -0.1258  0.5632 -0.0689
 5521SOL    HW128022   2.666   0.279   0.358 -3.1667  2.9520 -1.5586
 5521SOL    HW228023   2.633   0.144   0.409 -1.4652 -1.6717 -1.4317
 5522SOL     OW28024   1.620   0.468   9.602  0.3596 -0.3740  0.7608
 5522SOL    HW128025   1.620   0.399   9.668 -0.9624 -2.3607 -1.3103
 5522SOL    HW228026   1.701   0.515   9.616 -0.0248  0.0191  1.6732
 5523SOL     OW28027   0.017   3.262   9.801  0.3880  0.0353  0.2506
 5523SOL    HW128028   0.021   3.269   9.896 -2.2712 -4.0748  0.6816
 5523SOL    HW228029   4.644   3.269   9.784  0.7789  2.7482 -0.8454
 5524SOL     OW28030   4.630   1.042  12.538 -0.7719  0.1869 -0.0144
 5524SOL    HW128031   4.666   0.967  12.585  1.9025  0.0458 -2.2759
 5524SOL    HW228032   4.569   1.000  12.477  0.6050 -2.4078  0.3794
 5525SOL     OW28033   2.535   0.380   4.349 -0.7750  0.1777 -0.3623
 5525SOL    HW128034   2.587   0.393   4.428  0.9874 -1.4483 -1.2514
 5525SOL    HW228035   2.596   0.365   4.277 -0.0981 -1.6751  0.5953
 5526SOL     OW28036   0.641   2.586   6.181  0.2189  0.4065  0.9175
 5526SOL    HW128037   0.622   2.664   6.233 -0.4421  0.4743  0.5750
 5526SOL    HW228038   0.554   2.547   6.171  0.2132  0.7276 -0.2678
 5527SOL     OW28039   2.695   0.023   6.318 -0.3258 -0.7034  0.4953
 5527SOL    HW128040   2.633   0.071   6.263 -0.4601 -0.8393  0.5285
 5527SOL    HW228041   2.773   0.040   6.265 -0.4464  1.8071  1.1402
 5528SOL     OW28042   0.111   1.676   6.031  0.2238 -0.0143 -0.2112
 5528SOL    HW128043   0.096   1.693   6.124  0.0680 -1.9231  0.0995
 5528SOL    HW228044   0.047   1.736   5.992 -1.6483 -1.0939  1.2022
 5529SOL     OW28045   3.203   0.076   5.023 -0.1168 -0.2289  0.0424
 5529SOL    HW128046   3.132   0.026   5.062  0.4832  0.5109  2.1091
 5529SOL    HW228047   3.201   0.155   5.077  2.4565 -0.4266  0.4570
 5530SOL     OW28048   3.442   0.872  11.786  0.3046  0.7054 -0.4838
 5530SOL    HW128049   3.472   0.950  11.833 -0.7573  0.4860  0.5589
 5530SOL    HW228050   3.453   0.801  11.848 -0.8461 -1.2592 -2.5107
 5531SOL     OW28051   2.348   3.281   4.119 -0.0550  0.9493 -0.5948
 5531SOL    HW128052   2.375   3.263   4.029  0.1535  0.4366 -0.4283
 5531SOL    HW228053   2.323   3.194   4.149  2.8410 -0.4729 -2.3760
 5532SOL     OW28054   1.444   4.699   8.006 -0.2625  0.1726  0.0624
 5532SOL    HW128055   1.539   4.698   8.003 -0.2642 -0.0442  0.0426
 5532SOL    HW228056   1.432   0.021   8.090  1.8082  0.3530  0.2525
 5533SOL     OW28057   3.137   2.878   6.730  0.1656  0.2471  0.1718
 5533SOL    HW128058   3.187   2.809   6.772  1.2020  0.7789 -0.1915
 5533SOL    HW228059   3.099   2.835   6.654 -0.2461 -0.5556  0.8326
 5534SOL     OW28060   1.840   4.539   0.566 -0.0962 -0.7236 -0.0307
 5534SOL    HW128061   1.746   4.532   0.579  0.0885  1.0745  2.2739
 5534SOL    HW228062   1.874   4.465   0.616 -0.2781 -0.1217  0.9672
 5535SOL     OW28063   0.863   0.118   3.398 -0.3331  0.6010 -0.2472
 5535SOL    HW128064   0.886   0.038   3.444 -1.6780  0.5868  0.3900
 5535SOL    HW228065   0.851   0.174   3.474 -1.0679 -0.4029  0.3747
 5536SOL     OW28066   2.190   0.922   4.434  0.3802 -0.2227  0.4310
 5536SOL    HW128067   2.192   0.917   4.339  0.1807  1.5073  0.3454
 5536SOL    HW228068   2.161   0.835   4.460  1.9921 -1.0981 -0.6933
 5537SOL     OW28069   0.050   2.351   7.789 -0.1070 -0.7169  0.1875
 5537SOL    HW128070   0.047   2.319   7.699 -2.0274  2.6749 -0.9595
 5537SOL    HW228071   0.122   2.414   7.780  0.3206 -1.0731  1.0904
 5538SOL     OW28072   4.152   3.781   2.888  0.3361 -0.2623 -0.2991
 5538SOL    HW128073   4.155   3.817   2.977  1.4018  0.8749 -0.7998
 5538SOL    HW228074   4.244   3.767   2.867  1.4081  2.8284  2.3235
 5539SOL     OW28075   2.882   4.031   1.799  0.6452  0.0967  0.1193
 5539SOL    HW128076   2.838   4.030   1.714  0.3209  3.3525  0.2457
 5539SOL    HW228077   2.888   4.125   1.814 -1.2255  0.1566  0.5513
 5540SOL     OW28078   1.700   3.800  12.175  0.3648 -0.0876 -0.0348
 5540SOL    HW128079   1.661   3.813  12.261 -0.4548 -0.9379 -0.2688
 5540SOL    HW228080   1.671   3.877  12.127  0.0707  1.2407  2.3296
 5541SOL     OW28081   2.860   3.109   9.301 -0.0472 -0.1473 -0.0782
 5541SOL    HW128082   2.838   3.130   9.210 -1.4673 -2.5484 -0.2748
 5541SOL    HW228083   2.781   3.136   9.348 -0.3757  0.6151 -1.0725
 5542SOL     OW28084   1.010   0.161   6.818 -0.5074 -0.2425  0.6704
 5542SOL    HW128085   0.915   0.168   6.809 -0.0657  1.7563 -2.4805
 5542SOL    HW228086   1.028   0.235   6.876  1.1795  1.7141 -2.3779
 5543SOL     OW28087   2.045   4.173   0.214  0.2457 -0.4863 -0.0813
 5543SOL    HW128088   2.089   4.211   0.290  1.0670  1.1468 -1.3767
 5543SOL    HW228089   2.120   4.136   0.167  0.9362  2.0482 -0.9456
 5544SOL     OW28090   2.045   1.322  11.453  0.4988 -0.2354  0.3047
 5544SOL    HW128091   2.111   1.361  11.509 -0.9000  0.6650  1.3107
 5544SOL    HW228092   2.095   1.269  11.390  0.5039 -0.3823  0.4308
 5545SOL     OW28093   4.644   1.649   8.900  0.5250 -0.4094  0.4276
 5545SOL    HW128094   4.598   1.569   8.876  0.7295 -0.6358  0.7882
 5545SOL    HW228095   4.639   1.654   8.996 -1.1203  2.4722  0.1832
 5546SOL     OW28096   4.428   4.226  15.665 -0.3831  0.1431  0.4759
 5546SOL    HW128097   4.506   4.264  15.625 -1.5373 -0.6744 -2.5304
 5546SOL    HW228098   4.397   4.313  15.688  0.9422  0.9364 -0.7266
 5547SOL     OW28099   0.570   0.361   5.229 -0.5206  0.4366  0.4272
 5547SOL    HW128100   0.536   0.290   5.283 -0.9892 -1.3276 -2.1899
 5547SOL    HW228101   0.654   0.319   5.211 -0.5951 -0.1732  1.5262
 5548SOL     OW28102   4.721   3.648  16.879 -0.6361 -0.1164 -0.8849
 5548SOL    HW128103   0.032   3.617  16.964 -0.9117 -2.2809 -1.5722
 5548SOL    HW228104   4.657   3.581  16.856 -0.4509 -0.4082 -0.5626
 5549SOL     OW28105   2.956   1.399  16.050 -0.1808  0.3898  0.8759
 5549SOL    HW128106   2.937   1.308  16.024  2.3301 -0.0254  0.4881
 5549SOL    HW228107   2.886   1.441  16.098  1.1837  2.0442  1.4109
 5550SOL     OW28108   0.359   2.025   7.165  0.4612  0.0142  0.4866
 5550SOL    HW128109   0.320   2.067   7.088 -0.3022  0.4052  1.0851
 5550SOL    HW228110   0.351   2.100   7.225 -1.0341  1.2661 -1.2505
 5551SOL     OW28111   2.191   1.979  12.286  0.3797 -0.0846 -1.2523
 5551SOL    HW128112   2.269   1.926  12.305 -0.6404 -1.4126 -0.7314
 5551SOL    HW228113   2.150   1.928  12.216 -3.1554 -0.1627  0.8987
 5552SOL     OW28114   3.633   0.965   7.248  0.0865 -0.0376  0.2842
 5552SOL    HW128115   3.615   0.927   7.334  2.6280  3.2469  2.2615
 5552SOL    HW228116   3.723   0.936   7.232 -0.0746  0.0507 -0.8110
 5553SOL     OW28117   3.046   4.217   8.128  0.4689 -0.5709 -0.1194
 5553SOL    HW128118   3.111   4.288   8.127 -0.8219  0.6046 -0.4816
 5553SOL    HW228119   3.097   4.146   8.089 -0.1463 -1.4432  0.6829
 5554SOL     OW28120   4.320   4.339  15.977 -0.9033  0.9022 -0.1282
 5554SOL    HW128121   4.229   4.319  15.959  0.0095  0.1169 -4.0168
 5554SOL    HW228122   4.340   4.400  15.905  1.1779  0.3401 -0.0362
 5555SOL     OW28123   3.237   4.404  10.639 -0.1730  0.2898  0.6410
 5555SOL    HW128124   3.185   4.471  10.684 -0.1551  0.4235  0.4643
 5555SOL    HW228125   3.189   4.327  10.667  0.0274 -0.0330  0.0852
 5556SOL     OW28126   2.301   1.319   6.994 -0.2158  0.3854  0.8210
 5556SOL    HW128127   2.314   1.383   6.925 -1.8197  2.1003  2.0863
 5556SOL    HW228128   2.260   1.373   7.062  0.3136 -0.0625  1.5029
 5557SOL     OW28129   2.978   2.592  11.664  0.6421  0.6452  0.2049
 5557SOL    HW128130   2.890   2.616  11.637  0.1342 -1.7215 -0.2330
 5557SOL    HW228131   2.974   2.501  11.634  0.2889  0.2209  1.5724
 5558SOL     OW28132   2.156   0.745   3.261  0.7635  0.1384 -0.5469
 5558SOL    HW128133   2.250   0.760   3.271  0.4697  1.4364  0.2749
 5558SOL    HW228134   2.126   0.774   3.348  0.5848  3.0573 -1.5826
 5559SOL     OW28135   3.219   0.382  11.860  0.0226 -0.1995  0.0799
 5559SOL    HW128136   3.180   0.335  11.786  0.6689 -0.1112 -0.3231
 5559SOL    HW228137   3.142   0.381  11.916 -1.5721 -0.5412 -2.1117
 5560SOL     OW28138   1.891   1.297  16.122  0.1472 -0.7917  0.1146
 5560SOL    HW128139   1.893   1.377  16.068 -0.2943 -1.9334 -1.5958
 5560SOL    HW228140   1.842   1.237  16.066  0.4596 -0.3300 -0.6649
 5561SOL     OW28141   0.375   4.542   6.800 -0.3238 -0.3783  0.0293
 5561SOL    HW128142   0.399   4.619   6.851  0.0566  2.2117 -4.0669
 5561SOL    HW228143   0.339   4.580   6.720  0.9232 -0.2769 -0.4804
 5562SOL     OW28144   0.980   1.438  14.733  0.0237 -0.3497 -0.4753
 5562SOL    HW128145   1.040   1.513  14.728  0.1627 -0.3535  1.0087
 5562SOL    HW228146   0.960   1.431  14.826  0.9480 -0.3567 -0.2769
 5563SOL     OW28147   1.860   3.521   9.143 -0.2701  0.8563 -0.6204
 5563SOL    HW128148   1.832   3.595   9.090 -1.3136  0.3654 -0.7557
 5563SOL    HW228149   1.780   3.484   9.180  0.7851 -1.3674 -0.5324
 5564SOL     OW28150   4.201   4.366   1.505 -0.0069 -0.0781  0.1112
 5564SOL    HW128151   4.163   4.454   1.512  0.4824  0.1219  0.2428
 5564SOL    HW228152   4.124   4.309   1.507  0.0068 -0.0408  2.1989
 5565SOL     OW28153   4.602   4.117   4.898 -0.6359 -0.4552  0.5318
 5565SOL    HW128154   4.507   4.109   4.889 -0.6041 -0.5573  0.2778
 5565SOL    HW228155   4.596   4.166   4.980 -0.5157  0.9614 -0.3016
 5566SOL     OW28156   0.483   2.895   3.116 -0.1981  0.1802 -0.4630
 5566SOL    HW128157   0.510   2.976   3.073 -1.8670  0.4337 -1.0467
 5566SOL    HW228158   0.559   2.870   3.168 -0.0134  0.3815 -0.6338
 5567SOL     OW28159   1.729   1.003   7.504  0.1205 -0.1946  0.2485
 5567SOL    HW128160   1.701   0.987   7.414  1.0127  2.2005 -0.4648
 5567SOL    HW228161   1.652   1.050   7.533  1.5441  1.0565  2.0035
 5568SOL     OW28162   3.910   3.108  11.808  0.1517  0.2367  0.3428
 5568SOL    HW128163   3.926   3.190  11.856  1.0020  0.4271 -0.2627
 5568SOL    HW228164   3.910   3.046  11.881 -1.5988 -2.1165 -1.6725
 5569SOL     OW28165   4.432   1.469   4.677 -0.2630 -0.0087  0.4251
 5569SOL    HW128166   4.377   1.419   4.737  0.9512 -0.7838  0.8952
 5569SOL    HW228167   4.520   1.439   4.698 -0.3230  0.4923  1.4033
 5570SOL     OW28168   4.051   1.838   7.078  0.5098  0.4650 -0.7050
 5570SOL    HW128169   4.096   1.899   7.020  0.6538  0.6981 -0.3423
 5570SOL    HW228170   4.119   1.814   7.141  0.8357  3.5722  0.1063
 5571SOL     OW28171   2.142   2.332   0.749  0.9292  0.1039 -0.4158
 5571SOL    HW128172   2.176   2.373   0.670  1.1655  0.3396 -0.1919
 5571SOL    HW228173   2.060   2.375   0.772  1.8516  0.2195  2.7583
 5572SOL     OW28174   2.398   0.105  16.094 -0.0741  0.1273  0.2954
 5572SOL    HW128175   2.403   0.024  16.144  3.0473  0.5742  0.6859
 5572SOL    HW228176   2.385   0.073  16.005  3.5400 -1.5198  0.3815
 5573SOL     OW28177   1.285   2.743   2.237  0.0229 -0.4220  0.0061
 5573SOL    HW128178   1.366   2.766   2.191 -1.7368  1.5806 -2.1321
 5573SOL    HW228179   1.248   2.697   2.161 -1.0376  2.9737 -1.5711
 5574SOL     OW28180   0.813   0.287  11.953  0.1802 -0.1809  0.0761
 5574SOL    HW128181   0.805   0.361  12.013  1.6607 -1.5170  1.9500
 5574SOL    HW228182   0.757   0.220  11.991 -1.4030  1.6841  0.9958
 5575SOL     OW28183   0.426   0.770   4.671  0.2799 -0.3056 -0.7452
 5575SOL    HW128184   0.349   0.815   4.705  0.0772 -1.4233  0.2773
 5575SOL    HW228185   0.471   0.839   4.622 -1.5151  0.5201 -1.2044
 5576SOL     OW28186   1.308   1.668   4.797  0.1149 -0.2545  0.3791
 5576SOL    HW128187   1.328   1.633   4.884 -1.8622 -2.1790  0.0865
 5576SOL    HW228188   1.387   1.636   4.753  1.4326  1.6385  1.3905
 5577SOL     OW28189   2.651   3.315   9.333  0.1724  0.1936 -0.3370
 5577SOL    HW128190   2.600   3.320   9.252  0.6673  2.3812 -0.5185
 5577SOL    HW228191   2.612   3.242   9.381  2.2658 -1.0746 -0.5347
 5578SOL     OW28192   0.447   2.817   2.750 -0.1241  0.1205 -1.0986
 5578SOL    HW128193   0.378   2.877   2.719 -0.6653 -0.3596 -0.8304
 5578SOL    HW228194   0.527   2.870   2.750 -1.0361  1.5051 -0.2510
 5579SOL     OW28195   2.313   2.625   9.511  0.2447  0.2364 -0.1228
 5579SOL    HW128196   2.255   2.700   9.498  0.2395  0.8306  3.4339
 5579SOL    HW228197   2.247   2.560   9.533  0.7546  0.1659  1.2016
 5580SOL     OW28198   2.759   0.426   3.896 -0.6083 -0.7419 -0.0277
 5580SOL    HW128199   2.669   0.424   3.861 -0.6197 -1.8005  0.0747
 5580SOL    HW228200   2.762   0.516   3.928  2.1371 -0.9902  0.4069
 5581SOL     OW28201   1.157   0.711   8.567  0.0134  0.3582  0.5569
 5581SOL    HW128202   1.084   0.689   8.625  0.8610 -0.8875  1.1511
 5581SOL    HW228203   1.193   0.792   8.604  1.5345 -0.0727  0.0027
 5582SOL     OW28204   1.569   4.607  11.009 -0.4077 -0.2488 -0.4148
 5582SOL    HW128205   1.523   4.690  11.019  0.0063  0.1566 -1.8537
 5582SOL    HW228206   1.634   4.623  10.940 -3.8032 -0.0774 -3.5865
 5583SOL     OW28207   4.293   1.956   2.540 -0.0473 -0.1852  0.3550
 5583SOL    HW128208   4.241   1.878   2.560 -2.4026  1.6383  1.4080
 5583SOL    HW228209   4.366   1.920   2.491 -1.4325 -1.0188 -1.0923
 5584SOL     OW28210   3.518   0.300   5.369  0.2011 -0.0962 -0.4973
 5584SOL    HW128211   3.483   0.386   5.394  1.4125  0.9517 -2.3857
 5584SOL    HW228212   3.435   0.257   5.351 -0.3655  1.4645 -1.6354
 5585SOL     OW28213   4.715   3.228   8.238 -0.1231 -0.0426  0.1347
 5585SOL    HW128214   4.650   3.176   8.284  0.3676  0.9110  1.8952
 5585SOL    HW228215   4.685   3.318   8.244  0.6061  0.2119  0.0038
 5586SOL     OW28216   0.435   3.488   4.471  0.0359  0.0505  0.4180
 5586SOL    HW128217   0.527   3.465   4.488 -0.2436 -1.1210  0.3684
 5586SOL    HW228218   0.399   3.413   4.520 -0.2609  0.1244  0.3093
 5587SOL     OW28219   0.764   0.594   3.421  0.2868 -0.1973 -0.6617
 5587SOL    HW128220   0.833   0.534   3.393  1.2541  0.2221  0.8384
 5587SOL    HW228221   0.751   0.643   3.340 -0.2707  0.9851  0.1468
 5588SOL     OW28222   2.682   0.463   5.946 -0.2350  0.1578 -0.0823
 5588SOL    HW128223   2.667   0.556   5.931 -1.0960  0.0936  0.4010
 5588SOL    HW228224   2.716   0.468   6.036  0.8281 -3.0049 -0.2968
 5589SOL     OW28225   0.430   0.752   3.348 -0.3462  0.0626 -0.0006
 5589SOL    HW128226   0.436   0.736   3.254  0.6725  1.3551 -0.1644
 5589SOL    HW228227   0.342   0.789   3.348 -0.9266 -1.3105  1.4699
 5590SOL     OW28228   4.226   3.756   5.700 -0.1400  0.4777  0.8040
 5590SOL    HW128229   4.268   3.803   5.628 -0.0291  0.0841  0.6067
 5590SOL    HW228230   4.254   3.793   5.783 -0.0181  0.2214  0.8787
 5591SOL     OW28231   3.274   4.429   8.423  0.2850  0.5155  0.3705
 5591SOL    HW128232   3.245   4.365   8.489 -1.0581 -0.8052 -1.4920
 5591SOL    HW228233   3.286   4.497   8.489  1.8537 -0.2305  0.8524
 5592SOL     OW28234   4.681   2.463   5.581 -0.3570 -0.0413  0.7509
 5592SOL    HW128235   0.003   2.548   5.572  0.5483 -0.6342 -0.4637
 5592SOL    HW228236   4.588   2.485   5.571  0.0791  0.1798 -2.6225
 5593SOL     OW28237   1.749   3.933   6.271  0.0920 -0.2801  0.3525
 5593SOL    HW128238   1.729   3.996   6.341  0.8499  0.5302 -0.1555
 5593SOL    HW228239   1.845   3.930   6.272  0.0791 -1.0174 -2.6293
 5594SOL     OW28240   2.773   3.878   7.860 -0.4464  0.1719  0.0236
 5594SOL    HW128241   2.770   3.845   7.770  0.7457 -0.1674  0.1061
 5594SOL    HW228242   2.832   3.953   7.861 -0.9689  0.5886 -1.1776
 5595SOL     OW28243   3.410   4.324   7.988 -0.1973  0.4112 -0.6631
 5595SOL    HW128244   3.426   4.241   8.033  0.1061 -0.3460 -2.1942
 5595SOL    HW228245   3.323   4.349   8.020  0.7342  0.5631  1.7987
 5596SOL     OW28246   1.077   4.429  11.543 -0.1064  0.3733 -0.2256
 5596SOL    HW128247   1.037   4.488  11.607 -1.3114 -0.4998 -0.1768
 5596SOL    HW228248   1.020   4.461  11.474 -1.4672  0.8283  1.1075
 5597SOL     OW28249   1.912   1.652   5.751 -1.0067  0.0957 -0.4782
 5597SOL    HW128250   1.839   1.629   5.693 -2.5587 -1.6816  2.1933
 5597SOL    HW228251   1.978   1.692   5.693 -0.7425  0.1837 -0.1188
 5598SOL     OW28252   0.070   0.915   3.922 -0.4319 -0.3760  0.2499
 5598SOL    HW128253   0.104   0.826   3.923  0.5535  0.0072  1.2343
 5598SOL    HW228254   0.067   0.934   3.828 -0.5222 -0.5455  0.2204
 5599SOL     OW28255   3.827   4.112   4.675  0.3981 -0.2661 -0.0635
 5599SOL    HW128256   3.785   4.174   4.615  0.4243  0.8557  1.0629
 5599SOL    HW228257   3.783   4.031   4.650 -0.5368  0.1042  0.3946
 5600SOL     OW28258   0.975   4.087   5.611 -0.3509  0.6829  0.2901
 5600SOL    HW128259   0.923   4.167   5.607 -2.4449 -0.7369 -0.8867
 5600SOL    HW228260   1.055   4.118   5.652  1.0905 -2.4330 -0.1740
 5601SOL     OW28261   3.035   2.600   1.980 -0.8877 -0.1878 -0.4437
 5601SOL    HW128262   3.030   2.622   1.887  1.3644  1.8346 -0.0800
 5601SOL    HW228263   3.057   2.506   1.979  0.1448  0.0341  1.0300
 5602SOL     OW28264   2.608   0.102   5.176  0.5557 -0.0677 -0.1639
 5602SOL    HW128265   2.518   0.070   5.178  0.5183 -0.2311 -3.3901
 5602SOL    HW228266   2.646   0.077   5.260 -0.4614  0.7470  0.5300
 5603SOL     OW28267   4.427   1.989   1.474  0.7083 -0.5986  0.5320
 5603SOL    HW128268   4.365   1.943   1.416 -0.7957 -0.0494  1.7112
 5603SOL    HW228269   4.491   2.017   1.410 -0.0725 -0.4713 -0.1969
 5604SOL     OW28270   1.146   3.500   4.872  0.1815  0.3369  0.7315
 5604SOL    HW128271   1.182   3.414   4.847 -0.3140  0.7755 -1.5072
 5604SOL    HW228272   1.110   3.489   4.960 -1.1772 -2.0710 -0.1137
 5605SOL     OW28273   1.796   1.000   9.667 -0.3398  0.4414 -0.1304
 5605SOL    HW128274   1.778   0.931   9.604  0.2085  0.5595 -0.4137
 5605SOL    HW228275   1.778   0.960   9.752  0.1176  2.6685  1.0263
 5606SOL     OW28276   0.684   2.452   6.973 -0.3004  0.6209  0.3565
 5606SOL    HW128277   0.693   2.448   6.878  0.8373  0.1716  0.4858
 5606SOL    HW228278   0.738   2.378   7.000  0.4914  2.3719  3.5300
 5607SOL     OW28279   0.261   2.234   2.508  0.1945 -0.1308 -0.5485
 5607SOL    HW128280   0.354   2.210   2.518 -0.0610 -0.6845  0.4607
 5607SOL    HW228281   0.256   2.269   2.419  0.8275  2.8194  0.5848
 5608SOL     OW28282   2.862   3.811   0.219 -0.3742 -0.7510  0.6348
 5608SOL    HW128283   2.940   3.850   0.259 -0.7932 -1.0586  1.7409
 5608SOL    HW228284   2.899   3.788   0.133  0.0705  1.7599  0.1371
 5609SOL     OW28285   4.069   4.607   1.471  0.8464  0.2426 -0.0746
 5609SOL    HW128286   4.050   4.694   1.508  0.3815 -0.2827  0.9114
 5609SOL    HW228287   4.062   4.620   1.377 -1.9270 -1.3500 -0.0833
 5610SOL     OW28288   1.014   0.097   6.339  0.3088 -0.0904  0.3123
 5610SOL    HW128289   1.065   0.090   6.419  0.3570 -0.5027  0.2441
 5610SOL    HW228290   0.931   0.116   6.384 -0.1534 -2.0980  0.2900
 5611SOL     OW28291   2.290   1.496   1.755 -0.4239  0.2722  0.2195
 5611SOL    HW128292   2.203   1.535   1.744 -0.2917 -0.2536 -2.6675
 5611SOL    HW228293   2.256   1.409   1.775  3.4980 -0.6601  2.7343
 5612SOL     OW28294   3.614   3.108   0.238 -0.0748 -0.3201 -0.4574
 5612SOL    HW128295   3.607   3.018   0.270 -4.1633  1.4291  3.6234
 5612SOL    HW228296   3.550   3.151   0.295 -1.5046 -2.1456 -0.6680
 5613SOL     OW28297   1.479   3.398  10.489  0.3702  0.7271  0.5427
 5613SOL    HW128298   1.531   3.439  10.559 -0.3150 -0.2157  1.6145
 5613SOL    HW228299   1.418   3.336  10.530 -0.5409  2.5303  1.9228
 5614SOL     OW28300   1.890   4.426   5.802  0.3476 -0.8952 -0.2553
 5614SOL    HW128301   1.984   4.412   5.787  0.3878 -2.2656  1.2249
 5614SOL    HW228302   1.879   4.374   5.882 -1.4808 -1.3802 -0.8222
 5615SOL     OW28303   3.579   4.134   9.999  0.5471 -0.5766  0.1777
 5615SOL    HW128304   3.543   4.131  10.087 -1.3052 -1.3092 -0.6199
 5615SOL    HW228305   3.640   4.061  10.009  1.1878 -0.2040 -0.9480
 5616SOL     OW28306   4.609   3.868   1.601 -0.3788  0.2546 -0.2280
 5616SOL    HW128307   4.542   3.828   1.546  1.9095 -0.2289 -2.6358
 5616SOL    HW228308   4.646   3.784   1.627  1.1700  1.2259  0.7585
 5617SOL     OW28309   1.612   3.637   2.007 -0.3221 -0.8962 -0.2434
 5617SOL    HW128310   1.523   3.635   1.972  0.5450  0.5081 -2.4988
 5617SOL    HW228311   1.651   3.704   1.952  1.6799 -0.9899  1.0479
 5618SOL     OW28312   4.182   2.478   1.888  0.1774 -0.2664 -0.4069
 5618SOL    HW128313   4.197   2.397   1.937  1.8234  0.9588  1.0885
 5618SOL    HW228314   4.099   2.457   1.845 -0.7184  0.5148  0.9473
 5619SOL     OW28315   1.580   3.855   6.070 -0.2551 -0.3790  0.1155
 5619SOL    HW128316   1.648   3.890   6.128 -0.8037  1.5015 -0.3645
 5619SOL    HW228317   1.535   3.808   6.139  1.3888 -2.6026 -0.3285
 5620SOL     OW28318   1.603   3.043   9.833 -0.0091 -0.1752 -0.1187
 5620SOL    HW128319   1.689   3.078   9.810  0.9863 -1.4531  1.6526
 5620SOL    HW228320   1.595   2.980   9.762  0.9392 -1.1474  0.6318
 5621SOL     OW28321   4.471   2.940   9.930  0.7575 -0.0461 -0.1398
 5621SOL    HW128322   4.566   2.950   9.926  0.8857 -0.9470  0.8482
 5621SOL    HW228323   4.450   2.847   9.927 -2.1057  0.5971 -0.2018
 5622SOL     OW28324   2.357   2.246   1.709  0.6631  0.2633  0.2542
 5622SOL    HW128325   2.412   2.175   1.677  1.8799  0.7877  1.2053
 5622SOL    HW228326   2.278   2.230   1.657 -0.8931  0.7779  2.4692
 5623SOL     OW28327   1.888   4.382   3.448 -0.3652  0.2769 -0.4282
 5623SOL    HW128328   1.947   4.353   3.378 -1.0810 -0.3680 -0.7624
 5623SOL    HW228329   1.804   4.369   3.405  0.4019  0.8008 -2.0950
 5624SOL     OW28330   0.042   2.661  12.492 -0.2579 -0.1209 -0.3173
 5624SOL    HW128331   0.002   2.718  12.557  0.1731 -2.0275  1.6311
 5624SOL    HW228332   0.131   2.695  12.486 -0.9952  1.9140  0.2675
 5625SOL     OW28333   0.688   2.344   9.226 -0.3015 -0.6705  0.3526
 5625SOL    HW128334   0.723   2.408   9.287 -0.7165 -2.9077  2.9437
 5625SOL    HW228335   0.629   2.393   9.169  0.4012  1.7621  1.7654
 5626SOL     OW28336   0.193   1.159   5.177  0.1864 -0.3887 -0.3870
 5626SOL    HW128337   0.186   1.254   5.167 -0.0194 -0.1927  1.7136
 5626SOL    HW228338   0.281   1.142   5.142  1.1251  0.8344  1.4256
 5627SOL     OW28339   4.506   4.020  15.448  0.1056 -0.4580  0.3466
 5627SOL    HW128340   4.483   4.079  15.520 -1.0660 -1.5335  0.8532
 5627SOL    HW228341   4.556   4.072  15.385 -2.0676 -1.3720 -2.1174
 5628SOL     OW28342   2.357   1.614   4.280  0.1286 -0.4230  0.2735
 5628SOL    HW128343   2.369   1.543   4.217  1.0071  1.3909 -1.5808
 5628SOL    HW228344   2.277   1.659   4.256  1.6660  1.6380 -0.9925
 5629SOL     OW28345   3.455   1.064   8.532 -0.6251  0.0623  0.1330
 5629SOL    HW128346   3.388   1.116   8.488  0.6812  2.3819  0.8882
 5629SOL    HW228347   3.526   1.089   8.473 -1.1576  0.7317 -0.2242
 5630SOL     OW28348   3.292   1.108  10.372  0.6458  0.6286  0.1239
 5630SOL    HW128349   3.347   1.139  10.300 -1.9465 -1.2949 -2.6647
 5630SOL    HW228350   3.363   1.061  10.414  0.4299 -0.0875 -0.3085
 5631SOL     OW28351   3.036   0.981   8.888  0.6698  0.0970  0.3733
 5631SOL    HW128352   3.126   1.011   8.893  0.1287  2.0432 -2.0890
 5631SOL    HW228353   3.034   0.935   8.805 -0.1176 -1.6975  1.3734
 5632SOL     OW28354   0.790   3.317   7.829 -0.0604  0.2200 -0.0699
 5632SOL    HW128355   0.739   3.335   7.907  0.2393 -2.2783  0.6912
 5632SOL    HW228356   0.790   3.221   7.835  2.0259  0.2347  0.1274
 5633SOL     OW28357   0.593   1.455  13.536  0.1013  0.0604 -0.2249
 5633SOL    HW128358   0.524   1.503  13.490 -0.8651 -0.7344  0.3664
 5633SOL    HW228359   0.557   1.443  13.625  2.2261 -0.5628  0.5399
 5634SOL     OW28360   3.976   1.442   7.279  0.7451  0.1484 -0.2288
 5634SOL    HW128361   3.943   1.393   7.354 -1.3996  4.7781  1.8157
 5634SOL    HW228362   3.929   1.524   7.291  1.7606  0.7213 -0.1445
 5635SOL     OW28363   4.213   4.227   4.471 -0.4538  0.1907  0.3191
 5635SOL    HW128364   4.292   4.224   4.524  0.0880  0.3194 -0.4789
 5635SOL    HW228365   4.197   4.133   4.460  1.0325 -0.0145 -0.1216
 5636SOL     OW28366   2.087   4.530   2.063  0.4625 -0.6835 -0.1270
 5636SOL    HW128367   2.083   4.486   2.148  0.3611 -2.2718 -0.9498
 5636SOL    HW228368   2.017   4.595   2.075  0.4874 -0.7776  0.5437
 5637SOL     OW28369   3.653   0.316   9.090  1.0151 -0.3141  0.5793
 5637SOL    HW128370   3.664   0.391   9.031  1.3588  0.0411  1.0902
 5637SOL    HW228371   3.558   0.317   9.103  0.8379 -0.5296 -0.7596
 5638SOL     OW28372   3.253   2.745   2.124  0.5387 -0.3299 -0.0485
 5638SOL    HW128373   3.224   2.734   2.214  2.1569 -0.7240  0.4319
 5638SOL    HW228374   3.185   2.707   2.069  1.5805 -0.4479 -1.2518
 5639SOL     OW28375   1.728   3.747   7.145 -0.2929 -0.0148  0.0194
 5639SOL    HW128376   1.709   3.655   7.125  2.7184 -0.3834 -1.0704
 5639SOL    HW228377   1.787   3.727   7.218  0.5467  1.2587 -0.3075
 5640SOL     OW28378   1.444   3.135  15.087  0.2141  0.2134 -0.5790
 5640SOL    HW128379   1.494   3.183  15.021  0.2597 -0.0598 -0.7467
 5640SOL    HW228380   1.425   3.206  15.148  2.0085  0.9719 -0.8815
 5641SOL     OW28381   4.494   1.402   8.883  0.6689  0.0445 -0.0815
 5641SOL    HW128382   4.418   1.392   8.825 -0.3527  0.7769  1.1167
 5641SOL    HW228383   4.570   1.382   8.828 -0.3093  2.1195 -2.2168
 5642SOL     OW28384   1.853   1.699   1.285  0.8395 -0.5880  0.1145
 5642SOL    HW128385   1.906   1.776   1.308 -1.5932  0.6893  1.4345
 5642SOL    HW228386   1.774   1.739   1.249  0.5505 -2.7815 -1.6767
 5643SOL     OW28387   0.475   2.612   6.749 -0.4428 -0.3892 -0.2513
 5643SOL    HW128388   0.443   2.675   6.814 -0.4208 -0.3275 -0.3005
 5643SOL    HW228389   0.544   2.666   6.711 -0.0794  0.2786  1.3400
 5644SOL     OW28390   1.289   1.184   1.277  0.2229 -0.4300  0.0930
 5644SOL    HW128391   1.305   1.097   1.313 -1.7124 -0.8239 -0.0073
 5644SOL    HW228392   1.276   1.224   1.363 -1.8425  3.4668 -2.0200
 5645SOL     OW28393   1.708   3.823   0.068  0.2611 -0.1941 -0.1200
 5645SOL    HW128394   1.753   3.878   0.132  1.4916 -0.4731 -0.7268
 5645SOL    HW228395   1.631   3.874   0.044 -0.5005 -0.6744  1.3074
 5646SOL     OW28396   4.191   4.351  16.404  0.2968  0.1120  0.4507
 5646SOL    HW128397   4.099   4.367  16.423 -0.2689 -1.4950 -0.9885
 5646SOL    HW228398   4.181   4.257  16.391  2.4854  0.0503 -0.9052
 5647SOL     OW28399   4.561   0.288  12.325 -0.2186  0.5312  0.6054
 5647SOL    HW128400   4.503   0.303  12.250  0.1797  0.9450  0.3787
 5647SOL    HW228401   4.498   0.266  12.394  0.7427 -0.7264  1.0908
 5648SOL     OW28402   4.150   1.948   4.215 -0.2412 -0.7375  0.2064
 5648SOL    HW128403   4.060   1.966   4.188  0.2992  1.2733 -0.2762
 5648SOL    HW228404   4.122   1.924   4.303  2.1622 -2.5065  0.4695
 5649SOL     OW28405   0.806   1.444   4.395 -0.5543  0.0093  0.2854
 5649SOL    HW128406   0.791   1.349   4.389  0.4971 -0.2346  1.4745
 5649SOL    HW228407   0.894   1.435   4.358 -0.7358 -0.4400 -0.0453
 5650SOL     OW28408   0.172   1.601  14.899  0.3676  0.2477  0.3364
 5650SOL    HW128409   0.106   1.554  14.847  0.7730  1.8182 -1.6115
 5650SOL    HW228410   0.227   1.620  14.823 -1.1015  1.3491 -0.4380
 5651SOL     OW28411   4.721   0.919   3.652 -0.3243 -0.9654  0.3202
 5651SOL    HW128412   4.689   0.996   3.604 -1.0707 -0.2320  1.9975
 5651SOL    HW228413   0.008   0.856   3.580 -2.1086  2.3485 -2.8210
 5652SOL     OW28414   4.251   0.866   8.248 -0.3445  0.0960 -0.0505
 5652SOL    HW128415   4.296   0.915   8.317 -0.2182  3.3377 -2.4363
 5652SOL    HW228416   4.228   0.937   8.188  1.4664 -1.9519 -3.1170
 5653SOL     OW28417   3.309   0.676   8.425  0.4439  0.2543 -0.3706
 5653SOL    HW128418   3.320   0.694   8.331 -0.0401 -0.4906 -0.5721
 5653SOL    HW228419   3.395   0.700   8.460 -0.5653  1.0810  1.5343
 5654SOL     OW28420   2.705   0.951   3.799 -0.5515 -0.3994  0.7159
 5654SOL    HW128421   2.754   0.911   3.726  0.4777  2.3692 -0.0957
 5654SOL    HW228422   2.760   1.028   3.812  0.5576 -1.2056  0.8572
 5655SOL     OW28423   4.293   3.112  13.478  0.0336 -0.4049 -0.4755
 5655SOL    HW128424   4.326   3.099  13.567 -0.3011 -0.1335 -0.3157
 5655SOL    HW228425   4.262   3.202  13.483  1.6390  0.1556 -0.5033
 5656SOL     OW28426   2.571   0.495  15.031 -0.6020 -0.0190 -0.2407
 5656SOL    HW128427   2.603   0.520  14.944  0.7792  2.0510  0.8732
 5656SOL    HW228428   2.579   0.399  15.034 -1.5984  0.0317  3.3859
 5657SOL     OW28429   1.602   4.399   2.472  0.0214  0.4408 -0.2067
 5657SOL    HW128430   1.651   4.448   2.407  2.5891 -0.1376  1.3203
 5657SOL    HW228431   1.612   4.455   2.549 -1.2381  2.5229 -1.5326
 5658SOL     OW28432   2.621   2.303   2.101  0.1972  0.1289  0.3213
 5658SOL    HW128433   2.620   2.234   2.034 -0.8750 -0.4766  0.9573
 5658SOL    HW228434   2.658   2.374   2.049 -1.5455  0.3308 -0.6647
 5659SOL     OW28435   0.081   0.443   4.511 -0.8840 -0.3761  0.4039
 5659SOL    HW128436   0.034   0.372   4.554 -2.3526  0.4575  0.1877
 5659SOL    HW228437   0.075   0.426   4.417  0.6723  3.3394 -0.3774
 5660SOL     OW28438   1.576   2.262   2.598 -0.2035 -0.0678  0.2297
 5660SOL    HW128439   1.495   2.213   2.614 -0.2919 -0.0431 -0.1402
 5660SOL    HW228440   1.547   2.351   2.575  0.2255 -0.0242 -0.1467
 5661SOL     OW28441   3.802   0.546   7.234  0.8380 -0.5480 -0.6882
 5661SOL    HW128442   3.772   0.535   7.143 -1.5376 -2.8081  0.3578
 5661SOL    HW228443   3.730   0.510   7.285  0.5287  1.4833  0.3247
 5662SOL     OW28444   0.541   0.968   4.009 -0.0460 -0.0898 -0.4188
 5662SOL    HW128445   0.484   1.012   4.073 -0.6478  0.8849 -1.6247
 5662SOL    HW228446   0.490   0.994   3.932 -1.2309 -2.4537 -0.4303
 5663SOL     OW28447   3.818   3.202   0.761 -0.4866 -0.0676  0.3108
 5663SOL    HW128448   3.723   3.214   0.763 -0.6080 -1.2701  1.8120
 5663SOL    HW228449   3.814   3.108   0.779 -0.0913 -0.2079 -0.3491
 5664SOL     OW28450   1.836   1.951  12.310  0.0820  0.5764 -0.2026
 5664SOL    HW128451   1.881   1.868  12.297 -2.5056 -0.7000 -0.8964
 5664SOL    HW228452   1.781   1.924  12.383  1.3872 -1.6281 -0.0661
 5665SOL     OW28453   4.306   0.223   3.264  0.3463  0.2532  0.3069
 5665SOL    HW128454   4.328   0.136   3.230 -1.0694  0.1522 -0.3691
 5665SOL    HW228455   4.226   0.241   3.215  0.2103 -0.0804  0.4099
 5666SOL     OW28456   2.763   3.900   3.223  1.0324  0.1427  0.0597
 5666SOL    HW128457   2.706   3.921   3.297 -0.8358 -1.0573 -1.0196
 5666SOL    HW228458   2.701   3.847   3.172  0.1970  2.2125 -1.0765
 5667SOL     OW28459   2.973   4.306   5.413 -0.0608 -0.0681 -0.3690
 5667SOL    HW128460   2.907   4.374   5.400  0.3247  0.5284  0.7609
 5667SOL    HW228461   3.028   4.344   5.482 -0.1764  1.3502 -1.0657
 5668SOL     OW28462   2.961   2.213   1.566 -0.1717 -0.4633  0.4838
 5668SOL    HW128463   2.892   2.256   1.617  1.4403  2.3702  0.2660
 5668SOL    HW228464   2.918   2.146   1.513  1.0080 -0.8097 -0.0356
 5669SOL     OW28465   0.525   2.608  15.820  0.2151 -0.0975 -0.5249
 5669SOL    HW128466   0.542   2.522  15.858 -2.1726 -0.3984 -0.1418
 5669SOL    HW228467   0.525   2.574  15.730 -2.2746 -1.8177  0.1212
 5670SOL     OW28468   2.974   4.500   0.080 -0.8939 -0.1229  0.7036
 5670SOL    HW128469   2.906   4.549   0.125  0.9605  1.0573  2.1852
 5670SOL    HW228470   3.047   4.558   0.099 -0.2967 -0.9161  0.8248
 5671SOL     OW28471   1.284   0.030  16.273  0.6249 -0.4429 -0.1967
 5671SOL    HW128472   1.342   4.694  16.324 -1.2615  0.0548  2.4796
 5671SOL    HW228473   1.209   0.030  16.333  0.5605 -1.1792 -0.2723
 5672SOL     OW28474   2.259   3.166   7.415 -0.2410  0.0484  0.1439
 5672SOL    HW128475   2.170   3.200   7.408  0.2226  0.8465 -1.6532
 5672SOL    HW228476   2.288   3.155   7.325 -1.8004 -1.2798 -0.1954
 5673SOL     OW28477   4.552   2.623   5.246  0.4337  0.2247 -0.2455
 5673SOL    HW128478   4.460   2.599   5.253  0.1683  1.2375 -0.2894
 5673SOL    HW228479   4.538   2.714   5.222 -1.4991  0.9751  3.7106
 5674SOL     OW28480   3.609   0.201  15.411  0.7753 -0.6458  0.3633
 5674SOL    HW128481   3.561   0.260  15.353  3.6547  2.3876  1.0596
 5674SOL    HW228482   3.699   0.234  15.403  0.2589  0.4355 -1.1036
 5675SOL     OW28483   2.918   3.187   8.100  0.2173 -0.0160  0.0159
 5675SOL    HW128484   2.953   3.214   8.185  2.1721 -2.1483 -0.0869
 5675SOL    HW228485   2.995   3.197   8.045  0.2142 -2.6248 -0.4572
 5676SOL     OW28486   2.142   1.827   6.043 -0.2120  0.1650 -0.1721
 5676SOL    HW128487   2.200   1.784   5.980  0.7997  1.8276 -0.3807
 5676SOL    HW228488   2.134   1.754   6.104 -0.6366 -1.0378 -1.6691
 5677SOL     OW28489   0.031   3.799   0.484 -0.4432  0.2266  0.5074
 5677SOL    HW128490   0.044   3.750   0.402  0.2736  1.4832 -0.1304
 5677SOL    HW228491   0.096   3.869   0.477  0.0788 -0.2872  0.1925
 5678SOL     OW28492   1.082   1.806   5.934 -0.2017 -0.5055  0.6801
 5678SOL    HW128493   1.042   1.874   5.880  0.0964  0.1121  1.2333
 5678SOL    HW228494   1.037   1.727   5.904 -1.1567  0.0396  0.6814
 5679SOL     OW28495   0.720   1.403  16.887 -0.2153 -0.3349  0.1995
 5679SOL    HW128496   0.650   1.341  16.870 -1.6798  0.6067  2.7542
 5679SOL    HW228497   0.758   1.401  16.799 -1.0938  1.1271 -0.2256
 5680SOL     OW28498   2.982   4.484  14.782 -0.3350  0.5667  0.3026
 5680SOL    HW128499   3.007   4.460  14.693  1.0161 -2.7833  1.5935
 5680SOL    HW228500   3.061   4.461  14.831 -0.2719  0.8678  0.3449
 5681SOL     OW28501   4.037   0.532   7.042  0.1262 -0.0126 -0.6073
 5681SOL    HW128502   4.062   0.515   7.133  0.6882 -0.9036 -0.9386
 5681SOL    HW228503   3.941   0.527   7.046  0.2538  1.0870  3.6147
 5682SOL     OW28504   0.464   2.270  16.148  0.2434  0.3645  0.4301
 5682SOL    HW128505   0.489   2.179  16.132 -0.0139 -0.0568  2.4295
 5682SOL    HW228506   0.505   2.314  16.073 -2.2142 -0.1450 -1.2139
 5683SOL     OW28507   2.801   1.760   7.128 -0.0327  0.1514 -0.3026
 5683SOL    HW128508   2.823   1.729   7.041 -4.2119 -1.4910 -0.7872
 5683SOL    HW228509   2.872   1.824   7.131  0.6883 -0.6976  0.9739
 5684SOL     OW28510   3.509   2.754   3.316  0.0874 -0.4934 -0.5097
 5684SOL    HW128511   3.535   2.722   3.402 -1.6897 -2.2094 -0.6189
 5684SOL    HW228512   3.436   2.812   3.335  2.6889  3.2285 -1.8170
 5685SOL     OW28513   0.395   4.499   9.364 -0.2552  0.1980  0.3605
 5685SOL    HW128514   0.326   4.486   9.429 -0.6044 -1.7963 -0.4095
 5685SOL    HW228515   0.453   4.567   9.399  0.2021  0.6358 -1.2076
 5686SOL     OW28516   2.047   0.408   4.184 -0.1637 -0.3899  0.1714
 5686SOL    HW128517   1.994   0.418   4.264  1.2947 -1.3966  1.2633
 5686SOL    HW228518   2.133   0.425   4.223  0.3684  1.2811 -1.7739
 5687SOL     OW28519   3.441   0.282  10.933 -0.0607 -0.1953  0.1124
 5687SOL    HW128520   3.407   0.242  10.853  2.2835 -0.7741 -0.5723
 5687SOL    HW228521   3.410   0.212  10.991  0.8849 -1.0046 -0.3700
 5688SOL     OW28522   2.674   1.253  14.632 -0.3572  0.3364 -0.1081
 5688SOL    HW128523   2.762   1.223  14.607 -1.1652 -1.8812 -0.3618
 5688SOL    HW228524   2.620   1.214  14.563 -2.3125  0.4037  1.3880
 5689SOL     OW28525   1.047   3.700  13.364  0.6561 -0.4633  0.3249
 5689SOL    HW128526   1.082   3.616  13.393 -0.8826 -1.0697  0.4418
 5689SOL    HW228527   0.958   3.672  13.384 -0.8129  2.0529 -2.6237
 5690SOL     OW28528   0.437   4.502   9.103 -0.1501 -0.2405  0.4600
 5690SOL    HW128529   0.409   4.594   9.099  1.9987  0.4375  0.4727
 5690SOL    HW228530   0.402   4.478   9.188 -3.6020 -4.3715 -2.1402
 5691SOL     OW28531   0.817   0.455   7.227  0.1325 -0.5747 -0.8188
 5691SOL    HW128532   0.722   0.446   7.224 -0.2914  3.2242  0.9546
 5691SOL    HW228533   0.830   0.376   7.281  1.1980  0.1608 -0.0014
 5692SOL     OW28534   2.823   1.707   6.868  0.3926 -0.3719 -0.6297
 5692SOL    HW128535   2.887   1.648   6.828  1.3091 -1.3205  2.2937
 5692SOL    HW228536   2.814   1.763   6.791  1.2609  2.7493  1.5498
 5693SOL     OW28537   0.270   3.972   8.083 -0.3798 -0.2697 -0.1817
 5693SOL    HW128538   0.281   3.931   8.169 -0.5747  0.2524  0.0934
 5693SOL    HW228539   0.352   3.957   8.036 -0.6087 -0.1132 -0.6250
 5694SOL     OW28540   1.889   1.017  15.081 -0.2665 -0.2396 -0.2742
 5694SOL    HW128541   1.926   1.031  15.168 -1.2195 -1.2839  0.2976
 5694SOL    HW228542   1.794   1.018  15.093 -0.1319  0.9159  0.6941
 5695SOL     OW28543   1.269   2.386   8.185  0.1392 -0.1951 -0.1469
 5695SOL    HW128544   1.357   2.408   8.155  0.0033  0.4851 -0.0473
 5695SOL    HW228545   1.257   2.295   8.159 -3.4370  0.7097 -1.6623
 5696SOL     OW28546   0.515   1.180   4.842  0.0952 -0.1242 -0.0070
 5696SOL    HW128547   0.459   1.239   4.891 -0.2068 -1.0395  0.7369
 5696SOL    HW228548   0.569   1.142   4.911 -1.1474 -1.2711  0.3223
 5697SOL     OW28549   0.714   2.005  17.380 -0.0884 -0.6453  0.1457
 5697SOL    HW128550   0.751   2.092  17.363  0.0093 -0.2698  2.2990
 5697SOL    HW228551   0.648   2.027  17.446  0.1564  0.1176  0.1386
 5698SOL     OW28552   3.818   3.933   4.984 -0.0464  0.1559  0.2997
 5698SOL    HW128553   3.780   3.884   4.911 -3.0391  0.7737  1.4364
 5698SOL    HW228554   3.757   4.006   4.991  0.7294  0.8344 -0.0001
 5699SOL     OW28555   1.704   3.055  10.116  0.1737  0.1195  0.1180
 5699SOL    HW128556   1.652   3.060  10.036  0.5457  1.8468 -0.0253
 5699SOL    HW228557   1.686   3.140  10.156 -1.3727  1.5733 -3.6396
 5700SOL     OW28558   1.159   0.145   6.567  0.2739 -0.2967  0.6038
 5700SOL    HW128559   1.167   0.233   6.531  2.1078 -1.0933 -0.9136
 5700SOL    HW228560   1.121   0.159   6.654 -2.4381 -0.1790 -0.6081
 5701SOL     OW28561   2.531   3.121   7.987  0.0140  0.4390 -0.4630
 5701SOL    HW128562   2.558   3.205   8.023 -0.0905  1.1979 -2.1333
 5701SOL    HW228563   2.602   3.066   8.018  0.3436 -0.5541 -2.9466
 5702SOL     OW28564   0.395   3.044   1.739  0.3369 -0.0061 -0.4121
 5702SOL    HW128565   0.392   2.949   1.739  1.9320 -0.0490  0.1486
 5702SOL    HW228566   0.361   3.079   1.656  2.2899 -2.3995 -2.2368
 5703SOL     OW28567   3.773   3.603  14.928 -0.2820  0.4909  0.3727
 5703SOL    HW128568   3.857   3.650  14.920 -1.2523  1.8501 -1.7883
 5703SOL    HW228569   3.757   3.578  14.837  1.8210  1.5266 -0.2946
 5704SOL     OW28570   4.036   2.568   5.224 -0.0812 -0.1828 -0.3376
 5704SOL    HW128571   4.014   2.659   5.205  0.3555 -0.1725 -0.7898
 5704SOL    HW228572   3.970   2.534   5.284 -0.3438 -1.1551 -1.1740
 5705SOL     OW28573   3.132   2.874   3.606  0.2644  0.1497 -0.3345
 5705SOL    HW128574   3.162   2.961   3.632 -1.1696  0.5655 -0.0710
 5705SOL    HW228575   3.161   2.875   3.515  0.9574  1.3726 -0.0945
 5706SOL     OW28576   2.073   3.756   1.538 -0.6910  0.4292  0.4845
 5706SOL    HW128577   2.021   3.770   1.458 -2.4763 -0.8188  1.4111
 5706SOL    HW228578   2.079   3.849   1.563 -1.0668  0.9960 -1.5095
 5707SOL     OW28579   3.143   1.812   7.784  0.1260  0.6284  0.3320
 5707SOL    HW128580   3.099   1.896   7.792 -1.1977  0.0798 -1.0984
 5707SOL    HW228581   3.137   1.781   7.874  1.8180  0.9605  0.5619
 5708SOL     OW28582   1.328   0.830  10.153 -0.4806  0.3282  0.0429
 5708SOL    HW128583   1.376   0.911  10.170 -1.0428  0.7271 -0.3081
 5708SOL    HW228584   1.252   0.835  10.212 -2.3210 -1.3058 -2.1968
 5709SOL     OW28585   3.974   2.875   6.731  0.3516 -0.9561  0.0647
 5709SOL    HW128586   3.900   2.869   6.671  0.2616 -0.0994  0.0790
 5709SOL    HW228587   4.013   2.788   6.723 -0.7194 -1.3506 -0.8582
 5710SOL     OW28588   3.602   3.241   5.761 -0.4220 -0.3855  0.2762
 5710SOL    HW128589   3.696   3.250   5.745 -0.9364 -0.6293 -2.8338
 5710SOL    HW228590   3.584   3.320   5.810  1.9966  0.5470 -0.3285
 5711SOL     OW28591   0.906   2.608  10.690 -0.2495  0.0854 -0.0056
 5711SOL    HW128592   0.966   2.661  10.744  1.3549 -1.2027 -0.5254
 5711SOL    HW228593   0.925   2.633  10.600  0.6316 -2.7065 -0.6010
 5712SOL     OW28594   3.161   2.597   8.551  0.6746  0.1761  0.0327
 5712SOL    HW128595   3.139   2.688   8.529  3.2394  0.3629 -1.7131
 5712SOL    HW228596   3.147   2.597   8.646 -2.1224  0.3839 -0.3628
 5713SOL     OW28597   4.212   4.168  17.477 -0.1465  0.3439  0.3158
 5713SOL    HW128598   4.192   4.251  17.522 -1.2268  0.8941 -1.1483
 5713SOL    HW228599   4.125   4.130  17.491 -0.4020  1.3764  1.5052
 5714SOL     OW28600   1.189   4.222   3.490 -0.2727  0.2849  0.3284
 5714SOL    HW128601   1.250   4.264   3.430 -1.5277  0.9419 -0.4543
 5714SOL    HW228602   1.128   4.180   3.430 -0.5213  0.6524  0.3289
 5715SOL     OW28603   2.638   1.762  16.638  0.1427  0.3573 -0.5447
 5715SOL    HW128604   2.677   1.786  16.722 -0.7641 -1.0680  0.2718
 5715SOL    HW228605   2.626   1.668  16.651 -1.3032  0.7437  0.9243
 5716SOL     OW28606   1.548   1.567   4.710  0.1675  0.3484 -0.3998
 5716SOL    HW128607   1.580   1.479   4.730 -0.9300 -0.0324 -0.3329
 5716SOL    HW228608   1.611   1.597   4.644  0.7785 -1.1341 -0.4904
 5717SOL     OW28609   1.749   3.316  15.068  0.4846  0.2123 -0.2945
 5717SOL    HW128610   1.774   3.231  15.106  0.7934 -0.1642 -1.3368
 5717SOL    HW228611   1.663   3.313  15.026  0.5537  0.4673 -0.4536
 5718SOL     OW28612   3.008   3.622  16.760 -0.0609  0.7519 -0.0550
 5718SOL    HW128613   3.014   3.695  16.820 -1.5758  0.0635  0.9347
 5718SOL    HW228614   3.008   3.666  16.675  0.7035  1.1011  0.1291
 5719SOL     OW28615   3.529   3.973   3.237 -0.7647  0.6932 -0.1609
 5719SOL    HW128616   3.484   4.034   3.294  1.8154  0.8670  1.6786
 5719SOL    HW228617   3.461   3.906   3.229 -3.0208  3.2262 -1.8198
 5720SOL     OW28618   1.698   4.389  14.706 -0.0946 -0.3477 -0.1028
 5720SOL    HW128619   1.630   4.450  14.678 -0.3038 -0.4609  0.1520
 5720SOL    HW228620   1.719   4.339  14.628  0.8414 -0.5728  0.2956
 5721SOL     OW28621   1.484   1.809   9.710  0.0657  0.1522 -0.1282
 5721SOL    HW128622   1.525   1.759   9.640 -0.0189  1.8144 -1.3857
 5721SOL    HW228623   1.487   1.738   9.774  0.1757  0.4035  0.1464
 5722SOL     OW28624   0.027   2.153  16.906 -0.0624 -0.1236 -0.4732
 5722SOL    HW128625   0.046   2.176  16.814  2.9004  1.1454  0.4568
 5722SOL    HW228626   0.083   2.214  16.955 -0.9194  0.9918 -0.8828
 5723SOL     OW28627   4.476   3.713   4.402 -0.2820  0.4726  0.3013
 5723SOL    HW128628   4.506   3.622   4.398  0.7895  0.8982 -1.2860
 5723SOL    HW228629   4.531   3.766   4.460 -2.0174 -0.4319  2.7652
 5724SOL     OW28630   2.996   4.082  16.971 -0.0927  0.2771  0.1291
 5724SOL    HW128631   3.048   4.158  16.943 -1.3391  0.9743 -0.2868
 5724SOL    HW228632   2.912   4.125  16.988 -0.3636 -0.5771  0.9158
 5725SOL     OW28633   3.942   3.474   5.491 -0.6075  0.2133  0.0697
 5725SOL    HW128634   3.986   3.556   5.467  0.6730 -0.7474 -0.9163
 5725SOL    HW228635   3.861   3.473   5.441 -1.0203 -1.4247  0.7863
 5726SOL     OW28636   3.881   3.284   5.748  0.1586  0.1363 -0.2639
 5726SOL    HW128637   3.963   3.288   5.698  0.3952 -1.2264  0.0267
 5726SOL    HW228638   3.867   3.377   5.768  0.0268  0.4718 -1.8793
 5727SOL     OW28639   0.351   2.793   9.736  0.9121 -0.0614 -0.4177
 5727SOL    HW128640   0.387   2.879   9.716  1.2170 -0.0041  0.3629
 5727SOL    HW228641   0.393   2.743   9.666 -0.1941  0.8763 -1.7341
 5728SOL     OW28642   3.268   0.494  15.092 -0.1830 -0.2379  0.2513
 5728SOL    HW128643   3.206   0.488  15.164 -0.9328 -0.2299 -0.3884
 5728SOL    HW228644   3.206   0.523  15.025 -1.6576 -1.4989  1.0721
 5729SOL     OW28645   1.057   3.575   0.920  0.1033  0.1516 -0.0644
 5729SOL    HW128646   1.002   3.557   0.997  0.5108  1.9085  0.6388
 5729SOL    HW228647   0.986   3.580   0.856 -0.4832 -0.5020  0.5328
 5730SOL     OW28648   3.379   2.251   0.915 -0.1577  0.5042  0.7038
 5730SOL    HW128649   3.471   2.251   0.943 -0.9119  2.0652  3.2294
 5730SOL    HW228650   3.354   2.323   0.974  0.8924  0.5831  1.0487
 5731SOL     OW28651   1.658   3.228   2.667 -0.6710 -0.6669  0.3109
 5731SOL    HW128652   1.644   3.222   2.572 -0.4362 -1.7856  0.3390
 5731SOL    HW228653   1.624   3.312   2.697  1.2067 -0.1978  1.1153
 5732SOL     OW28654   3.187   3.482  12.468  0.3483  0.0713 -0.2286
 5732SOL    HW128655   3.125   3.488  12.540 -0.3496  0.6222 -0.8785
 5732SOL    HW228656   3.259   3.442  12.517 -0.3649  0.2357  0.9562
 5733SOL     OW28657   0.163   2.889   2.443 -0.1862  0.0215  0.1945
 5733SOL    HW128658   0.150   2.955   2.374  1.7639 -1.8208 -1.9456
 5733SOL    HW228659   0.258   2.876   2.449 -0.3485 -2.2286 -2.0502
 5734SOL     OW28660   2.776   1.295   3.504 -0.7590  0.6202  0.0612
 5734SOL    HW128661   2.752   1.261   3.591  1.2288 -0.2891  0.2600
 5734SOL    HW228662   2.815   1.218   3.462 -1.2112 -0.2855  1.2951
 5735SOL     OW28663   1.709   1.394  15.615 -0.5412 -0.4315  0.5261
 5735SOL    HW128664   1.677   1.466  15.669  0.4868 -0.8645  1.7208
 5735SOL    HW228665   1.801   1.403  15.641 -0.0776 -2.2046 -0.5235
 5736SOL     OW28666   2.397   2.115   8.827 -0.1456 -0.0222 -0.0096
 5736SOL    HW128667   2.303   2.109   8.844 -0.6994  1.4925 -2.5658
 5736SOL    HW228668   2.406   2.204   8.863  1.8599 -1.9659  4.2534
 5737SOL     OW28669   1.973   1.957  12.910 -0.2745 -0.2969  0.5907
 5737SOL    HW128670   2.033   1.906  12.965 -1.3150 -0.4355  1.6036
 5737SOL    HW228671   2.032   1.955  12.835 -0.7958  0.3132  0.1613
 5738SOL     OW28672   3.696   1.556  10.703 -0.1746 -0.0972 -0.3462
 5738SOL    HW128673   3.755   1.610  10.650  1.7952 -2.0021 -0.0733
 5738SOL    HW228674   3.649   1.627  10.747 -1.2549 -0.3155 -1.1526
 5739SOL     OW28675   2.522   0.141   6.157  0.2329  0.2187  0.2713
 5739SOL    HW128676   2.539   0.163   6.066  0.6912 -0.0324  0.2956
 5739SOL    HW228677   2.495   0.226   6.192 -1.4103  0.9091 -2.6638
 5740SOL     OW28678   3.039   0.973   6.996 -0.5331 -0.8779  0.1776
 5740SOL    HW128679   3.001   0.983   6.909 -0.6206  2.1531  0.5608
 5740SOL    HW228680   3.073   0.884   6.994  1.0194 -0.2217 -2.4570
 5741SOL     OW28681   1.935   4.376   1.819 -0.8797 -0.1067  0.1303
 5741SOL    HW128682   1.993   4.452   1.816 -1.4435  0.2377 -1.6171
 5741SOL    HW228683   1.849   4.416   1.830 -0.5976  0.5067  0.1033
 5742SOL     OW28684   1.811   1.904   4.492 -0.4180 -0.4708 -0.2833
 5742SOL    HW128685   1.841   1.954   4.568  0.8472 -0.3163 -0.8863
 5742SOL    HW228686   1.774   1.971   4.434 -2.8252  0.1445  1.9732
 5743SOL     OW28687   2.045   3.770   2.071 -0.2235 -0.3017 -0.2377
 5743SOL    HW128688   2.128   3.788   2.117 -1.0823  1.9799  0.4058
 5743SOL    HW228689   2.088   3.761   1.986  2.9809  0.9366  1.2270
 5744SOL     OW28690   1.914   3.661   6.901  0.0244 -0.2686 -0.3762
 5744SOL    HW128691   1.869   3.651   6.985  0.4292  2.5371  0.1643
 5744SOL    HW228692   2.002   3.669   6.940  0.4921  0.8679 -1.6718
 5745SOL     OW28693   4.067   0.380   6.574  0.3357  0.3634  0.0643
 5745SOL    HW128694   4.116   0.306   6.538 -0.5350 -0.5673  0.8155
 5745SOL    HW228695   4.072   0.369   6.669  2.0715 -0.1847 -0.0964
 5746SOL     OW28696   0.898   1.621   2.230  0.5077  0.7898  0.0014
 5746SOL    HW128697   0.924   1.529   2.222 -1.2537  0.1717  1.2136
 5746SOL    HW228698   0.979   1.668   2.213  0.8541  0.2083  0.0442
 5747SOL     OW28699   2.206   0.703   5.190  0.1429  0.4546 -0.4642
 5747SOL    HW128700   2.258   0.679   5.113  0.9435  3.4835 -0.8739
 5747SOL    HW228701   2.272   0.751   5.242 -0.1407  1.4242 -0.9926
 5748SOL     OW28702   2.160   2.241  12.149  0.5813 -0.4691 -0.0577
 5748SOL    HW128703   2.078   2.209  12.112 -0.2612 -0.2586  1.6473
 5748SOL    HW228704   2.186   2.170  12.208 -0.9150  0.1481  1.3270
 5749SOL     OW28705   2.585   1.986   5.925  0.3735 -0.7086 -0.2131
 5749SOL    HW128706   2.549   1.898   5.916 -2.1739  0.1777  1.3833
 5749SOL    HW228707   2.633   1.978   6.007  1.4476  0.1766 -0.7533
 5750SOL     OW28708   3.600   1.356  10.877 -0.7305  0.1332 -0.0245
 5750SOL    HW128709   3.546   1.405  10.939 -0.0406  0.7866  0.0482
 5750SOL    HW228710   3.644   1.418  10.819 -3.6828 -0.0641 -2.5374
 5751SOL     OW28711   0.453   3.512  10.493 -0.1739  0.0003 -0.2404
 5751SOL    HW128712   0.427   3.525  10.584 -0.2945 -0.9579 -0.1297
 5751SOL    HW228713   0.513   3.584  10.475  0.9466 -0.1310  2.9760
 5752SOL     OW28714   0.449   0.697   7.461  0.2557  0.1105 -0.0466
 5752SOL    HW128715   0.542   0.677   7.477  0.1976  0.8176  1.1234
 5752SOL    HW228716   0.447   0.680   7.367  0.5195 -1.9525  0.3171
 5753SOL     OW28717   4.329   2.389   7.156  0.1935 -0.2872 -0.6736
 5753SOL    HW128718   4.404   2.425   7.203 -0.4795  0.3978 -0.1241
 5753SOL    HW228719   4.317   2.455   7.088 -1.6005 -1.1339 -1.1730
 5754SOL     OW28720   1.385   3.974   4.189  0.1226  0.2331 -0.0935
 5754SOL    HW128721   1.355   4.053   4.234  1.0623 -0.3632  1.5918
 5754SOL    HW228722   1.341   3.983   4.105  0.7669  4.3718  0.0287
 5755SOL     OW28723   0.465   3.196   2.957  0.4295 -0.0894  0.3340
 5755SOL    HW128724   0.386   3.170   3.004 -0.6223  4.0440  0.8243
 5755SOL    HW228725   0.499   3.253   3.026 -1.6898 -0.8217  1.9689
 5756SOL     OW28726   0.818   4.052   0.262 -0.7036 -0.3035  0.0399
 5756SOL    HW128727   0.757   4.114   0.221  0.7453  0.9169 -0.2633
 5756SOL    HW228728   0.759   3.981   0.238  0.0336 -0.5890 -0.9131
 5757SOL     OW28729   4.082   2.873  10.541 -0.1370 -0.4004 -0.2417
 5757SOL    HW128730   4.076   2.895  10.448 -2.5984  0.9346  0.2393
 5757SOL    HW228731   4.069   2.954  10.590 -2.4734 -0.7143 -0.3161
 5758SOL     OW28732   4.467   4.238  15.230  0.5978 -0.3341  0.0996
 5758SOL    HW128733   4.467   4.319  15.179  0.9415  0.7222  1.7809
 5758SOL    HW228734   4.456   4.178  15.157 -0.6526 -0.5694  0.4670
 5759SOL     OW28735   0.032   1.125   6.370  0.1243 -0.0645 -0.1303
 5759SOL    HW128736   4.677   1.179   6.391 -0.8074 -0.9007 -1.3441
 5759SOL    HW228737   0.072   1.180   6.302  0.5401  1.3479  1.2666
 5760SOL     OW28738   1.069   2.387   1.904 -0.5963 -0.1743 -0.1412
 5760SOL    HW128739   1.004   2.450   1.872  0.4484  0.4886 -0.9615
 5760SOL    HW228740   1.021   2.314   1.945 -0.1455 -1.0276 -1.1337
 5761SOL     OW28741   4.656   4.711  17.219  0.1000  0.2550 -0.9031
 5761SOL    HW128742   4.582   4.651  17.208 -1.1424  1.3325  1.4139
 5761SOL    HW228743   4.646   0.034  17.134  0.3066 -2.0667 -2.1205
 5762SOL     OW28744   2.804   3.522   9.229  0.3047  0.3820  0.2011
 5762SOL    HW128745   2.756   3.452   9.273  0.1719  0.5218  0.2785
 5762SOL    HW228746   2.740   3.587   9.257 -2.2848 -2.0391 -0.0940
 5763SOL     OW28747   4.520   3.325  10.549  0.0634 -0.0389  0.4601
 5763SOL    HW128748   4.606   3.343  10.587 -0.5762  1.1073  1.3584
 5763SOL    HW228749   4.529   3.241  10.504 -0.0942 -0.5886  1.4518
 5764SOL     OW28750   3.444   3.552  17.390  0.0044  0.2581 -0.4651
 5764SOL    HW128751   3.526   3.528  17.433 -1.4604  0.6688  2.5324
 5764SOL    HW228752   3.410   3.465  17.371  1.9511 -0.5158 -0.4741
 5765SOL     OW28753   2.066   0.163   3.842 -0.1218  0.3875 -0.4632
 5765SOL    HW128754   2.098   0.249   3.871  0.0274 -0.9247  3.2265
 5765SOL    HW228755   2.055   0.109   3.920 -0.4404  2.7356  1.1245
 5766SOL     OW28756   0.157   1.151   6.693 -0.2206 -0.6270 -0.0078
 5766SOL    HW128757   0.092   1.205   6.648  1.7557  1.7622 -0.0049
 5766SOL    HW228758   0.232   1.209   6.684 -0.4950 -0.3828 -0.7177
 5767SOL     OW28759   1.666   1.409   5.425  0.3587 -0.1033 -0.3514
 5767SOL    HW128760   1.672   1.473   5.496 -1.2005 -0.3377 -0.0104
 5767SOL    HW228761   1.639   1.331   5.474  0.2204 -0.2398 -0.6443
 5768SOL     OW28762   1.727   0.426   1.201  0.3850 -0.5949  0.6531
 5768SOL    HW128763   1.815   0.447   1.231  1.7160 -2.0365 -2.2625
 5768SOL    HW228764   1.689   0.377   1.274  0.5319 -1.0403  0.4318
 5769SOL     OW28765   0.222   2.724   2.927 -0.2660 -0.0765  0.2124
 5769SOL    HW128766   0.212   2.673   2.847  0.4727  0.5721 -0.2940
 5769SOL    HW228767   0.223   2.814   2.894 -1.0597 -0.2209 -0.2217
 5770SOL     OW28768   1.128   4.046  12.755 -0.4080  0.5250  0.1060
 5770SOL    HW128769   1.113   3.998  12.673  1.6892 -1.9324  1.1742
 5770SOL    HW228770   1.193   4.109  12.725  0.6101  0.4036  2.0796
 5771SOL     OW28771   1.992   1.540   4.515  0.0632  0.1451 -0.6307
 5771SOL    HW128772   2.064   1.582   4.562 -0.0836 -2.5436  2.0630
 5771SOL    HW228773   1.984   1.469   4.580 -0.6015  0.4668 -0.3569
 5772SOL     OW28774   4.628   2.539   2.829 -0.5565 -0.0224 -0.4401
 5772SOL    HW128775   4.719   2.534   2.799  0.1571 -1.7073  2.0185
 5772SOL    HW228776   4.591   2.562   2.744 -1.8613 -0.4114  0.0241
 5773SOL     OW28777   4.609   3.038   5.641 -0.5510 -0.0815 -0.3040
 5773SOL    HW128778   4.688   3.068   5.686 -0.6463 -1.1117  0.5624
 5773SOL    HW228779   4.553   3.034   5.719 -0.8101  3.0677 -0.3201
 5774SOL     OW28780   3.650   2.149   5.151 -0.4018 -0.2833 -0.2683
 5774SOL    HW128781   3.569   2.199   5.155 -0.1864 -0.0736  1.4627
 5774SOL    HW228782   3.699   2.195   5.082 -1.8265  0.2664 -0.9161
 5775SOL     OW28783   3.638   1.424   7.200 -0.2951 -0.4226  0.0147
 5775SOL    HW128784   3.643   1.377   7.284  2.6174  0.1430  0.1718
 5775SOL    HW228785   3.566   1.387   7.149 -0.8612 -0.9669  1.2086
 5776SOL     OW28786   2.097   2.639  10.419 -0.2802 -0.1710  0.4425
 5776SOL    HW128787   2.180   2.615  10.379  0.8097  2.8922  0.8712
 5776SOL    HW228788   2.122   2.696  10.491 -2.5138 -0.4054  1.4189
 5777SOL     OW28789   2.021   4.285   9.424  0.1510  0.2714  0.0646
 5777SOL    HW128790   1.935   4.245   9.438  0.5106 -0.2501  0.8228
 5777SOL    HW228791   2.058   4.253   9.507 -0.1569  0.7034  0.3622
 5778SOL     OW28792   2.153   4.191   5.153  0.0578  0.1822 -0.3031
 5778SOL    HW128793   2.145   4.106   5.110 -0.1009  0.6866 -1.2477
 5778SOL    HW228794   2.067   4.206   5.192  1.0491  0.8497  1.6567
 5779SOL     OW28795   3.983   1.415   4.247 -0.0001  0.1071  0.2811
 5779SOL    HW128796   3.895   1.451   4.258 -0.2257 -0.4001  0.1416
 5779SOL    HW228797   3.960   1.323   4.233  1.7368 -0.3520  0.3897
 5780SOL     OW28798   0.840   1.890   7.919  0.0851  0.0696 -0.3903
 5780SOL    HW128799   0.895   1.842   7.857 -0.3167 -0.5933 -0.2304
 5780SOL    HW228800   0.901   1.890   7.992  1.1131 -0.4151 -1.2479
 5781SOL     OW28801   1.851   2.404   1.235 -0.1876  0.1681 -0.3876
 5781SOL    HW128802   1.807   2.401   1.151  1.8447  0.9793 -1.4872
 5781SOL    HW228803   1.936   2.446   1.219  0.5058 -1.4686 -0.9886
 5782SOL     OW28804   1.803   3.621  17.335 -0.1167  0.3543 -0.5670
 5782SOL    HW128805   1.838   3.619  17.424 -0.1311  0.5856 -0.5554
 5782SOL    HW228806   1.809   3.715  17.316 -0.4872  0.3132 -0.8802
 5783SOL     OW28807   0.411   1.786  14.949 -0.1242 -0.2669 -0.3208
 5783SOL    HW128808   0.357   1.864  14.934 -1.1445 -0.8965  0.0980
 5783SOL    HW228809   0.451   1.776  14.862 -1.5608 -1.6321 -0.8230
 5784SOL     OW28810   0.199   1.051   5.958  0.0594  0.3979 -0.1120
 5784SOL    HW128811   0.271   1.084   5.905  1.4018 -1.2488  0.6767
 5784SOL    HW228812   0.242   1.053   6.044 -2.4443  0.8073  1.1215
 5785SOL     OW28813   2.684   3.280   6.835  0.1046 -0.2487  0.7738
 5785SOL    HW128814   2.723   3.196   6.861  1.0508 -0.4331 -1.2790
 5785SOL    HW228815   2.755   3.342   6.820 -2.4780  3.2117  2.8469
 5786SOL     OW28816   4.302   3.523   6.209 -0.6553 -0.4990 -0.2221
 5786SOL    HW128817   4.237   3.568   6.264 -0.7885 -0.3216 -0.5236
 5786SOL    HW228818   4.251   3.461   6.157 -0.9748 -0.5882  0.1856
 5787SOL     OW28819   3.651   1.470  14.136 -0.2170  0.1150 -0.3367
 5787SOL    HW128820   3.698   1.543  14.178  1.1662  0.1760 -1.9946
 5787SOL    HW228821   3.716   1.403  14.155  1.7925  2.6745  1.8974
 5788SOL     OW28822   2.632   4.431  12.811  0.2452  0.0948  0.1076
 5788SOL    HW128823   2.698   4.391  12.868 -0.7082 -1.4627  0.0902
 5788SOL    HW228824   2.601   4.359  12.756 -0.7820  1.6454 -1.3405
 5789SOL     OW28825   2.148   2.422   8.021 -0.6198 -0.8922  0.1719
 5789SOL    HW128826   2.233   2.444   8.061 -0.3872 -0.9458 -0.2957
 5789SOL    HW228827   2.113   2.509   8.004  1.6233  0.3444  1.7941
 5790SOL     OW28828   0.739   2.448  10.832  0.6045  0.0604 -0.1902
 5790SOL    HW128829   0.645   2.468  10.833  0.2995 -1.3832  0.0162
 5790SOL    HW228830   0.777   2.515  10.774 -0.3797  3.0178  2.5709
 5791SOL     OW28831   3.556   3.178   4.451  0.5654 -0.4083 -0.1552
 5791SOL    HW128832   3.489   3.111   4.440 -2.4572  2.4761  0.8055
 5791SOL    HW228833   3.615   3.130   4.509  0.2344 -1.2753 -0.5353
 5792SOL     OW28834   0.233   2.063   8.364 -0.0215  0.0423  0.8335
 5792SOL    HW128835   0.229   1.989   8.303 -0.4897  0.3900  0.4393
 5792SOL    HW228836   0.159   2.051   8.424 -0.4952 -3.6370 -0.5252
 5793SOL     OW28837   0.768   0.088   2.569  0.3649 -0.2672  0.2563
 5793SOL    HW128838   0.768   0.174   2.528 -0.2392 -0.0498  0.7075
 5793SOL    HW228839   0.832   0.034   2.523 -1.0798  0.2992 -2.3917
 5794SOL     OW28840   1.449   2.061   5.196 -0.5485  0.0441  0.1347
 5794SOL    HW128841   1.438   2.117   5.119 -1.3323 -2.6309 -1.7059
 5794SOL    HW228842   1.540   2.080   5.220 -1.3399  0.7716  2.5074
 5795SOL     OW28843   3.422   4.326   5.879 -0.7143  0.0984  0.8743
 5795SOL    HW128844   3.409   4.251   5.821  0.9900  0.0722  0.5362
 5795SOL    HW228845   3.518   4.321   5.879 -0.6556  1.1436  1.5003
 5796SOL     OW28846   3.213   3.172   0.115  0.0135 -0.3691 -0.2460
 5796SOL    HW128847   3.175   3.119   0.185  0.1841  0.2131  0.2787
 5796SOL    HW228848   3.288   3.118   0.089 -0.0716  0.1929 -1.6668
 5797SOL     OW28849   3.510   0.959  10.450  0.2106 -0.5988  0.1834
 5797SOL    HW128850   3.580   1.012  10.488 -0.0034  0.2537 -0.5927
 5797SOL    HW228851   3.494   0.886  10.509  1.3702  0.6310  2.0251
 5798SOL     OW28852   4.718   0.092   5.872 -0.8613  0.8117 -0.3399
 5798SOL    HW128853   4.639   0.037   5.864  0.3508 -0.7563 -1.4762
 5798SOL    HW228854   0.043   0.068   5.792 -0.7776  1.9736 -0.6416
 5799SOL     OW28855   4.010   2.355   4.927 -0.0592 -0.2807  0.4496
 5799SOL    HW128856   4.048   2.272   4.896 -0.3592  1.0057 -3.3090
 5799SOL    HW228857   4.083   2.415   4.917 -2.4621  2.1422 -2.2819
 5800SOL     OW28858   3.865   3.153   1.104  0.5662  0.1445  0.5379
 5800SOL    HW128859   3.872   3.248   1.111 -0.4215  0.2372  0.2440
 5800SOL    HW228860   3.954   3.128   1.127  0.2775 -1.5628 -0.2686
 5801SOL     OW28861   0.189   4.609  15.020  0.5313 -0.5086 -0.1287
 5801SOL    HW128862   0.104   4.586  14.983 -0.0716  1.5830 -0.0484
 5801SOL    HW228863   0.237   4.527  15.023 -1.7275 -1.7891  0.9278
 5802SOL     OW28864   0.398   4.410   5.071 -0.2008 -0.0153 -0.1044
 5802SOL    HW128865   0.305   4.406   5.053  0.2534 -0.4621 -2.3404
 5802SOL    HW228866   0.441   4.439   4.991 -1.7265  1.0152 -0.5372
 5803SOL     OW28867   3.354   1.666  10.669 -0.0502 -0.2198 -0.4912
 5803SOL    HW128868   3.337   1.611  10.593  1.8414  0.5199 -1.4525
 5803SOL    HW228869   3.380   1.751  10.633 -0.1247  0.1806  0.4037
 5804SOL     OW28870   4.209   0.215   9.098  0.5788 -0.1691  0.0590
 5804SOL    HW128871   4.249   0.293   9.057 -0.4978 -0.8406 -2.2782
 5804SOL    HW228872   4.255   0.150   9.044 -0.1219 -0.6003 -0.0118
 5805SOL     OW28873   3.346   0.134   6.481 -0.0405 -0.6074 -0.1813
 5805SOL    HW128874   3.309   0.222   6.484 -0.4732 -0.8059  0.4307
 5805SOL    HW228875   3.424   0.152   6.428 -0.7007  0.0341 -0.9188
 5806SOL     OW28876   1.324   2.851   5.098  0.0229 -0.9866  0.1713
 5806SOL    HW128877   1.357   2.802   5.022 -0.6728  0.8724 -1.3372
 5806SOL    HW228878   1.267   2.920   5.065 -0.9615 -1.1252  1.5828
 5807SOL     OW28879   2.099   1.053  17.238 -0.0210 -0.5690  0.4472
 5807SOL    HW128880   2.056   1.138  17.230 -2.3803 -1.9779 -2.0913
 5807SOL    HW228881   2.134   1.057  17.327 -0.2004  0.8170  0.4518
 5808SOL     OW28882   3.839   2.193  17.502  0.2240  0.0671  0.1938
 5808SOL    HW128883   3.917   2.140  17.519  1.5821  2.1118  0.2884
 5808SOL    HW228884   3.826   2.220  17.593 -1.6352 -1.1807  0.3186
 5809SOL     OW28885   0.206   0.423   3.346 -0.0932  0.3129  0.1438
 5809SOL    HW128886   0.115   0.420   3.375  0.1121 -0.0435  0.7545
 5809SOL    HW228887   0.181   0.374   3.268  0.8392 -3.2783  2.1000
 5810SOL     OW28888   0.538   3.112   3.396 -0.1336  0.0231 -0.4452
 5810SOL    HW128889   0.505   3.026   3.422 -0.7271  0.3774 -0.0013
 5810SOL    HW228890   0.585   3.126   3.478 -1.3101 -2.4071  0.6679
 5811SOL     OW28891   4.193   4.617   6.728 -0.3808 -0.2432  0.0600
 5811SOL    HW128892   4.173   4.598   6.820 -1.7152 -2.2606 -0.6534
 5811SOL    HW228893   4.164   4.543   6.675 -0.0552 -1.2004  1.2062
 5812SOL     OW28894   0.676   0.950  12.758 -0.4414 -0.1858 -0.6223
 5812SOL    HW128895   0.651   1.040  12.739  0.3029  0.3017  0.6988
 5812SOL    HW228896   0.605   0.893  12.730 -1.1398  1.1080 -1.4743
 5813SOL     OW28897   1.688   0.515   8.897 -0.5344  0.7114  0.1583
 5813SOL    HW128898   1.600   0.477   8.899 -0.5787  0.8258  0.3813
 5813SOL    HW228899   1.739   0.440   8.926  0.7823  1.4011 -0.3500
 5814SOL     OW28900   4.152   4.091  16.366  0.2761 -0.9012  0.1277
 5814SOL    HW128901   4.129   4.038  16.442  1.7483 -1.9462 -0.1503
 5814SOL    HW228902   4.204   4.021  16.326  0.5702 -0.2202 -0.6665
 5815SOL     OW28903   0.018   1.073   5.356 -0.0376 -0.2493 -0.2808
 5815SOL    HW128904   0.084   1.110   5.298  1.4429 -0.5019  1.2592
 5815SOL    HW228905   0.006   0.987   5.317  0.8953  0.0168 -1.1489
 5816SOL     OW28906   4.420   4.099  15.995  0.0726  0.2697  0.1837
 5816SOL    HW128907   4.380   4.182  15.967  1.2842 -0.0784 -2.5619
 5816SOL    HW228908   4.419   4.115  16.090  0.2304 -0.5641  0.3224
 5817SOL     OW28909   1.653   3.412   5.277 -0.0485  0.2630  0.2657
 5817SOL    HW128910   1.713   3.486   5.272 -0.4925  0.8213  3.7691
 5817SOL    HW228911   1.639   3.392   5.184  1.9269 -1.5550  0.3428
 5818SOL     OW28912   3.227   2.452  16.884  0.0066 -0.1993  0.2160
 5818SOL    HW128913   3.311   2.465  16.927  0.3234  0.8213 -0.7092
 5818SOL    HW228914   3.172   2.505  16.941  0.4698  1.4302 -0.8717
 5819SOL     OW28915   1.772   2.410   6.028  0.1495  0.0264 -0.0101
 5819SOL    HW128916   1.838   2.360   6.076  1.0142  2.6310  1.5192
 5819SOL    HW228917   1.691   2.360   6.039 -0.3743  1.1227  1.0331
 5820SOL     OW28918   3.835   2.936   9.671 -0.4392  0.0074 -1.1021
 5820SOL    HW128919   3.768   2.933   9.603 -0.1277  1.6798 -1.4773
 5820SOL    HW228920   3.805   3.018   9.711  1.7558 -0.6270  1.8720
 5821SOL     OW28921   1.085   0.172   2.968 -0.5247 -0.3272 -0.2972
 5821SOL    HW128922   1.030   0.141   3.039  1.5504 -0.2964  1.3072
 5821SOL    HW228923   1.029   0.156   2.892 -0.2020  2.2202 -1.0845
 5822SOL     OW28924   2.874   3.807   8.100 -0.3435  0.4277 -0.3952
 5822SOL    HW128925   2.826   3.844   8.025  0.1589 -0.3026 -1.0700
 5822SOL    HW228926   2.923   3.734   8.063 -2.3349 -0.6495 -0.9468
 5823SOL     OW28927   1.900   1.335  11.072 -0.0326  0.3506  0.5776
 5823SOL    HW128928   1.885   1.354  11.165 -0.0584  2.5302  0.1355
 5823SOL    HW228929   1.832   1.268  11.067 -0.1781  0.5437 -0.0210
 5824SOL     OW28930   4.172   3.330   5.134 -0.2707 -0.0484 -0.3215
 5824SOL    HW128931   4.092   3.377   5.110 -0.0060 -0.5145 -2.1425
 5824SOL    HW228932   4.137   3.282   5.209 -0.8047 -0.6610 -0.9479
 5825SOL     OW28933   3.259   2.896   6.329 -0.1684  0.2694  0.5984
 5825SOL    HW128934   3.265   2.814   6.378 -1.5243  0.3821  0.9361
 5825SOL    HW228935   3.212   2.869   6.250 -0.4038 -0.5379  1.0194
 5826SOL     OW28936   0.410   2.694  11.869 -0.0359  0.4073  0.1230
 5826SOL    HW128937   0.444   2.738  11.947 -3.0597  2.7572  0.1036
 5826SOL    HW228938   0.416   2.606  11.907 -1.2148  1.0469  1.7807
 5827SOL     OW28939   3.951   0.781   8.316  0.5801  0.0219  0.1946
 5827SOL    HW128940   4.043   0.761   8.334  0.5738 -0.1804  0.0004
 5827SOL    HW228941   3.915   0.699   8.348 -0.2171 -0.1110 -1.0439
 5828SOL     OW28942   4.232   2.603   6.292 -0.3174  0.0111 -0.1412
 5828SOL    HW128943   4.245   2.514   6.258  4.0200  0.7389 -0.2938
 5828SOL    HW228944   4.271   2.662   6.228  3.3484 -2.6610 -0.3527
 5829SOL     OW28945   3.561   1.345  12.307 -0.5397 -0.4001  0.2143
 5829SOL    HW128946   3.619   1.274  12.279  0.0554  0.9451 -2.0240
 5829SOL    HW228947   3.547   1.388  12.222  1.4640  1.4930  0.8328
 5830SOL     OW28948   4.416   4.372   8.796 -0.4450 -0.2919  0.5497
 5830SOL    HW128949   4.485   4.310   8.818  0.2157 -0.4434 -1.8989
 5830SOL    HW228950   4.458   4.453   8.826  0.4428  0.4543 -2.6527
 5831SOL     OW28951   4.647   2.376   8.159  0.4879  0.3825  0.4004
 5831SOL    HW128952   4.669   2.295   8.112  3.3830  1.7180 -0.6162
 5831SOL    HW228953   4.719   2.381   8.222  1.3910 -1.0025 -0.4895
 5832SOL     OW28954   4.046   4.093   5.693  0.3089  0.0334  0.3091
 5832SOL    HW128955   4.035   4.151   5.617  0.5000 -0.1842  0.1139
 5832SOL    HW228956   4.002   4.011   5.671 -0.6077  0.2792  1.2345
 5833SOL     OW28957   2.750   3.155  11.476 -0.4572  0.1935  0.1853
 5833SOL    HW128958   2.787   3.187  11.394 -0.7581 -0.6092 -0.2689
 5833SOL    HW228959   2.707   3.070  11.462 -2.8446  1.8065 -2.1865
 5834SOL     OW28960   1.225   1.241   6.964  0.5528 -0.3603 -0.1450
 5834SOL    HW128961   1.302   1.221   7.017  0.9582  0.1734 -0.5282
 5834SOL    HW228962   1.243   1.173   6.900 -4.0885  0.1687 -1.9838
 5835SOL     OW28963   3.247   1.215   5.401  0.6795 -0.6709  0.0445
 5835SOL    HW128964   3.286   1.146   5.456  2.2447  3.0982  3.6710
 5835SOL    HW228965   3.284   1.284   5.455  2.4594  0.1302 -2.2509
 5836SOL     OW28966   0.180   4.337   8.766 -0.4307  0.0048  0.5518
 5836SOL    HW128967   0.201   4.420   8.809 -0.4461 -0.0433  0.6517
 5836SOL    HW228968   0.214   4.265   8.819  0.2469 -0.6688 -0.8181
 5837SOL     OW28969   4.590   2.297  12.895 -0.1393 -0.0070 -1.3195
 5837SOL    HW128970   4.636   2.223  12.934 -0.3386  2.2591  3.1741
 5837SOL    HW228971   4.502   2.265  12.916  0.4405 -1.7223 -1.5571
 5838SOL     OW28972   0.008   0.610  11.010 -0.1288 -0.3632  0.8623
 5838SOL    HW128973   0.069   0.557  10.960 -0.9358  1.5893 -2.1471
 5838SOL    HW228974   4.663   0.544  11.032 -1.3150  0.5002 -0.1623
 5839SOL     OW28975   1.440   1.770   4.000 -0.7506  0.4536  0.1824
 5839SOL    HW128976   1.387   1.690   3.994  0.3728 -0.4470  2.0882
 5839SOL    HW228977   1.480   1.763   4.087 -3.9124  3.2324  1.8467
 5840SOL     OW28978   2.515   3.782   9.973 -0.3878  0.3096 -0.1322
 5840SOL    HW128979   2.604   3.757  10.000 -0.6472 -0.6431 -0.1617
 5840SOL    HW228980   2.534   3.843   9.902 -0.2870  0.2843 -0.1267
 5841SOL     OW28981   1.315   1.103   3.151  0.0705 -0.3507 -0.1673
 5841SOL    HW128982   1.368   1.132   3.225 -1.0721  1.1215  0.0708
 5841SOL    HW228983   1.256   1.034   3.184 -0.1306 -0.9501 -1.8028
 5842SOL     OW28984   0.817   4.671   7.954 -0.4600  0.8642  0.1502
 5842SOL    HW128985   0.737   4.623   7.937  0.1166 -0.1176  0.2150
 5842SOL    HW228986   0.774   0.028   7.988  1.3588  1.9386  0.0158
 5843SOL     OW28987   0.877   3.464   9.414  0.0954 -0.5387  0.3177
 5843SOL    HW128988   0.809   3.454   9.481  0.6328 -2.6903  0.5445
 5843SOL    HW228989   0.861   3.386   9.361  1.2288 -0.5963  0.0543
 5844SOL     OW28990   3.747   1.185   5.792  0.6205 -0.7072  0.2530
 5844SOL    HW128991   3.837   1.211   5.808  0.0163  1.9394 -0.7015
 5844SOL    HW228992   3.756   1.128   5.715 -1.8473  2.0924 -2.1445
 5845SOL     OW28993   4.069   2.234   7.105 -0.6789 -0.2717 -0.1563
 5845SOL    HW128994   3.985   2.241   7.060 -1.1752 -0.9428  0.6627
 5845SOL    HW228995   4.125   2.264   7.033  2.3840 -1.6295  1.6773
 5846SOL     OW28996   1.883   3.082   3.676 -0.7347 -0.0256 -0.3464
 5846SOL    HW128997   1.789   3.101   3.679 -0.5187  0.7513  1.4130
 5846SOL    HW228998   1.913   3.148   3.739 -1.8118  1.9749 -1.9041
 5847SOL     OW28999   1.429   2.629   8.998 -0.0349  0.0207  0.2087
 5847SOL    HW129000   1.348   2.604   9.043  0.3961  2.3554  2.2845
 5847SOL    HW229001   1.413   2.724   8.992  0.9189  0.1366 -0.4595
 5848SOL     OW29002   1.747   0.717   3.175  0.0314 -0.4961  0.0688
 5848SOL    HW129003   1.842   0.708   3.183  0.1277 -1.3348 -2.0754
 5848SOL    HW229004   1.725   0.625   3.161 -1.7383 -0.1734  0.7432
 5849SOL     OW29005   0.162   2.959  10.583  0.2986  0.5297  0.1756
 5849SOL    HW129006   0.114   2.943  10.664 -0.9740  0.3619 -0.6185
 5849SOL    HW229007   0.218   3.033  10.608 -0.1205  1.3586 -1.3780
 5850SOL     OW29008   3.301   2.431   2.639 -1.1565  0.4424 -0.2719
 5850SOL    HW129009   3.289   2.371   2.713  0.8728 -1.1268 -1.2072
 5850SOL    HW229010   3.391   2.459   2.659 -0.3830 -1.9555 -0.2875
 5851SOL     OW29011   3.568   2.792  15.640  0.3643 -0.4320  0.0695
 5851SOL    HW129012   3.503   2.803  15.709  0.9093 -0.5165  0.5951
 5851SOL    HW229013   3.566   2.699  15.619 -3.0876 -0.0264 -1.2725
 5852SOL     OW29014   4.290   3.844   4.228  0.3770  0.2065 -0.0104
 5852SOL    HW129015   4.363   3.800   4.271 -1.4335  0.1202  2.9323
 5852SOL    HW229016   4.218   3.832   4.290 -0.2704  0.5600 -0.7014
 5853SOL     OW29017   0.646   2.271   8.944 -0.4228  1.4480  0.2100
 5853SOL    HW129018   0.657   2.302   8.854  0.5206  0.5313  0.0108
 5853SOL    HW229019   0.563   2.317   8.959 -0.9502  1.0899 -1.5968
 5854SOL     OW29020   0.812   2.387   3.741 -0.3447 -0.4464  0.4307
 5854SOL    HW129021   0.726   2.384   3.782 -0.3403 -0.3987  0.4441
 5854SOL    HW229022   0.805   2.459   3.678 -0.0952  0.7517  1.7486
 5855SOL     OW29023   0.814   3.704   4.864 -0.6446 -0.1821 -0.6169
 5855SOL    HW129024   0.832   3.766   4.793 -3.2059  0.5135 -0.6601
 5855SOL    HW229025   0.892   3.720   4.916 -1.8025  0.4065  0.9515
 5856SOL     OW29026   2.993   4.171   9.256 -0.5977  0.0974  0.3541
 5856SOL    HW129027   3.028   4.248   9.212  0.8567  1.4410  3.8891
 5856SOL    HW229028   3.046   4.102   9.216  0.3321 -0.4536  2.5295
 5857SOL     OW29029   3.036   4.035   8.545  0.0945 -0.1338 -0.3721
 5857SOL    HW129030   3.092   4.001   8.615  0.1558  1.0011  0.1290
 5857SOL    HW229031   3.083   4.002   8.468 -0.4491  1.2741 -1.3092
 5858SOL     OW29032   3.777   3.399   6.078  0.1827 -0.9734 -0.4305
 5858SOL    HW129033   3.823   3.315   6.073  3.3760  0.6539  1.0299
 5858SOL    HW229034   3.727   3.395   5.997 -0.7187 -1.7090  0.1590
 5859SOL     OW29035   1.079   2.826   2.363 -0.0453 -0.9587 -0.2698
 5859SOL    HW129036   1.029   2.763   2.311 -1.6037 -0.0390  0.1240
 5859SOL    HW229037   1.166   2.808   2.326  0.1570 -1.1138  0.2734
 5860SOL     OW29038   1.851   1.884   8.090  0.2666  0.6828  0.3395
 5860SOL    HW129039   1.850   1.821   8.163 -0.2293 -1.2843 -1.3658
 5860SOL    HW229040   1.760   1.911   8.082 -0.4159 -0.8926  2.6273
 5861SOL     OW29041   2.359   0.247   3.179  0.2019  0.1096  0.0908
 5861SOL    HW129042   2.351   0.298   3.098 -0.5140  0.0797  0.1396
 5861SOL    HW229043   2.280   0.192   3.177  1.1828 -1.4665  3.5044
 5862SOL     OW29044   4.559   1.687   9.448  0.1682  0.3761  0.5223
 5862SOL    HW129045   4.614   1.757   9.414 -1.2528  1.1034 -0.2419
 5862SOL    HW229046   4.522   1.740   9.519  1.7538  0.4382  1.3219
 5863SOL     OW29047   2.075   1.779   2.277 -0.4724  0.6052  0.3134
 5863SOL    HW129048   2.055   1.688   2.298  1.8078  0.0157  0.0111
 5863SOL    HW229049   2.013   1.820   2.337  0.0577  2.1244 -0.1780
 5864SOL     OW29050   2.254   0.941   7.655 -0.5148  0.2331  0.4518
 5864SOL    HW129051   2.223   0.891   7.730  1.1094 -2.3201 -0.5733
 5864SOL    HW229052   2.193   1.015   7.656 -1.6129 -0.6405 -2.2200
 5865SOL     OW29053   3.521   0.717   3.171 -0.1625 -0.3918  0.0548
 5865SOL    HW129054   3.547   0.672   3.251 -0.7852  3.3173  2.3145
 5865SOL    HW229055   3.528   0.809   3.195  0.4980 -0.6359  0.7691
 5866SOL     OW29056   2.409   0.159   8.111 -0.2084 -0.1058 -0.0237
 5866SOL    HW129057   2.411   0.117   8.197  1.3750  0.6777  0.3279
 5866SOL    HW229058   2.490   0.210   8.114 -0.1079 -0.3642  2.0690
 5867SOL     OW29059   1.574   2.755   4.471  0.0992 -0.0410 -0.2082
 5867SOL    HW129060   1.520   2.801   4.407  2.1934  0.8767 -1.3313
 5867SOL    HW229061   1.598   2.821   4.536  1.6590  2.2836 -3.1653
 5868SOL     OW29062   4.420   3.970  15.138  0.0492  0.2988  0.3430
 5868SOL    HW129063   4.484   3.908  15.172 -1.1140 -0.6581  0.7922
 5868SOL    HW229064   4.392   3.930  15.056  0.6062 -0.5229  0.5584
 5869SOL     OW29065   0.203   4.134  12.471 -0.0794 -0.3227  0.3144
 5869SOL    HW129066   0.150   4.098  12.400 -1.0608  0.2974  0.7351
 5869SOL    HW229067   0.199   4.066  12.539 -1.2242  1.0232  1.5942
 5870SOL     OW29068   0.835   3.358   1.016 -0.3796 -0.4275 -0.3881
 5870SOL    HW129069   0.853   3.417   1.089 -1.2949 -0.9183  0.2320
 5870SOL    HW229070   0.741   3.377   1.010 -0.5128 -1.5817 -1.9180
 5871SOL     OW29071   0.341   1.282  11.914 -0.5865  0.2122 -0.5079
 5871SOL    HW129072   0.406   1.314  11.851 -2.5315  2.9889 -1.0927
 5871SOL    HW229073   0.256   1.295  11.872 -0.4918 -1.6774 -1.3102
 5872SOL     OW29074   3.184   3.114   5.087  0.1014  0.1523 -0.9317
 5872SOL    HW129075   3.247   3.121   5.158  1.5928  0.1853 -2.2579
 5872SOL    HW229076   3.232   3.121   5.005 -0.9727  0.5088 -1.5314
 5873SOL     OW29077   0.971   3.399   1.522 -0.3726 -0.9581  0.0837
 5873SOL    HW129078   0.983   3.353   1.605 -2.5560 -0.6828  0.5427
 5873SOL    HW229079   1.064   3.409   1.503 -0.0387 -1.3257  1.4804
 5874SOL     OW29080   0.823   3.943   0.516  0.2086 -0.0848  0.1339
 5874SOL    HW129081   0.740   3.895   0.515  0.0420  0.2287 -0.6386
 5874SOL    HW229082   0.842   3.971   0.427 -1.5661  1.5525  0.2823
 5875SOL     OW29083   0.628   0.332   6.373 -0.4160  0.3796  0.1570
 5875SOL    HW129084   0.657   0.410   6.421 -1.9021  0.8395  0.3100
 5875SOL    HW229085   0.594   0.367   6.291 -3.0454  1.2061  1.6082
 5876SOL     OW29086   4.136   3.750  11.746  0.0589  0.7681 -0.4444
 5876SOL    HW129087   4.134   3.670  11.797 -1.7136  1.0568 -0.0517
 5876SOL    HW229088   4.043   3.769  11.729  0.2930  3.0485  0.9133
 5877SOL     OW29089   3.682   3.849  16.353 -0.2769  0.1319 -0.2951
 5877SOL    HW129090   3.730   3.910  16.296  0.5648  0.2173  0.5091
 5877SOL    HW229091   3.632   3.787  16.300  0.3368 -3.5577  3.4660
 5878SOL     OW29092   3.330   4.128   4.966  0.3474  0.3451  0.3023
 5878SOL    HW129093   3.267   4.085   5.024  0.7453  1.2814  1.4284
 5878SOL    HW229094   3.275   4.124   4.888  2.5733 -1.3653 -1.1827
 5879SOL     OW29095   1.025   1.082   3.013  0.5768 -0.5449  0.2343
 5879SOL    HW129096   1.104   1.132   2.993  0.2580 -0.1207  0.0275
 5879SOL    HW229097   1.066   1.005   3.052 -0.5843 -1.4987 -0.4049
 5880SOL     OW29098   0.075   3.588  16.613  0.1807 -0.1921  0.3776
 5880SOL    HW129099   0.155   3.544  16.583 -1.3083 -1.5130 -1.7018
 5880SOL    HW229100   0.087   3.580  16.708  0.7498  1.0545  0.4119
 5881SOL     OW29101   0.330   1.480  11.676 -0.1386 -0.2678 -0.0691
 5881SOL    HW129102   0.281   1.548  11.628  0.4206 -0.6763 -1.2149
 5881SOL    HW229103   0.334   1.412  11.608  2.6152 -0.7443  0.6012
 5882SOL     OW29104   4.144   4.629   8.516  0.1783  0.4789 -0.1379
 5882SOL    HW129105   4.136   4.693   8.445  1.8019  0.7448 -0.0799
 5882SOL    HW229106   4.211   4.572   8.479  0.5608  0.2181  0.9738
 5883SOL     OW29107   3.470   0.574   6.994 -0.1149  0.0900  0.7149
 5883SOL    HW129108   3.414   0.523   7.052 -0.8843  0.7774  0.5777
 5883SOL    HW229109   3.552   0.532   7.021 -1.3671 -2.3172  0.7495
 5884SOL     OW29110   1.442   1.964   0.665  0.0011 -0.1098 -0.4756
 5884SOL    HW129111   1.511   1.988   0.727 -0.5195 -0.8989  0.4038
 5884SOL    HW229112   1.404   2.050   0.645  1.0552  0.1196 -1.4411
 5885SOL     OW29113   2.392   4.629   1.677 -0.5854 -0.7949 -0.5296
 5885SOL    HW129114   2.404   4.682   1.755 -1.1720 -0.7145 -0.4955
 5885SOL    HW229115   2.478   4.623   1.634  0.8034 -0.5714  2.1974
 5886SOL     OW29116   2.239   2.650   8.756  0.1543 -0.6179  0.3110
 5886SOL    HW129117   2.197   2.575   8.716 -0.4465  0.0844 -0.3657
 5886SOL    HW229118   2.168   2.689   8.808  0.9852  0.9804  0.2607
 5887SOL     OW29119   2.650   3.066  12.136  0.1294  0.4982  0.5659
 5887SOL    HW129120   2.629   3.157  12.159  0.9645  1.1265 -1.1446
 5887SOL    HW229121   2.590   3.018  12.193 -0.2443 -0.3818 -0.5767
 5888SOL     OW29122   3.675   0.109   1.941  0.1719  0.2038  0.2376
 5888SOL    HW129123   3.620   0.032   1.927  0.6166 -0.8011  3.8633
 5888SOL    HW229124   3.645   0.130   2.030 -1.7656 -0.0490 -0.3644
 5889SOL     OW29125   1.163   0.837   6.117 -0.6968 -0.1700 -0.7700
 5889SOL    HW129126   1.204   0.751   6.120 -3.6672 -1.5487 -0.5029
 5889SOL    HW229127   1.110   0.824   6.039  0.6469  0.5649 -1.8201
 5890SOL     OW29128   1.190   3.612   8.753 -0.1355  0.5361  0.3458
 5890SOL    HW129129   1.223   3.525   8.730 -0.1325  1.6018 -3.7157
 5890SOL    HW229130   1.260   3.654   8.803  0.3269  0.2652 -0.0736
 5891SOL     OW29131   3.404   0.234  14.296  0.2130  0.2665  0.7829
 5891SOL    HW129132   3.470   0.266  14.358 -0.9820 -0.3019  2.3424
 5891SOL    HW229133   3.345   0.183  14.351  1.6824  0.6724  2.7329
 5892SOL     OW29134   4.292   0.198   8.523 -0.3589  0.1835  0.8460
 5892SOL    HW129135   4.213   0.190   8.469 -0.1849 -1.5428  0.8559
 5892SOL    HW229136   4.337   0.262   8.467  2.0044 -0.6294  1.8175
 5893SOL     OW29137   4.096   0.091   3.459 -0.2866  0.1566  0.2349
 5893SOL    HW129138   4.053   0.008   3.478  2.3592 -1.4674 -0.8896
 5893SOL    HW229139   4.137   0.072   3.375 -1.3530 -0.1631 -0.2229
 5894SOL     OW29140   1.816   4.010   5.107 -0.1534 -0.3647  0.5515
 5894SOL    HW129141   1.841   4.051   5.023 -1.6224  0.9542  0.7513
 5894SOL    HW229142   1.839   4.081   5.167 -0.6637 -0.3752  0.7609
 5895SOL     OW29143   4.365   1.543   5.375  0.3514  0.5806 -0.0716
 5895SOL    HW129144   4.382   1.509   5.463  0.8559 -0.6670 -0.6575
 5895SOL    HW229145   4.443   1.598   5.367  1.2794 -0.7980 -0.4801
 5896SOL     OW29146   2.389   1.702   6.403  0.7243 -0.3730 -0.3782
 5896SOL    HW129147   2.324   1.675   6.338 -1.0120 -2.1300  2.0582
 5896SOL    HW229148   2.419   1.612   6.417  0.1536 -0.3419  1.0473
 5897SOL     OW29149   1.927   3.025   7.210  0.3503  0.1999  0.2483
 5897SOL    HW129150   2.021   3.039   7.201  0.1525  2.2383  1.5258
 5897SOL    HW229151   1.923   2.973   7.291 -1.2384  1.3136  0.8787
 5898SOL     OW29152   2.092   2.597   4.614 -0.7368 -0.2437 -0.3494
 5898SOL    HW129153   2.180   2.558   4.615 -0.4079  0.5263  1.0995
 5898SOL    HW229154   2.072   2.603   4.521 -0.5542 -1.9001 -0.5083
 5899SOL     OW29155   1.608   3.429   1.709 -0.0625  0.1958  0.0367
 5899SOL    HW129156   1.597   3.521   1.687 -3.8430 -0.6657 -1.5118
 5899SOL    HW229157   1.542   3.427   1.778  0.1534 -0.0264  0.2358
 5900SOL     OW29158   4.033   1.171   4.874  0.3484 -0.1793  0.0403
 5900SOL    HW129159   4.083   1.127   4.805  1.1463  0.2192  0.3702
 5900SOL    HW229160   4.003   1.093   4.920 -2.0165 -0.1518 -1.4980
 5901SOL     OW29161   4.507   0.237   6.276 -0.1616 -0.3767 -0.3755
 5901SOL    HW129162   4.526   0.318   6.322  0.0478 -1.2223  1.0439
 5901SOL    HW229163   4.588   0.209   6.233  0.0211  0.9564 -0.8756
 5902SOL     OW29164   1.517   2.392   7.177  0.4358  0.0175 -0.0164
 5902SOL    HW129165   1.436   2.374   7.131 -0.5641  1.8023  1.0527
 5902SOL    HW229166   1.543   2.479   7.144 -0.7317  0.8170  1.1588
 5903SOL     OW29167   3.480   4.170  11.632  0.4285 -0.3508 -0.7345
 5903SOL    HW129168   3.505   4.173  11.724  1.4385  0.9683 -1.0516
 5903SOL    HW229169   3.416   4.099  11.633  2.3614 -2.0477 -0.0619
 5904SOL     OW29170   1.519   0.312  13.655 -1.0024 -0.6526 -0.1298
 5904SOL    HW129171   1.481   0.260  13.584 -0.8816 -0.2031 -0.5204
 5904SOL    HW229172   1.612   0.320  13.631 -0.7781 -1.7581  0.3577
 5905SOL     OW29173   4.540   4.073   7.348  0.4831  0.1681  0.4828
 5905SOL    HW129174   4.574   3.987   7.375  1.8179  1.2284  2.1760
 5905SOL    HW229175   4.489   4.089   7.427  0.8474  0.8690  0.5766
 5906SOL     OW29176   1.843   1.217   3.350 -0.2059  0.0022 -0.3758
 5906SOL    HW129177   1.931   1.241   3.324  0.5346  0.3568  2.4158
 5906SOL    HW229178   1.841   1.122   3.340  2.5716 -0.2199  1.2981
 5907SOL     OW29179   4.205   4.089  14.712  0.5838  0.3034  0.2061
 5907SOL    HW129180   4.160   4.056  14.790  0.2790  1.5188  0.5416
 5907SOL    HW229181   4.185   4.181  14.726  2.0329  0.6056  0.3335
 5908SOL     OW29182   3.342   1.558   7.062 -0.0700 -0.6053  0.2901
 5908SOL    HW129183   3.403   1.579   6.992  2.3094  0.3278  2.6492
 5908SOL    HW229184   3.348   1.463   7.068 -0.0432 -0.6660 -0.7536
 5909SOL     OW29185   3.099   1.728   6.289  0.3112  0.1691  0.4934
 5909SOL    HW129186   3.164   1.668   6.252 -0.3900 -0.8174  0.8438
 5909SOL    HW229187   3.022   1.697   6.242  0.6346  2.9990 -1.8926
 5910SOL     OW29188   1.260   2.222   5.326  0.4624  0.4582 -0.7422
 5910SOL    HW129189   1.342   2.183   5.295  1.0320  1.5433 -0.5859
 5910SOL    HW229190   1.285   2.298   5.378  2.3135  0.3148 -1.4121
 5911SOL     OW29191   1.967   1.220  17.612  0.4569 -0.4407  0.0356
 5911SOL    HW129192   2.054   1.191  17.582  0.5627 -0.6699  0.5771
 5911SOL    HW229193   1.942   1.278  17.540 -1.7673 -0.5299  0.7519
 5912SOL     OW29194   3.481   3.809  17.481  0.4710  0.1109 -0.0451
 5912SOL    HW129195   3.454   3.721  17.454  1.2496 -0.1389 -0.0078
 5912SOL    HW229196   3.443   3.856  17.407  0.8891 -0.4283 -0.6013
 5913SOL     OW29197   4.132   2.817   5.305 -0.0779 -0.3207  0.1450
 5913SOL    HW129198   4.220   2.848   5.325  0.0235  0.1441 -1.0575
 5913SOL    HW229199   4.122   2.768   5.387  1.5869 -1.0463 -0.1042
 5914SOL     OW29200   2.321   2.887   8.192  0.1851  0.7159 -0.0667
 5914SOL    HW129201   2.238   2.869   8.237 -0.1920  0.0189 -1.0474
 5914SOL    HW229202   2.386   2.855   8.255 -0.8657  0.1529  0.7310
 5915SOL     OW29203   3.295   2.197   6.861  0.1068  0.1325 -0.1417
 5915SOL    HW129204   3.271   2.136   6.791  2.6551  0.6988 -1.4826
 5915SOL    HW229205   3.354   2.142   6.912 -0.6869 -1.0099 -0.4548
 5916SOL     OW29206   0.417   2.883   3.546 -0.0457  0.1099 -0.3766
 5916SOL    HW129207   0.353   2.868   3.615 -1.9383 -2.3424 -2.6470
 5916SOL    HW229208   0.455   2.796   3.533  2.9301  1.5176 -1.0556
 5917SOL     OW29209   2.210   0.796   8.241 -0.1316  0.1040 -0.0965
 5917SOL    HW129210   2.277   0.756   8.186 -0.1280  0.7830 -0.5829
 5917SOL    HW229211   2.245   0.778   8.328 -1.6606  1.6458  0.8556
 5918SOL     OW29212   2.113   1.775   1.652  0.3223 -0.7065 -0.1662
 5918SOL    HW129213   2.036   1.817   1.691  0.1018 -0.6384 -0.6667
 5918SOL    HW229214   2.187   1.809   1.701  0.0661 -0.9868  0.4107
 5919SOL     OW29215   0.643   0.589   0.789 -0.2298  0.6045 -0.0386
 5919SOL    HW129216   0.583   0.661   0.808  0.9201  0.5211  3.8065
 5919SOL    HW229217   0.618   0.553   0.704  1.6252 -0.4312 -0.1483
 5920SOL     OW29218   3.566   4.515  15.399  0.1453  0.4432  0.0375
 5920SOL    HW129219   3.641   4.546  15.349 -0.3519 -0.6635 -1.4012
 5920SOL    HW229220   3.504   4.500  15.328  0.4990  2.1010 -0.6343
 5921SOL     OW29221   1.612   3.480   3.656  0.6463  0.2018 -0.0918
 5921SOL    HW129222   1.576   3.427   3.585  2.4038 -0.1984 -0.6795
 5921SOL    HW229223   1.677   3.527   3.604 -0.8176  0.8061 -1.4028
 5922SOL     OW29224   3.405   3.511  10.167 -0.6181  0.1420 -0.2400
 5922SOL    HW129225   3.354   3.555  10.099 -1.7874  1.0264  1.1825
 5922SOL    HW229226   3.346   3.522  10.242 -1.8099 -2.5557 -0.7740
 5923SOL     OW29227   2.503   2.734   1.007  0.1480 -0.6420  0.2604
 5923SOL    HW129228   2.455   2.777   0.936 -1.2172 -1.8259  0.4686
 5923SOL    HW229229   2.452   2.768   1.080  0.1182 -1.9691  0.8508
 5924SOL     OW29230   2.972   2.298   6.261 -0.0648  0.5553  0.2294
 5924SOL    HW129231   3.006   2.308   6.172  1.0662  0.5173  0.6656
 5924SOL    HW229232   2.993   2.212   6.297 -0.4038  0.8346  1.0923
 5925SOL     OW29233   2.647   3.944   0.691  0.5220 -0.1659  0.0202
 5925SOL    HW129234   2.739   3.953   0.665  0.8606  0.7307  1.5336
 5925SOL    HW229235   2.658   3.886   0.766  0.2051 -0.6474 -0.3026
 5926SOL     OW29236   3.301   2.393   1.893 -0.1888 -0.3476 -0.2544
 5926SOL    HW129237   3.251   2.387   1.974  1.9002  0.1191  1.0613
 5926SOL    HW229238   3.274   2.312   1.850  1.2861 -0.8124 -0.2979
 5927SOL     OW29239   2.911   2.895   3.826  0.2865  0.1158 -0.0541
 5927SOL    HW129240   2.961   2.915   3.747  0.7765 -2.2995 -0.3389
 5927SOL    HW229241   2.841   2.835   3.801 -0.9994  1.5435  0.1084
 5928SOL     OW29242   1.059   4.131   8.876 -0.5087 -0.5162 -0.3274
 5928SOL    HW129243   0.966   4.111   8.883 -0.7608  1.2272  1.1900
 5928SOL    HW229244   1.076   4.162   8.787 -0.9791  3.4200  0.9753
 5929SOL     OW29245   0.545   2.793   5.406  0.6537 -0.7722  0.3696
 5929SOL    HW129246   0.555   2.698   5.397  0.3320 -0.8217  0.5045
 5929SOL    HW229247   0.542   2.811   5.312 -1.3157 -0.2616  0.5150
 5930SOL     OW29248   4.240   1.039  12.556 -0.0224  0.0839 -0.5049
 5930SOL    HW129249   4.316   1.032  12.498 -1.2759 -0.8993 -2.0328
 5930SOL    HW229250   4.177   1.044  12.484 -0.4225  1.8586 -0.0490
 5931SOL     OW29251   3.412   2.271   5.961 -0.2418 -0.0591 -0.3357
 5931SOL    HW129252   3.388   2.281   6.053  0.3191  0.9788 -0.3040
 5931SOL    HW229253   3.341   2.224   5.917  2.0211 -2.0723 -1.8269
 5932SOL     OW29254   2.527   4.533   7.673  0.7911 -0.1569  0.2993
 5932SOL    HW129255   2.467   4.464   7.700 -1.4822  1.5618 -0.4092
 5932SOL    HW229256   2.468   4.608   7.666 -0.9004 -1.4488  0.7047
 5933SOL     OW29257   2.680   3.957   2.390 -0.0210  0.3883 -0.9820
 5933SOL    HW129258   2.691   3.882   2.332 -0.4944  1.6210 -2.6710
 5933SOL    HW229259   2.773   3.966   2.411  0.1947  0.7820 -2.1088
 5934SOL     OW29260   1.772   2.084   1.140  0.3453 -0.2115  0.4238
 5934SOL    HW129261   1.780   2.111   1.231 -1.4789 -2.0856  1.1521
 5934SOL    HW229262   1.732   1.997   1.147 -0.9531  0.3105 -0.5137
 5935SOL     OW29263   3.122   3.098  10.738  0.2779  0.3754  0.2698
 5935SOL    HW129264   3.105   3.006  10.758 -1.2042  0.8638  1.2611
 5935SOL    HW229265   3.214   3.116  10.753  0.4782  0.6965 -1.3351
 5936SOL     OW29266   4.599   3.660   0.826 -0.2647 -0.0404  0.2836
 5936SOL    HW129267   4.594   3.575   0.871 -1.5511 -0.4440 -0.6358
 5936SOL    HW229268   4.574   3.643   0.735  1.0895 -1.3493  0.1562
 5937SOL     OW29269   3.666   2.385  16.021 -0.2829  0.5890 -0.4181
 5937SOL    HW129270   3.591   2.425  16.066 -0.2226 -0.8838  0.9863
 5937SOL    HW229271   3.695   2.316  16.081 -0.0176  0.9319 -0.1486
 5938SOL     OW29272   3.553   2.998  15.472  0.3343  0.3058  0.1959
 5938SOL    HW129273   3.549   2.936  15.400 -0.8882  3.0698 -2.1100
 5938SOL    HW229274   3.561   2.933  15.541  2.3506 -1.4642 -1.7011
 5939SOL     OW29275   3.471   3.859   6.249 -0.1071  0.0647  0.7267
 5939SOL    HW129276   3.420   3.910   6.313  0.0120  1.3704 -0.2399
 5939SOL    HW229277   3.558   3.892   6.269 -0.7675  2.5302 -0.5439
 5940SOL     OW29278   4.136   2.712   7.437 -0.9778 -0.2408  0.0173
 5940SOL    HW129279   4.157   2.646   7.370  1.1771  0.7723 -0.3016
 5940SOL    HW229280   4.045   2.688   7.458 -1.1678  0.2092 -0.2822
 5941SOL     OW29281   1.912   1.514  15.929 -0.0198  0.2386 -0.0725
 5941SOL    HW129282   1.938   1.606  15.929  0.0592  0.2134  0.4812
 5941SOL    HW229283   1.937   1.490  15.840 -0.2303 -0.5015  0.0692
 5942SOL     OW29284   2.088   2.985   8.736  0.0598 -0.0118  0.3172
 5942SOL    HW129285   2.096   3.058   8.675  0.0727  0.8698  1.3618
 5942SOL    HW229286   2.140   2.920   8.689  0.1652 -0.2350  0.7460
 5943SOL     OW29287   4.011   2.977  12.582 -0.5117 -0.6109  0.2415
 5943SOL    HW129288   4.029   3.063  12.619 -2.3048  0.3299 -1.0675
 5943SOL    HW229289   3.929   2.945  12.620 -0.9746  0.1492 -0.1189
 5944SOL     OW29290   3.499   2.728   6.643 -0.0246 -0.0164  0.1410
 5944SOL    HW129291   3.566   2.665   6.617 -0.6138  0.4263 -2.4978
 5944SOL    HW229292   3.453   2.749   6.561  1.5436  1.8546 -0.2763
 5945SOL     OW29293   2.952   1.391   2.551 -0.1911  0.0133 -0.6109
 5945SOL    HW129294   2.922   1.367   2.463 -0.7867  0.9539 -0.6700
 5945SOL    HW229295   3.038   1.423   2.525  0.0114 -1.1646 -1.4161
 5946SOL     OW29296   2.576   3.761  14.268 -0.2203 -0.3643 -0.0977
 5946SOL    HW129297   2.631   3.839  14.261  0.2789 -0.7932 -0.9516
 5946SOL    HW229298   2.552   3.775  14.360  2.5137 -0.1740  0.5816
 5947SOL     OW29299   1.535   3.632  15.514  0.2090  0.5390 -0.4086
 5947SOL    HW129300   1.623   3.623  15.476  0.1603 -0.6584 -0.2393
 5947SOL    HW229301   1.511   3.540  15.526 -0.4389  0.6475 -0.9032
 5948SOL     OW29302   3.745   4.367   4.880 -0.4456  0.1670  0.1909
 5948SOL    HW129303   3.817   4.429   4.893 -0.6877  0.7334 -1.1411
 5948SOL    HW229304   3.752   4.344   4.787  2.2450  0.7418  0.2438
 5949SOL     OW29305   2.157   0.957   1.530 -0.2032 -0.4307  0.4409
 5949SOL    HW129306   2.202   0.987   1.609  1.0728  1.2731 -0.9191
 5949SOL    HW229307   2.146   1.044   1.491  0.7334 -0.9293 -0.9177
 5950SOL     OW29308   0.870   3.077   2.900  0.5750 -0.5740  0.5101
 5950SOL    HW129309   0.895   2.988   2.876  1.6587 -0.1029 -0.1026
 5950SOL    HW229310   0.920   3.102   2.978 -0.9963 -0.2044  1.4072
 5951SOL     OW29311   2.856   1.199   8.917  0.3265  0.3661 -0.2548
 5951SOL    HW129312   2.925   1.134   8.915 -0.1498 -0.1562  0.4761
 5951SOL    HW229313   2.905   1.264   8.967  3.7197 -2.0511 -0.4933
 5952SOL     OW29314   3.456   0.921   2.293 -0.4781 -0.9223  0.1507
 5952SOL    HW129315   3.369   0.883   2.297  0.1075 -2.2304  0.2627
 5952SOL    HW229316   3.479   0.903   2.202  0.1781 -0.9699  0.3242
 5953SOL     OW29317   1.867   4.591   7.086  0.5267  0.0712 -0.6729
 5953SOL    HW129318   1.918   4.608   7.166  0.1604 -0.1357 -0.3936
 5953SOL    HW229319   1.789   4.628   7.126  2.1999  0.6779  2.0647
 5954SOL     OW29320   0.753   3.265  12.954  0.3938  0.0222  0.1563
 5954SOL    HW129321   0.778   3.180  12.990  0.9502 -0.0071 -0.2998
 5954SOL    HW229322   0.815   3.261  12.882  2.2046  0.3060  1.6849
 5955SOL     OW29323   4.157   1.685   5.743  0.1784 -0.3323 -0.4937
 5955SOL    HW129324   4.178   1.692   5.650  0.6384 -0.5518 -0.4103
 5955SOL    HW229325   4.218   1.750   5.779  1.1588 -1.5388  0.0396
 5956SOL     OW29326   4.617   3.789   6.904  0.0510  0.2124  0.3961
 5956SOL    HW129327   4.565   3.831   6.973 -0.2840  0.1282  0.1926
 5956SOL    HW229328   4.705   3.802   6.939  0.1066  1.6052 -0.2671
 5957SOL     OW29329   4.164   2.051   6.296 -0.5566  0.7793  0.5183
 5957SOL    HW129330   4.200   2.062   6.384  2.0084 -0.6682 -0.3484
 5957SOL    HW229331   4.238   2.003   6.260 -0.6550  0.9977  0.0219
 5958SOL     OW29332   0.205   2.354   3.928  0.2377  0.0547  0.1927
 5958SOL    HW129333   0.203   2.259   3.917  0.9677  0.0770 -0.1313
 5958SOL    HW229334   0.200   2.361   4.023  0.4842 -1.1747  0.2996
 5959SOL     OW29335   2.392   0.011  14.763 -0.0547  0.2078 -0.1813
 5959SOL    HW129336   2.422   4.642  14.773  0.5863  0.3345 -1.0033
 5959SOL    HW229337   2.301   0.001  14.733 -0.6544  0.6703  1.4941
 5960SOL     OW29338   1.584   0.962  17.010  0.2641 -0.6322 -0.2384
 5960SOL    HW129339   1.651   0.927  17.069  1.8428  0.6492 -1.2610
 5960SOL    HW229340   1.635   1.020  16.953  0.5608 -0.7546 -0.0973
 5961SOL     OW29341   4.065   1.026  12.305 -0.4154  0.2002 -0.0595
 5961SOL    HW129342   4.008   1.009  12.229  1.1017 -1.5912 -0.8010
 5961SOL    HW229343   4.123   1.093  12.269 -1.3954 -0.2233 -2.4848
 5962SOL     OW29344   2.700   3.525   7.611  0.3380 -0.0414  0.1960
 5962SOL    HW129345   2.670   3.492   7.696 -0.0468  0.2139  0.1614
 5962SOL    HW229346   2.625   3.570   7.572 -0.0085 -0.8751 -0.0997
 5963SOL     OW29347   0.130   1.016   9.845 -0.1911 -0.0602 -0.6982
 5963SOL    HW129348   0.144   1.025   9.751 -0.3624  0.2858 -0.6949
 5963SOL    HW229349   0.189   1.087   9.872 -1.0552  0.3519  0.1067
 5964SOL     OW29350   0.614   0.218  15.226 -0.0023  0.2879  0.2706
 5964SOL    HW129351   0.599   0.271  15.304  0.7491  0.6901  0.1428
 5964SOL    HW229352   0.530   0.173  15.237 -0.2544  0.5075 -0.7460
 5965SOL     OW29353   0.525   0.568   3.957  0.1229 -0.3614 -0.2037
 5965SOL    HW129354   0.526   0.517   4.038 -2.2548 -0.6354 -0.3305
 5965SOL    HW229355   0.595   0.534   3.901  1.5394  0.6317  0.9773
 5966SOL     OW29356   3.036   1.246   8.503  0.4959  0.3994 -0.0109
 5966SOL    HW129357   2.961   1.209   8.550 -0.4017 -1.1923 -2.7058
 5966SOL    HW229358   3.038   1.186   8.428 -0.2728  0.1320  0.1818
 5967SOL     OW29359   3.060   1.936   8.183 -0.4733  0.4149  0.2156
 5967SOL    HW129360   3.092   1.959   8.271  2.5842  0.9875 -1.0488
 5967SOL    HW229361   3.016   1.853   8.202  0.4067  0.0003  0.4673
 5968SOL     OW29362   4.543   0.415   3.094 -0.6859  0.3527  0.0018
 5968SOL    HW129363   4.460   0.460   3.076 -0.8619  0.0322  0.0215
 5968SOL    HW229364   4.586   0.426   3.009 -0.5977 -2.4253 -0.2973
 5969SOL     OW29365   2.446   3.776   2.304  0.1064  0.1214 -0.0710
 5969SOL    HW129366   2.418   3.708   2.365  0.9655  0.2315  0.4468
 5969SOL    HW229367   2.540   3.775   2.319  0.0283  0.8003  0.4833
 5970SOL     OW29368   1.645   3.934   4.851 -0.0977  0.1129 -0.2055
 5970SOL    HW129369   1.582   3.967   4.915 -0.4122  2.7814 -1.8881
 5970SOL    HW229370   1.596   3.858   4.823 -0.6727  0.2952  0.3047
 5971SOL     OW29371   4.032   4.315  15.966 -0.8885 -0.2712  0.0318
 5971SOL    HW129372   3.984   4.268  15.898  0.6284  0.5117 -1.5933
 5971SOL    HW229373   3.992   4.400  15.945 -2.0779 -0.6784  0.6788
 5972SOL     OW29374   2.963   3.809   9.101 -0.8293  0.1800 -0.4328
 5972SOL    HW129375   3.058   3.812   9.105 -0.8363 -0.4843  0.2956
 5972SOL    HW229376   2.950   3.776   9.012  1.0436  1.1862 -1.0589
 5973SOL     OW29377   1.891   1.133  16.346  0.1750 -0.2437  0.3002
 5973SOL    HW129378   1.814   1.186  16.368 -0.1208 -1.4173  2.0665
 5973SOL    HW229379   1.908   1.165  16.258 -0.3175  0.8583  0.5992
 5974SOL     OW29380   0.048   1.319  17.276  0.0431  0.1201 -0.2961
 5974SOL    HW129381   0.083   1.396  17.321  0.4977 -0.4025  0.2348
 5974SOL    HW229382   4.675   1.333  17.281  0.0433  0.5726 -1.4770
 5975SOL     OW29383   1.531   4.073   3.953  0.1944 -0.5122  0.4951
 5975SOL    HW129384   1.541   4.100   4.044 -0.3142  0.3237  0.3062
 5975SOL    HW229385   1.621   4.051   3.930  0.4594  1.1053  0.0088
 5976SOL     OW29386   0.055   0.065   0.776  0.7404 -0.3011 -0.7780
 5976SOL    HW129387   0.102   0.084   0.858  0.3804  0.2247 -0.6887
 5976SOL    HW229388   4.712   4.719   0.799 -1.0833  2.3468  1.9639
 5977SOL     OW29389   4.325   1.071   6.401 -0.2135  0.2534 -0.7585
 5977SOL    HW129390   4.376   1.027   6.333 -1.4058 -2.1365 -0.1066
 5977SOL    HW229391   4.338   1.023   6.483 -1.7396 -0.4760 -0.9461
 5978SOL     OW29392   3.345   4.399   3.132  0.1181  0.1657  0.3074
 5978SOL    HW129393   3.364   4.328   3.194 -0.5299 -1.0530 -0.8844
 5978SOL    HW229394   3.409   4.465   3.158  0.3947 -0.1555  0.4516
 5979SOL     OW29395   0.118   1.975   5.599  0.0683 -0.0250 -0.1981
 5979SOL    HW129396   0.091   2.067   5.596 -2.2520 -0.7450 -1.3382
 5979SOL    HW229397   0.034   1.930   5.589 -0.3417  0.6006  0.4506
 5980SOL     OW29398   1.845   1.464   6.764  0.3034 -0.0202 -0.2677
 5980SOL    HW129399   1.815   1.414   6.688  0.1036 -0.1148 -0.1262
 5980SOL    HW229400   1.866   1.547   6.721  2.1604 -0.9413 -1.1335
 5981SOL     OW29401   0.761   0.528   1.027 -0.5277 -0.2983 -0.0244
 5981SOL    HW129402   0.847   0.563   1.048  0.3032 -0.9059 -2.4966
 5981SOL    HW229403   0.733   0.555   0.940  1.5169  1.4418 -0.1329
 5982SOL     OW29404   3.700   0.589   8.954 -0.8548  0.1850 -0.0534
 5982SOL    HW129405   3.609   0.603   8.979 -0.9702 -0.5501 -0.0581
 5982SOL    HW229406   3.748   0.671   8.969 -0.3494 -0.2372  0.6079
 5983SOL     OW29407   3.810   0.611  15.500 -0.5751 -0.1923  0.5454
 5983SOL    HW129408   3.868   0.542  15.468 -0.2199  0.0490  0.6830
 5983SOL    HW229409   3.850   0.628  15.585  1.3085 -3.0312  0.2306
 5984SOL     OW29410   3.850   3.383   4.518 -0.0517  0.3696 -0.2730
 5984SOL    HW129411   3.865   3.289   4.529 -0.3751  0.3032 -0.4063
 5984SOL    HW229412   3.900   3.408   4.440  1.8220  1.0414  1.1315
 5985SOL     OW29413   1.726   0.204  10.630 -0.7036  0.2400  0.6386
 5985SOL    HW129414   1.649   0.246  10.592 -1.2108 -0.2970  1.0671
 5985SOL    HW229415   1.780   0.218  10.553 -1.1918  1.5059  0.5302
 5986SOL     OW29416   3.772   0.195   2.291  0.0930  0.1194 -0.3563
 5986SOL    HW129417   3.795   0.241   2.210 -0.4464  0.9239 -0.0585
 5986SOL    HW229418   3.753   0.106   2.264 -1.5026  0.6222 -0.8639
 5987SOL     OW29419   0.393   2.524   5.731 -0.1832  0.1891 -0.0822
 5987SOL    HW129420   0.359   2.539   5.643 -1.7620  1.4969  0.7495
 5987SOL    HW229421   0.346   2.449   5.769 -1.4389  2.6641  3.2933
 5988SOL     OW29422   0.205   2.957   2.725  0.2746 -0.1933  0.2681
 5988SOL    HW129423   0.192   2.943   2.632  3.1841  1.5187 -0.4020
 5988SOL    HW229424   0.155   3.036   2.746 -1.5164 -1.3603  0.4187
 5989SOL     OW29425   3.689   4.124   6.941 -0.1309 -1.0309 -0.2582
 5989SOL    HW129426   3.632   4.072   6.885 -0.2331 -3.7379  2.3706
 5989SOL    HW229427   3.648   4.211   6.938  4.5717  1.2272  0.8571
 5990SOL     OW29428   0.445   3.486   4.775  0.3065 -0.5874 -0.2084
 5990SOL    HW129429   0.523   3.430   4.768 -0.5123 -1.7864  0.1472
 5990SOL    HW229430   0.377   3.431   4.814 -1.7150  1.6452 -0.6284
 5991SOL     OW29431   0.347   2.825  10.787  0.0464 -0.5854 -0.1621
 5991SOL    HW129432   0.426   2.776  10.812  0.3205  0.9342  1.9220
 5991SOL    HW229433   0.318   2.771  10.714 -0.6799 -0.4402  0.0273
 5992SOL     OW29434   1.385   3.030  12.940 -0.7051  0.0138  0.0920
 5992SOL    HW129435   1.421   3.096  12.881 -3.2528  1.3043 -0.0398
 5992SOL    HW229436   1.309   3.082  12.968 -0.0432  1.9602 -1.7725
 5993SOL     OW29437   3.765   2.939   0.773 -0.1771  0.1203 -0.0883
 5993SOL    HW129438   3.860   2.934   0.778  0.1985  4.2390 -3.1280
 5993SOL    HW229439   3.737   2.848   0.781 -3.4111  1.0223 -1.1823
 5994SOL     OW29440   3.194   3.597   3.410  0.1409 -0.0156 -0.3243
 5994SOL    HW129441   3.250   3.673   3.424 -1.4729  1.0662  0.2042
 5994SOL    HW229442   3.189   3.608   3.315  0.0819 -0.2344 -0.3484
 5995SOL     OW29443   2.444   1.893   9.349  0.8656 -0.5313 -0.0238
 5995SOL    HW129444   2.359   1.904   9.392  2.0038  3.4058  1.1886
 5995SOL    HW229445   2.500   1.876   9.425 -0.3997 -0.9931  0.8042
 5996SOL     OW29446   1.378   4.400   5.353 -0.2480  0.0033 -0.3370
 5996SOL    HW129447   1.353   4.410   5.445 -1.4837 -1.3566 -0.5196
 5996SOL    HW229448   1.430   4.480   5.343 -0.7344  0.7270  2.7145
 5997SOL     OW29449   0.818   3.567   7.063  0.0990 -0.4497 -0.5741
 5997SOL    HW129450   0.788   3.538   7.149  0.8708  1.3030  0.2833
 5997SOL    HW229451   0.771   3.650   7.063 -1.2549 -1.2225 -0.5055
 5998SOL     OW29452   2.857   0.074  11.494  0.1864  0.6909 -0.8843
 5998SOL    HW129453   2.790   0.006  11.500 -1.6124  2.4927 -0.2276
 5998SOL    HW229454   2.904   0.041  11.418  0.5430  1.1351 -0.8533
 5999SOL     OW29455   0.069   1.874  15.335  0.6807 -0.0959  0.3283
 5999SOL    HW129456   0.080   1.828  15.252 -0.9204  0.8182 -0.3746
 5999SOL    HW229457   0.023   1.954  15.311  1.7932  0.2342 -0.6975
 6000SOL     OW29458   0.593   4.276   3.609 -0.2038 -0.4882 -0.0271
 6000SOL    HW129459   0.650   4.343   3.648  0.0772 -0.5721 -0.2926
 6000SOL    HW229460   0.627   4.273   3.519 -1.6554  0.9172 -0.6316
 6001SOL     OW29461   2.313   1.325   2.935 -0.0921  0.1483  0.1838
 6001SOL    HW129462   2.237   1.384   2.938 -0.7376 -0.7104  0.7306
 6001SOL    HW229463   2.278   1.240   2.962 -0.9988 -0.1370 -1.8877
 6002SOL     OW29464   0.333   3.063   4.967  0.3136 -0.4575  0.5086
 6002SOL    HW129465   0.416   3.110   4.975 -1.9668  3.4050  1.4426
 6002SOL    HW229466   0.310   3.044   5.059 -1.5527 -1.4798 -0.1663
 6003SOL     OW29467   3.486   0.927   2.932  0.2605 -0.5485 -0.5613
 6003SOL    HW129468   3.450   0.947   3.018 -2.3125 -1.3000 -1.4714
 6003SOL    HW229469   3.578   0.920   2.956 -0.3430 -2.7971  1.0769
 6004SOL     OW29470   1.524   3.524   5.590 -1.0630  0.0128 -0.1141
 6004SOL    HW129471   1.585   3.578   5.540  1.1285 -0.4476  2.0571
 6004SOL    HW229472   1.506   3.577   5.667 -0.8768  3.6007 -2.5468
 6005SOL     OW29473   1.752   2.677   7.651  0.3442 -0.1038  0.0368
 6005SOL    HW129474   1.743   2.699   7.743  1.3264 -0.8465  0.3083
 6005SOL    HW229475   1.848   2.673   7.655  0.5934  2.5085 -2.6128
 6006SOL     OW29476   1.347   2.425  11.308 -0.0490 -0.5696  0.3025
 6006SOL    HW129477   1.302   2.416  11.224 -0.9699  0.3014  0.7118
 6006SOL    HW229478   1.388   2.512  11.307 -0.4452 -0.4001 -1.7009
 6007SOL     OW29479   2.056   2.652  13.268  0.3169 -0.1297  0.5510
 6007SOL    HW129480   2.010   2.708  13.205  2.2142  1.0785  0.2417
 6007SOL    HW229481   1.986   2.642  13.333 -0.2652  0.5858  0.0420
 6008SOL     OW29482   0.611   4.631   5.910 -0.5470  0.2714  0.0172
 6008SOL    HW129483   0.543   4.564   5.918  0.3176 -0.4881  1.0236
 6008SOL    HW229484   0.596   4.675   5.994  1.2039 -1.2498  1.1257
 6009SOL     OW29485   4.020   2.739   7.795 -0.3285  0.1711 -0.3278
 6009SOL    HW129486   4.090   2.796   7.762 -0.2041  0.6355  0.7476
 6009SOL    HW229487   3.969   2.794   7.854 -0.1714 -0.8970  0.7939
 6010SOL     OW29488   1.094   1.484   5.608  0.0579  0.4317  0.0632
 6010SOL    HW129489   1.156   1.555   5.592  0.6770 -0.3610 -1.1159
 6010SOL    HW229490   1.064   1.502   5.697 -0.6631 -0.2478 -0.0423
 6011SOL     OW29491   2.834   3.681   1.565 -0.5200 -0.0627 -0.4183
 6011SOL    HW129492   2.761   3.706   1.622  1.5375  0.0477  2.1758
 6011SOL    HW229493   2.886   3.638   1.633  0.2585 -0.9972 -1.6031
 6012SOL     OW29494   1.416   2.539   3.386  0.2048  0.0580  0.4146
 6012SOL    HW129495   1.434   2.552   3.479  0.7490 -0.7444  0.4170
 6012SOL    HW229496   1.479   2.478   3.348 -0.7186 -0.1698 -0.7517
 6013SOL     OW29497   4.288   4.452   4.812  0.3873 -0.5049  0.1579
 6013SOL    HW129498   4.338   4.388   4.761  0.6416 -0.3357  0.1923
 6013SOL    HW229499   4.200   4.440   4.776  0.4136 -1.3171  0.3608
 6014SOL     OW29500   3.552   3.081   3.112 -0.0185  0.4010  0.7489
 6014SOL    HW129501   3.522   3.170   3.126 -1.0650  0.5622 -2.3618
 6014SOL    HW229502   3.607   3.057   3.186  1.5566  1.4822 -0.0753
 6015SOL     OW29503   1.100   2.268   9.915 -0.2374  0.4820  0.6153
 6015SOL    HW129504   1.108   2.351   9.867  0.9871  0.3362  0.5676
 6015SOL    HW229505   1.012   2.278   9.950 -0.7626  0.6680 -0.7653
 6016SOL     OW29506   3.093   0.693  14.678 -0.3647  0.1223 -0.1361
 6016SOL    HW129507   3.016   0.640  14.699 -0.1636 -0.1697 -0.1331
 6016SOL    HW229508   3.150   0.626  14.640 -0.3041 -0.6546  1.3132
 6017SOL     OW29509   2.246   0.511  10.902  0.9184  0.1228  0.2284
 6017SOL    HW129510   2.166   0.510  10.954 -0.4991 -2.0217 -1.9846
 6017SOL    HW229511   2.292   0.575  10.957  0.2450 -0.7942  1.8453
 6018SOL     OW29512   1.791   4.219  13.195  0.0563 -0.2689 -0.0881
 6018SOL    HW129513   1.765   4.309  13.173 -0.8632 -0.0091  2.0773
 6018SOL    HW229514   1.809   4.240  13.286  1.9216 -0.7883 -0.3493
 6019SOL     OW29515   0.871   0.757   0.724 -0.3490  0.5957 -0.2274
 6019SOL    HW129516   0.801   0.712   0.771 -0.2161 -1.4741 -1.9970
 6019SOL    HW229517   0.913   0.690   0.670 -1.3261  0.2501 -0.5594
 6020SOL     OW29518   4.536   1.068   5.844  0.0508  0.0554  0.1100
 6020SOL    HW129519   4.597   1.088   5.773 -0.0522  0.2516  0.0751
 6020SOL    HW229520   4.561   0.976   5.841  0.4405  0.2023 -1.1766
 6021SOL     OW29521   0.298   0.370   8.475  0.3405 -0.1066  0.2215
 6021SOL    HW129522   0.271   0.434   8.408  1.7214  1.6099  1.3154
 6021SOL    HW229523   0.223   0.310   8.480 -0.2254  0.5221 -0.6015
 6022SOL     OW29524   0.335   2.357   2.739  0.4877 -0.2108 -0.1452
 6022SOL    HW129525   0.297   2.306   2.667 -2.3353  0.6369  0.7357
 6022SOL    HW229526   0.356   2.279   2.791 -1.0249 -0.4097  0.1761
 6023SOL     OW29527   4.591   0.735   1.821  0.7572 -0.0630  0.1552
 6023SOL    HW129528   4.640   0.816   1.832  1.7341 -0.5091 -1.0197
 6023SOL    HW229529   4.548   0.726   1.907  0.5213  0.8679  0.1346
 6024SOL     OW29530   4.504   3.747   3.850 -0.1785  0.5377 -0.6732
 6024SOL    HW129531   4.562   3.672   3.841  0.1221  0.6751  0.1442
 6024SOL    HW229532   4.511   3.797   3.768 -1.6396 -0.8839 -1.6653
 6025SOL     OW29533   0.824   3.299   0.750 -0.1297  0.1858 -0.2262
 6025SOL    HW129534   0.831   3.206   0.771 -1.3422  0.2389  0.4323
 6025SOL    HW229535   0.837   3.337   0.837  2.2025  0.2383 -0.6062
 6026SOL     OW29536   2.151   3.109   2.655 -0.2274 -0.2336 -0.0248
 6026SOL    HW129537   2.113   3.159   2.582 -2.6576 -2.0391  0.0109
 6026SOL    HW229538   2.122   3.022   2.629 -2.3001  0.0259  1.4191
 6027SOL     OW29539   0.629   2.054   5.603 -0.2168 -0.3298  0.5380
 6027SOL    HW129540   0.680   2.042   5.523 -0.0507  0.6238  0.5051
 6027SOL    HW229541   0.594   1.966   5.619  1.2531 -0.8500  0.8615
 6028SOL     OW29542   2.258   0.540  13.207 -0.0588  0.3557 -0.2134
 6028SOL    HW129543   2.286   0.480  13.138  0.9918  0.0227  0.5043
 6028SOL    HW229544   2.173   0.566  13.172 -1.3343 -3.3447  0.1786
 6029SOL     OW29545   0.869   2.495   1.728  0.1218 -0.4127  0.3374
 6029SOL    HW129546   0.823   2.570   1.690 -1.9255 -2.0453 -0.4725
 6029SOL    HW229547   0.938   2.487   1.662  0.6281 -1.2581  0.9635
 6030SOL     OW29548   3.470   2.554   5.012  0.2466  0.2842  0.1916
 6030SOL    HW129549   3.469   2.498   4.935 -1.0287 -0.1674  0.5352
 6030SOL    HW229550   3.524   2.495   5.065 -1.0550  0.0359  1.2574
 6031SOL     OW29551   3.298   0.396   6.531  0.2755 -0.0596 -0.0202
 6031SOL    HW129552   3.315   0.483   6.493  2.6085 -0.6714 -0.3735
 6031SOL    HW229553   3.337   0.419   6.615  0.4678  1.0014 -0.3867
 6032SOL     OW29554   1.116   1.369   6.006 -0.5526  0.8530  0.2635
 6032SOL    HW129555   1.188   1.309   5.990 -0.5646  0.8846  0.0949
 6032SOL    HW229556   1.044   1.314   6.037  0.4042  1.3726  3.4785
 6033SOL     OW29557   1.719   3.124   7.982 -0.1807  0.2216 -0.3848
 6033SOL    HW129558   1.814   3.113   7.986 -0.3852 -0.6785  2.5166
 6033SOL    HW229559   1.714   3.211   8.021  0.4997  0.1320 -0.0945
 6034SOL     OW29560   1.445   0.672   2.953 -0.3768 -0.2343 -0.2321
 6034SOL    HW129561   1.417   0.729   3.025 -1.2361  0.3822 -1.0428
 6034SOL    HW229562   1.488   0.603   3.003 -0.6136 -1.4738 -1.7645
 6035SOL     OW29563   2.844   1.062   7.305  0.3440 -0.5581 -0.1803
 6035SOL    HW129564   2.789   1.014   7.367 -0.5225  0.4799 -0.1459
 6035SOL    HW229565   2.909   0.996   7.283 -0.0324 -1.4904  1.5222
 6036SOL     OW29566   0.573   3.499   6.192 -0.1700 -0.8432  0.0324
 6036SOL    HW129567   0.516   3.434   6.235  0.3869 -3.1810 -2.7677
 6036SOL    HW229568   0.508   3.558   6.154  2.2865  0.8793 -1.4854
 6037SOL     OW29569   2.411   1.290   3.842  0.6414  0.3353  0.4218
 6037SOL    HW129570   2.505   1.298   3.825  0.4065  0.9745 -0.5689
 6037SOL    HW229571   2.374   1.271   3.757 -0.2704 -0.0293  0.9026
 6038SOL     OW29572   0.429   1.508   8.610  0.0453 -0.0224  0.2461
 6038SOL    HW129573   0.499   1.455   8.572 -1.2553  0.4362 -2.8391
 6038SOL    HW229574   0.397   1.570   8.543 -2.3043 -1.2989  0.1824
 6039SOL     OW29575   0.142   1.967   3.550 -0.2978 -0.3779  0.1582
 6039SOL    HW129576   0.093   2.048   3.537 -1.8051 -1.1995  0.6653
 6039SOL    HW229577   0.232   2.000   3.545 -0.0056 -1.3178 -0.8794
 6040SOL     OW29578   4.423   2.105   0.606 -0.0539 -0.9160  0.0448
 6040SOL    HW129579   4.359   2.164   0.646  0.1713  0.5809 -1.8108
 6040SOL    HW229580   4.407   2.129   0.515 -1.3955 -1.4948  0.1256
 6041SOL     OW29581   4.537   3.407   4.413 -0.2385 -0.0711  0.5976
 6041SOL    HW129582   4.495   3.372   4.335  1.7912 -2.9183  0.7727
 6041SOL    HW229583   4.518   3.332   4.470 -1.1158 -1.9099 -2.1436
 6042SOL     OW29584   1.504   3.026   5.528 -0.0087 -0.1502  0.0363
 6042SOL    HW129585   1.516   2.988   5.441 -4.6188 -2.5737  0.4329
 6042SOL    HW229586   1.469   3.115   5.513  0.2865  0.1556  1.1625
 6043SOL     OW29587   1.455   4.495   3.576  0.1266  0.3538  0.1484
 6043SOL    HW129588   1.474   4.422   3.517 -1.0314  2.1042 -2.4294
 6043SOL    HW229589   1.500   4.478   3.658 -1.8447  1.1821  1.3958
 6044SOL     OW29590   3.505   4.396   8.882 -0.5374  0.2167  0.0086
 6044SOL    HW129591   3.565   4.451   8.933 -1.5167 -0.8240  2.2859
 6044SOL    HW229592   3.572   4.352   8.830  1.4027  3.5262 -0.2575
 6045SOL     OW29593   1.159   0.473  15.454 -0.3393 -0.0287 -0.6330
 6045SOL    HW129594   1.072   0.456  15.490  0.6927 -0.3806  1.6650
 6045SOL    HW229595   1.184   0.545  15.512  0.7829 -0.9604  0.0355
 6046SOL     OW29596   3.093   3.265   5.703  0.0052 -0.5151 -0.5178
 6046SOL    HW129597   3.096   3.173   5.727  3.0424 -0.3799 -0.3375
 6046SOL    HW229598   3.064   3.306   5.785  0.4467 -0.8876 -0.1725
 6047SOL     OW29599   3.301   2.223   5.117  0.3382 -0.1542 -0.0547
 6047SOL    HW129600   3.239   2.243   5.046 -0.2437 -1.0772  0.1953
 6047SOL    HW229601   3.235   2.220   5.186  1.1365  3.1372  0.8599
 6048SOL     OW29602   1.502   1.475   6.944  0.4096  0.2314  0.0819
 6048SOL    HW129603   1.535   1.547   6.889  1.1771 -0.1122  0.0914
 6048SOL    HW229604   1.464   1.528   7.014 -1.2100  0.7104 -1.1599
 6049SOL     OW29605   0.362   3.146   1.479 -0.0558 -0.1342  0.4343
 6049SOL    HW129606   0.369   3.196   1.398  0.2467 -0.7171  0.0987
 6049SOL    HW229607   0.269   3.123   1.469  0.0118 -0.8838  1.4636
 6050SOL     OW29608   1.027   1.566  13.889 -0.1530 -0.2292 -0.1275
 6050SOL    HW129609   1.073   1.581  13.807 -1.1005  0.2984 -0.5627
 6050SOL    HW229610   0.989   1.479  13.884 -2.7545  0.9288 -0.8018
 6051SOL     OW29611   2.144   1.840   6.904  0.1213  0.0044  0.7421
 6051SOL    HW129612   2.224   1.876   6.944 -0.7079  1.6006  0.9574
 6051SOL    HW229613   2.162   1.746   6.902 -2.6177 -0.5215  0.7620
 6052SOL     OW29614   1.780   3.117  12.151 -0.1369  0.2157  0.3242
 6052SOL    HW129615   1.700   3.169  12.159 -1.5632 -1.6380 -2.0437
 6052SOL    HW229616   1.830   3.172  12.091 -1.9202  1.5337  0.0630
 6053SOL     OW29617   4.503   2.353  17.410 -0.4783 -0.1389  0.1869
 6053SOL    HW129618   4.447   2.408  17.356 -1.2190  0.0226  1.1271
 6053SOL    HW229619   4.573   2.319  17.354 -1.0980 -2.5424  0.8658
 6054SOL     OW29620   3.063   2.728   7.262 -0.1537 -0.5215  0.4678
 6054SOL    HW129621   3.028   2.807   7.223  2.3224  0.8323  1.0176
 6054SOL    HW229622   3.155   2.745   7.243  0.1966  0.0918  2.7378
 6055SOL     OW29623   2.181   4.616   2.507 -0.3312  0.3462 -0.6070
 6055SOL    HW129624   2.194   4.680   2.437  0.0029  1.3794  0.4012
 6055SOL    HW229625   2.216   4.539   2.461  1.5864  1.7433 -1.4824
 6056SOL     OW29626   1.915   2.603   4.905  0.5596  0.8209 -0.2047
 6056SOL    HW129627   1.858   2.527   4.898  1.6429  0.4005 -4.4603
 6056SOL    HW229628   1.950   2.608   4.816 -1.4509 -0.5645 -1.0479
 6057SOL     OW29629   1.057   0.526   8.777  0.3813  0.0704 -0.1895
 6057SOL    HW129630   0.976   0.499   8.819  0.2090 -1.4446 -1.4922
 6057SOL    HW229631   1.084   0.436   8.758 -0.2648 -0.4222  1.2460
 6058SOL     OW29632   2.007   2.458   2.465 -0.4351 -0.4907  0.3387
 6058SOL    HW129633   2.034   2.539   2.422 -0.4845 -1.2233 -1.0822
 6058SOL    HW229634   1.961   2.487   2.543 -1.4804  0.4942 -0.6426
 6059SOL     OW29635   2.579   2.282   2.704 -0.3407  0.4637 -0.2417
 6059SOL    HW129636   2.662   2.244   2.732  0.3350  0.2783 -2.4878
 6059SOL    HW229637   2.587   2.367   2.747 -0.7736  1.1000 -1.4449
 6060SOL     OW29638   4.185   2.963   6.937  0.3445 -0.4071  0.0372
 6060SOL    HW129639   4.198   2.961   6.842 -0.6459 -1.2212 -0.0782
 6060SOL    HW229640   4.091   2.944   6.932  0.4803 -0.3216 -2.6078
 6061SOL     OW29641   1.668   2.104   5.705 -0.0506  0.2449 -0.5573
 6061SOL    HW129642   1.741   2.164   5.720 -0.8915  1.2744 -0.5943
 6061SOL    HW229643   1.710   2.025   5.670  1.4416  0.0516  1.6594
 6062SOL     OW29644   1.631   1.280   2.824 -0.0028  0.0175  0.4801
 6062SOL    HW129645   1.710   1.320   2.861  0.7262 -0.1565 -0.8870
 6062SOL    HW229646   1.664   1.234   2.747  2.0246  1.3461  0.5499
 6063SOL     OW29647   1.190   2.285  11.504 -0.3139  0.3292 -0.7529
 6063SOL    HW129648   1.232   2.282  11.590 -0.3615  3.6085 -0.6160
 6063SOL    HW229649   1.252   2.341  11.458  0.2238  0.9010  0.6836
 6064SOL     OW29650   4.648   1.805   6.705  0.5529 -0.0008 -0.1436
 6064SOL    HW129651   4.618   1.724   6.746  0.1806  0.3227  0.2254
 6064SOL    HW229652   4.720   1.843   6.755  2.2754 -0.0245 -2.6023
 6065SOL     OW29653   1.236   3.417  15.759 -0.3918 -0.0229 -0.3584
 6065SOL    HW129654   1.210   3.367  15.681 -0.5187  2.2013 -1.7416
 6065SOL    HW229655   1.193   3.375  15.834  1.4313 -0.4428  0.4539
 6066SOL     OW29656   2.772   4.537   5.086 -0.3023  0.4493 -0.5399
 6066SOL    HW129657   2.826   4.472   5.041 -1.5743 -2.0117  1.4978
 6066SOL    HW229658   2.683   4.501   5.091  0.8405 -2.4513 -1.1647
 6067SOL     OW29659   3.741   1.265   9.773 -0.0321 -0.4899  0.5468
 6067SOL    HW129660   3.765   1.260   9.866 -0.6508 -0.6899  0.6970
 6067SOL    HW229661   3.765   1.180   9.737  3.0084  0.5352  0.1949
 6068SOL     OW29662   0.001   0.870   3.116 -0.1985 -0.4027  0.3669
 6068SOL    HW129663   4.651   0.808   3.132 -0.2953 -0.5577 -0.6768
 6068SOL    HW229664   4.689   0.945   3.066 -0.3410 -0.5571  0.2288
 6069SOL     OW29665   4.208   2.942   8.473 -0.0369  0.1538 -0.6574
 6069SOL    HW129666   4.126   2.993   8.477  0.3224  0.9173 -3.2477
 6069SOL    HW229667   4.183   2.874   8.411 -0.6531  1.4232 -1.8008
 6070SOL     OW29668   0.007   4.265  15.417 -0.2156  0.2157 -0.3111
 6070SOL    HW129669   0.025   4.325  15.345 -0.6530  1.8866  0.9665
 6070SOL    HW229670   4.687   4.328  15.477  2.6705  1.2266  0.6413
 6071SOL     OW29671   3.736   2.362   4.331 -0.3908 -0.3856 -0.4833
 6071SOL    HW129672   3.667   2.315   4.285 -0.9191 -0.4437  0.3564
 6071SOL    HW229673   3.806   2.312   4.290  0.3621  2.3715 -2.5741
 6072SOL     OW29674   3.456   2.848  15.259 -0.1469  0.1200 -0.4936
 6072SOL    HW129675   3.404   2.791  15.316  0.6085 -0.5243 -0.4458
 6072SOL    HW229676   3.476   2.787  15.188  2.4398  1.2698 -0.7430
 6073SOL     OW29677   0.923   1.594   5.855 -0.0403  0.3830  0.0748
 6073SOL    HW129678   0.831   1.618   5.855  0.2266  1.4156  0.1712
 6073SOL    HW229679   0.937   1.549   5.938 -0.0860 -0.2407 -0.2577
 6074SOL     OW29680   3.281   3.010   6.988  0.1302 -0.5149 -0.5495
 6074SOL    HW129681   3.295   2.916   6.994  0.0962 -0.7353 -3.7009
 6074SOL    HW229682   3.187   3.011   6.971 -0.3676  0.0542  2.2131
 6075SOL     OW29683   4.646   4.181  10.228 -0.0769 -0.0544 -0.3378
 6075SOL    HW129684   4.605   4.122  10.166 -0.7803  1.1441 -1.0239
 6075SOL    HW229685   4.568   4.227  10.259  0.2119  0.0740  0.2008
 6076SOL     OW29686   2.867   2.407  15.016  0.7407  0.0379  0.4613
 6076SOL    HW129687   2.962   2.405  15.017  0.7402 -1.1455 -0.6200
 6076SOL    HW229688   2.848   2.482  14.960  1.7042  0.9503  1.3869
 6077SOL     OW29689   0.363   2.501   1.634  0.8312  0.5775 -0.6065
 6077SOL    HW129690   0.394   2.490   1.545  1.4705  0.3134 -0.3522
 6077SOL    HW229691   0.364   2.409   1.661 -1.1022  1.0864  1.2599
 6078SOL     OW29692   0.823   4.584   0.356  0.1533 -0.4099  0.1265
 6078SOL    HW129693   0.804   4.537   0.274  2.9536 -0.0156 -0.7389
 6078SOL    HW229694   0.906   4.631   0.349  0.2578 -0.5892  0.1339
 6079SOL     OW29695   2.295   2.235   2.752  0.2660  0.0421 -0.2753
 6079SOL    HW129696   2.268   2.309   2.698  0.7712  1.0606  0.8428
 6079SOL    HW229697   2.389   2.232   2.734  0.0787  1.1430 -1.4516
 6080SOL     OW29698   0.685   1.369   0.812  0.1815  0.2772 -0.7004
 6080SOL    HW129699   0.600   1.409   0.828  0.0863 -0.6544  1.2350
 6080SOL    HW229700   0.664   1.312   0.738  0.1325 -0.9840  0.2666
 6081SOL     OW29701   2.936   0.758   5.722  0.3048 -0.3475 -0.3970
 6081SOL    HW129702   2.853   0.721   5.690 -0.2010  0.6185 -0.2235
 6081SOL    HW229703   2.907   0.799   5.803  0.5916  1.1259 -1.0327
 6082SOL     OW29704   1.505   1.491  11.352  0.2097 -0.1192 -0.2033
 6082SOL    HW129705   1.467   1.450  11.275 -1.5268  0.9110  0.1010
 6082SOL    HW229706   1.593   1.507  11.317  0.4913 -1.1713  0.0362
 6083SOL     OW29707   2.526   4.366   2.085  0.2232  0.3487 -0.0553
 6083SOL    HW129708   2.530   4.304   2.012  1.5108  0.1859  0.1589
 6083SOL    HW229709   2.603   4.418   2.062  1.7212 -1.0490  1.8174
 6084SOL     OW29710   2.119   1.865  12.052  0.2858 -0.3069  0.9205
 6084SOL    HW129711   2.106   1.908  11.967 -0.6036  0.5055  1.4614
 6084SOL    HW229712   2.173   1.796  12.014  0.8301  0.9969 -0.6521
 6085SOL     OW29713   1.756   1.876  15.692  0.1279  0.3166  0.1600
 6085SOL    HW129714   1.689   1.906  15.631  1.3526  1.9123 -0.3778
 6085SOL    HW229715   1.802   1.806  15.645  2.6439  1.4119  0.9870
 6086SOL     OW29716   1.256   3.941  16.395  0.1099  0.6161  0.8754
 6086SOL    HW129717   1.237   3.847  16.404  1.2594  0.2789 -0.1751
 6086SOL    HW229718   1.223   3.946  16.305  0.9643 -1.2044  0.4501
 6087SOL     OW29719   0.176   2.655  11.717 -0.0999  0.0771 -0.0886
 6087SOL    HW129720   0.175   2.562  11.697  1.0105  0.1679 -0.5338
 6087SOL    HW229721   0.256   2.658  11.770 -1.2557  0.3364  1.6687
 6088SOL     OW29722   1.057   3.678   7.563 -0.4350  0.7442  0.4076
 6088SOL    HW129723   1.081   3.721   7.481 -1.4925  0.2366 -0.1740
 6088SOL    HW229724   1.136   3.680   7.617 -0.1715 -1.0930  0.1020
 6089SOL     OW29725   3.003   1.944   7.074  0.1162 -0.0839 -0.4677
 6089SOL    HW129726   3.061   1.872   7.102 -1.2310 -0.5767  1.0618
 6089SOL    HW229727   3.047   2.018   7.116 -2.2862  1.2401 -0.3165
 6090SOL     OW29728   4.601   4.597   0.851 -0.2014  0.2492 -0.1823
 6090SOL    HW129729   4.509   4.620   0.837  0.0404  0.3681 -1.5597
 6090SOL    HW229730   4.597   4.593   0.947 -0.6907  1.3574 -0.1577
 6091SOL     OW29731   3.531   1.023   5.868  0.2283 -0.4070 -0.5467
 6091SOL    HW129732   3.564   0.972   5.941 -2.8967  0.6853  1.6253
 6091SOL    HW229733   3.602   1.082   5.842  1.6632 -1.5823  0.7345
 6092SOL     OW29734   3.880   4.641  13.128  0.4327 -0.0006  0.0358
 6092SOL    HW129735   3.803   4.624  13.182  1.7972 -2.1303  1.2996
 6092SOL    HW229736   3.863   4.586  13.052  0.0654 -1.9746  1.5445
 6093SOL     OW29737   2.034   1.304  17.135  0.1360  0.6335  0.1497
 6093SOL    HW129738   2.123   1.334  17.154 -0.3181  0.4306  2.6359
 6093SOL    HW229739   1.986   1.384  17.113  0.8077  1.5752  2.0598
 6094SOL     OW29740   2.568   3.422  10.574  0.0428 -0.6392 -0.1381
 6094SOL    HW129741   2.502   3.366  10.533  1.0900 -2.2496  0.3845
 6094SOL    HW229742   2.515   3.472  10.636  1.0086  1.0229 -0.6366
 6095SOL     OW29743   1.824   4.377   7.291 -0.0323  0.1622 -0.1042
 6095SOL    HW129744   1.891   4.368   7.359  0.4897 -1.0534 -0.7786
 6095SOL    HW229745   1.811   4.284   7.276 -0.2834 -0.0365  1.3132
 6096SOL     OW29746   1.122   0.896   3.243 -0.4467  0.1087 -0.6819
 6096SOL    HW129747   1.111   0.802   3.257  1.2409 -0.1815 -1.2957
 6096SOL    HW229748   1.039   0.936   3.267 -0.2305 -0.3070  0.7560
 6097SOL     OW29749   4.015   3.822   7.044 -0.1377  0.3232 -0.1978
 6097SOL    HW129750   4.049   3.908   7.018 -0.4157 -0.2546 -2.4895
 6097SOL    HW229751   4.005   3.836   7.138  1.1219  0.7942 -0.1411
 6098SOL     OW29752   4.067   2.078   3.223  0.0473  0.3250 -0.4853
 6098SOL    HW129753   4.053   2.037   3.138  0.1218  1.2062 -0.9299
 6098SOL    HW229754   4.107   2.017   3.285 -0.8418  1.0378  0.7824
 6099SOL     OW29755   0.904   1.793   4.037 -0.7172  0.0427  0.4447
 6099SOL    HW129756   0.924   1.853   3.965  1.8093  1.1880  2.1066
 6099SOL    HW229757   0.815   1.762   4.020 -0.7171  0.1086  0.3233
 6100SOL     OW29758   2.636   3.751   1.752 -0.1561  0.5692 -0.1084
 6100SOL    HW129759   2.623   3.793   1.837 -3.0084 -0.6034  0.0225
 6100SOL    HW229760   2.550   3.778   1.722  0.7779  1.3797 -2.0716
 6101SOL     OW29761   2.597   2.219   7.688 -0.7721 -0.6085  0.0336
 6101SOL    HW129762   2.620   2.244   7.778  1.8038  0.3698 -0.9052
 6101SOL    HW229763   2.580   2.300   7.641  0.9287  0.0451  0.5196
 6102SOL     OW29764   3.473   3.641   4.520  0.2538  0.4660 -0.0311
 6102SOL    HW129765   3.456   3.606   4.607  1.3566  2.4423  0.9777
 6102SOL    HW229766   3.390   3.624   4.476  0.3818  1.2151 -0.5611
 6103SOL     OW29767   0.172   3.222   4.322  0.5875 -0.2454 -0.2993
 6103SOL    HW129768   0.217   3.141   4.299  1.5426  0.7957 -2.1599
 6103SOL    HW229769   0.147   3.257   4.236 -3.0247  0.7860  1.1665
 6104SOL     OW29770   2.428   3.273  13.236  0.2249 -0.9954 -0.0910
 6104SOL    HW129771   2.430   3.181  13.213  0.8492 -1.3903  1.5677
 6104SOL    HW229772   2.333   3.288  13.244  0.3375 -0.8822  0.9480
 6105SOL     OW29773   0.141   1.755   3.141  0.2592 -0.2289 -0.2414
 6105SOL    HW129774   0.109   1.743   3.230  1.0882  1.0366  0.2195
 6105SOL    HW229775   0.135   1.848   3.120  4.2265  0.0339 -0.2945
 6106SOL     OW29776   2.589   1.018   4.943  1.1131 -0.4191  0.4981
 6106SOL    HW129777   2.675   1.055   4.923  0.8267 -0.9259 -1.7884
 6106SOL    HW229778   2.585   1.039   5.036  1.8696  0.2801  0.3692
 6107SOL     OW29779   3.827   0.420   3.857  0.7835 -0.4828  0.2527
 6107SOL    HW129780   3.918   0.449   3.846  0.9833 -1.1808  0.0921
 6107SOL    HW229781   3.824   0.407   3.952  1.1823  1.7074  0.5762
 6108SOL     OW29782   2.145   0.075   4.134  0.1930 -0.8422  0.4068
 6108SOL    HW129783   2.122   4.704   4.121  1.7443 -0.9331 -1.6040
 6108SOL    HW229784   2.087   0.085   4.210  1.1791 -0.6028  1.1241
 6109SOL     OW29785   1.514   3.146   4.919 -0.3395  0.0244  0.1118
 6109SOL    HW129786   1.507   3.078   4.853 -3.5833 -0.6943  1.1612
 6109SOL    HW229787   1.427   3.133   4.958 -0.3428 -1.2631 -0.3179
 6110SOL     OW29788   3.474   0.759   4.928  0.4134  0.2473 -0.0572
 6110SOL    HW129789   3.387   0.795   4.944  0.8519  0.9725  0.6979
 6110SOL    HW229790   3.521   0.794   5.004  0.7111  2.1787 -1.1613
 6111SOL     OW29791   3.463   2.178   3.629  0.0463  0.1978 -0.3527
 6111SOL    HW129792   3.380   2.226   3.621 -0.8930 -1.3250  0.1708
 6111SOL    HW229793   3.480   2.192   3.722  0.8954  0.8356 -0.6100
 6112SOL     OW29794   3.967   3.425  14.921  0.2774 -0.2565 -0.4192
 6112SOL    HW129795   3.961   3.428  14.825 -0.0339  0.0376 -0.3909
 6112SOL    HW229796   3.878   3.455  14.938  0.1926 -0.0486 -1.2041
 6113SOL     OW29797   1.878   4.365  12.365 -0.4687 -0.0484 -0.0273
 6113SOL    HW129798   1.830   4.297  12.412  1.3228 -0.4274  1.2662
 6113SOL    HW229799   1.900   4.424  12.438 -0.8589  0.5010 -0.3526
 6114SOL     OW29800   2.956   3.242   2.646  0.0162 -0.5496  0.0502
 6114SOL    HW129801   2.991   3.191   2.719  0.8364  1.3712  0.9738
 6114SOL    HW229802   3.024   3.260   2.581  0.6097  0.8500  1.0654
 6115SOL     OW29803   2.398   0.819   2.545 -0.1405 -0.0917  0.3068
 6115SOL    HW129804   2.490   0.839   2.564  0.0063 -1.1834  0.7557
 6115SOL    HW229805   2.358   0.907   2.547 -0.5900 -0.3541  2.4426
 6116SOL     OW29806   2.021   4.326   8.433 -0.3348  0.0238 -0.2950
 6116SOL    HW129807   2.019   4.269   8.510 -0.8093  1.6514  0.9138
 6116SOL    HW229808   2.100   4.375   8.457  0.6810 -1.2593 -1.0451
 6117SOL     OW29809   1.165   0.592   2.729 -0.3630 -0.1445 -0.5824
 6117SOL    HW129810   1.194   0.631   2.811  0.9116  0.4775 -1.3273
 6117SOL    HW229811   1.234   0.530   2.705 -0.1688 -0.6722  1.3070
 6118SOL     OW29812   4.029   4.354   8.510  0.5781  0.4121  0.2856
 6118SOL    HW129813   4.074   4.321   8.587  3.4578 -0.3674 -1.7698
 6118SOL    HW229814   4.044   4.448   8.520 -0.7754  0.4912  1.6451
 6119SOL     OW29815   2.318   1.371  15.395  0.1346 -0.4146 -0.0567
 6119SOL    HW129816   2.389   1.412  15.444  0.2675  0.4848 -1.0042
 6119SOL    HW229817   2.246   1.396  15.452 -1.3336 -1.3129 -1.5158
 6120SOL     OW29818   0.750   2.030   4.551  0.5034  0.0145  0.4784
 6120SOL    HW129819   0.825   2.000   4.499 -0.6348 -1.5841 -0.2067
 6120SOL    HW229820   0.690   1.959   4.529  1.3297 -0.8460  0.9897
 6121SOL     OW29821   4.416   2.534  17.632  0.3878  0.2281 -0.4034
 6121SOL    HW129822   4.432   2.481  17.555  0.6618 -2.5547  1.5735
 6121SOL    HW229823   4.485   2.494  17.686 -0.2460  0.1835  0.3860
 6122SOL     OW29824   2.384   1.884   4.556 -0.1086 -0.0420  0.3235
 6122SOL    HW129825   2.348   1.947   4.617  1.5520  0.1123  1.1497
 6122SOL    HW229826   2.388   1.926   4.470  4.4122  1.3789  1.2335
 6123SOL     OW29827   4.571   0.818  15.191 -0.3249 -0.5125 -0.0856
 6123SOL    HW129828   4.570   0.825  15.286 -0.9091 -1.0497 -0.0500
 6123SOL    HW229829   4.522   0.897  15.168  0.2011 -0.3824 -0.7366
 6124SOL     OW29830   1.344   4.380   6.094  0.2151  0.6281 -0.3850
 6124SOL    HW129831   1.318   4.295   6.128 -0.0478  0.3171 -1.3684
 6124SOL    HW229832   1.294   4.443   6.147 -0.4923  0.8496 -1.3122
 6125SOL     OW29833   3.626   0.819   4.695  0.1181  0.3484  0.4757
 6125SOL    HW129834   3.554   0.869   4.734 -1.0338 -0.0110 -1.2001
 6125SOL    HW229835   3.606   0.729   4.720 -1.5637  0.5510 -0.1045
 6126SOL     OW29836   4.404   4.185   6.048  0.1253  0.1780  1.0247
 6126SOL    HW129837   4.408   4.152   5.958  2.6964  3.4337 -0.0267
 6126SOL    HW229838   4.458   4.123   6.097  0.4792 -1.9448 -1.9991
 6127SOL     OW29839   2.108   2.036   8.613  0.0810 -0.4909 -0.0085
 6127SOL    HW129840   2.046   1.964   8.614  0.4168 -0.7711  0.4289
 6127SOL    HW229841   2.107   2.065   8.704 -0.3995  0.7891 -0.4174
 6128SOL     OW29842   3.167   1.065  10.639  0.2670 -0.1980 -0.8533
 6128SOL    HW129843   3.134   0.977  10.620  1.4751 -1.2722  2.0218
 6128SOL    HW229844   3.197   1.079  10.550  0.5288  1.3927 -0.5080
 6129SOL     OW29845   0.294   3.153   3.239 -0.4781  0.2718 -0.2656
 6129SOL    HW129846   0.379   3.147   3.283 -0.7066  0.6908  0.2253
 6129SOL    HW229847   0.238   3.110   3.303  0.2034  1.2669  0.9968
 6130SOL     OW29848   1.354   1.060  11.237  0.0320 -0.1057  0.5931
 6130SOL    HW129849   1.289   1.053  11.307 -2.7689  0.8948 -1.8923
 6130SOL    HW229850   1.420   1.117  11.278 -0.2683 -0.7139  1.9121
 6131SOL     OW29851   2.446   0.601  12.368 -0.2725  0.0349  0.1083
 6131SOL    HW129852   2.465   0.512  12.398  0.1980 -0.4342 -1.5891
 6131SOL    HW229853   2.424   0.644  12.451  0.9143  1.8684 -0.5202
 6132SOL     OW29854   3.147   4.275   2.472  0.2048 -0.2006  0.1074
 6132SOL    HW129855   3.147   4.371   2.470  0.9279 -0.1775  1.2334
 6132SOL    HW229856   3.227   4.267   2.524  1.5390 -0.0774 -1.9215
 6133SOL     OW29857   1.650   0.403  11.905 -0.9367  0.1805  0.6676
 6133SOL    HW129858   1.720   0.422  11.841 -1.7453 -0.0730 -0.2901
 6133SOL    HW229859   1.703   0.365  11.975  2.1039 -0.1119 -1.7407
 6134SOL     OW29860   3.351   2.940   5.580 -0.0208  0.0601 -0.3404
 6134SOL    HW129861   3.330   2.888   5.502  1.4115 -1.3660  0.2155
 6134SOL    HW229862   3.405   2.872   5.622  0.2016 -0.3071 -1.2152
 6135SOL     OW29863   3.711   3.772   4.780 -0.4910 -0.2421  0.1795
 6135SOL    HW129864   3.697   3.690   4.733 -1.5692 -0.7089  1.3245
 6135SOL    HW229865   3.624   3.788   4.817 -1.7361  0.2242 -2.9090
 6136SOL     OW29866   4.478   0.516   4.986  0.0037 -0.0676  0.2828
 6136SOL    HW129867   4.509   0.436   5.029 -0.6316 -0.3255  0.2614
 6136SOL    HW229868   4.564   0.558   4.978 -1.3899  2.7116  0.1631
 6137SOL     OW29869   2.756   0.671   3.983  0.4803 -0.0938  0.5721
 6137SOL    HW129870   2.695   0.659   4.056 -0.9736  0.8032 -0.5030
 6137SOL    HW229871   2.763   0.765   3.966 -0.2444 -0.6220 -2.5974
 6138SOL     OW29872   3.183   3.346  12.020 -0.0834 -0.0547 -0.3016
 6138SOL    HW129873   3.163   3.402  11.945  0.9961 -0.2393 -0.7134
 6138SOL    HW229874   3.095   3.327  12.054 -0.3605  1.4509 -0.1661
 6139SOL     OW29875   3.778   1.553   8.283 -0.0306 -0.0221  0.1042
 6139SOL    HW129876   3.872   1.559   8.298  0.0762 -1.4997 -0.0046
 6139SOL    HW229877   3.771   1.547   8.187 -2.6662  2.6277  0.1138
 6140SOL     OW29878   1.192   3.083   4.977 -0.6432  0.0803 -0.1385
 6140SOL    HW129879   1.100   3.055   4.983 -0.1901 -1.6457 -1.1306
 6140SOL    HW229880   1.187   3.132   4.895  1.1568  0.2889 -0.1117
 6141SOL     OW29881   0.611   4.270  12.273  0.3744  0.4989 -0.1413
 6141SOL    HW129882   0.546   4.219  12.226 -0.1004 -0.2371  1.3031
 6141SOL    HW229883   0.580   4.252  12.362  1.5121  0.5545  0.2694
 6142SOL     OW29884   2.256   1.917   0.460  0.2785  0.5691  0.0588
 6142SOL    HW129885   2.351   1.905   0.458  0.0314 -1.4572 -0.2125
 6142SOL    HW229886   2.254   2.011   0.445 -1.1238  0.1631 -2.2620
 6143SOL     OW29887   3.103   2.512   6.048  0.1828  0.1823 -0.0448
 6143SOL    HW129888   3.099   2.423   6.013  0.5867 -0.8653  2.5242
 6143SOL    HW229889   3.198   2.523   6.041  0.2226 -0.0900  0.0600
 6144SOL     OW29890   0.195   3.948   1.406  0.1877  0.2374  0.0611
 6144SOL    HW129891   0.223   4.039   1.417  1.6072 -0.3400  1.0419
 6144SOL    HW229892   0.133   3.950   1.333  0.7691 -0.2235 -0.4426
 6145SOL     OW29893   0.606   2.537   1.033 -0.6346 -0.0408 -0.4073
 6145SOL    HW129894   0.535   2.595   1.059  0.1650  0.9199 -0.3425
 6145SOL    HW229895   0.640   2.574   0.951  1.2295 -0.1693  0.2939
 6146SOL     OW29896   3.166   2.949  12.876  0.1354 -0.2989 -0.6305
 6146SOL    HW129897   3.240   2.997  12.915  0.5089 -0.2264 -1.4113
 6146SOL    HW229898   3.132   3.018  12.819 -1.6090  0.2517  1.0805
 6147SOL     OW29899   4.079   3.482  13.971 -0.1373  0.1157 -0.6471
 6147SOL    HW129900   4.138   3.406  13.976 -1.2040 -0.5305  2.6062
 6147SOL    HW229901   4.091   3.531  14.053 -1.4082 -0.5832 -0.0404
 6148SOL     OW29902   2.688   0.074   7.778  0.2420 -0.7205 -0.0484
 6148SOL    HW129903   2.663   4.703   7.789  2.9603 -1.4687  0.0646
 6148SOL    HW229904   2.768   0.056   7.728 -0.2834 -0.9249 -0.8138
 6149SOL     OW29905   1.005   2.445   6.845 -0.0352 -0.0702 -0.2695
 6149SOL    HW129906   1.020   2.509   6.776 -2.1302 -0.2981 -0.9482
 6149SOL    HW229907   1.022   2.495   6.924 -1.7793 -0.7061  0.5053
 6150SOL     OW29908   0.526   1.771   5.308  0.1637 -0.4634  0.1113
 6150SOL    HW129909   0.488   1.855   5.284 -1.5165 -1.7351 -1.6597
 6150SOL    HW229910   0.609   1.784   5.263  0.0667  0.8351  0.2956
 6151SOL     OW29911   1.327   0.112   4.887 -0.3235  0.2715  0.4105
 6151SOL    HW129912   1.256   0.138   4.828 -0.5452 -0.1480  0.4906
 6151SOL    HW229913   1.324   0.017   4.878 -0.6311  0.4938 -2.0056
 6152SOL     OW29914   2.082   0.984   5.657 -0.8716  0.7162 -0.2607
 6152SOL    HW129915   2.043   0.965   5.743 -0.2777 -1.0907 -0.3940
 6152SOL    HW229916   2.010   1.034   5.619 -3.2107 -1.7512  0.8613
 6153SOL     OW29917   1.415   3.992   9.029  0.4187 -0.5198  0.2296
 6153SOL    HW129918   1.488   4.034   9.074  1.1475 -0.7109 -0.7864
 6153SOL    HW229919   1.364   3.966   9.106  1.6203  2.5677  2.0740
 6154SOL     OW29920   1.208   3.295   8.151  0.1789  0.0840 -0.1883
 6154SOL    HW129921   1.193   3.326   8.062 -1.3871 -2.5450 -0.8275
 6154SOL    HW229922   1.247   3.213   8.123 -0.8837 -1.2053  2.0382
 6155SOL     OW29923   1.955   0.689  10.232 -0.2801 -0.0517  0.0016
 6155SOL    HW129924   2.033   0.668  10.283  0.0817  0.9229 -0.1548
 6155SOL    HW229925   1.907   0.720  10.308  1.2064 -2.5089  1.9168
 6156SOL     OW29926   3.676   1.746   6.315  0.2732 -0.2335 -0.3088
 6156SOL    HW129927   3.737   1.811   6.281  0.6218 -0.2728  0.2434
 6156SOL    HW229928   3.668   1.770   6.408 -1.6742 -0.8831 -0.3037
 6157SOL     OW29929   3.575   0.397   4.117  0.0181  0.5472 -0.4891
 6157SOL    HW129930   3.517   0.321   4.123  1.6837 -0.7570 -1.1620
 6157SOL    HW229931   3.658   0.351   4.127 -0.1732  0.4938  0.8880
 6158SOL     OW29932   2.142   1.367   8.482 -1.0315 -0.5577  0.1351
 6158SOL    HW129933   2.137   1.272   8.474 -1.0382 -0.6647  1.4687
 6158SOL    HW229934   2.056   1.397   8.452 -0.4020 -0.0290 -1.1398
 6159SOL     OW29935   3.673   4.214  15.160 -0.3065 -0.2556 -0.0201
 6159SOL    HW129936   3.735   4.285  15.178 -0.3138 -1.1688  3.6028
 6159SOL    HW229937   3.703   4.159  15.233  1.1317 -0.2842 -0.6201
 6160SOL     OW29938   4.312   0.836   4.364  0.0472  0.2936 -0.0627
 6160SOL    HW129939   4.298   0.778   4.290  1.0121  1.7264 -1.3672
 6160SOL    HW229940   4.316   0.920   4.318  1.4974 -0.2731 -0.9462
 6161SOL     OW29941   1.954   0.234   5.238  0.0497  0.2377 -0.5066
 6161SOL    HW129942   2.045   0.248   5.211 -0.9675  3.4063 -2.3404
 6161SOL    HW229943   1.907   0.284   5.171  1.2022  1.5506 -0.3377
 6162SOL     OW29944   1.492   0.425  17.416  0.3262  0.0253 -0.3397
 6162SOL    HW129945   1.515   0.447  17.506  1.0156 -1.2449 -0.2082
 6162SOL    HW229946   1.446   0.343  17.429 -1.8630  1.4473  0.8052
 6163SOL     OW29947   0.422   4.291  16.755 -0.0401  0.4848  0.0662
 6163SOL    HW129948   0.358   4.358  16.778  2.1384  2.0140  1.7314
 6163SOL    HW229949   0.484   4.294  16.828 -0.2764  2.8125  0.1482
 6164SOL     OW29950   0.784   0.602   7.800  0.0696  0.6279 -0.2272
 6164SOL    HW129951   0.845   0.539   7.763  1.6358  2.1955 -0.3055
 6164SOL    HW229952   0.739   0.544   7.862  0.2695 -0.6294 -1.2614
 6165SOL     OW29953   3.205   4.044   3.647  0.0896 -0.2430  0.0287
 6165SOL    HW129954   3.258   4.119   3.620 -0.0283  0.6726  2.3951
 6165SOL    HW229955   3.276   3.985   3.673  0.8646 -0.7999 -3.2521
 6166SOL     OW29956   0.157   2.796   1.318  0.1950  0.6947  0.0724
 6166SOL    HW129957   0.080   2.746   1.289  1.9625 -0.4693 -2.6219
 6166SOL    HW229958   0.134   2.810   1.410  1.5047  0.7746  0.3887
 6167SOL     OW29959   2.384   4.578   8.885 -0.0174  0.4598 -0.1274
 6167SOL    HW129960   2.382   4.523   8.963 -2.6029  0.6552 -0.0617
 6167SOL    HW229961   2.478   4.593   8.876 -0.4843  3.3891 -0.2283
 6168SOL     OW29962   2.878   3.780   8.835  0.0838  0.5979  0.3390
 6168SOL    HW129963   2.790   3.811   8.854  0.7935  1.7065  1.9048
 6168SOL    HW229964   2.935   3.858   8.838  0.7990  0.1476 -1.6079
 6169SOL     OW29965   3.462   2.095   1.153  0.0566  0.3448  0.3173
 6169SOL    HW129966   3.453   2.054   1.067  2.5997  2.7522 -1.1052
 6169SOL    HW229967   3.552   2.070   1.175  0.0168  1.1788  1.4026
 6170SOL     OW29968   1.734   4.225   3.190 -0.3492  0.0569  0.3168
 6170SOL    HW129969   1.788   4.146   3.182  1.0576  1.4302 -3.6929
 6170SOL    HW229970   1.740   4.249   3.097  1.4918 -1.9398 -0.1013
 6171SOL     OW29971   1.144   4.313   0.314 -0.7891  0.0740  0.3790
 6171SOL    HW129972   1.235   4.339   0.300 -0.7315 -0.6555 -0.5769
 6171SOL    HW229973   1.149   4.269   0.399  2.4364  0.6983  0.5143
 6172SOL     OW29974   3.022   3.137   2.266 -0.6999  0.5524 -0.2219
 6172SOL    HW129975   3.058   3.070   2.323 -0.5453  2.5327  2.0498
 6172SOL    HW229976   3.029   3.214   2.323 -0.3924  0.6538 -0.3964
 6173SOL     OW29977   2.176   3.258   2.891 -0.3000  0.1292  0.2535
 6173SOL    HW129978   2.217   3.199   2.828 -1.0656  1.2955 -1.3454
 6173SOL    HW229979   2.094   3.273   2.844 -0.5656  0.5796  0.8720
 6174SOL     OW29980   0.987   0.698   7.418 -0.3836 -0.4198  0.3314
 6174SOL    HW129981   1.059   0.750   7.382 -0.2222 -0.3278  0.7807
 6174SOL    HW229982   1.003   0.720   7.510  0.6069  3.4601 -0.7686
 6175SOL     OW29983   3.376   1.830   6.756 -0.2538 -0.0069  0.2068
 6175SOL    HW129984   3.339   1.780   6.683 -0.6612  0.9228 -0.2125
 6175SOL    HW229985   3.409   1.756   6.807  2.4919  0.1312 -1.3954
 6176SOL     OW29986   0.154   3.643   3.044  0.1305 -0.3608 -0.8047
 6176SOL    HW129987   0.215   3.597   3.101 -0.3437 -1.1977 -0.9778
 6176SOL    HW229988   0.069   3.605   3.065  0.5084 -1.7321 -1.7494
 6177SOL     OW29989   4.031   2.841   3.820  0.5271  0.2784 -0.6720
 6177SOL    HW129990   4.097   2.806   3.761  0.1416 -0.2446 -0.7937
 6177SOL    HW229991   4.061   2.932   3.819  1.2867  0.0371  1.5818
 6178SOL     OW29992   1.374   3.671   7.295 -0.1355  0.1968 -0.5040
 6178SOL    HW129993   1.311   3.728   7.249 -0.7885 -0.6189 -0.6220
 6178SOL    HW229994   1.341   3.589   7.257  0.4651  0.3109 -1.2698
 6179SOL     OW29995   2.998   1.815  11.423 -0.7967  0.4468  0.3527
 6179SOL    HW129996   2.940   1.864  11.365 -1.0907 -0.5231 -0.1682
 6179SOL    HW229997   3.049   1.757  11.366 -0.2589 -0.6832  1.9536
 6180SOL     OW29998   2.770   4.593   5.392 -0.3660  0.9068  0.3720
 6180SOL    HW129999   2.723   4.554   5.466 -1.0718 -0.0629 -0.5687
 6180SOL    HW230000   2.739   4.560   5.307 -0.6744  0.9002  0.4857
 6181SOL     OW30001   3.967   1.241  11.825 -0.9094 -0.1994  0.0676
 6181SOL    HW130002   4.033   1.237  11.756  1.0091 -0.8861  1.9562
 6181SOL    HW230003   3.953   1.147  11.837 -0.9218  0.0715  2.1665
 6182SOL     OW30004   0.236   1.968   6.609  0.0373  0.7069  0.2916
 6182SOL    HW130005   0.324   1.948   6.579 -0.2700 -1.1749  0.6051
 6182SOL    HW230006   0.198   1.880   6.613  1.8049 -0.0795 -0.4772
 6183SOL     OW30007   3.885   1.869  15.522 -0.4614 -0.0633 -0.1103
 6183SOL    HW130008   3.814   1.905  15.575  0.9723  1.4387  0.7729
 6183SOL    HW230009   3.848   1.872  15.433  0.4402 -0.8808 -0.5124
 6184SOL     OW30010   0.654   1.765   6.504  0.2951 -0.2933 -0.2111
 6184SOL    HW130011   0.606   1.728   6.430  0.2891 -0.5395 -0.0861
 6184SOL    HW230012   0.594   1.831   6.536  0.4814  0.0991 -0.6719
 6185SOL     OW30013   0.548   2.391  15.183  0.1099  0.1603 -0.2515
 6185SOL    HW130014   0.605   2.398  15.260 -1.8410  1.0595  1.1060
 6185SOL    HW230015   0.589   2.311  15.151 -0.4214  0.1814 -0.9875
 6186SOL     OW30016   1.179   0.444   5.240 -0.0103 -0.2450  0.0458
 6186SOL    HW130017   1.216   0.456   5.328 -0.9653 -1.3271  0.5854
 6186SOL    HW230018   1.193   0.351   5.224 -0.0808  0.1405 -2.1754
 6187SOL     OW30019   0.258   3.999  15.428  0.1453 -0.3528  0.2567
 6187SOL    HW130020   0.203   3.921  15.427 -0.7709  0.3165 -0.7378
 6187SOL    HW230021   0.338   3.949  15.411  0.2256 -0.3617  0.6475
 6188SOL     OW30022   1.350   2.138   2.970 -0.0224  0.3032 -0.3727
 6188SOL    HW130023   1.389   2.122   3.055 -3.0640 -0.9578  0.7917
 6188SOL    HW230024   1.311   2.050   2.963 -0.4548  0.3348  1.9489
 6189SOL     OW30025   2.736   3.797   1.359  0.5855 -0.3294 -0.3015
 6189SOL    HW130026   2.659   3.752   1.326  0.8951 -0.0636 -1.3954
 6189SOL    HW230027   2.774   3.729   1.414  1.5928 -0.2621 -0.9099
 6190SOL     OW30028   2.699   1.573   3.582 -0.2766  0.3692  0.3511
 6190SOL    HW130029   2.701   1.484   3.545 -0.9985 -0.1487  1.5356
 6190SOL    HW230030   2.754   1.625   3.524  0.3394  1.9988  2.3965
 6191SOL     OW30031   0.982   3.224   7.355  0.1472 -0.1080  0.2975
 6191SOL    HW130032   0.945   3.177   7.429  1.1316 -1.9735 -0.3942
 6191SOL    HW230033   1.017   3.298   7.405 -1.1701  1.0098 -0.4259
 6192SOL     OW30034   3.676   2.497  13.065 -0.2750 -0.4029 -0.0205
 6192SOL    HW130035   3.733   2.455  13.001  1.4334 -0.3590  1.4973
 6192SOL    HW230036   3.596   2.493  13.012 -0.2675 -1.1800  0.0342
 6193SOL     OW30037   3.713   2.880   7.589  0.6365 -0.2979  0.2391
 6193SOL    HW130038   3.760   2.944   7.642 -0.3427  1.0041 -0.4773
 6193SOL    HW230039   3.777   2.811   7.568  1.3147  0.5696 -0.5087
 6194SOL     OW30040   1.697   0.618   8.007  0.1137  0.3400 -0.6595
 6194SOL    HW130041   1.685   0.607   7.913 -2.3883 -0.0584 -0.2998
 6194SOL    HW230042   1.757   0.693   8.008  0.6035 -0.0471 -0.9355
 6195SOL     OW30043   3.528   0.547   3.906  0.4166  0.0025  0.1728
 6195SOL    HW130044   3.577   0.479   3.952 -0.7031 -1.6095 -1.0328
 6195SOL    HW230045   3.443   0.542   3.950 -0.0658 -1.1816 -0.8988
 6196SOL     OW30046   1.256   1.185   8.869 -0.6413  0.0545  0.3891
 6196SOL    HW130047   1.313   1.164   8.795 -2.6282 -0.6698 -0.9592
 6196SOL    HW230048   1.269   1.098   8.907  1.4285 -0.3843 -1.3244
 6197SOL     OW30049   0.020   2.901   7.910  0.5093 -0.2329  0.0708
 6197SOL    HW130050   4.681   2.851   7.966 -0.1937  1.8960  1.2017
 6197SOL    HW230051   0.022   2.845   7.833 -1.9554 -1.8299  1.1249
 6198SOL     OW30052   3.116   3.588   5.070 -0.8375 -0.0823 -0.0725
 6198SOL    HW130053   3.197   3.547   5.039 -0.2730 -0.2848  1.6355
 6198SOL    HW230054   3.127   3.592   5.166 -1.2153 -1.4765  0.0181
 6199SOL     OW30055   1.226   4.341   7.842  0.5239  0.0824  0.4282
 6199SOL    HW130056   1.196   4.253   7.818  2.2145 -1.1082  2.7035
 6199SOL    HW230057   1.272   4.365   7.761 -3.4087 -1.8876 -2.4090
 6200SOL     OW30058   3.433   1.775   4.643  0.2052 -0.0256  0.1451
 6200SOL    HW130059   3.407   1.815   4.726  1.5822  0.7744  0.1820
 6200SOL    HW230060   3.398   1.839   4.580 -3.8995 -1.9823  0.4044
 6201SOL     OW30061   2.604   3.624   6.753  0.6054  0.3250  0.4807
 6201SOL    HW130062   2.668   3.611   6.682 -0.8722  0.4936 -0.8858
 6201SOL    HW230063   2.519   3.600   6.715  1.3060  0.2331 -1.0329
 6202SOL     OW30064   3.120   1.359  16.937  0.8861  0.2674  0.5930
 6202SOL    HW130065   3.204   1.333  16.976 -0.5625 -2.5575  1.8459
 6202SOL    HW230066   3.081   1.272  16.935  1.1301  0.1221  2.6938
 6203SOL     OW30067   3.054   3.981   0.363  0.1764 -0.2483 -0.4830
 6203SOL    HW130068   3.136   3.947   0.328 -0.1568 -2.0299  0.4610
 6203SOL    HW230069   3.042   4.050   0.299 -1.0324  0.2454  0.2724
 6204SOL     OW30070   2.868   2.258   7.435  0.4470  0.1641 -0.0831
 6204SOL    HW130071   2.801   2.201   7.397  1.7502 -0.1178 -1.9682
 6204SOL    HW230072   2.848   2.340   7.389  1.3525 -0.5111 -1.6794
 6205SOL     OW30073   0.393   3.254  15.797  0.2287 -0.6214  0.0829
 6205SOL    HW130074   0.418   3.300  15.877 -0.7975  0.3106 -0.1222
 6205SOL    HW230075   0.368   3.171  15.838 -0.5646 -1.2243 -1.6335
 6206SOL     OW30076   0.989   1.851  13.692 -0.5974 -0.5253 -0.2148
 6206SOL    HW130077   1.056   1.887  13.750 -0.7791  1.0974 -1.0128
 6206SOL    HW230078   0.991   1.758  13.715  0.2659  0.0813  2.1308
 6207SOL     OW30079   2.734   2.344  17.387  0.0668  0.5703  0.4746
 6207SOL    HW130080   2.768   2.376  17.304  0.3651  1.1868  0.8325
 6207SOL    HW230081   2.794   2.276  17.416  1.1265  1.4937  0.4624
 6208SOL     OW30082   3.332   3.040   8.434 -0.3819  0.1716  0.2457
 6208SOL    HW130083   3.424   3.066   8.429 -0.4395 -0.0790 -2.0579
 6208SOL    HW230084   3.335   3.007   8.524 -0.0567  0.5806  0.3835
 6209SOL     OW30085   4.340   2.382   4.123  0.5167  0.1658  0.2699
 6209SOL    HW130086   4.263   2.396   4.069  0.1442  0.7725  0.9513
 6209SOL    HW230087   4.350   2.288   4.113 -0.2568  0.1996 -0.7886
 6210SOL     OW30088   0.906   2.711   4.631  0.2145  0.3101 -0.3684
 6210SOL    HW130089   0.868   2.656   4.699  2.2428 -0.1766  0.3810
 6210SOL    HW230090   0.957   2.780   4.674  0.2849 -0.7248  1.2022
 6211SOL     OW30091   3.776   0.975  12.386 -0.1591 -0.3121 -0.1524
 6211SOL    HW130092   3.739   0.973  12.475  0.8304 -3.7739  0.1504
 6211SOL    HW230093   3.853   1.030  12.398 -0.3352 -0.5380  2.0723
 6212SOL     OW30094   3.113   3.481  10.873  0.6508 -0.2273 -0.1204
 6212SOL    HW130095   3.147   3.515  10.956  1.0842 -0.9668  0.0078
 6212SOL    HW230096   3.192   3.458  10.824  0.9321 -0.7508  0.5658
 6213SOL     OW30097   1.507   2.917   5.770  0.0272 -0.6385 -0.3096
 6213SOL    HW130098   1.413   2.907   5.787  0.9110 -4.2450  2.5180
 6213SOL    HW230099   1.491   2.954   5.683  0.3866 -1.4844 -0.7316
 6214SOL     OW30100   0.387   1.886   8.941  0.5364  0.0606 -0.0500
 6214SOL    HW130101   0.374   1.923   8.853 -2.5622 -1.5250 -0.2522
 6214SOL    HW230102   0.362   1.963   8.991  1.6017  0.0131  0.5717
 6215SOL     OW30103   4.240   3.944   3.993 -0.1356  0.2811 -0.3718
 6215SOL    HW130104   4.227   4.036   4.018 -1.7593 -0.2955  0.8685
 6215SOL    HW230105   4.264   3.908   4.079  1.0389  1.3923 -0.2391
 6216SOL     OW30106   0.355   0.934   5.400 -0.0633  0.0707 -0.1112
 6216SOL    HW130107   0.326   1.011   5.449 -1.0936 -1.6423  1.9664
 6216SOL    HW230108   0.386   0.976   5.320 -1.3217  1.2386  0.0110
 6217SOL     OW30109   0.132   0.138  15.788 -0.1575 -0.2801 -0.5534
 6217SOL    HW130110   0.137   0.222  15.832 -2.8507 -0.6627  0.4403
 6217SOL    HW230111   0.160   0.079  15.858  2.8692  2.7039  0.7528
 6218SOL     OW30112   1.772   3.813   8.396 -0.2256  0.1460  0.1530
 6218SOL    HW130113   1.747   3.819   8.488 -0.1378  1.6020  0.0707
 6218SOL    HW230114   1.767   3.905   8.372  0.0681 -0.1014 -0.8732
 6219SOL     OW30115   1.328   2.907   3.839  0.2054  0.3846  0.4626
 6219SOL    HW130116   1.323   2.918   3.934  0.6013 -1.6767  0.7217
 6219SOL    HW230117   1.417   2.876   3.822  0.5194  0.0368  2.7260
 6220SOL     OW30118   0.268   3.283   9.566  0.3949 -0.0760  0.3476
 6220SOL    HW130119   0.313   3.256   9.486 -0.5221  0.2462 -0.2840
 6220SOL    HW230120   0.252   3.196   9.603  1.1499 -1.2182 -1.9586
 6221SOL     OW30121   4.321   4.623  16.413 -0.4548  0.0446 -0.8453
 6221SOL    HW130122   4.344   4.650  16.324 -0.2446  0.9864 -0.5101
 6221SOL    HW230123   4.297   4.531  16.404  1.6651 -0.6602  0.6475
 6222SOL     OW30124   1.760   3.803   1.821 -0.5427 -0.4034  0.4708
 6222SOL    HW130125   1.849   3.815   1.790 -0.3990 -0.4092  0.8858
 6222SOL    HW230126   1.722   3.793   1.734  1.5550 -1.2313 -0.3391
 6223SOL     OW30127   2.913   2.149  16.249  0.1979 -0.3181  0.0618
 6223SOL    HW130128   2.869   2.071  16.283  1.1271 -0.7929  0.1514
 6223SOL    HW230129   2.885   2.214  16.314  2.0786  1.7910 -1.2175
 6224SOL     OW30130   2.962   4.079   4.981  0.2499  0.0496  0.7258
 6224SOL    HW130131   2.969   4.135   4.904 -2.2842 -0.0556  0.4178
 6224SOL    HW230132   2.877   4.109   5.012  0.3715 -0.4564  1.5359
 6225SOL     OW30133   0.286   2.794   7.915 -0.4101 -0.5284 -0.3001
 6225SOL    HW130134   0.291   2.811   8.009  1.7139  1.1422 -0.7270
 6225SOL    HW230135   0.218   2.856   7.887 -1.1985 -1.0690  0.3842
 6226SOL     OW30136   3.196   1.648   5.467 -0.1401  0.0330  0.3264
 6226SOL    HW130137   3.130   1.709   5.500 -0.5315 -0.0539 -0.2933
 6226SOL    HW230138   3.146   1.568   5.483  0.7138 -0.7927 -1.1701
 6227SOL     OW30139   4.435   0.675   3.923 -0.0284  0.5108  0.0571
 6227SOL    HW130140   4.452   0.745   3.860  1.0729 -1.9269 -2.3432
 6227SOL    HW230141   4.353   0.698   3.966 -1.6582 -2.2197 -1.5868
 6228SOL     OW30142   4.544   3.204   3.935  0.0732 -0.0011  0.0948
 6228SOL    HW130143   4.529   3.114   3.904 -0.8513 -0.8688  3.0945
 6228SOL    HW230144   4.457   3.243   3.930 -0.3159 -0.7174  1.3631
 6229SOL     OW30145   4.237   1.402   5.869 -0.8283  0.2267 -0.1330
 6229SOL    HW130146   4.197   1.481   5.832 -1.6608  0.4962  1.3317
 6229SOL    HW230147   4.238   1.420   5.963  1.0306  0.5134 -0.2192
 6230SOL     OW30148   1.277   0.428   4.776 -0.3407  0.5479 -0.1485
 6230SOL    HW130149   1.314   0.422   4.864  2.3202 -0.3980 -1.3436
 6230SOL    HW230150   1.186   0.441   4.803 -0.2823 -2.2167  1.3500
 6231SOL     OW30151   2.096   3.103   6.469  0.6957  0.0000 -0.7854
 6231SOL    HW130152   2.043   3.161   6.523  2.9563  1.1593  0.1977
 6231SOL    HW230153   2.108   3.154   6.389  2.2214 -0.5127 -0.8789
 6232SOL     OW30154   1.355   1.518   6.066  0.2413 -0.4415 -0.5186
 6232SOL    HW130155   1.285   1.458   6.042 -1.1127 -0.8000  4.5088
 6232SOL    HW230156   1.424   1.462   6.101 -1.1030 -0.1057  2.6066
 6233SOL     OW30157   1.293   3.663   3.690  0.2948  0.4303 -0.3433
 6233SOL    HW130158   1.278   3.598   3.622 -0.4773  0.1510  0.0903
 6233SOL    HW230159   1.246   3.626   3.765  0.8686  0.5648  0.0857
 6234SOL     OW30160   0.776   4.474   2.569 -0.3794  0.1218  0.1542
 6234SOL    HW130161   0.851   4.534   2.567 -0.6189  0.3979 -0.4570
 6234SOL    HW230162   0.777   4.432   2.483 -1.1352  1.9262 -0.7295
 6235SOL     OW30163   4.657   0.342   3.753 -0.6000 -0.0316  0.1074
 6235SOL    HW130164   4.618   0.285   3.820 -0.6980  0.3054  0.3391
 6235SOL    HW230165   4.669   0.412   3.817 -3.7486  0.1016  0.5392
 6236SOL     OW30166   4.236   1.992   6.949 -0.1188 -0.1871  0.2836
 6236SOL    HW130167   4.326   1.974   6.976 -0.9568 -5.5320 -0.4127
 6236SOL    HW230168   4.241   2.087   6.938 -1.0274 -0.4510 -2.4341
 6237SOL     OW30169   1.242   2.936   5.741  0.3147  0.0089  0.1776
 6237SOL    HW130170   1.177   3.006   5.747  1.1684  0.9431 -1.3019
 6237SOL    HW230171   1.234   2.908   5.650  0.5210  2.6706 -0.6535
 6238SOL     OW30172   1.969   2.942  13.712  0.1777 -0.1605 -0.3287
 6238SOL    HW130173   2.011   3.018  13.753 -2.6225  0.4408  1.4055
 6238SOL    HW230174   1.950   2.984  13.627 -0.2616  0.0104 -0.1426
 6239SOL     OW30175   1.821   2.614   2.151  0.1694  0.0592 -0.4247
 6239SOL    HW130176   1.836   2.525   2.117 -2.3765 -0.0998 -1.1254
 6239SOL    HW230177   1.778   2.647   2.071  1.2087 -2.1494 -1.9095
 6240SOL     OW30178   1.977   1.882  11.019 -0.0608  0.3125 -0.2864
 6240SOL    HW130179   2.009   1.844  10.937  0.2255 -1.7359  0.7793
 6240SOL    HW230180   2.015   1.970  11.022 -1.1100  0.6691  2.8428
 6241SOL     OW30181   4.531   3.177  15.977  0.1456 -0.4523 -0.2998
 6241SOL    HW130182   4.506   3.089  15.949 -3.2846  0.8694 -1.4705
 6241SOL    HW230183   4.472   3.227  15.920 -1.8428 -0.9807  1.2635
 6242SOL     OW30184   1.553   4.708   6.027  0.0235 -0.1511 -0.4531
 6242SOL    HW130185   1.594   4.643   6.084  1.1484 -0.1231 -1.2407
 6242SOL    HW230186   1.497   0.034   6.089 -0.5192 -0.2401 -0.8700
 6243SOL     OW30187   0.486   0.802   6.526 -0.4025 -0.1434  0.4442
 6243SOL    HW130188   0.573   0.806   6.486 -0.8496  0.7930 -0.4340
 6243SOL    HW230189   0.449   0.889   6.511 -1.1130 -0.4308  0.5398
 6244SOL     OW30190   4.540   0.138   3.187 -0.1025  0.2002 -0.2773
 6244SOL    HW130191   4.592   0.148   3.107  0.6944 -1.4269  0.0466
 6244SOL    HW230192   4.506   0.227   3.189 -2.3146 -0.6310 -1.3286
 6245SOL     OW30193   2.067   2.034   7.234 -0.0094 -0.0220 -0.4754
 6245SOL    HW130194   2.030   1.948   7.213  0.9154 -0.8888  1.4426
 6245SOL    HW230195   2.142   2.027   7.176  1.7937 -1.7112  2.0973
 6246SOL     OW30196   1.251   2.890   7.328 -0.4402 -0.8409 -0.0302
 6246SOL    HW130197   1.339   2.922   7.310 -0.7750 -1.4118 -2.7114
 6246SOL    HW230198   1.202   2.963   7.290  1.6458  0.8532  0.5860
 6247SOL     OW30199   2.310   0.854  15.914 -0.3945  0.3660 -0.4743
 6247SOL    HW130200   2.305   0.848  15.818 -0.9501 -0.8335 -0.3612
 6247SOL    HW230201   2.307   0.761  15.934  0.1532  0.8636  1.9015
 6248SOL     OW30202   0.901   4.546   4.937 -0.1325 -0.0850  0.2839
 6248SOL    HW130203   0.864   4.499   5.012  0.4167 -0.0136  0.5947
 6248SOL    HW230204   0.981   4.586   4.971 -0.8323  1.8837 -0.3833
 6249SOL     OW30205   1.016   0.608   0.959  0.0685 -0.1358  1.0960
 6249SOL    HW130206   1.057   0.533   0.916 -1.2361 -0.8502  1.0991
 6249SOL    HW230207   1.087   0.672   0.967 -1.3556  1.4462  1.0820
 6250SOL     OW30208   2.377   0.908   9.169 -0.0114  0.1617 -0.1934
 6250SOL    HW130209   2.318   0.848   9.215  1.4482  0.0868  1.5362
 6250SOL    HW230210   2.451   0.853   9.143  0.4160 -0.0194  1.4168
 6251SOL     OW30211   1.866   0.638   4.363 -0.2747  0.5614 -0.1511
 6251SOL    HW130212   1.929   0.682   4.305  1.4387 -0.7318  0.7301
 6251SOL    HW230213   1.785   0.655   4.314 -1.4954  0.8932  2.0019
 6252SOL     OW30214   0.687   1.094   7.894  0.1799 -0.2429  0.0580
 6252SOL    HW130215   0.777   1.127   7.896  0.1364  0.1635 -3.2045
 6252SOL    HW230216   0.677   1.050   7.809  0.2471 -1.7499  0.8492
 6253SOL     OW30217   1.362   4.087   0.857  0.3291  0.4630 -0.1249
 6253SOL    HW130218   1.445   4.131   0.834  1.5057 -1.9656 -0.5214
 6253SOL    HW230219   1.401   4.037   0.928 -1.2223  1.0355  1.1271
 6254SOL     OW30220   4.249   4.444   1.007 -0.1447 -0.2075  0.1134
 6254SOL    HW130221   4.155   4.453   0.989 -0.2574 -1.9171 -0.1375
 6254SOL    HW230222   4.275   4.532   1.034  1.1480 -1.0662  1.6635
 6255SOL     OW30223   0.395   1.069   4.209  0.2010  0.1292 -0.2305
 6255SOL    HW130224   0.353   1.155   4.206  2.2123  1.1583  1.3829
 6255SOL    HW230225   0.322   1.011   4.187  1.5613 -2.2486  1.6328
 6256SOL     OW30226   3.987   0.539   9.156 -0.2176  0.0261 -1.0880
 6256SOL    HW130227   3.953   0.616   9.110 -1.7174  0.0353  0.0607
 6256SOL    HW230228   3.935   0.554   9.235  0.2086 -0.6494 -0.6838
 6257SOL     OW30229   3.032   1.896  13.532 -0.3986  0.1758 -0.2441
 6257SOL    HW130230   3.104   1.853  13.577  0.4262  2.9453  1.0471
 6257SOL    HW230231   2.979   1.925  13.606  0.9555  0.0569  0.7659
 6258SOL     OW30232   2.738   0.695  11.100  0.2965 -0.4470 -0.0330
 6258SOL    HW130233   2.680   0.654  11.165 -0.0796 -1.0207 -0.7314
 6258SOL    HW230234   2.816   0.726  11.146  0.1335 -1.4285  0.9076
 6259SOL     OW30235   2.289   1.065   7.133 -0.3670  0.4913  0.1460
 6259SOL    HW130236   2.289   1.160   7.122  0.4718  0.6656  1.6204
 6259SOL    HW230237   2.329   1.049   7.047  0.8489 -0.2677  0.8550
 6260SOL     OW30238   3.828   3.407   8.774 -0.3009  0.0098  0.4043
 6260SOL    HW130239   3.765   3.362   8.719 -0.5160 -0.4959  1.0575
 6260SOL    HW230240   3.907   3.354   8.763 -0.2257  0.0989  0.5062
 6261SOL     OW30241   0.122   2.359   4.550 -0.0861 -0.2893 -0.6268
 6261SOL    HW130242   0.047   2.418   4.538 -0.5109 -0.7966 -0.4524
 6261SOL    HW230243   0.082   2.272   4.552  1.4106 -0.8956  2.0524
 6262SOL     OW30244   0.836   1.114   6.681  0.1050  0.4861 -0.4532
 6262SOL    HW130245   0.853   1.074   6.767 -0.5148  0.0705 -0.5214
 6262SOL    HW230246   0.854   1.038   6.626 -0.5559 -0.6040  0.8187
 6263SOL     OW30247   2.194   0.277   8.567 -0.0018 -0.2981  0.2133
 6263SOL    HW130248   2.284   0.292   8.539  0.7440  0.7421  3.2032
 6263SOL    HW230249   2.211   0.193   8.609  1.2196  1.1234  2.5469
 6264SOL     OW30250   0.799   2.776  11.798  0.4061  0.1157 -0.1601
 6264SOL    HW130251   0.860   2.718  11.843  1.5413 -0.1845 -2.1025
 6264SOL    HW230252   0.782   2.716  11.725 -1.0177  0.8454 -0.4290
 6265SOL     OW30253   0.462   2.136   8.531 -0.4992 -0.2642 -0.3567
 6265SOL    HW130254   0.420   2.078   8.595 -1.4437  1.0632  0.2440
 6265SOL    HW230255   0.437   2.100   8.446 -0.1858  1.8298 -1.3387
 6266SOL     OW30256   4.659   3.455   7.734 -0.1543 -0.5756  0.5041
 6266SOL    HW130257   4.629   3.420   7.818  0.0111 -0.2628  0.6970
 6266SOL    HW230258   0.015   3.400   7.727  1.7279  1.9396  1.2900
 6267SOL     OW30259   1.149   3.507   9.426 -0.1719 -0.5713 -0.4647
 6267SOL    HW130260   1.055   3.488   9.433 -0.1339  0.7142  3.7052
 6267SOL    HW230261   1.160   3.591   9.381  2.4003 -1.3282 -1.2341
 6268SOL     OW30262   1.493   4.453  15.034  0.3583  0.2554 -0.2632
 6268SOL    HW130263   1.478   4.448  14.939  0.4932 -0.3311 -0.2534
 6268SOL    HW230264   1.571   4.398  15.033 -0.3607 -0.8111  2.6826
 6269SOL     OW30265   3.607   0.024  11.281 -0.7638 -0.7589 -0.0514
 6269SOL    HW130266   3.669   0.038  11.352  0.8767 -0.3096 -1.5606
 6269SOL    HW230267   3.616   4.651  11.269  1.2720 -0.4259 -1.1024
 6270SOL     OW30268   4.170   3.290   1.053  0.6317 -0.2464 -0.0243
 6270SOL    HW130269   4.186   3.240   1.133 -1.7314  1.3891  1.4743
 6270SOL    HW230270   4.132   3.373   1.083  1.1907  0.3829 -1.0341
 6271SOL     OW30271   4.392   3.014  13.240  0.9585  0.0384  0.2659
 6271SOL    HW130272   4.407   3.079  13.172  0.4411 -2.4010 -2.1846
 6271SOL    HW230273   4.346   3.065  13.307  0.8717  0.8108 -0.3750
 6272SOL     OW30274   0.287   2.793  14.954 -0.3347 -0.6243  0.0216
 6272SOL    HW130275   0.336   2.730  15.007  0.4014 -0.2785 -0.2473
 6272SOL    HW230276   0.272   2.740  14.875 -1.9014 -1.5019  0.9005
 6273SOL     OW30277   1.243   2.352   8.915 -0.0269 -0.1198  0.0753
 6273SOL    HW130278   1.258   2.265   8.953 -0.3059  0.9002  2.5427
 6273SOL    HW230279   1.222   2.399   8.995  1.5447  0.3366  0.2121
 6274SOL     OW30280   0.679   2.291   8.384  0.0661 -0.0775 -0.4203
 6274SOL    HW130281   0.615   2.323   8.320  0.3995 -0.1557 -0.7985
 6274SOL    HW230282   0.636   2.228   8.441 -2.6174  0.4605 -1.8523
 6275SOL     OW30283   3.015   1.355  15.736 -0.1683  0.0924  0.5161
 6275SOL    HW130284   3.077   1.291  15.771 -1.0380 -1.0246  0.0304
 6275SOL    HW230285   3.037   1.430  15.791 -0.8750  0.0580  0.8381
 6276SOL     OW30286   0.156   2.482   3.055  0.0491  0.0707  0.0549
 6276SOL    HW130287   0.064   2.507   3.053 -0.0669 -0.0933  2.6309
 6276SOL    HW230288   0.194   2.560   3.015 -0.0641  1.2401  2.1862
 6277SOL     OW30289   1.695   4.510   6.134 -0.3104 -0.3259 -0.0164
 6277SOL    HW130290   1.696   4.466   6.219  2.4888  0.0132  0.1320
 6277SOL    HW230291   1.789   4.526   6.127  0.2468 -2.2548  2.8984
 6278SOL     OW30292   2.199   1.070   4.648  0.3450 -0.1043  0.1640
 6278SOL    HW130293   2.136   1.035   4.711 -0.7905  1.9729  0.1826
 6278SOL    HW230294   2.200   1.016   4.569  0.3898 -0.4680  0.4137
 6279SOL     OW30295   2.078   3.337   9.090  0.4774  0.1100  0.1045
 6279SOL    HW130296   2.013   3.374   9.150 -0.2894 -0.0794 -0.6011
 6279SOL    HW230297   2.155   3.345   9.145  0.9577 -2.5940 -0.1440
 6280SOL     OW30298   0.032   4.256   3.175  0.4890 -0.6661  0.2623
 6280SOL    HW130299   0.072   4.272   3.090  0.8386 -0.0955  0.5391
 6280SOL    HW230300   4.661   4.243   3.153  0.6094 -1.3845  0.1867
 6281SOL     OW30301   1.589   3.802   2.281 -0.2968  0.3147  0.1070
 6281SOL    HW130302   1.677   3.840   2.276 -0.0628 -0.2740 -0.2919
 6281SOL    HW230303   1.579   3.782   2.188  0.6483 -2.8513  0.6713
 6282SOL     OW30304   1.632   0.679  16.689 -0.1925  0.1505  0.1966
 6282SOL    HW130305   1.596   0.767  16.696  0.7536  0.6259 -1.0302
 6282SOL    HW230306   1.563   0.625  16.650  0.1680  0.2337 -0.5604
 6283SOL     OW30307   3.497   4.630   1.982  0.6863  0.4893 -0.3793
 6283SOL    HW130308   3.458   4.606   2.066  1.6422 -2.5658 -0.7951
 6283SOL    HW230309   3.430   4.599   1.921  0.4981 -1.4905  0.8370
 6284SOL     OW30310   0.067   4.218   3.590  0.1625 -0.3494  0.2803
 6284SOL    HW130311   0.095   4.177   3.509  1.4825  2.2272 -0.5440
 6284SOL    HW230312   0.145   4.225   3.644  0.8349  1.6644 -0.9870
 6285SOL     OW30313   0.879   2.012   5.816  0.1118  0.7756 -0.0267
 6285SOL    HW130314   0.826   2.039   5.890  1.7158  0.9103  1.0597
 6285SOL    HW230315   0.820   2.040   5.745 -0.4708 -0.5723 -0.0736
 6286SOL     OW30316   1.153   1.635   0.064 -0.1146  0.1139 -0.6214
 6286SOL    HW130317   1.152   1.708   0.002  0.3681  0.7696  0.1499
 6286SOL    HW230318   1.103   1.560   0.030 -1.9106 -0.3242  2.9530
 6287SOL     OW30319   3.462   3.774   5.714 -0.1506  0.2035  0.1424
 6287SOL    HW130320   3.557   3.772   5.728 -0.1349 -0.9986 -0.1116
 6287SOL    HW230321   3.445   3.809   5.801  1.4435  0.5684  0.3181
 6288SOL     OW30322   4.630   0.342   5.843  0.1994  0.2178  0.5392
 6288SOL    HW130323   0.003   0.355   5.842  0.2700 -0.3493 -0.3784
 6288SOL    HW230324   4.629   0.247   5.856 -0.4451  0.3394  1.3980
 6289SOL     OW30325   3.616   3.467   1.106  0.7035  0.0985 -0.6830
 6289SOL    HW130326   3.644   3.418   1.184  0.3500  0.2947 -0.4329
 6289SOL    HW230327   3.625   3.402   1.036  2.7076 -0.4119  0.0331
 6290SOL     OW30328   1.346   1.420   6.564  0.0239  0.1111  0.6105
 6290SOL    HW130329   1.309   1.502   6.531  1.5831  0.5589 -0.0389
 6290SOL    HW230330   1.400   1.451   6.637  0.6307 -1.1698  0.7010
 6291SOL     OW30331   1.601   3.240   2.391  0.9410  0.0260 -0.2292
 6291SOL    HW130332   1.679   3.224   2.338 -0.8566  0.2515 -2.9319
 6291SOL    HW230333   1.585   3.324   2.350 -3.0664 -1.5619 -1.8255
 6292SOL     OW30334   4.029   3.774   7.569 -0.4045  0.1547 -0.2933
 6292SOL    HW130335   4.116   3.738   7.582 -0.6233  0.5284  2.3638
 6292SOL    HW230336   4.035   3.852   7.625 -2.3095  1.5857 -2.1004
 6293SOL     OW30337   0.033   2.265   4.964 -0.7804 -0.8805  0.6345
 6293SOL    HW130338   0.044   2.172   4.988  1.1299 -0.4845  1.3185
 6293SOL    HW230339   0.124   2.286   4.986 -0.7916  0.0702 -0.2287
 6294SOL     OW30340   4.384   2.358   3.430  0.3833  0.3144  0.4648
 6294SOL    HW130341   4.325   2.380   3.358 -1.9253  0.2509  2.3801
 6294SOL    HW230342   4.469   2.365   3.385  0.1538 -0.7346 -0.1432
 6295SOL     OW30343   1.412   0.760  10.841  0.1907 -0.0253  0.2326
 6295SOL    HW130344   1.478   0.710  10.794 -0.8045  0.3908 -1.6078
 6295SOL    HW230345   1.363   0.697  10.895  1.0526 -1.7420 -0.9975
 6296SOL     OW30346   0.354   0.728  14.509  0.0890  0.0878 -0.0320
 6296SOL    HW130347   0.369   0.679  14.428  0.1309 -2.1811  1.3596
 6296SOL    HW230348   0.423   0.791  14.490 -1.8877  3.0038  2.3923
 6297SOL     OW30349   3.466   2.845  10.383 -0.1979 -0.1415  0.1583
 6297SOL    HW130350   3.425   2.929  10.405 -1.3172 -1.1699  2.0433
 6297SOL    HW230351   3.557   2.875  10.384  0.1144 -1.0215 -1.6709
 6298SOL     OW30352   0.451   1.663  11.851  0.2781  0.1816 -0.1323
 6298SOL    HW130353   0.541   1.631  11.848 -1.1606 -3.8922  0.4868
 6298SOL    HW230354   0.403   1.585  11.823  2.0842 -0.6643 -0.8146
 6299SOL     OW30355   1.988   3.766   6.460 -0.5821 -0.1657 -0.1860
 6299SOL    HW130356   1.963   3.842   6.408  0.4492  0.1781 -0.1803
 6299SOL    HW230357   2.011   3.809   6.543 -0.1760  0.4695 -0.6237
 6300SOL     OW30358   4.668   0.558  14.098 -0.4953 -0.4145 -0.1626
 6300SOL    HW130359   0.015   0.525  14.156  0.6249  0.8886 -0.7342
 6300SOL    HW230360   0.004   0.586  14.026  1.1484 -1.5176  0.7086
 6301SOL     OW30361   2.011   1.496   7.515  0.2847  0.3199 -0.2330
 6301SOL    HW130362   2.075   1.499   7.586 -0.5782 -2.1212  0.6429
 6301SOL    HW230363   1.979   1.586   7.526  3.6678  1.6711 -1.7723
 6302SOL     OW30364   4.704   4.399   1.489 -0.0147 -0.3408  0.6974
 6302SOL    HW130365   4.612   4.418   1.471  0.1089 -0.2905  0.1095
 6302SOL    HW230366   4.707   4.304   1.495  1.6829 -0.2227  1.7900
 6303SOL     OW30367   2.304   2.419   1.049  0.0518 -0.6713 -0.2243
 6303SOL    HW130368   2.377   2.380   1.097  0.4547  2.7783  1.9895
 6303SOL    HW230369   2.339   2.466   0.973  2.0178 -0.5967  0.7178
 6304SOL     OW30370   3.757   1.362   2.692 -0.2270  0.1160 -0.2559
 6304SOL    HW130371   3.706   1.364   2.611 -0.0513 -0.2324 -0.3747
 6304SOL    HW230372   3.771   1.267   2.692  0.7673  0.2634  0.3289
 6305SOL     OW30373   2.326   3.919  16.743  0.3040 -0.2211  0.4308
 6305SOL    HW130374   2.327   3.890  16.651  1.7378  0.5434  0.2093
 6305SOL    HW230375   2.365   3.843  16.786 -0.4692 -1.1705 -0.5354
 6306SOL     OW30376   1.967   0.688   5.684  0.6479 -0.0154 -0.1917
 6306SOL    HW130377   1.888   0.732   5.654  1.3924  1.0091 -0.6424
 6306SOL    HW230378   2.030   0.702   5.614  1.2487  1.4428  0.6202
 6307SOL     OW30379   4.574   4.672  16.576  0.0075 -0.7441 -0.0338
 6307SOL    HW130380   4.520   4.712  16.645  0.6885  0.5125 -0.2423
 6307SOL    HW230381   4.563   0.011  16.502  0.5051 -0.5367  0.0624
 6308SOL     OW30382   1.938   1.643   1.959 -0.2594  0.0168 -0.3841
 6308SOL    HW130383   1.947   1.738   1.963  0.5403 -0.0245 -1.2770
 6308SOL    HW230384   1.926   1.626   1.866  1.1830 -0.0457 -0.5649
 6309SOL     OW30385   1.354   3.583  12.219  0.4192 -0.4438 -0.1228
 6309SOL    HW130386   1.329   3.602  12.129 -0.4363 -1.3458 -0.0856
 6309SOL    HW230387   1.443   3.563  12.189  0.9998  2.2425 -0.1413
 6310SOL     OW30388   2.549   4.678   4.782  0.4050 -0.0203 -0.3043
 6310SOL    HW130389   2.641   4.702   4.790  0.4189 -0.6173  1.1707
 6310SOL    HW230390   2.517   0.024   4.721 -1.0366  0.2434  0.7462
 6311SOL     OW30391   2.725   4.031   1.522 -0.0137  0.1952  0.1951
 6311SOL    HW130392   2.631   4.013   1.512 -0.2020  1.0093  0.4973
 6311SOL    HW230393   2.755   3.952   1.478 -2.7949 -2.8386  3.7471
 6312SOL     OW30394   0.682   0.559   6.885  0.1036 -0.2571  0.0428
 6312SOL    HW130395   0.760   0.600   6.848 -0.1179  0.5856  0.5089
 6312SOL    HW230396   0.692   0.592   6.974  0.5187  0.6485 -0.3342
 6313SOL     OW30397   3.732   2.158   7.269  0.2261  0.5222 -0.1565
 6313SOL    HW130398   3.778   2.196   7.195  0.4074 -0.9159 -0.7794
 6313SOL    HW230399   3.730   2.237   7.323 -1.6447 -0.7331  1.6399
 6314SOL     OW30400   3.400   4.671   6.245  0.0912 -1.0367 -0.3609
 6314SOL    HW130401   3.380   0.001   6.324 -0.9952 -2.4036  0.2373
 6314SOL    HW230402   3.311   4.644   6.222  1.4034 -3.9202 -2.0066
 6315SOL     OW30403   3.179   4.026   1.626 -0.4713  0.0903 -0.2958
 6315SOL    HW130404   3.153   3.984   1.708  1.4985 -4.0567 -1.8175
 6315SOL    HW230405   3.274   4.016   1.624 -0.3858  0.9870 -0.4006
 6316SOL     OW30406   3.305   2.630   2.993  0.1478 -0.4403  0.1559
 6316SOL    HW130407   3.271   2.557   3.044 -0.1045  0.4608  1.2874
 6316SOL    HW230408   3.398   2.607   2.988  0.1970 -0.5652  1.5984
 6317SOL     OW30409   4.236   0.438   8.971  0.0846  0.0394 -0.2155
 6317SOL    HW130410   4.182   0.435   8.893  3.0984  0.2103 -2.3007
 6317SOL    HW230411   4.232   0.531   8.990 -1.3969 -0.0236 -0.2451
 6318SOL     OW30412   1.513   1.408  11.068  0.1344  0.2686  0.8601
 6318SOL    HW130413   1.576   1.336  11.069  0.4641  0.5662  2.5386
 6318SOL    HW230414   1.434   1.368  11.104 -0.0088 -1.1723 -1.0726
 6319SOL     OW30415   4.609   4.586   5.246 -0.2584 -0.2640 -0.2189
 6319SOL    HW130416   4.578   4.671   5.279  1.7910 -0.6564  2.7728
 6319SOL    HW230417   4.528   4.551   5.211 -0.3295 -1.4551  1.1166
 6320SOL     OW30418   3.874   0.950   4.957  0.5085  0.7492  0.1382
 6320SOL    HW130419   3.796   0.907   4.990 -0.5777  2.8675  0.3478
 6320SOL    HW230420   3.920   0.868   4.938 -1.5480  0.0534 -1.9295
 6321SOL     OW30421   1.007   1.922   4.708  0.2686  0.4364  0.5128
 6321SOL    HW130422   0.934   1.914   4.647 -0.3613  0.6898  1.2351
 6321SOL    HW230423   1.048   1.838   4.689 -3.6895 -1.8964  2.4042
 6322SOL     OW30424   0.693   4.223   8.683  0.1104  0.3034  0.1318
 6322SOL    HW130425   0.777   4.268   8.674 -1.1140  2.4916 -0.3872
 6322SOL    HW230426   0.702   4.159   8.612 -0.2373 -0.0993  0.4489
 6323SOL     OW30427   3.208   0.482  15.948  0.0190 -0.2370 -0.1076
 6323SOL    HW130428   3.286   0.465  15.895  0.2749  0.3293  0.0778
 6323SOL    HW230429   3.181   0.397  15.982 -0.7648  0.7828  1.8312
 6324SOL     OW30430   1.574   0.566   7.301 -0.1421 -0.1029  0.3925
 6324SOL    HW130431   1.592   0.505   7.229 -2.4149  0.6211 -0.7898
 6324SOL    HW230432   1.658   0.576   7.347 -0.6465 -1.1839  1.5558
 6325SOL     OW30433   3.168   3.294  10.238 -0.0226  0.3009 -0.0387
 6325SOL    HW130434   3.198   3.377  10.273 -0.5969  0.6854 -0.4561
 6325SOL    HW230435   3.093   3.277  10.295  0.5598 -0.9260  0.3605
 6326SOL     OW30436   2.484   0.366   4.801  0.4356 -0.1272  0.9617
 6326SOL    HW130437   2.542   0.354   4.877  1.3231  0.1724  0.3358
 6326SOL    HW230438   2.532   0.318   4.734 -0.0292 -1.6555  1.7186
 6327SOL     OW30439   1.172   1.282   0.503  0.1831  0.0208 -0.2497
 6327SOL    HW130440   1.198   1.354   0.561  0.9378 -1.0146  0.6715
 6327SOL    HW230441   1.146   1.342   0.432  2.6740  2.8716  1.2463
 6328SOL     OW30442   4.616   2.288   3.283  0.3638 -0.4647  0.7447
 6328SOL    HW130443   4.704   2.322   3.296 -0.7727  3.1779 -0.9689
 6328SOL    HW230444   4.606   2.273   3.189 -0.6813  1.4263  0.5496
 6329SOL     OW30445   4.521   0.896   7.288  0.1706  0.2392  0.0066
 6329SOL    HW130446   4.461   0.850   7.348  1.0267 -1.0982 -0.1778
 6329SOL    HW230447   4.486   0.982   7.314  1.0976  0.1963  1.3794
 6330SOL     OW30448   2.044   4.141   1.980 -0.1598 -0.2316 -0.3387
 6330SOL    HW130449   2.082   4.168   2.064 -2.5528  1.1665  0.2915
 6330SOL    HW230450   2.001   4.224   1.960 -2.6362 -1.3342  0.3770
 6331SOL     OW30451   3.909   3.718   9.499 -0.7640  0.2350 -0.3907
 6331SOL    HW130452   3.906   3.737   9.592 -0.9156  2.2378 -0.7902
 6331SOL    HW230453   3.821   3.683   9.491 -0.7886  0.4590 -1.1666
 6332SOL     OW30454   3.615   0.621   5.704  0.3187  1.1599  0.1562
 6332SOL    HW130455   3.677   0.548   5.704  0.9343  1.6823  0.1194
 6332SOL    HW230456   3.674   0.696   5.706  2.0021 -0.1620  0.2879
 6333SOL     OW30457   3.487   3.873  15.522 -0.2126 -0.6304 -1.1859
 6333SOL    HW130458   3.396   3.877  15.493 -1.0301  0.6754  1.5042
 6333SOL    HW230459   3.493   3.780  15.543  2.3059 -0.7239 -2.2193
 6334SOL     OW30460   0.700   4.651   4.625  0.0690 -0.3403  0.5478
 6334SOL    HW130461   0.672   4.615   4.541 -2.7190 -0.3695  1.4716
 6334SOL    HW230462   0.670   0.020   4.614  0.3582 -0.4926 -1.3605
 6335SOL     OW30463   3.217   0.940  13.549 -0.3837 -0.2358 -0.0998
 6335SOL    HW130464   3.312   0.946  13.541 -0.3929  2.7506  2.3221
 6335SOL    HW230465   3.210   0.917  13.641  2.2864  1.5293  0.5261
 6336SOL     OW30466   0.560   1.817  16.274 -0.4114  0.1510 -0.0854
 6336SOL    HW130467   0.591   1.728  16.254 -0.2185  0.1690  0.1327
 6336SOL    HW230468   0.492   1.782  16.332  0.4910  2.6886  2.5018
 6337SOL     OW30469   0.042   3.967   2.546 -0.3815  0.5815  0.1091
 6337SOL    HW130470   4.715   4.025   2.488  2.4240  0.0553 -2.7641
 6337SOL    HW230471   0.095   3.932   2.474 -1.0636  1.8453 -1.0004
 6338SOL     OW30472   4.328   2.741  12.636  0.4524 -0.3836 -0.0914
 6338SOL    HW130473   4.342   2.679  12.707  0.5400  1.5139  1.5414
 6338SOL    HW230474   4.374   2.818  12.669 -2.1180  1.1702 -0.1466
 6339SOL     OW30475   3.472   1.973   6.958  0.0893 -0.3338 -0.0570
 6339SOL    HW130476   3.419   1.902   6.920  1.0317 -1.7014  1.1897
 6339SOL    HW230477   3.457   1.963   7.052 -0.3565  2.0582  0.1176
 6340SOL     OW30478   3.687   1.832   0.126 -0.0794  0.3334 -0.2217
 6340SOL    HW130479   3.640   1.757   0.162 -0.1495 -0.3713 -1.7482
 6340SOL    HW230480   3.761   1.792   0.080  0.3668  0.5609  0.3069
 6341SOL     OW30481   1.564   3.714  13.391 -0.0081  0.0610  0.5311
 6341SOL    HW130482   1.610   3.769  13.327 -0.1450 -1.4080 -0.8431
 6341SOL    HW230483   1.569   3.772  13.467  1.6618 -0.4016  0.7670
 6342SOL     OW30484   3.552   0.133   6.721  0.7776  0.3006  0.0143
 6342SOL    HW130485   3.624   0.140   6.658 -0.5011 -1.4693 -1.6241
 6342SOL    HW230486   3.528   0.225   6.719 -0.2049  0.0289 -0.7078
 6343SOL     OW30487   4.429   1.105   2.332 -0.1747  0.0954 -0.3451
 6343SOL    HW130488   4.418   1.155   2.251  0.3580 -0.8070 -0.9663
 6343SOL    HW230489   4.340   1.080   2.358  1.4513 -2.8363  2.3070
 6344SOL     OW30490   1.810   3.222   8.466 -0.4456  0.2036  0.2503
 6344SOL    HW130491   1.841   3.312   8.478 -3.3123  0.9249  2.1568
 6344SOL    HW230492   1.845   3.189   8.549 -2.5790 -0.3822  0.9097
 6345SOL     OW30493   1.814   4.573   2.380  0.1007 -0.1345  0.4976
 6345SOL    HW130494   1.857   4.541   2.459  0.7953 -0.4064  0.0010
 6345SOL    HW230495   1.858   4.522   2.313 -1.0475  1.1744 -1.2432
 6346SOL     OW30496   2.687   3.823   0.912 -0.6888  0.6982 -0.4241
 6346SOL    HW130497   2.738   3.792   0.986 -0.1003  0.9797 -0.7163
 6346SOL    HW230498   2.637   3.747   0.881  1.6501 -0.5592 -1.0650
 6347SOL     OW30499   4.220   1.730  14.706 -0.0386  0.0615  0.3983
 6347SOL    HW130500   4.294   1.722  14.767 -0.4424  1.2303  1.0376
 6347SOL    HW230501   4.228   1.643  14.667 -0.9353  0.4629 -0.6543
 6348SOL     OW30502   3.183   3.419  16.908 -0.2289 -0.2719  0.0392
 6348SOL    HW130503   3.154   3.495  16.859 -0.4763 -0.7917 -0.6248
 6348SOL    HW230504   3.097   3.376  16.914 -0.4878  0.2086 -0.2644
 6349SOL     OW30505   3.638   1.830   5.801  0.4863 -0.1953  0.1432
 6349SOL    HW130506   3.562   1.852   5.854  0.2244  0.0820 -0.3533
 6349SOL    HW230507   3.617   1.891   5.731  0.8293 -1.1352 -0.7726
 6350SOL     OW30508   0.908   2.756  10.451  0.4872 -0.0934  0.7251
 6350SOL    HW130509   0.954   2.729  10.372 -0.6917  2.6740 -0.9208
 6350SOL    HW230510   0.980   2.781  10.508  0.6522  0.2162  0.3782
 6351SOL     OW30511   3.525   0.905   7.784  0.4597 -0.1996 -0.1206
 6351SOL    HW130512   3.541   0.883   7.692  2.1042  1.6107 -0.2877
 6351SOL    HW230513   3.450   0.963   7.775  0.9604  0.7034  1.5171
 6352SOL     OW30514   3.908   1.703  10.941  0.3736  0.1394  0.9661
 6352SOL    HW130515   3.817   1.683  10.919  0.0470  0.9274  1.6149
 6352SOL    HW230516   3.907   1.693  11.036 -1.5345 -2.4893  0.6612
 6353SOL     OW30517   2.951   2.281   3.619  0.3419  0.1999 -0.0742
 6353SOL    HW130518   3.032   2.310   3.662 -0.0097 -0.3443  0.9504
 6353SOL    HW230519   2.974   2.196   3.582 -3.0234 -1.0474  0.7377
 6354SOL     OW30520   3.303   3.235  14.922 -0.0285  0.9324  0.2427
 6354SOL    HW130521   3.245   3.295  14.969 -3.7317 -2.5739  0.1423
 6354SOL    HW230522   3.381   3.289  14.916  0.0115  0.8755  0.2583
 6355SOL     OW30523   3.879   1.275   3.639  0.0342 -0.4254  0.2172
 6355SOL    HW130524   3.794   1.291   3.598  0.8088 -0.1300 -1.2904
 6355SOL    HW230525   3.889   1.368   3.661 -1.0798  0.6817 -3.9665
 6356SOL     OW30526   3.279   0.262   6.012 -0.2500  0.2753  0.1562
 6356SOL    HW130527   3.247   0.306   6.090  0.1597 -1.0942  1.0985
 6356SOL    HW230528   3.371   0.288   6.014 -0.5835  1.2522  1.8128
 6357SOL     OW30529   3.158   4.565   2.482  0.4907  0.1102 -0.1805
 6357SOL    HW130530   3.118   4.541   2.566 -0.6828  0.1261 -0.7259
 6357SOL    HW230531   3.203   4.647   2.502  0.8029  0.3282 -1.7540
 6358SOL     OW30532   3.423   4.185  10.906 -0.0720  0.5458 -0.8067
 6358SOL    HW130533   3.345   4.238  10.922  0.6012  1.2675  0.0843
 6358SOL    HW230534   3.462   4.240  10.839  1.9361 -0.5680 -0.5576
 6359SOL     OW30535   2.943   4.318   8.361 -0.6431  0.4229 -0.4332
 6359SOL    HW130536   2.859   4.271   8.358 -0.9543  0.8745  1.0872
 6359SOL    HW230537   2.992   4.295   8.283  0.8031  0.6381  0.4155
 6360SOL     OW30538   1.693   4.328   9.036 -0.2295  0.2717  0.2604
 6360SOL    HW130539   1.649   4.389   9.095  1.6396  1.0108  0.8937
 6360SOL    HW230540   1.682   4.370   8.951 -1.6660 -1.2342 -0.2872
 6361SOL     OW30541   1.235   4.028  14.252  0.1754 -0.5644 -0.2895
 6361SOL    HW130542   1.175   4.099  14.228  0.3325 -0.6670 -0.9540
 6361SOL    HW230543   1.184   3.948  14.241 -3.6593  1.5101  2.0162
 6362SOL     OW30544   0.639   3.673  11.614 -0.3804  0.0656 -0.4307
 6362SOL    HW130545   0.569   3.630  11.564  0.5339  0.1292 -1.7543
 6362SOL    HW230546   0.666   3.738  11.549  0.6122 -1.3508 -1.4234
 6363SOL     OW30547   4.630   0.505   6.352  0.0321  0.2241 -0.8712
 6363SOL    HW130548   4.555   0.521   6.409 -0.5404 -2.0793 -0.9639
 6363SOL    HW230549   4.601   0.554   6.276 -1.6203  1.0479  0.3004
 6364SOL     OW30550   1.592   4.143   2.219 -0.1123  0.4260  0.2706
 6364SOL    HW130551   1.611   4.228   2.179 -0.1125  1.1158  1.7118
 6364SOL    HW230552   1.585   4.085   2.144 -0.2577  0.8759 -0.0640
 6365SOL     OW30553   2.453   1.725   1.388  0.1491  0.2970 -0.3811
 6365SOL    HW130554   2.474   1.690   1.302 -0.2926 -0.4707 -0.1746
 6365SOL    HW230555   2.365   1.689   1.400 -1.5824  4.0016 -1.7638
 6366SOL     OW30556   0.038   1.664   7.170 -0.0109 -0.1451 -0.3449
 6366SOL    HW130557   0.054   1.758   7.177  0.5138 -0.2898  0.4160
 6366SOL    HW230558   0.114   1.621   7.131  0.7142  0.6749  0.1595
 6367SOL     OW30559   0.228   1.857   8.197 -0.0226  0.7929  0.0817
 6367SOL    HW130560   0.147   1.832   8.153 -1.0292 -2.3829  3.7242
 6367SOL    HW230561   0.293   1.815   8.140 -1.4652 -0.0625 -0.9342
 6368SOL     OW30562   3.676   4.133   8.450 -0.4202  0.2629  0.4983
 6368SOL    HW130563   3.749   4.099   8.502 -0.0357  0.5945  0.1845
 6368SOL    HW230564   3.688   4.227   8.460 -2.8437  0.4984  1.2334
 6369SOL     OW30565   2.860   1.865   7.999  0.0661  0.2384 -0.1882
 6369SOL    HW130566   2.788   1.818   7.957 -0.5552  0.3003  0.8198
 6369SOL    HW230567   2.824   1.889   8.084  1.6643  1.1693  0.2258
 6370SOL     OW30568   3.994   3.154  10.840 -0.2124  0.0431 -0.1648
 6370SOL    HW130569   4.009   3.066  10.873  2.4475 -0.5269 -2.8481
 6370SOL    HW230570   4.042   3.165  10.757 -0.1969  1.7112  0.0537
 6371SOL     OW30571   1.047   3.785  16.588 -0.0940  0.0862  0.2006
 6371SOL    HW130572   1.000   3.713  16.631 -0.9615 -0.5335 -1.7874
 6371SOL    HW230573   0.979   3.825  16.534 -1.7383 -2.2626  0.5332
 6372SOL     OW30574   0.365   3.537   3.168  0.3566 -0.1881 -0.3198
 6372SOL    HW130575   0.415   3.515   3.247 -0.1035 -2.0099 -0.5404
 6372SOL    HW230576   0.442   3.545   3.111  0.3723  1.4682 -0.0780
 6373SOL     OW30577   2.536   0.300   7.747 -0.0368  0.0502 -0.6137
 6373SOL    HW130578   2.448   0.264   7.751 -1.0708  2.6971  0.2142
 6373SOL    HW230579   2.591   0.223   7.731 -0.3518  0.0925 -1.9084
 6374SOL     OW30580   0.981   4.056   4.069  0.0505 -0.0195  0.2944
 6374SOL    HW130581   0.980   4.084   3.977  1.1112  0.3946  0.4160
 6374SOL    HW230582   1.059   4.002   4.080  1.1092  0.9384 -2.5391
 6375SOL     OW30583   4.279   1.499  14.568  0.1231  0.3488 -0.3149
 6375SOL    HW130584   4.275   1.421  14.512  1.5634  0.4691 -0.5986
 6375SOL    HW230585   4.261   1.467  14.656 -3.5348 -0.0273 -1.2004
 6376SOL     OW30586   2.943   0.819   6.549  0.5247  0.3394  0.0815
 6376SOL    HW130587   2.990   0.789   6.471  0.4248  0.4925 -0.0375
 6376SOL    HW230588   2.952   0.736   6.597 -1.0783 -0.1504 -0.4624
 6377SOL     OW30589   0.454   4.270   7.472  0.1798  0.1494  0.9620
 6377SOL    HW130590   0.459   4.341   7.408 -2.0696  0.6999  1.3780
 6377SOL    HW230591   0.538   4.270   7.518  0.0615 -0.4757  1.1878
 6378SOL     OW30592   3.860   3.890   5.256  0.0997 -0.2664 -0.0129
 6378SOL    HW130593   3.768   3.909   5.269 -0.1313  0.6561 -2.9662
 6378SOL    HW230594   3.861   3.897   5.160 -0.6747 -1.5427 -0.1198
 6379SOL     OW30595   0.540   1.822   5.683 -0.4695  0.0516  0.2753
 6379SOL    HW130596   0.566   1.741   5.638  2.9046  0.7619  0.9289
 6379SOL    HW230597   0.449   1.799   5.704 -0.3965 -2.2682 -1.8946
 6380SOL     OW30598   1.925   3.052  16.468  0.1801 -0.4822 -0.2572
 6380SOL    HW130599   2.012   3.028  16.436  0.6370 -1.0943  1.4852
 6380SOL    HW230600   1.934   3.033  16.561  0.0161 -0.6791 -0.2814
 6381SOL     OW30601   1.458   1.208  16.193  0.2277 -0.1672 -0.2672
 6381SOL    HW130602   1.493   1.209  16.104 -0.8753  2.0171 -0.6686
 6381SOL    HW230603   1.379   1.158  16.171  0.1041  0.2209 -0.7117
 6382SOL     OW30604   1.397   1.165  17.146  0.3122  0.0526  0.4139
 6382SOL    HW130605   1.447   1.205  17.076 -0.1937  0.6222  0.3811
 6382SOL    HW230606   1.387   1.080  17.103  1.1286  0.7121 -1.0770
 6383SOL     OW30607   0.045   1.164   3.245  0.2755  0.3416 -0.2471
 6383SOL    HW130608   0.049   1.185   3.152 -1.2662 -0.8619 -0.5929
 6383SOL    HW230609   0.103   1.088   3.246 -1.0401 -0.6552  1.9582
 6384SOL     OW30610   2.730   4.026   5.980  0.5901 -0.1832  1.0872
 6384SOL    HW130611   2.684   3.977   5.912 -0.0266  0.4870  1.0134
 6384SOL    HW230612   2.696   3.985   6.060  2.5077 -1.9941  0.9530
 6385SOL     OW30613   3.509   2.299   4.155  0.0812 -0.3412 -0.0347
 6385SOL    HW130614   3.457   2.356   4.099  1.5676  0.4943 -0.5848
 6385SOL    HW230615   3.548   2.241   4.090 -0.7384  0.1380 -0.9406
 6386SOL     OW30616   1.700   4.313  14.964 -0.2177  0.1034  0.5175
 6386SOL    HW130617   1.788   4.333  14.996 -0.5304  1.1450  0.7185
 6386SOL    HW230618   1.711   4.332  14.871  0.0128  0.2365  0.5719
 6387SOL     OW30619   1.048   3.146  17.514 -0.1771 -0.0551 -0.4998
 6387SOL    HW130620   1.070   3.098  17.434 -0.0299 -0.0743 -0.4469
 6387SOL    HW230621   1.121   3.118  17.569 -0.4767  1.4921  0.7128
 6388SOL     OW30622   0.071   3.991  12.919 -0.0617 -0.4833 -0.0329
 6388SOL    HW130623   0.134   3.919  12.928 -0.6805 -1.0455 -0.2204
 6388SOL    HW230624   0.126   4.056  12.962  0.2265  0.3899 -1.7296
 6389SOL     OW30625   1.386   3.997  15.927  0.1028 -0.5938  0.6027
 6389SOL    HW130626   1.392   3.904  15.948 -1.2526 -0.8021  0.0830
 6389SOL    HW230627   1.433   3.997  15.844 -0.0004  1.4573  0.5354
 6390SOL     OW30628   2.001   0.189   6.147  0.6336  0.0470 -0.1136
 6390SOL    HW130629   2.011   0.188   6.052  0.3245  0.1101 -0.1445
 6390SOL    HW230630   1.913   0.223   6.158  0.8798  0.6305  0.0436
 6391SOL     OW30631   2.539   1.545  13.461 -0.6715 -0.3783  0.2806
 6391SOL    HW130632   2.559   1.614  13.397  0.2573  0.0420  1.0308
 6391SOL    HW230633   2.579   1.575  13.542 -1.6100  0.4647  0.4406
 6392SOL     OW30634   0.162   2.718   4.981  0.4409 -0.1476 -0.2551
 6392SOL    HW130635   0.121   2.790   4.933 -0.9520 -0.8848 -0.1779
 6392SOL    HW230636   0.133   2.645   4.926 -3.5001 -0.2160  1.9271
 6393SOL     OW30637   4.297   3.182  15.540 -0.8581  0.3329 -0.5378
 6393SOL    HW130638   4.346   3.202  15.461 -1.7868 -1.8916 -1.6906
 6393SOL    HW230639   4.213   3.217  15.508 -1.7423  2.5013  4.1560
 6394SOL     OW30640   3.919   2.196  10.251  0.6211 -0.4570 -0.2169
 6394SOL    HW130641   3.953   2.247  10.324  0.8538 -0.7403 -0.1297
 6394SOL    HW230642   3.912   2.110  10.291 -0.5896 -0.6440 -0.8212
 6395SOL     OW30643   1.162   1.106   1.710  0.3845 -0.2064 -0.0587
 6395SOL    HW130644   1.069   1.083   1.701  0.3412 -0.0090 -0.1048
 6395SOL    HW230645   1.183   1.098   1.617  0.7911 -1.9503  0.1776
 6396SOL     OW30646   1.499   0.377  10.174 -0.2979  0.0486  0.0491
 6396SOL    HW130647   1.514   0.427  10.094 -0.8530  1.6294  0.9071
 6396SOL    HW230648   1.410   0.400  10.201  0.2567 -0.5347  2.3847
 6397SOL     OW30649   0.343   2.300   8.002 -0.3649 -0.3551 -0.2777
 6397SOL    HW130650   0.433   2.307   8.035 -0.5560 -1.4816  0.4664
 6397SOL    HW230651   0.293   2.356   8.060 -1.2507  0.7007 -2.0511
 6398SOL     OW30652   1.307   3.743  15.423 -0.6025 -0.1430 -0.3268
 6398SOL    HW130653   1.242   3.677  15.445 -1.1113 -0.0688 -1.6348
 6398SOL    HW230654   1.395   3.705  15.425  0.7043  2.7950 -1.6531
 6399SOL     OW30655   0.368   4.425   4.268  0.2805 -0.4502 -0.7865
 6399SOL    HW130656   0.366   4.509   4.224  0.5769  0.5179  1.0430
 6399SOL    HW230657   0.455   4.406   4.233  1.0980  1.8558  0.0120
 6400SOL     OW30658   0.035   4.156  10.473  0.3981 -0.0832  0.2235
 6400SOL    HW130659   0.055   4.063  10.466 -0.6844 -0.2684 -0.4426
 6400SOL    HW230660   4.711   4.166  10.389  0.3085  0.6422  0.3552
 6401SOL     OW30661   3.786   1.633  14.279 -0.2248  0.0221  0.0745
 6401SOL    HW130662   3.858   1.595  14.229 -0.0271  2.1063 -1.2269
 6401SOL    HW230663   3.836   1.682  14.344 -1.9645  2.3001 -0.2955
 6402SOL     OW30664   1.442   1.928   3.519  0.7743 -0.2491  0.0374
 6402SOL    HW130665   1.470   1.837   3.522 -1.6417 -0.9697  0.0204
 6402SOL    HW230666   1.358   1.926   3.565  0.8541 -0.3593  0.1780
 6403SOL     OW30667   3.900   1.619   5.801 -0.3163 -0.1906 -0.2431
 6403SOL    HW130668   3.993   1.632   5.783 -0.2023 -0.3618  0.2369
 6403SOL    HW230669   3.863   1.654   5.720 -2.2487 -1.5723  0.0352
 6404SOL     OW30670   3.508   3.923  13.975  0.5251 -0.0154 -0.2498
 6404SOL    HW130671   3.579   3.987  13.983  1.3715 -0.9571 -0.2877
 6404SOL    HW230672   3.529   3.878  14.057  0.1254  1.6991  0.8045
 6405SOL     OW30673   0.566   1.742   2.967 -0.3573 -0.2097  0.1545
 6405SOL    HW130674   0.499   1.714   3.029  0.9008 -0.2360  1.4957
 6405SOL    HW230675   0.510   1.756   2.890 -1.1286  1.8257  1.0679
 6406SOL     OW30676   3.289   0.971   7.386 -0.6487 -0.3463  0.3292
 6406SOL    HW130677   3.353   0.933   7.446  0.2715 -0.3364 -0.6280
 6406SOL    HW230678   3.205   0.946   7.423 -1.0614 -2.7762 -2.2143
 6407SOL     OW30679   1.255   0.307   3.669 -0.1214  0.0110  0.0566
 6407SOL    HW130680   1.188   0.254   3.713 -0.6254  0.5722 -0.0273
 6407SOL    HW230681   1.335   0.258   3.685  1.4308  1.7150 -2.6407
 6408SOL     OW30682   0.984   1.282   7.099 -0.8394 -0.0360 -0.8368
 6408SOL    HW130683   0.976   1.212   7.164 -2.2832 -0.1714 -1.1611
 6408SOL    HW230684   1.071   1.256   7.068 -0.3241 -1.8777  2.1044
 6409SOL     OW30685   4.455   4.612   6.676 -0.0325 -0.0812 -0.6596
 6409SOL    HW130686   4.481   4.573   6.759 -1.1343  2.4028  0.8621
 6409SOL    HW230687   4.361   4.620   6.694  0.1684 -0.2138  0.4796
 6410SOL     OW30688   1.481   4.411   9.226  0.7276  0.2284  0.0776
 6410SOL    HW130689   1.478   4.489   9.281  0.6667 -0.7220  1.4172
 6410SOL    HW230690   1.489   4.344   9.294  3.1041  0.2702 -0.1616
 6411SOL     OW30691   1.679   2.927   4.696 -0.3531 -0.1893 -0.2623
 6411SOL    HW130692   1.772   2.946   4.707 -0.4542 -0.8660  1.6942
 6411SOL    HW230693   1.643   3.010   4.666  2.5958  1.6907  1.4525
 6412SOL     OW30694   1.383   1.478   4.970  0.1568  0.1325  0.5270
 6412SOL    HW130695   1.307   1.420   4.980  0.3232 -0.4731 -1.5437
 6412SOL    HW230696   1.407   1.510   5.056  1.2971 -0.9942  0.6275
 6413SOL     OW30697   0.218   4.181  10.179 -0.0836 -0.5777 -0.5112
 6413SOL    HW130698   0.131   4.207  10.209  0.1308 -0.6901  0.2069
 6413SOL    HW230699   0.188   4.110  10.122  0.1537 -2.1353  1.3162
 6414SOL     OW30700   2.806   3.006   8.356 -0.2668  0.0331  0.4254
 6414SOL    HW130701   2.802   3.095   8.393  0.3332  0.4095 -0.3952
 6414SOL    HW230702   2.899   3.011   8.331 -0.7541  1.3093 -1.1586
 6415SOL     OW30703   0.505   0.627   7.917  0.1036  0.1518  0.5099
 6415SOL    HW130704   0.418   0.630   7.955  0.9122  5.1839  1.9748
 6415SOL    HW230705   0.496   0.683   7.840  0.8324  1.8788  1.6841
 6416SOL     OW30706   4.689   2.857   8.383  0.0131  0.0850  0.3828
 6416SOL    HW130707   4.634   2.780   8.400  0.4311  0.1509  2.1093
 6416SOL    HW230708   4.718   2.891   8.468  1.7060  1.0109 -0.5666
 6417SOL     OW30709   4.273   0.234   4.178 -0.2775  0.8035 -0.2759
 6417SOL    HW130710   4.208   0.236   4.107 -1.0927 -4.7141  0.3112
 6417SOL    HW230711   4.234   0.166   4.233 -0.9505  2.0786  0.8002
 6418SOL     OW30712   1.404   1.876   9.313 -0.1410  0.1994 -0.2608
 6418SOL    HW130713   1.357   1.809   9.362  2.6858 -1.0456  0.7006
 6418SOL    HW230714   1.333   1.902   9.253 -1.1683  1.0662  1.3081
 6419SOL     OW30715   1.621   0.439   5.603 -0.4513 -0.3642  0.0180
 6419SOL    HW130716   1.573   0.483   5.533  0.1440  1.9483  1.0839
 6419SOL    HW230717   1.710   0.464   5.580 -0.6354  0.0747 -0.2147
 6420SOL     OW30718   3.404   3.594   7.931 -0.0096  0.0922  0.8142
 6420SOL    HW130719   3.459   3.585   7.853 -0.3736  1.2064  0.4380
 6420SOL    HW230720   3.433   3.524   7.989 -1.4926 -1.0459  0.2058
 6421SOL     OW30721   0.656   4.272   5.889  0.9725 -0.2553  0.0314
 6421SOL    HW130722   0.642   4.267   5.983  0.4788  0.5375 -0.0044
 6421SOL    HW230723   0.663   4.366   5.874 -1.9150  0.0139  0.4004
 6422SOL     OW30724   2.765   2.241   8.713  0.3896  0.0020  0.2353
 6422SOL    HW130725   2.801   2.316   8.760  2.3673  1.0058 -2.8358
 6422SOL    HW230726   2.715   2.196   8.780 -0.9473 -1.7260 -1.9125
 6423SOL     OW30727   2.820   2.457   8.900  0.3814 -0.3031  0.0758
 6423SOL    HW130728   2.736   2.411   8.893 -0.3413  1.0804 -0.3419
 6423SOL    HW230729   2.844   2.438   8.990 -0.3750  2.4224  0.8471
 6424SOL     OW30730   3.375   3.476   2.068 -0.1186  0.2079 -0.4928
 6424SOL    HW130731   3.374   3.380   2.078 -1.9598  0.4039  1.2491
 6424SOL    HW230732   3.287   3.494   2.035 -0.8149 -2.0774  0.0545
 6425SOL     OW30733   2.335   2.185   6.328  0.0937 -0.3073  0.3604
 6425SOL    HW130734   2.319   2.128   6.253 -2.9327  0.0439  0.7172
 6425SOL    HW230735   2.263   2.158   6.386  0.1029 -1.2536 -0.0645
 6426SOL     OW30736   1.476   1.626  15.199 -0.6852  0.4816  0.4250
 6426SOL    HW130737   1.551   1.650  15.253  0.0073  2.3657 -1.3701
 6426SOL    HW230738   1.512   1.545  15.163 -0.6197 -0.1912  2.0392
 6427SOL     OW30739   2.749   2.348   1.697 -0.5617 -0.0744 -0.2526
 6427SOL    HW130740   2.670   2.396   1.672  0.5135  1.5225 -0.6291
 6427SOL    HW230741   2.764   2.399   1.776  0.7671  0.1876 -0.6693
 6428SOL     OW30742   4.566   0.717   9.874 -0.0841  0.1800  0.2475
 6428SOL    HW130743   4.597   0.627   9.864 -0.2583  0.4046 -2.2420
 6428SOL    HW230744   4.480   0.706   9.833  0.4816 -0.0224 -0.8852
 6429SOL     OW30745   1.794   4.485   8.478 -0.0336 -0.3472  0.3552
 6429SOL    HW130746   1.742   4.409   8.506  1.8926 -1.8487 -0.1079
 6429SOL    HW230747   1.870   4.435   8.447 -1.0187 -0.5508 -1.7202
 6430SOL     OW30748   3.041   1.106  16.974  0.4232 -0.7192  0.4562
 6430SOL    HW130749   2.997   1.067  16.899  3.9083 -1.6879 -1.0767
 6430SOL    HW230750   3.134   1.084  16.971  0.8278  1.0735 -0.2227
 6431SOL     OW30751   3.702   4.312   0.472 -0.4440 -0.1389  0.4272
 6431SOL    HW130752   3.724   4.404   0.454 -0.4811 -0.1901  0.1228
 6431SOL    HW230753   3.685   4.315   0.566  0.1317 -0.2804  0.5393
 6432SOL     OW30754   2.010   0.375   9.961 -0.2363  0.4403  0.1091
 6432SOL    HW130755   2.010   0.471   9.959 -1.9387  0.4665  1.1608
 6432SOL    HW230756   2.085   0.366  10.020  0.0186  1.2847 -0.0910
 6433SOL     OW30757   3.235   3.344   1.686 -0.4082 -0.0273 -0.2821
 6433SOL    HW130758   3.283   3.329   1.605  2.3973  3.4625  0.7139
 6433SOL    HW230759   3.289   3.296   1.749 -1.2218 -1.0582 -0.3780
 6434SOL     OW30760   0.124   2.026   0.671  0.0687 -0.3198 -0.1715
 6434SOL    HW130761   0.055   2.091   0.681  0.6278  0.3006 -0.3341
 6434SOL    HW230762   0.080   1.970   0.607  0.0755  0.4677 -0.8745
 6435SOL     OW30763   0.584   3.847   8.403 -0.7610  0.0330 -0.0508
 6435SOL    HW130764   0.499   3.832   8.361 -1.4004  0.6927  0.9801
 6435SOL    HW230765   0.639   3.833   8.326  0.4658 -1.8598  1.1626
 6436SOL     OW30766   3.667   2.676   4.059 -0.8813 -0.5465  0.2698
 6436SOL    HW130767   3.588   2.702   4.012 -1.1904 -3.0342 -0.5842
 6436SOL    HW230768   3.699   2.606   4.002  0.9933  0.8039 -0.2979
 6437SOL     OW30769   2.949   4.220   4.733  0.8149 -0.2280  0.3938
 6437SOL    HW130770   2.887   4.162   4.688  0.5745 -0.1319  0.5934
 6437SOL    HW230771   3.033   4.185   4.705  0.0070 -1.7372 -0.1647
 6438SOL     OW30772   0.375   2.121  16.998 -0.0212  0.0206  0.1670
 6438SOL    HW130773   0.455   2.090  16.955 -0.8164 -0.3528 -1.0606
 6438SOL    HW230774   0.402   2.106  17.088 -1.4344 -0.6767  0.4650
 6439SOL     OW30775   1.373   2.184   2.283 -0.0446 -0.6244  0.5224
 6439SOL    HW130776   1.422   2.266   2.291 -1.4289  0.2136  0.4273
 6439SOL    HW230777   1.402   2.152   2.198  2.2711  1.6658  0.4395
 6440SOL     OW30778   2.124   2.061   5.676  0.4015 -0.5902  0.0390
 6440SOL    HW130779   2.094   2.138   5.726  2.1047  0.9329 -1.2728
 6440SOL    HW230780   2.210   2.085   5.640  0.6994 -2.4253 -0.4468
 6441SOL     OW30781   1.468   0.913  12.953 -0.2953 -0.2500 -0.0386
 6441SOL    HW130782   1.411   0.852  12.905 -0.0711 -1.1830  0.8761
 6441SOL    HW230783   1.490   0.973  12.882 -0.1877  0.1055  0.2958
 6442SOL     OW30784   3.875   2.214   5.294 -0.1981  0.2884 -0.2222
 6442SOL    HW130785   3.794   2.177   5.258 -0.2670  1.3550 -1.1536
 6442SOL    HW230786   3.852   2.307   5.297 -1.9278 -0.0815 -1.7965
 6443SOL     OW30787   2.221   2.564   6.459 -0.0652  0.1171  0.5784
 6443SOL    HW130788   2.296   2.614   6.428 -0.1434 -0.6908 -0.9300
 6443SOL    HW230789   2.189   2.533   6.374  1.9553 -1.3713  0.3668
 6444SOL     OW30790   3.709   3.762  12.095  0.1579 -0.3532  0.3073
 6444SOL    HW130791   3.663   3.736  12.015  2.3905 -0.4289 -0.9449
 6444SOL    HW230792   3.641   3.787  12.158  0.3610  0.5250  0.1685
 6445SOL     OW30793   2.726   2.692   6.682 -0.1326  0.1705 -0.3944
 6445SOL    HW130794   2.640   2.735   6.676  1.0851  2.7114  0.2783
 6445SOL    HW230795   2.739   2.699   6.777  0.7048 -0.0291 -0.4955
 6446SOL     OW30796   0.736   0.578  11.469  0.6513  0.2310 -0.0978
 6446SOL    HW130797   0.709   0.651  11.525 -2.0530 -0.2192 -0.8297
 6446SOL    HW230798   0.788   0.527  11.532 -0.2781  0.9396  1.2292
 6447SOL     OW30799   1.253   4.175   1.633  0.3623 -0.2753  0.2094
 6447SOL    HW130800   1.192   4.231   1.585 -0.0402 -0.6544  0.2864
 6447SOL    HW230801   1.296   4.130   1.561  1.0287 -2.5442  2.0478
 6448SOL     OW30802   0.890   1.540   7.133  1.0013 -0.0534 -0.2628
 6448SOL    HW130803   0.800   1.518   7.107  1.0859  1.2353 -1.6236
 6448SOL    HW230804   0.937   1.459   7.111 -1.0684 -0.5934 -2.6189
 6449SOL     OW30805   3.649   3.080   4.188 -0.5097  0.1770  0.0391
 6449SOL    HW130806   3.655   3.099   4.282 -0.7598  0.7921 -0.0679
 6449SOL    HW230807   3.558   3.055   4.172 -0.4476 -0.3211  0.4733
 6450SOL     OW30808   3.124   4.425   5.586 -0.0725  0.5269 -0.0466
 6450SOL    HW130809   3.155   4.342   5.621  0.1652  1.1186  1.1323
 6450SOL    HW230810   3.203   4.477   5.603  0.4671  0.0978 -1.2020
 6451SOL     OW30811   1.181   3.172   3.828  0.0274 -0.5772  0.1203
 6451SOL    HW130812   1.257   3.117   3.846  1.6687  0.6025 -3.1478
 6451SOL    HW230813   1.120   3.104   3.856  0.0382 -0.2143  1.0406
 6452SOL     OW30814   0.309   2.353  13.344 -0.0227 -0.1855 -0.5715
 6452SOL    HW130815   0.251   2.429  13.339 -1.2843 -1.2255 -1.4798
 6452SOL    HW230816   0.263   2.291  13.400 -0.4156 -0.7319 -1.5071
 6453SOL     OW30817   2.547   2.242   4.843  0.2616 -0.1310  0.0472
 6453SOL    HW130818   2.561   2.147   4.853  0.3981 -0.2457 -1.1784
 6453SOL    HW230819   2.633   2.276   4.820 -0.7130  2.1965 -0.1287
 6454SOL     OW30820   3.707   3.320  17.010  0.2939  0.0038  0.2787
 6454SOL    HW130821   3.738   3.230  17.022 -0.3898 -0.4998 -1.6939
 6454SOL    HW230822   3.666   3.340  17.094  0.3541 -0.2900  0.3767
 6455SOL     OW30823   0.823   3.040   6.153  0.5002  0.2584  0.3254
 6455SOL    HW130824   0.902   2.999   6.118  0.5653  1.2626 -0.6994
 6455SOL    HW230825   0.755   2.996   6.101 -0.4951 -0.2999  2.1062
 6456SOL     OW30826   2.448   1.687  12.603 -0.0180 -0.1873  0.5157
 6456SOL    HW130827   2.478   1.596  12.610 -0.7968 -0.5064 -0.3136
 6456SOL    HW230828   2.405   1.690  12.688  2.8885 -0.1457  1.9919
 6457SOL     OW30829   1.867   1.351  17.392  0.4779 -0.1269  0.3866
 6457SOL    HW130830   1.917   1.407  17.333  0.1930  0.5459  0.7940
 6457SOL    HW230831   1.803   1.410  17.432 -1.4648 -2.0255  0.1369
 6458SOL     OW30832   3.219   4.434   1.487  0.9664 -0.1852 -0.0480
 6458SOL    HW130833   3.219   4.510   1.546  1.5706 -0.9607  0.9528
 6458SOL    HW230834   3.295   4.388   1.522  1.7381  0.0610 -1.3919
 6459SOL     OW30835   4.112   3.386   2.948  0.4762  0.0358  0.6029
 6459SOL    HW130836   4.032   3.415   2.905  1.3341  1.5631  0.0428
 6459SOL    HW230837   4.122   3.458   3.009 -0.1730  1.6730 -1.2319
 6460SOL     OW30838   2.223   3.156  10.875 -0.1558 -0.3062 -0.1158
 6460SOL    HW130839   2.303   3.190  10.914  0.3292  0.9485 -2.2086
 6460SOL    HW230840   2.242   3.177  10.783 -1.9961 -1.4905 -0.7687
 6461SOL     OW30841   0.494   4.012   8.707  0.0578  0.1469 -0.3264
 6461SOL    HW130842   0.560   3.946   8.684  0.2704 -0.5177  2.1046
 6461SOL    HW230843   0.548   4.090   8.697 -0.9866  0.8987 -0.0640
 6462SOL     OW30844   3.360   3.538   4.944  0.0464  0.0758 -0.0250
 6462SOL    HW130845   3.407   3.620   4.929 -0.7175  0.5421  0.1008
 6462SOL    HW230846   3.324   3.514   4.859  2.1262 -2.6563 -0.1112
 6463SOL     OW30847   2.732   1.183   0.250 -0.0844 -0.3813  0.1048
 6463SOL    HW130848   2.758   1.091   0.249  0.6621 -0.1564 -2.3800
 6463SOL    HW230849   2.788   1.217   0.319  1.1640  0.1288 -1.1644
 6464SOL     OW30850   3.844   4.549   0.403  0.2530  0.6120 -0.1453
 6464SOL    HW130851   3.931   4.560   0.365 -0.1188  0.5146 -1.0439
 6464SOL    HW230852   3.789   4.576   0.329 -1.7814 -1.4998  0.6000
 6465SOL     OW30853   1.709   1.592   9.025  0.3744  0.2479 -0.2022
 6465SOL    HW130854   1.752   1.510   9.049 -0.1387  0.2880  0.8076
 6465SOL    HW230855   1.782   1.654   9.026  2.0636 -1.6944 -0.4614
 6466SOL     OW30856   3.270   2.219   8.370  0.5818  0.6573  0.7903
 6466SOL    HW130857   3.298   2.308   8.348 -1.9495  1.9865  2.8233
 6466SOL    HW230858   3.345   2.165   8.346 -1.2502 -1.5783  0.0853
 6467SOL     OW30859   2.173   0.477   0.937  0.0100 -0.5845 -0.1192
 6467SOL    HW130860   2.214   0.531   1.005 -1.5793 -2.4991  2.3541
 6467SOL    HW230861   2.119   0.542   0.892  0.2975  0.1720  0.6183
 6468SOL     OW30862   0.140   1.777   6.302  0.3950  0.3325 -0.1106
 6468SOL    HW130863   0.225   1.789   6.259  0.7462  2.4850  1.2223
 6468SOL    HW230864   0.154   1.742   6.390 -3.1695  1.4573  0.9146
 6469SOL     OW30865   4.413   4.051   5.263  0.3020  0.0263  0.9111
 6469SOL    HW130866   4.321   4.078   5.260  0.3162 -0.0232 -0.0740
 6469SOL    HW230867   4.430   4.043   5.356  2.1968 -0.6434  0.5075
 6470SOL     OW30868   3.489   4.351  10.680  0.3751 -0.4925  0.2469
 6470SOL    HW130869   3.506   4.445  10.673 -2.2810 -0.2191 -2.6197
 6470SOL    HW230870   3.394   4.347  10.664  0.7906 -0.2098 -2.2198
 6471SOL     OW30871   0.885   0.827   6.674 -0.1474  0.2487  0.1016
 6471SOL    HW130872   0.977   0.852   6.684 -0.6173  1.0991  2.2879
 6471SOL    HW230873   0.855   0.840   6.764 -2.1571 -0.9938 -0.4058
 6472SOL     OW30874   4.277   1.832   7.230  0.5307  0.3790 -0.3553
 6472SOL    HW130875   4.337   1.822   7.156  1.0304  1.4766 -0.1079
 6472SOL    HW230876   4.331   1.846   7.308 -0.4199 -1.7422  0.6740
 6473SOL     OW30877   4.353   0.403  17.634  0.0787  0.0246 -0.0514
 6473SOL    HW130878   4.395   0.400  17.548 -1.0797  4.2766 -0.7311
 6473SOL    HW230879   4.271   0.439  17.601 -0.8832 -2.2377 -0.1170
 6474SOL     OW30880   1.555   0.609   5.324 -1.1835  0.1434  0.3106
 6474SOL    HW130881   1.594   0.552   5.258 -0.1603  0.1140  0.9291
 6474SOL    HW230882   1.472   0.639   5.287  0.1913  2.0883 -1.1770
 6475SOL     OW30883   1.606   1.714   1.725  0.2446  0.0699  0.8698
 6475SOL    HW130884   1.587   1.783   1.661  2.3143 -1.7163 -1.6700
 6475SOL    HW230885   1.679   1.670   1.681 -0.0932  0.8169 -0.4545
 6476SOL     OW30886   0.080   1.308   6.175 -0.7281  0.1898 -0.4288
 6476SOL    HW130887   0.073   1.326   6.081  1.7060  1.2050 -0.4031
 6476SOL    HW230888   0.146   1.367   6.211  1.2016 -1.7970 -0.7243
 6477SOL     OW30889   3.858   1.252  15.143  0.2643  0.0516  0.1037
 6477SOL    HW130890   3.921   1.315  15.178  1.0172  0.3479 -1.8000
 6477SOL    HW230891   3.907   1.170  15.148  0.6802  0.2738 -0.3102
 6478SOL     OW30892   4.223   1.613   9.653 -0.1797  0.0270 -0.3937
 6478SOL    HW130893   4.300   1.669   9.643  0.2246 -0.2135  1.3511
 6478SOL    HW230894   4.209   1.603   9.747  0.0541 -0.3622 -0.3996
 6479SOL     OW30895   2.694   4.486   6.712  0.0004 -0.1444 -0.5475
 6479SOL    HW130896   2.643   4.405   6.706  0.0380 -0.2662  0.8055
 6479SOL    HW230897   2.785   4.459   6.715  0.0879  0.1118 -0.8286
 6480SOL     OW30898   0.445   0.775   0.760 -0.1385 -0.2304 -0.3238
 6480SOL    HW130899   0.391   0.844   0.800 -0.1927 -0.8318  0.6462
 6480SOL    HW230900   0.487   0.824   0.690  1.1112  0.5037  0.9204
 6481SOL     OW30901   3.231   1.600  13.043  0.1935 -0.2314  0.1748
 6481SOL    HW130902   3.203   1.541  12.973  0.0349 -1.8051  1.5684
 6481SOL    HW230903   3.149   1.617  13.090  1.0185 -1.6882  2.1275
 6482SOL     OW30904   4.310   4.165   6.855 -0.0438  0.4084 -0.4484
 6482SOL    HW130905   4.293   4.074   6.831  1.3075  0.7079 -2.6116
 6482SOL    HW230906   4.261   4.203   6.782  2.1695  3.1769 -0.5384
 6483SOL     OW30907   0.884   0.205   1.892  0.2388 -0.0499  0.4433
 6483SOL    HW130908   0.975   0.233   1.883  0.7675 -1.4473  1.3733
 6483SOL    HW230909   0.886   0.120   1.847 -1.1954 -0.0568  0.4100
 6484SOL     OW30910   1.915   1.872  14.124 -0.0732  0.7032  0.2288
 6484SOL    HW130911   1.940   1.820  14.047 -0.9083 -2.1539  1.8733
 6484SOL    HW230912   1.861   1.931  14.073 -0.9478 -0.4031 -0.1220
 6485SOL     OW30913   2.090   0.569   9.318 -0.1823 -0.1945 -0.0538
 6485SOL    HW130914   2.114   0.621   9.394 -0.9232  1.5564 -1.0225
 6485SOL    HW230915   2.149   0.589   9.246 -0.3790  1.5907  0.2769
 6486SOL     OW30916   1.432   3.678   5.172  0.3847  0.4828  1.0679
 6486SOL    HW130917   1.508   3.731   5.196 -0.2920  1.8287  0.2175
 6486SOL    HW230918   1.367   3.711   5.234  0.8174  0.3168  1.6081
 6487SOL     OW30919   1.669   4.534   8.128  0.1413  0.4086  0.0521
 6487SOL    HW130920   1.740   4.490   8.174 -0.5985  1.6561  2.3583
 6487SOL    HW230921   1.698   4.527   8.037 -0.9375 -0.9900 -0.1764
 6488SOL     OW30922   3.379   0.518   9.365 -0.2871  0.1871  0.1118
 6488SOL    HW130923   3.395   0.606   9.400  1.0142  0.0484 -0.1519
 6488SOL    HW230924   3.427   0.466   9.429  2.7037  0.7915 -1.5992
 6489SOL     OW30925   1.586   0.930   7.292  0.2164  0.6237  0.0723
 6489SOL    HW130926   1.645   0.961   7.223 -2.0633  1.2411 -1.5937
 6489SOL    HW230927   1.511   0.894   7.244 -0.3405  0.3976  1.1105
 6490SOL     OW30928   2.969   1.732   8.526 -0.4429  0.1458 -0.3619
 6490SOL    HW130929   3.046   1.713   8.579 -1.4555 -0.4580  0.9187
 6490SOL    HW230930   2.912   1.782   8.584  0.2559 -0.3726  0.7612
 6491SOL     OW30931   4.049   2.270   6.191  0.4469  0.3759  0.1499
 6491SOL    HW130932   4.087   2.184   6.210  0.5938  0.6984  1.3511
 6491SOL    HW230933   4.117   2.329   6.160  1.9730 -0.8717  1.1081
 6492SOL     OW30934   2.917   3.303   7.101  0.5428 -0.6521  0.1660
 6492SOL    HW130935   2.838   3.316   7.154  0.1026  1.8372 -1.1046
 6492SOL    HW230936   2.882   3.342   7.020  2.8342  2.3679  0.6344
 6493SOL     OW30937   0.029   2.117  13.043  0.0470  0.1474  0.3644
 6493SOL    HW130938   0.005   2.024  13.039  2.0554 -0.5199  4.2515
 6493SOL    HW230939   0.110   2.111  12.993  0.2271  0.4015  0.6232
 6494SOL     OW30940   1.372   4.270   2.442 -0.4720 -0.1197  0.0536
 6494SOL    HW130941   1.454   4.318   2.450 -0.4932  0.4159 -2.9885
 6494SOL    HW230942   1.316   4.343   2.465  1.0307  0.5729  1.5269
 6495SOL     OW30943   0.515   0.982  13.770  0.0197 -0.0763 -0.1307
 6495SOL    HW130944   0.468   0.925  13.709 -0.0921 -0.1788  0.0492
 6495SOL    HW230945   0.489   1.062  13.724 -0.3995 -0.8134 -1.1674
 6496SOL     OW30946   3.460   4.094  17.026 -0.2400  0.3433 -0.1370
 6496SOL    HW130947   3.415   4.013  17.000  0.7124 -0.0172 -0.6534
 6496SOL    HW230948   3.392   4.142  17.074  0.4126  0.6399  0.4985
 6497SOL     OW30949   0.174   1.092   8.678 -0.0520 -0.0532 -0.1499
 6497SOL    HW130950   0.128   1.014   8.646 -0.9346  1.2168 -1.9662
 6497SOL    HW230951   0.217   1.045   8.749 -4.6912  0.6986  3.1618
 6498SOL     OW30952   4.104   3.642   6.361 -0.2749 -0.2233 -0.0187
 6498SOL    HW130953   4.090   3.732   6.330 -1.3786 -0.6108 -0.6450
 6498SOL    HW230954   4.102   3.658   6.456  1.4261  1.0934 -0.2169
 6499SOL     OW30955   1.562   1.388  15.149  0.5635  0.1776  0.1437
 6499SOL    HW130956   1.528   1.361  15.235  0.0290  0.0219 -0.1167
 6499SOL    HW230957   1.557   1.302  15.107 -2.3991 -0.4651  1.7626
 6500SOL     OW30958   2.247   1.539  11.372  0.3001  0.1887 -0.0345
 6500SOL    HW130959   2.238   1.527  11.466  1.9865 -1.1141 -0.0236
 6500SOL    HW230960   2.174   1.597  11.354 -2.1052 -2.4981  1.0721
 6501SOL     OW30961   2.791   1.783   0.471 -0.1490 -0.1883  0.2774
 6501SOL    HW130962   2.700   1.773   0.444  0.4717  0.0167 -1.8949
 6501SOL    HW230963   2.795   1.746   0.559 -2.4499  0.1923  0.5483
 6502SOL     OW30964   4.372   1.152  16.016 -0.2056  0.4198 -0.4272
 6502SOL    HW130965   4.284   1.163  16.051  1.3672 -0.3714  3.7831
 6502SOL    HW230966   4.381   1.060  16.041 -1.4400 -0.0301 -1.6304
 6503SOL     OW30967   2.655   1.425   7.886  0.2260 -0.6606  0.1632
 6503SOL    HW130968   2.583   1.392   7.939  0.0852 -2.3261 -1.0737
 6503SOL    HW230969   2.665   1.366   7.811  1.5177  0.3369 -0.4577
 6504SOL     OW30970   1.633   2.066   3.647  0.8608 -0.6881  0.2341
 6504SOL    HW130971   1.571   2.114   3.701 -0.5809 -1.2697 -0.9175
 6504SOL    HW230972   1.572   2.004   3.607  1.1096 -0.4942 -0.4594
 6505SOL     OW30973   1.979   2.179  13.960  0.1544 -0.1066 -0.2606
 6505SOL    HW130974   1.940   2.191  13.874 -0.1200  0.8540  0.0019
 6505SOL    HW230975   1.930   2.236  14.019 -2.1911  0.2498 -2.5970
 6506SOL     OW30976   3.550   2.713   4.638  0.3118  0.0868  0.2970
 6506SOL    HW130977   3.461   2.723   4.673  1.0563 -1.0081  2.5243
 6506SOL    HW230978   3.531   2.753   4.553  1.1630  1.0034  0.5421
 6507SOL     OW30979   2.994   2.698  17.247  0.0477 -0.2071 -0.0546
 6507SOL    HW130980   2.902   2.697  17.272 -0.3906  1.1290 -1.5921
 6507SOL    HW230981   3.031   2.655  17.323  2.3557  1.6419 -0.1304
 6508SOL     OW30982   4.091   3.953   8.194  0.8382 -0.1939  0.2138
 6508SOL    HW130983   4.008   3.983   8.231  0.2707 -1.0264 -0.3959
 6508SOL    HW230984   4.144   4.031   8.212  0.5472  0.3362 -1.2494
 6509SOL     OW30985   1.078   1.501   8.636 -0.2763 -0.0062  0.5783
 6509SOL    HW130986   1.132   1.480   8.560  0.1203  0.0480  0.8501
 6509SOL    HW230987   1.130   1.450   8.698  1.7205  0.9190 -0.3433
 6510SOL     OW30988   0.196   1.522  12.901 -0.4045 -0.0154  0.4106
 6510SOL    HW130989   0.201   1.430  12.926 -0.8293  0.2355  1.4556
 6510SOL    HW230990   0.287   1.543  12.879 -0.7826 -0.1674 -1.2250
 6511SOL     OW30991   1.655   1.319   4.476 -0.1947 -0.7174  0.2808
 6511SOL    HW130992   1.663   1.314   4.380  0.9691  1.1087  0.2696
 6511SOL    HW230993   1.605   1.399   4.489  0.0132 -0.8795  1.9846
 6512SOL     OW30994   0.903   0.092   8.334  0.2367 -0.2361 -0.0145
 6512SOL    HW130995   0.972   0.065   8.273  0.6973  0.3741  0.2360
 6512SOL    HW230996   0.841   0.132   8.274 -0.0479 -1.2425 -0.3841
 6513SOL     OW30997   1.295   1.315   9.283 -0.1158  0.1396  0.2570
 6513SOL    HW130998   1.272   1.226   9.257  0.6398  0.7594 -2.5766
 6513SOL    HW230999   1.363   1.304   9.349 -1.7106 -1.1054  1.6909
 6514SOL     OW31000   3.851   3.626   3.224  0.5887 -0.0422 -0.3358
 6514SOL    HW131001   3.887   3.601   3.310  1.2142  0.6803 -0.3892
 6514SOL    HW231002   3.924   3.613   3.164  1.1210  0.2802  0.2486
 6515SOL     OW31003   4.459   3.479   7.158 -0.3712  0.2534  0.1841
 6515SOL    HW131004   4.399   3.552   7.173  1.2997  1.2012  2.1746
 6515SOL    HW231005   4.509   3.478   7.239  0.6383 -1.1741 -0.4389
 6516SOL     OW31006   2.542   1.981  16.102 -0.1993 -0.2899 -0.1906
 6516SOL    HW131007   2.558   1.959  16.011 -0.2429 -1.0286 -0.0181
 6516SOL    HW231008   2.498   1.900  16.129 -1.8900  0.9195  0.6376
 6517SOL     OW31009   1.052   2.156  15.150  0.0130  0.4004  0.3322
 6517SOL    HW131010   0.957   2.149  15.153 -0.0022  0.7653  0.6841
 6517SOL    HW231011   1.058   2.217  15.224 -0.9680  1.4351 -0.4360
 6518SOL     OW31012   1.323   3.645  14.917 -0.0993  0.3745  0.3762
 6518SOL    HW131013   1.417   3.662  14.914  0.0545 -0.3752  0.9028
 6518SOL    HW231014   1.327   3.552  14.937 -1.3606 -0.6097 -3.8976
 6519SOL     OW31015   0.203   3.369   3.547  0.6389  0.0771 -0.4448
 6519SOL    HW131016   0.202   3.282   3.508  2.4261  0.1836 -0.7593
 6519SOL    HW231017   0.297   3.374   3.569 -0.1260  2.0715  2.3758
 6520SOL     OW31018   3.391   3.591   2.333  0.2194  0.0571 -0.3820
 6520SOL    HW131019   3.377   3.672   2.285 -1.7863 -1.4214 -2.2750
 6520SOL    HW231020   3.408   3.530   2.262 -3.2568 -0.5659 -0.6751
 6521SOL     OW31021   2.123   0.177  14.583 -0.2411  0.0272 -0.6114
 6521SOL    HW131022   2.201   0.171  14.527  0.1488  1.0823 -0.1933
 6521SOL    HW231023   2.166   0.219  14.657 -2.1906 -0.1618  0.5973
 6522SOL     OW31024   1.797   2.279   8.832  0.3589  0.1893 -0.1088
 6522SOL    HW131025   1.802   2.373   8.850  0.9162  0.1500 -0.0426
 6522SOL    HW231026   1.750   2.260   8.913  3.2026 -2.0246  1.0288
 6523SOL     OW31027   2.012   1.611  11.117 -0.1023  0.4883  0.3889
 6523SOL    HW131028   2.080   1.561  11.071 -1.1274  2.0313 -2.7739
 6523SOL    HW231029   2.011   1.692  11.066 -1.7495  1.7944  2.5076
 6524SOL     OW31030   2.725   3.094   2.617  0.4621  0.2280  0.2217
 6524SOL    HW131031   2.732   3.094   2.521  1.3070 -0.4745  0.2813
 6524SOL    HW231032   2.804   3.146   2.633  0.9102  0.3108 -2.3083
 6525SOL     OW31033   0.172   3.096  17.327 -0.3958 -0.3579  0.5814
 6525SOL    HW131034   0.138   3.127  17.411 -1.2929 -1.5597  0.6699
 6525SOL    HW231035   0.104   3.038  17.291  0.3214 -0.0580 -1.2515
 6526SOL     OW31036   4.535   0.282   5.149 -0.7566  0.3578 -0.3454
 6526SOL    HW131037   4.510   0.206   5.200  0.1071 -0.8973 -1.7607
 6526SOL    HW231038   4.531   0.241   5.062 -2.7279  0.1088 -0.1377
 6527SOL     OW31039   0.676   0.592  16.888  0.2539 -0.1145 -0.1857
 6527SOL    HW131040   0.664   0.648  16.812 -0.3580  1.6118  1.1968
 6527SOL    HW231041   0.586   0.570  16.914  0.4386 -0.1117  0.4577
 6528SOL     OW31042   1.771   2.461  16.362 -0.4001 -0.5981 -0.5482
 6528SOL    HW131043   1.748   2.424  16.277 -0.2608  1.0859 -1.3377
 6528SOL    HW231044   1.803   2.549  16.339 -1.3193 -0.2044 -0.3585
 6529SOL     OW31045   0.135   2.541   2.652 -0.1800  0.0820 -0.3432
 6529SOL    HW131046   0.205   2.478   2.668  1.1286  0.8240 -3.1403
 6529SOL    HW231047   0.129   2.546   2.557  2.7300  0.6342 -0.4974
 6530SOL     OW31048   2.459   1.161   4.714 -0.4096  0.7502  0.2581
 6530SOL    HW131049   2.380   1.108   4.724  0.3026 -0.2702  0.4604
 6530SOL    HW231050   2.518   1.130   4.782 -1.4022  0.0420  0.8007
 6531SOL     OW31051   2.796   2.620   3.710 -0.1711 -0.0677 -0.1387
 6531SOL    HW131052   2.850   2.597   3.786  0.1692  0.0056 -0.3583
 6531SOL    HW231053   2.707   2.627   3.744 -0.8139 -1.7091 -1.4861
 6532SOL     OW31054   3.316   1.573  16.691  0.6041 -0.1197 -0.4817
 6532SOL    HW131055   3.396   1.610  16.655 -0.4150  2.6523  0.1296
 6532SOL    HW231056   3.255   1.647  16.695 -0.5164 -1.1170  0.9524
 6533SOL     OW31057   3.910   3.185   8.149 -0.0913  0.0404  0.0227
 6533SOL    HW131058   3.908   3.183   8.245  0.2718 -0.4991  0.0227
 6533SOL    HW231059   3.985   3.127   8.134 -0.5399 -0.6364  0.4069
 6534SOL     OW31060   0.470   2.171   4.862 -0.3493 -0.0251 -0.3811
 6534SOL    HW131061   0.531   2.099   4.848  0.4834  0.4090  1.0312
 6534SOL    HW231062   0.402   2.144   4.800 -0.8672 -1.0736  0.6376
 6535SOL     OW31063   2.123   3.196   8.541 -0.6055 -0.1178  0.4039
 6535SOL    HW131064   2.143   3.290   8.542 -2.5535  0.2976  0.0534
 6535SOL    HW231065   2.184   3.151   8.482 -0.5697 -0.9158  1.0469
 6536SOL     OW31066   4.653   0.690   6.980  0.2007 -0.1978  0.1341
 6536SOL    HW131067   4.641   0.769   7.032  2.1677  1.8570 -2.4936
 6536SOL    HW231068   4.569   0.646   6.997  0.0568 -0.0853 -0.2801
 6537SOL     OW31069   3.906   4.394   6.068  0.1764 -0.2484 -0.2133
 6537SOL    HW131070   3.977   4.360   6.013 -0.5212  0.3467 -1.4917
 6537SOL    HW231071   3.938   4.484   6.077  0.2901 -0.4474  1.3351
 6538SOL     OW31072   0.626   4.473   3.393 -0.0180  0.0350 -0.2526
 6538SOL    HW131073   0.571   4.551   3.405 -1.2568 -0.6659 -1.3492
 6538SOL    HW231074   0.557   4.409   3.375  0.1869 -0.5204  0.9523
 6539SOL     OW31075   0.235   2.337   6.279 -0.4190  0.0392  0.6301
 6539SOL    HW131076   0.166   2.280   6.243  0.5467 -0.0845 -1.0034
 6539SOL    HW231077   0.228   2.315   6.372  2.0712 -2.4827  0.2194
 6540SOL     OW31078   1.942   2.063   5.427 -0.8802 -0.1866  0.2111
 6540SOL    HW131079   2.028   2.045   5.388  0.3102  0.5063  2.5521
 6540SOL    HW231080   1.958   2.124   5.499 -2.4258 -0.6195  0.9127
 6541SOL     OW31081   2.610   3.922   8.691  0.1530 -0.3979 -0.1098
 6541SOL    HW131082   2.695   3.961   8.713  0.2571 -0.9714  0.5072
 6541SOL    HW231083   2.613   3.906   8.597  1.2018  1.8758 -0.4733
 6542SOL     OW31084   4.634   2.623   3.264 -1.0120  0.4260  0.1233
 6542SOL    HW131085   4.568   2.597   3.200 -0.4468 -1.2456  0.2324
 6542SOL    HW231086   4.611   2.716   3.272 -0.0378  0.6855 -0.0389
 6543SOL     OW31087   0.181   0.679   4.105 -0.3469  0.1489 -0.1723
 6543SOL    HW131088   0.240   0.646   4.173  0.0862  0.9498 -0.1560
 6543SOL    HW231089   0.111   0.613   4.105 -0.2206  0.0454 -2.4709
 6544SOL     OW31090   0.779   1.848   7.581  0.1344  0.2249  0.4265
 6544SOL    HW131091   0.797   1.868   7.489  0.0552 -0.8459  0.1782
 6544SOL    HW231092   0.684   1.838   7.579  0.1912  0.4236 -2.6182
 6545SOL     OW31093   2.894   4.254   2.597 -0.2553  0.0319  0.4134
 6545SOL    HW131094   2.914   4.165   2.628 -0.9437 -0.4838 -0.6177
 6545SOL    HW231095   2.968   4.273   2.540 -0.4372 -0.7847 -0.0992
 6546SOL     OW31096   0.657   3.317   1.891 -0.2323  0.3426 -0.1151
 6546SOL    HW131097   0.580   3.316   1.833 -0.1171 -0.7451 -0.2452
 6546SOL    HW231098   0.644   3.407   1.922 -0.7976  0.2913 -0.2001
 6547SOL     OW31099   1.526   4.512  11.676 -0.4098 -0.1555  0.2047
 6547SOL    HW131100   1.487   4.469  11.752 -3.5102  0.4357 -1.0613
 6547SOL    HW231101   1.474   4.489  11.599 -0.4550  1.3951 -0.2193
 6548SOL     OW31102   3.323   4.300   3.608 -0.2237 -0.1137  0.2934
 6548SOL    HW131103   3.372   4.298   3.691 -1.0623 -2.4089  0.7435
 6548SOL    HW231104   3.354   4.386   3.580 -3.2086  0.7331 -0.3944
 6549SOL     OW31105   1.096   4.049   0.255 -0.3482  0.5159  0.3941
 6549SOL    HW131106   1.084   4.144   0.252  1.8621  0.7637 -0.3679
 6549SOL    HW231107   1.006   4.018   0.247 -0.1624  0.4488 -1.5638
 6550SOL     OW31108   4.278   2.895  15.656 -0.6049  0.0726  0.2710
 6550SOL    HW131109   4.316   2.976  15.621 -0.7690 -0.1034 -0.3115
 6550SOL    HW231110   4.279   2.836  15.581  1.3963  2.1653 -1.3549
 6551SOL     OW31111   2.670   0.167   3.082  0.3759 -0.2283  0.6834
 6551SOL    HW131112   2.708   0.254   3.078 -0.9978  0.4026  1.2793
 6551SOL    HW231113   2.583   0.183   3.119 -0.2035 -1.1020 -0.2964
 6552SOL     OW31114   1.820   2.326  13.797 -0.0280  0.7862 -0.5410
 6552SOL    HW131115   1.766   2.282  13.731  2.8154 -1.0296 -1.6569
 6552SOL    HW231116   1.749   2.357  13.852  1.1262  2.3552  0.0790
 6553SOL     OW31117   4.370   3.365   4.194 -0.3429 -0.0502 -0.2141
 6553SOL    HW131118   4.325   3.450   4.191 -0.6381 -0.1421  2.0368
 6553SOL    HW231119   4.304   3.322   4.139 -0.4682  1.7047 -1.4449
 6554SOL     OW31120   4.528   2.984   8.198  0.2896 -0.2111  0.5350
 6554SOL    HW131121   4.518   2.921   8.127  2.0239  0.4602 -0.2840
 6554SOL    HW231122   4.586   2.942   8.262 -1.1485  0.2250  2.1189
 6555SOL     OW31123   2.552   1.437   1.753 -0.0489  0.4203  0.1002
 6555SOL    HW131124   2.553   1.427   1.849  0.6030 -1.1931 -0.0790
 6555SOL    HW231125   2.469   1.484   1.746  0.3492  1.3384  1.4293
 6556SOL     OW31126   1.849   1.429   2.883 -0.6276 -0.3700 -0.4801
 6556SOL    HW131127   1.914   1.489   2.921 -0.9775 -0.7004  0.6413
 6556SOL    HW231128   1.847   1.463   2.793  0.7608  0.0669 -0.3620
 6557SOL     OW31129   3.260   3.780   2.148  0.4419 -0.6082  0.3389
 6557SOL    HW131130   3.185   3.744   2.100  0.6854 -1.6552  0.7408
 6557SOL    HW231131   3.317   3.820   2.083  3.8204 -1.9246  2.5039
 6558SOL     OW31132   1.239   4.104   5.922 -0.2227 -0.1934 -0.5036
 6558SOL    HW131133   1.322   4.150   5.907  0.2366 -0.8120  0.0883
 6558SOL    HW231134   1.242   4.084   6.016  2.3694  0.4562 -0.4446
 6559SOL     OW31135   3.076   3.034   8.292  0.3060  0.4846  0.5012
 6559SOL    HW131136   3.076   3.075   8.206  1.3155 -1.3121 -0.3466
 6559SOL    HW231137   3.168   3.022   8.315  0.2774 -1.9165 -0.7052
 6560SOL     OW31138   1.888   3.495  14.896 -0.7467  0.1491 -0.5846
 6560SOL    HW131139   1.881   3.427  14.829 -2.0637  0.1269 -0.4145
 6560SOL    HW231140   1.852   3.435  14.961 -0.9591 -0.4729 -1.2615
 6561SOL     OW31141   3.103   2.698  11.414  0.6223  0.4425  0.1933
 6561SOL    HW131142   3.127   2.790  11.407  1.0599  0.2406 -0.9144
 6561SOL    HW231143   3.128   2.673  11.503  1.2446  2.5232  0.5967
 6562SOL     OW31144   2.405   2.540   8.086  0.4724  0.2627 -0.6721
 6562SOL    HW131145   2.460   2.544   8.165  0.3956  0.4954 -0.6293
 6562SOL    HW231146   2.427   2.622   8.043 -1.4931  1.3248  0.3514
 6563SOL     OW31147   1.937   4.366  15.072 -0.0706  0.6772 -0.1348
 6563SOL    HW131148   1.927   4.325  15.158  0.0885  0.7422 -0.0855
 6563SOL    HW231149   2.013   4.323  15.033 -0.4283  0.7225 -0.8781
 6564SOL     OW31150   4.442   2.948  15.887  0.2916  0.2721  0.1781
 6564SOL    HW131151   4.386   2.921  15.815  1.6738  0.5840 -1.0024
 6564SOL    HW231152   4.427   2.878  15.951  0.0126 -0.5153 -0.7491
 6565SOL     OW31153   2.041   2.812   8.335 -0.1250 -0.1688  0.0801
 6565SOL    HW131154   2.113   2.806   8.398  0.0150 -4.5646 -0.4648
 6565SOL    HW231155   1.976   2.784   8.399 -1.9045 -0.7628 -2.0096
 6566SOL     OW31156   1.730   1.300   8.453  0.3676  0.2954  0.4815
 6566SOL    HW131157   1.797   1.289   8.386 -1.0554 -1.2456 -0.6920
 6566SOL    HW231158   1.788   1.278   8.527 -0.3179 -1.5466  0.4538
 6567SOL     OW31159   1.954   2.196   9.151  0.4394  0.2413  0.2440
 6567SOL    HW131160   1.861   2.195   9.128  0.1099  1.3827  1.5135
 6567SOL    HW231161   1.967   2.283   9.188  1.8153 -0.7868  2.1866
 6568SOL     OW31162   1.512   3.446   5.908 -0.2416 -0.5842  0.1691
 6568SOL    HW131163   1.584   3.445   5.971 -0.8289 -0.3508  0.8453
 6568SOL    HW231164   1.498   3.539   5.892  1.9185 -0.3294 -0.3252
 6569SOL     OW31165   3.702   3.110   4.676  0.1204  0.0262  0.3512
 6569SOL    HW131166   3.699   3.015   4.690 -2.6461  0.0250 -0.2116
 6569SOL    HW231167   3.786   3.135   4.714 -0.8411  0.6798  2.0647
 6570SOL     OW31168   0.310   3.007   6.104  0.9184 -0.0845 -0.1428
 6570SOL    HW131169   0.261   3.022   6.023 -1.2115 -0.5133  1.0702
 6570SOL    HW231170   0.270   3.068   6.166  1.1501  0.7810 -0.8423
 6571SOL     OW31171   3.573   3.456   9.837 -0.6556 -0.5216 -0.1359
 6571SOL    HW131172   3.518   3.521   9.794  0.6389  0.3863 -0.4100
 6571SOL    HW231173   3.627   3.507   9.897  0.9952 -0.1271 -1.9486
 6572SOL     OW31174   1.232   2.018   8.616 -0.4157  0.4853  0.1529
 6572SOL    HW131175   1.307   2.076   8.629 -0.4017  0.2139  1.3030
 6572SOL    HW231176   1.162   2.073   8.581 -1.2010 -1.7485 -1.7698
 6573SOL     OW31177   2.148   0.307   2.732 -0.0689 -0.6726  0.4435
 6573SOL    HW131178   2.064   0.300   2.777 -1.5406 -0.6419 -2.2730
 6573SOL    HW231179   2.136   0.356   2.650 -2.2721 -3.4012 -0.8683
 6574SOL     OW31180   2.145   3.091   3.448 -0.0567 -0.4607 -0.3330
 6574SOL    HW131181   2.060   3.125   3.476  0.3711  0.5320 -0.2443
 6574SOL    HW231182   2.205   3.093   3.522 -0.5384 -0.1533  0.0464
 6575SOL     OW31183   0.503   3.874   3.840  0.4397 -0.7808  0.0832
 6575SOL    HW131184   0.471   3.907   3.924 -1.2387 -0.0213 -0.8650
 6575SOL    HW231185   0.429   3.870   3.780 -0.3806  1.9705  0.9334
 6576SOL     OW31186   1.652   1.999   4.218 -0.1438  0.0959  0.3935
 6576SOL    HW131187   1.626   1.908   4.235 -0.6150  0.1590  0.0330
 6576SOL    HW231188   1.632   1.997   4.124 -0.4600 -2.5957  0.5195
 6577SOL     OW31189   3.081   1.647   8.002 -0.3049  0.7024 -0.0963
 6577SOL    HW131190   3.020   1.669   8.072 -0.5042  0.4743 -0.1996
 6577SOL    HW231191   3.018   1.630   7.932  1.4351 -0.9738 -1.2646
 6578SOL     OW31192   1.296   1.645   6.828  0.0319  0.2973 -0.2358
 6578SOL    HW131193   1.321   1.677   6.915 -0.2138  2.9086 -1.1500
 6578SOL    HW231194   1.384   1.625   6.795  0.4798  0.1612  1.0252
 6579SOL     OW31195   3.978   0.614   4.207  0.2335 -0.4244 -0.6267
 6579SOL    HW131196   3.950   0.542   4.264  0.3950 -0.1278 -0.1730
 6579SOL    HW231197   3.897   0.642   4.163  0.8662  1.2816 -0.6719
 6580SOL     OW31198   2.917   0.878   3.601  0.1818  0.5305  0.0202
 6580SOL    HW131199   2.995   0.822   3.608 -0.0665 -0.1968 -2.9559
 6580SOL    HW231200   2.855   0.809   3.578 -0.0289  0.1935  1.5733
 6581SOL     OW31201   1.523   0.767   8.220 -0.1302  0.1063  0.0870
 6581SOL    HW131202   1.616   0.747   8.221  0.1609  1.3954 -1.7922
 6581SOL    HW231203   1.497   0.718   8.142  0.8681  2.4424 -1.7001
 6582SOL     OW31204   1.119   1.579   6.232  0.1029 -0.5316 -0.0039
 6582SOL    HW131205   1.136   1.497   6.185 -0.1486 -2.3194  3.0433
 6582SOL    HW231206   1.031   1.595   6.197  0.6507  2.4411 -0.0115
 6583SOL     OW31207   0.137   0.191   3.184 -0.6603  0.5915  0.7838
 6583SOL    HW131208   0.071   0.171   3.118 -0.5191  1.8007  0.2717
 6583SOL    HW231209   0.218   0.181   3.133 -1.5483 -1.0299 -0.3038
 6584SOL     OW31210   0.810   4.693   7.512 -0.3554 -0.4347 -0.0796
 6584SOL    HW131211   0.729   4.661   7.551 -1.5907 -2.0362 -3.9762
 6584SOL    HW231212   0.880   4.693   7.577  1.1638  2.6142 -1.7317
 6585SOL     OW31213   4.501   0.599   4.277 -0.1008  0.3957  0.4874
 6585SOL    HW131214   4.488   0.504   4.270 -0.5714  0.6004 -1.4723
 6585SOL    HW231215   4.496   0.611   4.372 -0.4171 -2.2955  0.8205
 6586SOL     OW31216   2.257   3.544   8.657  0.1055 -0.3749  0.0704
 6586SOL    HW131217   2.323   3.525   8.591  1.0726 -2.4735  1.6704
 6586SOL    HW231218   2.258   3.461   8.705  0.9942 -0.7431 -0.5881
 6587SOL     OW31219   2.326   0.258  11.521  0.2947 -0.3760  0.0635
 6587SOL    HW131220   2.286   0.188  11.468  0.4694 -0.3194 -0.1447
 6587SOL    HW231221   2.412   0.215  11.529  0.8367  0.3097 -1.8926
 6588SOL     OW31222   0.811   1.112   9.156 -0.6602  0.1297 -0.1327
 6588SOL    HW131223   0.745   1.179   9.174 -1.4983 -0.1225 -2.1925
 6588SOL    HW231224   0.872   1.164   9.104  0.2403 -0.4099  0.3935
 6589SOL     OW31225   4.339   4.710   1.605  0.5906  0.7510  0.3660
 6589SOL    HW131226   4.270   4.681   1.545  2.2198  1.6832 -1.9456
 6589SOL    HW231227   4.403   0.032   1.548  0.1996 -2.0339 -2.1711
 6590SOL     OW31228   3.668   2.046   6.452 -0.5285  0.1306 -0.3029
 6590SOL    HW131229   3.594   2.105   6.440 -1.9348 -1.7004 -0.7105
 6590SOL    HW231230   3.739   2.106   6.432  0.1026 -1.0047 -1.4599
 6591SOL     OW31231   0.725   1.395  14.603  0.1030  0.1369  0.1828
 6591SOL    HW131232   0.816   1.395  14.633 -0.1574 -1.5895  0.9761
 6591SOL    HW231233   0.719   1.310  14.560  2.2832  0.8112 -1.4641
 6592SOL     OW31234   0.702   2.473  16.548  0.1173  0.1934  0.1197
 6592SOL    HW131235   0.752   2.395  16.575 -0.8852 -0.0481  1.2694
 6592SOL    HW231236   0.707   2.466  16.453  1.4087  2.8248  0.0059
 6593SOL     OW31237   1.115   3.416   7.922 -0.4500 -0.3122  0.4176
 6593SOL    HW131238   1.194   3.423   7.869 -2.3664  2.0148 -2.1179
 6593SOL    HW231239   1.044   3.394   7.862 -1.1008 -0.3950  1.2143
 6594SOL     OW31240   1.900   1.546   2.259  0.4687  0.4566 -0.1508
 6594SOL    HW131241   1.890   1.460   2.218  0.2537 -0.6471  2.2578
 6594SOL    HW231242   1.886   1.599   2.180 -1.2356 -1.4801 -1.1512
 6595SOL     OW31243   2.042   1.259   1.186 -0.1289 -0.3003  0.2396
 6595SOL    HW131244   2.006   1.175   1.156 -2.5416  0.4979  0.9931
 6595SOL    HW231245   2.001   1.322   1.126 -1.0162 -0.3241  0.8289
 6596SOL     OW31246   3.591   2.169   3.918  0.3321 -0.1148  0.5538
 6596SOL    HW131247   3.682   2.177   3.891  0.2308  2.7123  1.0283
 6596SOL    HW231248   3.575   2.082   3.882 -0.0501  0.9677 -1.9367
 6597SOL     OW31249   2.136   0.334   8.886  0.5884  0.7248  0.3855
 6597SOL    HW131250   2.212   0.276   8.879  0.1623  0.2743 -0.4449
 6597SOL    HW231251   2.085   0.325   8.806  1.0110  2.9939 -0.1549
 6598SOL     OW31252   2.285   3.827   2.566  0.1886 -0.1068 -0.4103
 6598SOL    HW131253   2.276   3.733   2.580 -0.7951  0.3601  2.1085
 6598SOL    HW231254   2.359   3.831   2.627 -0.0893  0.3351 -0.1018
 6599SOL     OW31255   2.917   1.385   4.386  0.1180 -0.1672  0.8011
 6599SOL    HW131256   2.915   1.465   4.334  1.1084  1.5462  3.3757
 6599SOL    HW231257   2.832   1.347   4.362  1.2335 -0.4676 -2.5535
 6600SOL     OW31258   2.975   1.528   6.742 -0.6340  0.5326  0.0295
 6600SOL    HW131259   3.005   1.442   6.770  2.9095  1.8875  0.3363
 6600SOL    HW231260   3.042   1.543   6.675  0.9699 -0.6376  1.3536
 6601SOL     OW31261   0.149   1.884  16.850 -0.7029 -0.4234  0.1467
 6601SOL    HW131262   0.096   1.959  16.879 -0.7026 -0.3615 -0.0127
 6601SOL    HW231263   0.232   1.930  16.840 -0.9206  0.2180  1.1704
 6602SOL     OW31264   0.712   3.434   0.530  0.1280 -0.6936  0.5012
 6602SOL    HW131265   0.627   3.398   0.507 -0.0737 -0.0044  0.2079
 6602SOL    HW231266   0.733   3.385   0.611  0.1729  1.6206  1.8824
 6603SOL     OW31267   3.207   0.837   2.287 -0.0232  0.0579 -0.0419
 6603SOL    HW131268   3.189   0.749   2.322 -0.4580  0.6746  1.3003
 6603SOL    HW231269   3.219   0.826   2.193 -2.9218  0.7032 -0.4906
 6604SOL     OW31270   3.119   2.034   8.453 -0.4785 -0.1689  0.1098
 6604SOL    HW131271   3.049   2.075   8.504  0.3727  2.0852 -0.5686
 6604SOL    HW231272   3.189   2.099   8.453 -0.8364  0.2081  1.7207
 6605SOL     OW31273   0.355   1.295  12.775  0.4073 -0.1416  0.4538
 6605SOL    HW131274   0.435   1.254  12.741  0.8667  2.4899 -1.6835
 6605SOL    HW231275   0.334   1.352  12.701 -0.9780  0.7183  1.5206
 6606SOL     OW31276   4.598   3.341   6.640  0.1699 -0.1721  0.0142
 6606SOL    HW131277   4.689   3.317   6.657  0.3042  1.1512  1.1754
 6606SOL    HW231278   4.568   3.372   6.725 -0.3882 -1.9094  0.4412
 6607SOL     OW31279   3.217   0.188   7.436 -0.1448 -0.1097 -0.3270
 6607SOL    HW131280   3.216   0.152   7.525  1.2561  0.4103 -0.0969
 6607SOL    HW231281   3.301   0.234   7.440  1.1028 -2.4195  0.0719
 6608SOL     OW31282   2.031   1.082   9.041 -0.1363 -0.3844  0.8434
 6608SOL    HW131283   2.065   1.146   8.980  0.1551 -1.8683 -0.5393
 6608SOL    HW231284   2.040   1.143   9.115  1.1224  0.9044 -0.3912
 6609SOL     OW31285   1.430   0.166  16.534 -0.1590  0.0836 -0.9810
 6609SOL    HW131286   1.362   0.187  16.470  0.7618 -2.2968 -2.7456
 6609SOL    HW231287   1.393   0.086  16.571 -1.2721  0.5908 -0.9987
 6610SOL     OW31288   2.114   1.753   3.487 -0.7740  0.0562  0.1612
 6610SOL    HW131289   2.147   1.664   3.479  2.0162  0.9882  1.2973
 6610SOL    HW231290   2.166   1.784   3.561 -1.0287 -0.1842  0.4385
 6611SOL     OW31291   3.196   4.068   7.981  0.3856  0.6429  0.6939
 6611SOL    HW131292   3.216   3.987   7.934 -1.2298 -0.7913  2.4743
 6611SOL    HW231293   3.279   4.081   8.026  2.0051  0.1753 -2.1943
 6612SOL     OW31294   4.003   3.763   1.330 -0.3117 -0.4572  0.2052
 6612SOL    HW131295   3.967   3.752   1.417 -0.2700  1.2539  0.4402
 6612SOL    HW231296   4.091   3.779   1.363 -0.6183  1.2093  0.2258
 6613SOL     OW31297   3.499   0.079   7.653  0.2965 -0.5719 -0.1727
 6613SOL    HW131298   3.524   0.126   7.573  0.5758 -1.9027 -0.8636
 6613SOL    HW231299   3.525   4.710   7.637  0.9856 -0.5239  0.6314
 6614SOL     OW31300   1.435   2.329  11.658 -0.2944 -0.1509 -0.0648
 6614SOL    HW131301   1.395   2.403  11.703 -2.3095 -0.7982 -0.7760
 6614SOL    HW231302   1.528   2.352  11.662 -0.7548  1.6705 -0.1125
 6615SOL     OW31303   3.826   0.598   8.466  0.3416  0.3429 -0.7374
 6615SOL    HW131304   3.740   0.563   8.489  2.3667 -1.6320  3.8675
 6615SOL    HW231305   3.868   0.587   8.552 -1.2400  1.1036  0.1193
 6616SOL     OW31306   4.236   0.148   6.585  0.1232 -0.3265  0.0555
 6616SOL    HW131307   4.243   0.114   6.496  1.8737  1.7885 -0.5969
 6616SOL    HW231308   4.181   0.077   6.621  0.8919 -0.8333  0.2302
 6617SOL     OW31309   2.698   4.671   8.133 -0.0064  0.1612 -0.0953
 6617SOL    HW131310   2.720   0.028   8.082  1.1398 -1.5910 -2.2788
 6617SOL    HW231311   2.783   4.649   8.171 -0.5583  0.4450  1.3120
 6618SOL     OW31312   0.188   3.609   8.970  0.2008 -0.0112  0.1127
 6618SOL    HW131313   0.209   3.641   8.882  1.8013 -1.3843 -0.0126
 6618SOL    HW231314   0.254   3.539   8.977 -0.5931 -0.6572  1.1384
 6619SOL     OW31315   2.820   0.105   3.320  0.5270 -0.2277 -0.2182
 6619SOL    HW131316   2.792   0.064   3.239  0.6828 -3.6577  1.4494
 6619SOL    HW231317   2.912   0.080   3.315 -0.2028 -3.5409  2.7961
 6620SOL     OW31318   4.670   1.907   5.889 -0.2914 -0.2042 -0.3865
 6620SOL    HW131319   0.029   1.948   5.858  0.0084  0.3943  1.1803
 6620SOL    HW231320   4.615   1.980   5.918 -1.6925 -0.5987 -2.0413
 6621SOL     OW31321   3.398   3.356   0.026 -0.1023 -0.0084  0.4431
 6621SOL    HW131322   3.340   3.326   0.097 -0.5534 -1.9127 -0.7468
 6621SOL    HW231323   3.352   3.414  17.653  1.0851  0.1947 -0.2513
 6622SOL     OW31324   0.775   0.616   9.139 -0.2120 -0.6101 -0.0819
 6622SOL    HW131325   0.716   0.670   9.086  0.6611 -1.5248 -1.9796
 6622SOL    HW231326   0.828   0.686   9.177 -0.6594  0.1536 -0.8516
 6623SOL     OW31327   0.742   0.146   6.778 -0.3703 -0.3197 -0.1346
 6623SOL    HW131328   0.733   0.077   6.843 -2.6863 -2.5034 -2.7998
 6623SOL    HW231329   0.676   0.205   6.816 -1.1245 -1.4717  0.3190
 6624SOL     OW31330   1.563   4.353  16.489 -0.3218 -0.1193 -0.0443
 6624SOL    HW131331   1.550   4.259  16.498 -0.5766  0.0289  1.1262
 6624SOL    HW231332   1.624   4.351  16.415  0.7984 -1.1454  0.9074
 6625SOL     OW31333   3.900   4.048   3.698  0.8261  0.1084 -0.3847
 6625SOL    HW131334   3.987   4.010   3.703  0.5330 -0.6050 -0.7387
 6625SOL    HW231335   3.879   4.058   3.606 -1.0260  0.0407  0.0231
 6626SOL     OW31336   2.089   2.132  11.002  0.5251  0.9602 -0.9138
 6626SOL    HW131337   2.172   2.181  10.998  0.6431  0.8370  0.0594
 6626SOL    HW231338   2.041   2.186  10.939  0.2832  2.0027  0.1643
 6627SOL     OW31339   0.633   2.420   7.333  0.5115  0.3030  0.1130
 6627SOL    HW131340   0.573   2.421   7.407 -0.1873 -2.5285 -0.4529
 6627SOL    HW231341   0.591   2.481   7.272  0.8491 -0.8947 -1.3016
 6628SOL     OW31342   3.585   4.397  16.488 -0.3206  0.2453 -0.5215
 6628SOL    HW131343   3.587   4.461  16.417  0.9066 -0.8630 -1.4630
 6628SOL    HW231344   3.675   4.383  16.516 -0.5117 -0.3540 -0.2007
 6629SOL     OW31345   4.626   1.056   2.910  0.1838  0.3175  0.0803
 6629SOL    HW131346   4.716   1.073   2.882 -0.3298 -0.6200 -2.0748
 6629SOL    HW231347   4.604   0.979   2.859  1.2027  0.5329 -0.6882
 6630SOL     OW31348   1.967   2.247  10.769  0.1098  0.1122 -0.2981
 6630SOL    HW131349   1.929   2.173  10.722  0.8018  1.2685 -2.6782
 6630SOL    HW231350   1.922   2.322  10.731 -0.5732 -0.8184 -1.3073
 6631SOL     OW31351   0.378   1.338  13.358  0.5209  0.6132  0.1957
 6631SOL    HW131352   0.398   1.306  13.270 -0.1189  1.6464 -0.3377
 6631SOL    HW231353   0.383   1.433  13.342  0.6930  0.8071  1.4607
 6632SOL     OW31354   4.264   1.680   8.283 -0.4418  0.2956  0.1283
 6632SOL    HW131355   4.327   1.712   8.348  0.5928 -1.4612 -0.0255
 6632SOL    HW231356   4.279   1.737   8.208  0.5752 -1.7133 -1.1973
 6633SOL     OW31357   4.073   3.916  16.575  0.4494  0.8117  0.2131
 6633SOL    HW131358   4.021   3.840  16.600 -0.4689  2.2784  2.7047
 6633SOL    HW231359   4.159   3.875  16.566  0.2386  0.5605 -0.7258
 6634SOL     OW31360   1.271   1.093   7.207 -0.2869 -0.1618 -0.0873
 6634SOL    HW131361   1.253   1.167   7.266 -1.5279 -0.9838  0.5559
 6634SOL    HW231362   1.259   1.022   7.269 -2.6629 -1.4617 -2.0059
 6635SOL     OW31363   3.667   4.660   2.649 -0.2108  0.1879 -0.1195
 6635SOL    HW131364   3.576   4.639   2.670 -0.1627 -0.3392 -0.4308
 6635SOL    HW231365   3.676   0.034   2.651 -3.6597  0.4938 -0.5664
 6636SOL     OW31366   0.486   3.922   2.528 -0.0188 -0.3141 -0.1537
 6636SOL    HW131367   0.581   3.932   2.515 -0.4032  1.1771 -1.9532
 6636SOL    HW231368   0.478   3.915   2.623  0.7447 -0.7894 -0.1241
 6637SOL     OW31369   0.484   3.981   7.905  0.0642 -0.0530 -0.0721
 6637SOL    HW131370   0.547   3.973   7.833  1.3983  0.8549  1.0046
 6637SOL    HW231371   0.487   4.074   7.930 -2.1255 -0.0930  0.3370
 6638SOL     OW31372   2.603   2.091  16.506 -0.0231  0.1747 -0.2897
 6638SOL    HW131373   2.632   2.167  16.455 -0.4904  0.8830  0.5092
 6638SOL    HW231374   2.572   2.126  16.589 -0.1731 -0.9614  0.1326
 6639SOL     OW31375   1.087   0.091   8.059  0.4444 -0.2382 -0.0044
 6639SOL    HW131376   1.180   0.112   8.058  0.8223 -2.0335 -2.3446
 6639SOL    HW231377   1.088   4.720   8.034  0.6059 -0.3252  0.3348
 6640SOL     OW31378   2.847   2.681  10.413 -0.0512  0.2277 -0.1921
 6640SOL    HW131379   2.882   2.632  10.338  0.2690  1.2519 -0.7283
 6640SOL    HW231380   2.902   2.635  10.476 -0.6332 -0.2807 -0.0584
 6641SOL     OW31381   4.429   3.031   6.162 -0.4853  0.2265 -0.0969
 6641SOL    HW131382   4.416   3.120   6.193  0.7620  0.0843  0.8343
 6641SOL    HW231383   4.523   3.021   6.180 -1.0851  0.4289  3.0794
 6642SOL     OW31384   2.524   3.395   9.765  1.2801 -0.1655 -0.2397
 6642SOL    HW131385   2.438   3.355   9.780  0.7262  1.2747  0.4254
 6642SOL    HW231386   2.497   3.483   9.791  2.6020  0.1025  0.2373
 6643SOL     OW31387   2.184   0.900   8.936  0.4370 -0.2422  0.7064
 6643SOL    HW131388   2.239   0.873   9.010 -0.4152  0.3867  1.5668
 6643SOL    HW231389   2.118   0.954   8.979 -0.0952  1.5254 -2.3290
 6644SOL     OW31390   3.382   1.876   5.922  0.3795 -0.0101  0.4633
 6644SOL    HW131391   3.324   1.948   5.896 -1.0298 -0.0214  3.5720
 6644SOL    HW231392   3.351   1.808   5.863 -0.4215  0.0375  0.8345
 6645SOL     OW31393   2.142   3.993  15.702  0.1459 -0.3050  0.3431
 6645SOL    HW131394   2.210   3.933  15.671  0.4719  0.8027 -1.1038
 6645SOL    HW231395   2.135   3.962  15.792  1.3524 -3.5642 -0.6966
 6646SOL     OW31396   2.565   2.343   3.824 -0.2618  0.6078  0.1785
 6646SOL    HW131397   2.620   2.309   3.754 -2.4973 -1.2262 -0.6940
 6646SOL    HW231398   2.560   2.264   3.877  1.0697  1.3685  1.4320
 6647SOL     OW31399   1.099   4.116  10.726  0.4788 -0.5533  0.0282
 6647SOL    HW131400   1.017   4.156  10.755  0.5652  0.8565 -1.7053
 6647SOL    HW231401   1.144   4.120  10.811 -1.8318  1.6342  1.1589
 6648SOL     OW31402   1.470   2.033  11.687 -0.1145  0.1862 -0.3076
 6648SOL    HW131403   1.488   2.114  11.638  0.9312  0.6562  0.8442
 6648SOL    HW231404   1.492   1.967  11.621 -0.7836 -1.4975  1.1690
 6649SOL     OW31405   4.419   3.457   7.631  0.0430 -0.0603 -0.3558
 6649SOL    HW131406   4.364   3.425   7.702  0.3212  2.1698  0.8613
 6649SOL    HW231407   4.503   3.472   7.675 -0.4099  2.6193 -0.3963
 6650SOL     OW31408   0.016   3.644   1.659  0.2974  0.0549 -0.6697
 6650SOL    HW131409   0.095   3.694   1.642  0.9706 -0.8193 -0.1679
 6650SOL    HW231410   0.047   3.575   1.719 -0.1022  0.4000 -0.0671
 6651SOL     OW31411   0.898   2.298  17.243  0.8821 -0.1675  0.6511
 6651SOL    HW131412   0.936   2.256  17.166  0.8304  3.5744 -1.4007
 6651SOL    HW231413   0.958   2.372  17.250  0.7377 -0.1178  1.4717
 6652SOL     OW31414   3.263   0.494  16.412 -0.2136  0.5899  0.1583
 6652SOL    HW131415   3.318   0.500  16.490  0.9337 -1.6541 -0.4672
 6652SOL    HW231416   3.223   0.409  16.427  2.2175 -0.4796  0.6616
 6653SOL     OW31417   2.925   2.477   2.947  0.6678  0.1865 -0.3254
 6653SOL    HW131418   2.853   2.444   3.000  3.2199 -2.9919  1.2026
 6653SOL    HW231419   3.003   2.430   2.978 -0.4790 -2.4608 -1.4057
 6654SOL     OW31420   2.402   3.932   9.506  0.4374 -0.4599 -0.1115
 6654SOL    HW131421   2.347   3.955   9.581  1.7114  1.2079  0.3419
 6654SOL    HW231422   2.486   3.970   9.532  0.5814 -1.4033  0.8021
 6655SOL     OW31423   1.139   3.357  17.216  0.1060 -0.1596 -0.0432
 6655SOL    HW131424   1.066   3.295  17.220  1.8482 -2.1535  0.7401
 6655SOL    HW231425   1.219   3.308  17.235  1.4764  1.9477 -0.3577
 6656SOL     OW31426   4.284   2.286   1.605 -0.3316  0.1625 -0.0921
 6656SOL    HW131427   4.363   2.253   1.648 -0.7018  2.7380  2.5622
 6656SOL    HW231428   4.214   2.239   1.650 -1.3249  0.1995 -1.5763
 6657SOL     OW31429   0.823   3.459   8.793 -0.3491  0.6033 -0.9575
 6657SOL    HW131430   0.860   3.442   8.707  1.2811  1.5694 -0.4505
 6657SOL    HW231431   0.856   3.548   8.802  1.6990 -0.1115 -1.4553
 6658SOL     OW31432   1.223   0.094   0.533  0.0553  0.0167 -0.2998
 6658SOL    HW131433   1.303   0.066   0.489 -1.4813 -1.3016 -2.2898
 6658SOL    HW231434   1.255   0.096   0.623 -0.6684 -0.0045 -0.0451
 6659SOL     OW31435   3.978   0.047   7.482 -0.2147  0.1470 -0.4783
 6659SOL    HW131436   4.036   0.111   7.522 -2.6033  0.9605  1.6273
 6659SOL    HW231437   3.999   4.692   7.535 -2.7123 -0.9773 -1.1073
 6660SOL     OW31438   0.522   2.180   2.516 -0.1130  0.3294  0.4830
 6660SOL    HW131439   0.565   2.141   2.592  0.7537  0.9981  0.3325
 6660SOL    HW231440   0.593   2.218   2.465  0.2897  0.8778  1.4532
 6661SOL     OW31441   3.182   0.524   2.917  0.3835  0.3089  0.1941
 6661SOL    HW131442   3.231   0.469   2.856  2.8685  0.2908  2.2128
 6661SOL    HW231443   3.250   0.529   2.985  0.9700 -2.1922 -0.1917
 6662SOL     OW31444   0.744   3.208   2.265 -0.0571 -0.1487 -0.4122
 6662SOL    HW131445   0.692   3.188   2.343 -0.3410 -1.4118 -0.9292
 6662SOL    HW231446   0.823   3.246   2.303  0.0317 -1.0112  0.2628
 6663SOL     OW31447   0.530   1.725   8.119  0.1342  0.5452  0.5451
 6663SOL    HW131448   0.493   1.641   8.092  0.0351  0.6417  0.3865
 6663SOL    HW231449   0.584   1.746   8.043  0.3412  1.7007  1.0014
 6664SOL     OW31450   2.493   2.001  10.927 -0.5945  0.2470  0.0957
 6664SOL    HW131451   2.503   2.003  10.832  0.3584 -0.2158  0.1830
 6664SOL    HW231452   2.551   1.925  10.938 -0.5128  0.3797  0.5792
 6665SOL     OW31453   3.854   1.387  13.254  0.4252 -0.9495 -1.1768
 6665SOL    HW131454   3.803   1.396  13.173 -1.5947 -0.2155  0.1791
 6665SOL    HW231455   3.824   1.470  13.289  2.0299  0.2045 -2.5448
 6666SOL     OW31456   3.001   2.979  11.348 -0.2577 -0.1696 -0.0016
 6666SOL    HW131457   2.988   3.072  11.366  0.2364 -0.2847  0.9757
 6666SOL    HW231458   3.096   2.968  11.361  0.0618  2.7796  0.1485
 6667SOL     OW31459   4.123   3.451  16.704  0.4088 -0.2775  0.0551
 6667SOL    HW131460   4.066   3.457  16.781  1.3083  2.6059  0.5311
 6667SOL    HW231461   4.089   3.377  16.655  0.9077 -0.1682 -0.4430
 6668SOL     OW31462   2.581   3.047  15.855  0.4336  0.6113 -0.1732
 6668SOL    HW131463   2.605   2.959  15.882  0.0961  1.4269  2.7219
 6668SOL    HW231464   2.648   3.076  15.792  1.2749  0.6570  0.7440
 6669SOL     OW31465   3.115   1.421   4.717  0.4277  0.0289  0.0365
 6669SOL    HW131466   3.073   1.471   4.787 -0.4114 -1.1158  0.3440
 6669SOL    HW231467   3.049   1.356   4.695  0.5136  1.2481 -3.7631
 6670SOL     OW31468   1.476   3.661   7.721 -0.5093 -0.0027  0.4228
 6670SOL    HW131469   1.514   3.690   7.638 -1.0654  0.5928  0.3792
 6670SOL    HW231470   1.531   3.711   7.781 -0.5183  1.3380 -0.6873
 6671SOL     OW31471   1.772   3.498   7.103 -0.1035 -0.3165  0.3282
 6671SOL    HW131472   1.733   3.444   7.035 -2.6822  2.7747 -0.6703
 6671SOL    HW231473   1.798   3.431   7.166  1.2192 -0.3509 -0.2685
 6672SOL     OW31474   2.360   1.849  11.389  0.4347  0.2957 -0.5777
 6672SOL    HW131475   2.356   1.937  11.352  1.0275  0.9618  0.9250
 6672SOL    HW231476   2.274   1.814  11.367  1.7311 -2.2449 -1.5628
 6673SOL     OW31477   0.088   4.711   2.750  0.4425  0.0402  0.7360
 6673SOL    HW131478   0.022   4.674   2.691  1.4439  0.1682 -0.4732
 6673SOL    HW231479   0.167   4.686   2.702 -0.9839  1.2555 -2.2276
 6674SOL     OW31480   2.577   2.817   2.116  0.1595 -0.4601 -0.3023
 6674SOL    HW131481   2.573   2.729   2.153  1.5081  0.2111  1.4297
 6674SOL    HW231482   2.671   2.835   2.124  0.2974 -0.3423 -2.0185
 6675SOL     OW31483   3.243   0.234   0.338  0.1927 -0.1691  0.1957
 6675SOL    HW131484   3.219   0.297   0.406 -0.9002 -1.6863  1.1945
 6675SOL    HW231485   3.179   0.165   0.354  2.8758 -2.4479  1.1622
 6676SOL     OW31486   0.670   2.316  12.296 -0.1849 -0.0384 -0.3248
 6676SOL    HW131487   0.713   2.240  12.335  0.9828  0.6901 -0.1918
 6676SOL    HW231488   0.709   2.319  12.209 -0.1751 -2.2438 -0.3818
 6677SOL     OW31489   0.650   1.070   5.458  0.3919 -0.2427  0.5732
 6677SOL    HW131490   0.569   1.023   5.439  0.5572 -0.6232  0.7966
 6677SOL    HW231491   0.671   1.048   5.549 -1.4272 -0.4387  0.9525
 6678SOL     OW31492   0.917   1.739   9.711  0.0777 -0.0675  0.4781
 6678SOL    HW131493   0.897   1.768   9.622 -0.9180 -0.1091  0.6942
 6678SOL    HW231494   1.007   1.705   9.711  0.9828  2.3626  2.8964
 6679SOL     OW31495   2.818   0.173   7.299 -0.1656 -0.2824 -0.2596
 6679SOL    HW131496   2.758   0.111   7.342  0.8787  0.5767  2.4654
 6679SOL    HW231497   2.888   0.112   7.278 -0.7692 -1.5483  1.3351
 6680SOL     OW31498   3.438   2.551   8.864 -1.0514  0.2740  0.2362
 6680SOL    HW131499   3.484   2.468   8.872  1.9805  1.8916 -0.3324
 6680SOL    HW231500   3.353   2.522   8.898 -0.6805 -0.7759  0.2488
 6681SOL     OW31501   2.969   0.571   8.054 -0.2604  0.5475  0.2172
 6681SOL    HW131502   3.041   0.583   7.992 -1.0733 -3.0675 -1.3892
 6681SOL    HW231503   2.913   0.648   8.044  0.4877  0.9567 -0.7854
 6682SOL     OW31504   0.383   3.810   1.195  0.2807 -0.1397 -0.7593
 6682SOL    HW131505   0.306   3.856   1.229 -0.6243 -2.6173  0.5624
 6682SOL    HW231506   0.329   3.731   1.193  0.8062 -0.4986 -0.8446
 6683SOL     OW31507   1.028   3.522   2.279  0.2654  0.4052  0.1931
 6683SOL    HW131508   0.960   3.543   2.345  1.2911  1.6107  0.8706
 6683SOL    HW231509   0.977   3.543   2.201  0.1574 -1.5624 -0.2561
 6684SOL     OW31510   1.086   0.797   3.587  0.1154 -0.3295 -0.3579
 6684SOL    HW131511   1.137   0.722   3.618  0.9203  0.3876  0.0514
 6684SOL    HW231512   1.001   0.755   3.573  0.5183 -1.8435  1.6744
 6685SOL     OW31513   0.489   4.237   9.266 -0.0525 -0.4401  0.0213
 6685SOL    HW131514   0.480   4.316   9.318  2.5316 -0.8915  1.1576
 6685SOL    HW231515   0.520   4.271   9.182 -1.5323  1.4460  0.2503
 6686SOL     OW31516   0.376   1.573   4.333 -0.0194  0.1302 -0.0309
 6686SOL    HW131517   0.402   1.515   4.405  4.7075 -2.2447 -3.6250
 6686SOL    HW231518   0.445   1.539   4.275 -1.0086 -1.3147 -0.3796
 6687SOL     OW31519   0.750   4.311   9.053  0.2408  0.3295 -0.0590
 6687SOL    HW131520   0.817   4.331   9.117  0.6623 -0.7819 -0.1567
 6687SOL    HW231521   0.758   4.217   9.037  0.0185 -0.0134  1.8891
 6688SOL     OW31522   0.412   1.767   0.049  0.6476 -0.1859 -0.6049
 6688SOL    HW131523   0.355   1.833   0.088 -0.1827 -0.4472 -1.4029
 6688SOL    HW231524   0.350   1.696   0.034  0.0887 -0.0766  1.2015
 6689SOL     OW31525   2.621   2.214   1.336 -0.1453  0.1577  0.2257
 6689SOL    HW131526   2.709   2.218   1.372 -0.7139 -1.2758  1.7784
 6689SOL    HW231527   2.603   2.121   1.346  2.9594 -0.5864 -1.3217
 6690SOL     OW31528   2.417   0.825   4.807  0.2304  0.5380 -0.2287
 6690SOL    HW131529   2.453   0.834   4.719  0.2699 -1.1185 -0.3733
 6690SOL    HW231530   2.485   0.861   4.864  1.1002  0.5884 -1.3136
 6691SOL     OW31531   2.392   3.445   3.191 -0.0016  0.4169 -0.2209
 6691SOL    HW131532   2.394   3.469   3.284  3.1477  0.8877 -0.4027
 6691SOL    HW231533   2.325   3.376   3.189 -0.1425  0.4840  2.1052
 6692SOL     OW31534   3.357   2.983   2.054 -0.4364  0.4785 -0.4256
 6692SOL    HW131535   3.383   3.023   2.137  1.5103 -2.1884  0.2585
 6692SOL    HW231536   3.342   2.892   2.080  1.9438  0.2536  0.1441
 6693SOL     OW31537   1.786   0.135   4.354 -0.0253 -0.6314  0.4303
 6693SOL    HW131538   1.742   0.052   4.374 -1.5715 -0.0953 -0.7217
 6693SOL    HW231539   1.720   0.194   4.391  0.6911  0.6797 -0.3672
 6694SOL     OW31540   0.011   2.518   1.983 -0.1523 -0.2047  1.0243
 6694SOL    HW131541   4.684   2.575   1.923 -1.1613 -0.0998  1.9425
 6694SOL    HW231542   0.102   2.519   1.953 -0.7868  1.6271 -0.7891
 6695SOL     OW31543   1.026   4.156   7.024  0.2275 -0.4688 -0.9330
 6695SOL    HW131544   1.095   4.098   6.991 -0.2669 -0.9679 -1.0904
 6695SOL    HW231545   1.041   4.245   6.993  3.2518  0.0029  1.9295
 6696SOL     OW31546   3.274   2.567   8.051 -0.5302  0.2477 -0.8290
 6696SOL    HW131547   3.262   2.555   8.146 -0.2073  2.4884 -0.4839
 6696SOL    HW231548   3.337   2.639   8.050 -1.2781  0.9216 -0.3974
 6697SOL     OW31549   2.654   1.008  17.581  0.1268  0.5502  0.1236
 6697SOL    HW131550   2.728   0.990  17.524 -0.3927 -0.8944 -0.0870
 6697SOL    HW231551   2.628   0.925  17.621  2.5157  0.1868  0.8900
 6698SOL     OW31552   3.140   4.484   7.356  0.1646 -0.2654  0.4500
 6698SOL    HW131553   3.161   4.418   7.422  3.1452  1.2057  0.9598
 6698SOL    HW231554   3.222   4.495   7.308 -0.7633 -0.2438 -1.1596
 6699SOL     OW31555   4.039   1.379   0.675 -0.0010  0.1937  0.0538
 6699SOL    HW131556   4.124   1.369   0.632 -0.0294 -2.4962  0.6448
 6699SOL    HW231557   4.054   1.325   0.753 -1.5565 -0.4028 -0.0673
 6700SOL     OW31558   4.045   0.896   3.951  0.2018  0.5628  0.0140
 6700SOL    HW131559   4.093   0.867   3.874 -0.6440 -1.2521  0.1681
 6700SOL    HW231560   3.994   0.969   3.918 -0.3224  0.3588  0.3790
 6701SOL     OW31561   2.741   3.303   9.632 -0.1995  0.1245  0.0194
 6701SOL    HW131562   2.723   3.250   9.554  1.7938  0.5597 -0.7455
 6701SOL    HW231563   2.659   3.331   9.670 -0.1591 -0.1936  0.3423
 6702SOL     OW31564   0.548   0.936   2.011 -0.1118 -0.8110  0.4725
 6702SOL    HW131565   0.480   0.870   2.019 -0.9685 -0.0008 -0.1075
 6702SOL    HW231566   0.502   1.020   2.005  0.9487 -0.1204  1.9764
 6703SOL     OW31567   1.002   0.347   5.551  0.0041  0.3616 -0.3940
 6703SOL    HW131568   0.960   0.286   5.612 -0.7272 -0.2894 -1.5475
 6703SOL    HW231569   0.939   0.419   5.549 -0.8909 -0.4269 -0.6578
 6704SOL     OW31570   3.375   4.345  12.100 -0.2099 -0.5443 -0.2242
 6704SOL    HW131571   3.350   4.255  12.122 -2.5793  0.0037 -0.6740
 6704SOL    HW231572   3.454   4.326  12.050 -0.1205 -2.7252  0.6955
 6705SOL     OW31573   1.836   0.743   4.731 -0.7716  0.1911  0.1914
 6705SOL    HW131574   1.788   0.780   4.805 -0.9977  2.0126 -0.8554
 6705SOL    HW231575   1.768   0.757   4.664 -0.8710 -0.8322  0.0808
 6706SOL     OW31576   1.008   4.039   6.606  0.5751  0.3648  0.2344
 6706SOL    HW131577   1.056   4.078   6.533 -1.6197  0.8672 -0.9209
 6706SOL    HW231578   1.072   4.071   6.670 -1.7444  1.3711  2.0517
 6707SOL     OW31579   4.315   4.603  13.339  0.2481 -0.0033  0.1017
 6707SOL    HW131580   4.309   4.592  13.245 -3.2707 -0.6467  0.4163
 6707SOL    HW231581   4.403   4.570  13.358  0.0632 -0.8124 -0.4527
 6708SOL     OW31582   3.920   4.663  11.865  0.8553  0.2964  0.1076
 6708SOL    HW131583   3.886   0.031  11.858  2.5413  0.9783  0.5372
 6708SOL    HW231584   3.909   4.643  11.772  2.3786  0.2791 -0.0669
 6709SOL     OW31585   1.428   1.885   2.248  0.3389  0.5127  0.1913
 6709SOL    HW131586   1.375   1.930   2.313  1.4850  3.0255 -0.5802
 6709SOL    HW231587   1.393   1.934   2.173 -1.1415  1.4367  1.4838
 6710SOL     OW31588   2.759   3.163   3.956  0.0386  0.0554 -0.0497
 6710SOL    HW131589   2.836   3.129   3.911 -0.0809  1.2528 -1.1637
 6710SOL    HW231590   2.789   3.254   3.960 -1.9743  0.6514  1.5911
 6711SOL     OW31591   4.481   2.066   5.301 -0.4793  0.1810  0.3264
 6711SOL    HW131592   4.438   2.112   5.229  2.2861 -0.6572 -1.8141
 6711SOL    HW231593   4.574   2.086   5.293 -1.0592  3.4275  1.6876
 6712SOL     OW31594   1.124   3.099  11.036 -0.3140  0.2925 -0.1188
 6712SOL    HW131595   1.166   3.097  10.950 -0.4756  0.8119 -0.2100
 6712SOL    HW231596   1.134   3.189  11.065  1.1545 -0.8031  2.7570
 6713SOL     OW31597   1.668   2.549   2.817  0.2651 -0.4207  0.0855
 6713SOL    HW131598   1.603   2.479   2.825 -0.9460  0.7554  0.4542
 6713SOL    HW231599   1.629   2.627   2.856 -1.8193 -2.4680  2.1013
 6714SOL     OW31600   3.844   1.266  14.191 -0.5949  0.2260  0.1096
 6714SOL    HW131601   3.863   1.231  14.278 -0.4005 -0.4083 -0.1880
 6714SOL    HW231602   3.866   1.192  14.134  0.0699  0.7613 -0.3181
 6715SOL     OW31603   4.579   1.680  15.567  0.2737 -0.0733 -0.6879
 6715SOL    HW131604   4.500   1.729  15.591  1.6329  1.9852 -0.4685
 6715SOL    HW231605   4.536   1.624  15.502  0.3384 -1.9234  0.8631
 6716SOL     OW31606   2.701   4.147   9.301  0.3480  0.5964 -0.6326
 6716SOL    HW131607   2.728   4.144   9.392 -0.4934  1.1949 -0.3705
 6716SOL    HW231608   2.784   4.178   9.264 -0.0470 -0.3296 -2.3279
 6717SOL     OW31609   1.979   4.194   9.919  0.1559  0.5379  0.4735
 6717SOL    HW131610   1.906   4.242   9.959 -0.3089  0.6171 -0.4541
 6717SOL    HW231611   2.036   4.177   9.994  1.9746 -2.0466 -1.5104
 6718SOL     OW31612   1.111   0.823   5.348  0.0706 -0.3745 -0.1572
 6718SOL    HW131613   1.058   0.747   5.322 -0.7681  0.8451 -1.9828
 6718SOL    HW231614   1.101   0.889   5.280  0.9121 -0.8118 -0.7110
 6719SOL     OW31615   1.971   1.102  12.811 -0.0179 -0.0791  0.0950
 6719SOL    HW131616   1.978   1.017  12.768 -2.1394  0.1734 -0.7186
 6719SOL    HW231617   2.065   1.115  12.825 -0.1809 -1.4744  2.5932
 6720SOL     OW31618   2.638   3.827   4.113 -0.2726 -0.3575  0.2494
 6720SOL    HW131619   2.683   3.825   4.028 -0.2997  4.0178  0.1247
 6720SOL    HW231620   2.645   3.922   4.121 -1.0101 -0.4904  2.3560
 6721SOL     OW31621   0.388   1.632   6.673  0.5768 -0.2302  0.4033
 6721SOL    HW131622   0.306   1.666   6.635  0.3143  0.3662  1.4979
 6721SOL    HW231623   0.413   1.692   6.743  0.1249 -1.6477  1.7752
 6722SOL     OW31624   0.434   2.685   7.401 -0.1368  0.0131 -0.1871
 6722SOL    HW131625   0.473   2.653   7.320 -0.1488 -3.1047  1.0635
 6722SOL    HW231626   0.490   2.645   7.468  1.0378  0.9716 -0.5944
 6723SOL     OW31627   3.415   1.268   8.735  0.3517 -0.0638 -0.4091
 6723SOL    HW131628   3.396   1.262   8.641  1.8649 -1.3485 -0.6379
 6723SOL    HW231629   3.508   1.288   8.740  0.4147 -1.0497  2.1422
 6724SOL     OW31630   3.750   2.339   3.165 -0.2885 -0.0765  0.0020
 6724SOL    HW131631   3.687   2.403   3.134  0.5556  0.0478 -1.4548
 6724SOL    HW231632   3.835   2.383   3.165 -0.6263  0.5664  0.4443
 6725SOL     OW31633   4.304   4.209   2.031 -0.5533  0.1024  0.7988
 6725SOL    HW131634   4.318   4.303   2.039  2.1684 -0.4202  2.3554
 6725SOL    HW231635   4.306   4.204   1.936 -1.1516  1.5719  0.7056
 6726SOL     OW31636   3.635   1.834   4.886  0.7477 -0.0500 -0.3024
 6726SOL    HW131637   3.716   1.846   4.838 -0.0329  0.6345 -1.4526
 6726SOL    HW231638   3.671   1.848   4.974  0.6701 -1.0089 -0.1197
 6727SOL     OW31639   2.441   4.030  16.181  0.2060 -0.1298 -0.6808
 6727SOL    HW131640   2.441   4.062  16.271  2.5964 -0.0716 -0.6906
 6727SOL    HW231641   2.387   3.951  16.188  2.3578 -1.4795  0.7317
 6728SOL     OW31642   3.123   1.073   3.001 -0.4224 -0.2772  0.0837
 6728SOL    HW131643   3.167   1.095   2.919 -1.8200 -1.5947 -1.0280
 6728SOL    HW231644   3.165   1.145   3.048 -0.3444 -1.5221  1.9436
 6729SOL     OW31645   0.820   4.047   3.400 -0.4236  0.2348  0.5693
 6729SOL    HW131646   0.828   3.952   3.398 -0.1742  0.2640  0.1500
 6729SOL    HW231647   0.807   4.054   3.494  2.9090 -0.1776  1.0654
 6730SOL     OW31648   4.375   2.551   1.698 -0.0732  0.3110  0.3359
 6730SOL    HW131649   4.318   2.566   1.773 -0.5327 -1.4946  0.3587
 6730SOL    HW231650   4.359   2.458   1.679 -1.4934  1.0844 -2.3028
 6731SOL     OW31651   0.167   3.731   5.869  0.1452 -0.3510 -0.3306
 6731SOL    HW131652   0.164   3.825   5.851  1.2200 -0.8139 -2.9851
 6731SOL    HW231653   0.113   3.697   5.798 -0.6930 -0.3792  0.3235
 6732SOL     OW31654   1.388   0.679   2.306 -0.0901  0.5127 -0.9844
 6732SOL    HW131655   1.371   0.757   2.359 -0.7334 -0.8959  0.8854
 6732SOL    HW231656   1.305   0.633   2.323 -0.1016  1.2587  0.9390
 6733SOL     OW31657   3.066   2.965   4.761  0.0154 -0.9128 -0.3358
 6733SOL    HW131658   2.982   2.978   4.806  1.3918 -0.6094  2.1282
 6733SOL    HW231659   3.040   2.916   4.682  2.1408 -0.5483 -1.2693
 6734SOL     OW31660   0.111   4.512   4.423 -0.3776 -0.1279 -0.2832
 6734SOL    HW131661   0.147   4.465   4.348  1.0014  0.8774 -0.2284
 6734SOL    HW231662   0.175   4.487   4.489 -1.3097 -1.2159  0.2177
 6735SOL     OW31663   3.252   1.581  12.744  0.1178  0.5673  0.0049
 6735SOL    HW131664   3.205   1.664  12.755 -0.4583  0.1440  0.7881
 6735SOL    HW231665   3.253   1.560  12.651  0.3724  2.0789 -0.3259
 6736SOL     OW31666   2.522   3.437   6.324 -0.5407 -0.1863  0.0597
 6736SOL    HW131667   2.508   3.496   6.398 -2.9507  1.9089 -2.0683
 6736SOL    HW231668   2.476   3.487   6.256  0.3139 -0.3883 -0.6747
 6737SOL     OW31669   2.348   1.439   6.764  0.7110 -0.0558 -0.0395
 6737SOL    HW131670   2.427   1.493   6.757  1.4060 -1.2745 -1.4950
 6737SOL    HW231671   2.355   1.382   6.688  1.3798 -0.7051  0.5100
 6738SOL     OW31672   1.512   2.599   7.805  0.0341  0.0799 -0.2458
 6738SOL    HW131673   1.586   2.653   7.833 -1.2227  2.4424 -1.4646
 6738SOL    HW231674   1.559   2.517   7.790  2.3362  1.1192  1.2689
 6739SOL     OW31675   4.566   4.499   3.532 -0.5427 -0.2644  0.0228
 6739SOL    HW131676   4.616   4.489   3.451  0.0929 -0.2455  0.4087
 6739SOL    HW231677   4.609   4.573   3.575 -0.4113  0.7144 -1.8067
 6740SOL     OW31678   2.915   2.444   5.440  0.1821 -0.0190  0.6702
 6740SOL    HW131679   3.010   2.449   5.432 -0.0021  1.4124 -0.4785
 6740SOL    HW231680   2.894   2.520   5.386 -0.2412 -0.9481 -0.4812
 6741SOL     OW31681   1.536   4.219  11.471 -0.1889 -0.0841  0.2404
 6741SOL    HW131682   1.612   4.276  11.480  0.6236 -1.5906  3.0424
 6741SOL    HW231683   1.479   4.290  11.443  2.4225  2.1337  0.5432
 6742SOL     OW31684   1.955   2.336  17.327 -0.0469 -0.2346 -0.2734
 6742SOL    HW131685   1.954   2.358  17.420  0.6361 -1.4715  0.0209
 6742SOL    HW231686   1.863   2.320  17.307 -0.6430  0.8820  1.6043
 6743SOL     OW31687   1.246   4.249   1.255  0.0217 -0.5212  0.0351
 6743SOL    HW131688   1.284   4.191   1.320 -0.3864  1.4075  2.0136
 6743SOL    HW231689   1.201   4.183   1.203 -0.7968 -0.7293  1.0078
 6744SOL     OW31690   2.116   4.208   1.697  0.0491 -0.3071 -0.1692
 6744SOL    HW131691   2.174   4.278   1.728 -1.2212  1.6562 -2.1869
 6744SOL    HW231692   2.033   4.251   1.717 -0.0056 -0.7099  0.4571
 6745SOL     OW31693   2.836   2.662  10.790 -0.2853  0.0031  0.7334
 6745SOL    HW131694   2.826   2.587  10.848  1.6706 -1.6984 -1.0961
 6745SOL    HW231695   2.758   2.716  10.800 -1.9657 -2.3093 -0.0275
 6746SOL     OW31696   4.553   1.470   3.368 -0.1969 -0.4035  0.0972
 6746SOL    HW131697   4.505   1.389   3.386  2.9013 -1.3719  4.0949
 6746SOL    HW231698   4.637   1.455   3.413 -0.6668 -1.6114  0.5627
 6747SOL     OW31699   4.489   1.886   2.396  0.1651 -0.6889  0.4443
 6747SOL    HW131700   4.542   1.902   2.474  1.7403 -0.9230 -0.5715
 6747SOL    HW231701   4.501   1.966   2.345 -4.2935  1.0359  2.1289
 6748SOL     OW31702   3.208   4.591  14.589  0.0176 -0.0046 -0.4334
 6748SOL    HW131703   3.191   4.497  14.579 -0.1576  0.0238 -0.4003
 6748SOL    HW231704   3.299   4.585  14.617 -0.0305 -0.0605 -0.2904
 6749SOL     OW31705   0.532   0.322   0.856  0.2844  0.1600 -0.2927
 6749SOL    HW131706   0.576   0.388   0.803 -1.9826  2.6433  0.9078
 6749SOL    HW231707   0.600   0.270   0.899  0.2766  0.3194 -0.0892
 6750SOL     OW31708   1.418   1.053  14.207 -0.4865  0.2935  0.0114
 6750SOL    HW131709   1.488   1.025  14.148 -1.2507 -2.5539  0.4426
 6750SOL    HW231710   1.469   1.088  14.280 -1.2260  1.8203 -0.1871
 6751SOL     OW31711   1.447   4.202   7.183  0.2985  0.5205 -0.4930
 6751SOL    HW131712   1.372   4.201   7.243  0.6377 -1.2245 -0.1177
 6751SOL    HW231713   1.489   4.118   7.200  0.5986  1.2524  2.4041
 6752SOL     OW31714   2.014   3.196   2.455  0.0325 -0.0616  0.6330
 6752SOL    HW131715   1.993   3.278   2.411 -0.8026 -0.0922  0.9724
 6752SOL    HW231716   1.966   3.136   2.397  0.4617  0.4469 -0.2477
 6753SOL     OW31717   2.623   0.752   5.937 -0.1848 -0.6763  0.5209
 6753SOL    HW131718   2.669   0.834   5.921 -2.2409  0.1276 -1.2536
 6753SOL    HW231719   2.556   0.781   5.999  0.2209 -0.4539  0.8582
 6754SOL     OW31720   2.121   4.278   4.064  0.0091 -0.1077 -0.0691
 6754SOL    HW131721   2.198   4.260   4.119 -0.2502 -0.9639  0.0219
 6754SOL    HW231722   2.058   4.210   4.087 -2.7378  2.9604  1.4257
 6755SOL     OW31723   1.772   4.625   5.412  0.0631 -0.0803 -0.2887
 6755SOL    HW131724   1.759   4.533   5.388  1.1792  0.3368 -2.4675
 6755SOL    HW231725   1.679   4.645   5.427  0.7348  1.9830  1.1364
 6756SOL     OW31726   0.827   0.428   4.063  0.4254 -0.0396 -0.5836
 6756SOL    HW131727   0.855   0.344   4.101  1.0056  0.8492  0.9405
 6756SOL    HW231728   0.735   0.423   4.085 -0.0766  0.8074 -2.4824
 6757SOL     OW31729   3.820   0.807   5.726 -0.2449 -0.2069 -0.0965
 6757SOL    HW131730   3.906   0.811   5.685 -1.3180  0.7245 -2.2581
 6757SOL    HW231731   3.843   0.788   5.817  0.8570 -0.7251 -0.4780
 6758SOL     OW31732   3.736   0.824   6.367  0.0216 -0.2086 -0.2539
 6758SOL    HW131733   3.820   0.836   6.410  0.5466 -0.4651 -1.1961
 6758SOL    HW231734   3.682   0.834   6.445  1.2398 -0.4906  0.6254
 6759SOL     OW31735   0.820   4.215  10.711  0.1715 -0.0208 -0.2326
 6759SOL    HW131736   0.766   4.248  10.639 -0.8484 -0.9254  0.1311
 6759SOL    HW231737   0.822   4.288  10.774  0.1085 -2.1271  2.1995
 6760SOL     OW31738   3.846   2.107   2.754 -0.4147  1.0292  0.1327
 6760SOL    HW131739   3.874   2.129   2.665 -1.5933 -0.9427 -0.7187
 6760SOL    HW231740   3.856   2.195   2.791 -0.3619  0.2224  2.0282
 6761SOL     OW31741   3.381   2.054   2.749 -1.2035 -0.2288  0.2704
 6761SOL    HW131742   3.367   2.096   2.664  1.8919  0.8488  0.3005
 6761SOL    HW231743   3.429   2.127   2.788  1.5692 -0.3502 -2.9667
 6762SOL     OW31744   4.486   4.419  16.673  0.0164  0.0094  0.1110
 6762SOL    HW131745   4.563   4.408  16.730  0.2229  1.3422  0.0763
 6762SOL    HW231746   4.506   4.499  16.625  1.5378 -0.7214 -0.4737
 6763SOL     OW31747   4.490   0.067  16.947 -0.9290 -0.5467  0.1785
 6763SOL    HW131748   4.430   0.005  16.988 -1.0178 -1.2193 -0.9690
 6763SOL    HW231749   4.425   0.132  16.920  0.9956 -0.4863 -4.4136
 6764SOL     OW31750   2.634   3.552   0.850  0.0711 -0.4130 -0.2526
 6764SOL    HW131751   2.626   3.464   0.886 -1.4972 -0.3662 -0.5105
 6764SOL    HW231752   2.684   3.530   0.771  0.2724  0.9485 -0.5014
 6765SOL     OW31753   4.405   4.315  11.631 -0.3531 -0.1614 -0.0811
 6765SOL    HW131754   4.459   4.329  11.709 -0.6741  1.4842 -0.1390
 6765SOL    HW231755   4.393   4.222  11.646 -0.7400 -0.3000 -1.2124
 6766SOL     OW31756   0.774   3.986   6.954 -0.1766  0.6016 -0.1018
 6766SOL    HW131757   0.699   3.972   7.012  1.0416  0.0820  1.3605
 6766SOL    HW231758   0.849   4.001   7.012 -0.5085  0.8800  0.2617
 6767SOL     OW31759   1.632   2.484   4.853  0.4098  0.0430 -0.1098
 6767SOL    HW131760   1.563   2.480   4.787  0.7270  0.0663 -0.4412
 6767SOL    HW231761   1.633   2.577   4.876  1.0329 -0.3038  1.3208
 6768SOL     OW31762   0.852   4.137   9.443  0.3455  0.3092 -0.1022
 6768SOL    HW131763   0.813   4.084   9.513  1.7359 -1.9011 -1.0024
 6768SOL    HW231764   0.888   4.072   9.384  0.0926  1.3936 -1.4375
 6769SOL     OW31765   4.683   3.714   2.650 -0.3900  0.0713  0.5593
 6769SOL    HW131766   0.037   3.664   2.681  0.4043  0.6092 -0.5172
 6769SOL    HW231767   4.713   3.804   2.654  2.2747 -0.8249  0.5935
 6770SOL     OW31768   4.378   4.142   3.395  0.3940 -0.3672 -0.5748
 6770SOL    HW131769   4.422   4.171   3.474  0.0157 -0.6421 -0.2644
 6770SOL    HW231770   4.443   4.087   3.351  2.3551  0.9356  0.7449
 6771SOL     OW31771   3.673   4.509   3.388 -0.0088  0.1001  0.5474
 6771SOL    HW131772   3.625   4.435   3.352  1.4159 -0.7525  0.4058
 6771SOL    HW231773   3.703   4.552   3.308 -0.8274  1.7018  1.1014
 6772SOL     OW31774   1.520   1.854   2.799  0.0176  0.1330 -0.2302
 6772SOL    HW131775   1.511   1.759   2.791 -3.2055  0.5328 -1.3470
 6772SOL    HW231776   1.604   1.864   2.842  0.7084 -1.1706 -1.2807
 6773SOL     OW31777   0.579   2.156  13.755  0.7805  0.4116 -0.2194
 6773SOL    HW131778   0.578   2.098  13.678  0.5582 -0.4072  0.4051
 6773SOL    HW231779   0.569   2.245  13.720  0.5607  0.1821 -0.7371
 6774SOL     OW31780   2.582   4.486  15.582 -0.0605  0.4738  0.0811
 6774SOL    HW131781   2.553   4.574  15.556 -1.0806  0.2442  0.4095
 6774SOL    HW231782   2.549   4.481  15.672  1.9943  0.1200  0.8087
 6775SOL     OW31783   0.280   3.331  14.059  0.5590 -0.0777 -0.0445
 6775SOL    HW131784   0.361   3.340  14.008  0.5766  1.3829  0.2516
 6775SOL    HW231785   0.330   3.326  14.140  2.9092 -1.2690 -1.5535
 6776SOL     OW31786   1.288   1.881   2.932  0.3874 -0.2445 -0.7793
 6776SOL    HW131787   1.365   1.865   2.878  0.9700 -0.4829  0.1074
 6776SOL    HW231788   1.229   1.837   2.872 -2.4232  2.0814  0.2639
 6777SOL     OW31789   0.565   3.228   5.012  0.5706  0.5758  0.0117
 6777SOL    HW131790   0.574   3.323   5.006  2.7230  0.4345  0.9661
 6777SOL    HW231791   0.583   3.202   4.921 -3.0248  1.1782 -0.8674
 6778SOL     OW31792   4.051   3.762  14.739  0.2862  0.1437 -0.4208
 6778SOL    HW131793   4.030   3.830  14.676 -0.7312 -0.6105 -0.9028
 6778SOL    HW231794   4.063   3.806  14.823  0.1151 -2.0172  0.7300
 6779SOL     OW31795   3.420   4.077   4.598 -0.2858  0.3184  0.2107
 6779SOL    HW131796   3.497   4.020   4.593  1.1233  2.2039  0.8328
 6779SOL    HW231797   3.454   4.158   4.562  1.9888 -0.9797 -0.5831
 6780SOL     OW31798   2.392   1.794  12.333  0.1532  0.6205  0.1326
 6780SOL    HW131799   2.473   1.808  12.284  0.4159  0.0476  0.4041
 6780SOL    HW231800   2.415   1.757  12.418 -1.4749 -0.8465 -0.0544
 6781SOL     OW31801   0.108   1.846   3.800 -0.0703  0.0389 -0.2665
 6781SOL    HW131802   0.046   1.779   3.771 -2.3121  0.9058  2.4788
 6781SOL    HW231803   0.135   1.877   3.714  0.8864  1.2380  0.4657
 6782SOL     OW31804   3.799   0.811  15.320 -0.5830 -0.8210  0.3681
 6782SOL    HW131805   3.798   0.758  15.240  0.6568 -1.6349  0.8832
 6782SOL    HW231806   3.803   0.743  15.388  0.7383 -0.5857  0.5259
 6783SOL     OW31807   3.319   2.943   3.338  1.1110  0.1709  0.9187
 6783SOL    HW131808   3.327   3.036   3.318  0.3397 -0.1120 -0.6899
 6783SOL    HW231809   3.266   2.928   3.259  0.6522  1.7440  0.9139
 6784SOL     OW31810   0.524   3.517   3.372  0.1955  0.3257 -0.0971
 6784SOL    HW131811   0.600   3.570   3.396  0.1524 -0.0391  0.8496
 6784SOL    HW231812   0.499   3.490   3.460 -1.1630  1.8280 -0.0393
 6785SOL     OW31813   3.456   2.664   5.446 -0.2545 -0.6532 -0.1488
 6785SOL    HW131814   3.514   2.639   5.374 -0.9480  1.1904 -1.3618
 6785SOL    HW231815   3.527   2.657   5.510  0.6810  1.7588 -0.8954
 6786SOL     OW31816   4.097   2.731   5.578  0.2207 -0.4662 -0.2512
 6786SOL    HW131817   4.088   2.816   5.621  1.0846  0.2641 -1.5200
 6786SOL    HW231818   4.088   2.669   5.651 -1.8705 -1.3389 -1.2316
 6787SOL     OW31819   4.204   4.267   6.613 -0.0666 -0.3503 -0.1798
 6787SOL    HW131820   4.151   4.294   6.538 -0.1155 -0.3849 -0.1577
 6787SOL    HW231821   4.251   4.193   6.576 -1.4219 -0.2911 -2.0251
 6788SOL     OW31822   3.645   3.655   3.609 -0.4010  0.4183  0.4205
 6788SOL    HW131823   3.689   3.666   3.693 -1.8623  1.2793  1.0542
 6788SOL    HW231824   3.693   3.715   3.552 -2.0645  0.7772 -0.5952
 6789SOL     OW31825   1.589   3.469   9.148  0.1295 -0.5076  0.3876
 6789SOL    HW131826   1.502   3.485   9.185 -0.7810 -3.4712 -0.5265
 6789SOL    HW231827   1.581   3.374   9.150  0.8149 -0.5645  0.6534
 6790SOL     OW31828   3.416   3.307   2.469 -0.1054 -0.0998  0.4476
 6790SOL    HW131829   3.447   3.397   2.459 -1.5798  0.2419 -1.1407
 6790SOL    HW231830   3.489   3.267   2.516 -0.3653 -1.2750 -0.1248
 6791SOL     OW31831   2.290   0.307  13.066  0.4537  0.4232  0.0478
 6791SOL    HW131832   2.346   0.245  13.019  0.8170  0.0782  0.9178
 6791SOL    HW231833   2.215   0.249  13.061  0.8925 -0.3505  2.1844
 6792SOL     OW31834   2.866   2.726   6.927  0.0130 -0.5896  0.3209
 6792SOL    HW131835   2.942   2.766   6.884  0.0142 -0.5651  0.3461
 6792SOL    HW231836   2.898   2.652   6.978  1.8027  1.5692  2.3975
 6793SOL     OW31837   3.622   1.487   3.696 -0.5592 -0.3657  0.3855
 6793SOL    HW131838   3.613   1.463   3.788 -1.4069 -2.1780 -0.1727
 6793SOL    HW231839   3.710   1.524   3.696 -0.3063 -0.9775  0.5494
 6794SOL     OW31840   3.834   4.455   6.578 -0.3678  0.0916 -0.1803
 6794SOL    HW131841   3.872   4.447   6.665 -0.9550  1.8679  0.2360
 6794SOL    HW231842   3.901   4.408   6.528 -0.7533 -0.5627 -0.0861
 6795SOL     OW31843   2.995   0.902   5.332  0.3499  0.4316  0.3426
 6795SOL    HW131844   2.980   0.995   5.348 -1.2814  0.5628 -1.9365
 6795SOL    HW231845   2.931   0.866   5.394 -1.1801 -2.6344 -3.0566
 6796SOL     OW31846   1.587   0.347   4.799  0.2780  0.2794 -0.3019
 6796SOL    HW131847   1.544   0.331   4.883  1.8380  0.4248  0.5265
 6796SOL    HW231848   1.583   0.442   4.799 -1.2179  0.2184 -2.7376
 6797SOL     OW31849   0.684   2.026   3.782 -0.6005 -0.7318 -0.6688
 6797SOL    HW131850   0.721   2.070   3.705  0.0695 -0.3776 -0.1415
 6797SOL    HW231851   0.632   2.100   3.815  0.6739 -0.2457  0.2560
 6798SOL     OW31852   0.295   2.535   1.891  0.2043 -0.7027 -0.3169
 6798SOL    HW131853   0.307   2.544   1.796 -0.8788  0.5070 -0.3380
 6798SOL    HW231854   0.342   2.453   1.905  2.7536  0.8969  0.3507
 6799SOL     OW31855   3.792   2.882  12.731 -0.0315  0.2886  0.3359
 6799SOL    HW131856   3.785   2.822  12.805 -1.8557  2.0951  1.6247
 6799SOL    HW231857   3.712   2.934  12.740 -0.5653 -0.1274 -2.0866
 6800SOL     OW31858   4.699   0.827   6.333 -0.5815  0.7091  0.6611
 6800SOL    HW131859   4.683   0.781   6.251  0.2088  0.2422  0.7711
 6800SOL    HW231860   4.635   0.898   6.320 -1.1869  0.0694  0.1285
 6801SOL     OW31861   4.533   0.018   2.242 -0.2033 -0.4853 -0.1938
 6801SOL    HW131862   4.586   0.022   2.162  0.4183  2.9565  0.3981
 6801SOL    HW231863   4.465   0.082   2.221 -1.1579 -1.1949  0.6731
 6802SOL     OW31864   2.259   1.332   5.393  0.4902  0.1261 -0.5144
 6802SOL    HW131865   2.250   1.399   5.325 -0.4669  2.8189  2.2424
 6802SOL    HW231866   2.256   1.256   5.336  0.8463  0.4401 -0.9468
 6803SOL     OW31867   3.159   2.753  17.683 -0.2409 -0.5576  0.6591
 6803SOL    HW131868   3.192   2.843  17.682  1.7239 -1.2981 -0.5889
 6803SOL    HW231869   3.222   2.701   0.045 -0.4536  0.2273  1.7527
 6804SOL     OW31870   0.792   4.228   3.129  0.1417 -0.1320 -0.1099
 6804SOL    HW131871   0.808   4.322   3.120  0.7470 -0.0557  1.7244
 6804SOL    HW231872   0.697   4.223   3.113  0.2768 -2.5970 -0.1300
 6805SOL     OW31873   3.615   4.117  17.589 -0.0615 -0.0351 -0.0129
 6805SOL    HW131874   3.623   4.200  17.637  0.8156  0.3101 -0.7555
 6805SOL    HW231875   3.528   4.088  17.617  0.0462 -0.3377  0.0023
 6806SOL     OW31876   2.403   0.916   7.306 -0.0199  0.2444  0.3764
 6806SOL    HW131877   2.440   0.996   7.344  2.0898 -0.9645  0.8777
 6806SOL    HW231878   2.333   0.959   7.257 -0.1455 -0.3980 -0.0017
 6807SOL     OW31879   2.578   4.436   8.138  0.1640 -0.3581  0.0713
 6807SOL    HW131880   2.650   4.374   8.135  0.5065  0.0772 -0.5419
 6807SOL    HW231881   2.624   4.517   8.116 -0.1172 -0.5806 -1.2967
 6808SOL     OW31882   3.391   3.594   1.046  0.1595 -0.5761  0.7060
 6808SOL    HW131883   3.485   3.579   1.047 -0.1271 -2.3519  0.8417
 6808SOL    HW231884   3.359   3.525   1.105 -0.6389 -0.0646  0.8711
 6809SOL     OW31885   4.249   4.161   8.294  0.7630 -0.0864  0.2055
 6809SOL    HW131886   4.317   4.094   8.300 -0.5864 -1.5827 -1.0629
 6809SOL    HW231887   4.273   4.196   8.379 -1.0030  0.6793  0.3908
 6810SOL     OW31888   0.701   0.251   6.034 -1.1850  0.2340  0.3135
 6810SOL    HW131889   0.615   0.289   6.050 -0.8658  0.7214  0.8597
 6810SOL    HW231890   0.684   0.174   6.088  1.7192 -0.6074  0.0219
 6811SOL     OW31891   1.819   2.144   2.544  0.1420  0.0676  0.3325
 6811SOL    HW131892   1.746   2.205   2.553  1.2821  1.3865  0.6112
 6811SOL    HW231893   1.849   2.143   2.635  2.4436  2.0566 -0.4102
 6812SOL     OW31894   3.964   2.195  15.656  0.4159 -0.2595 -0.2972
 6812SOL    HW131895   3.930   2.246  15.730 -0.3374 -0.4894 -0.4958
 6812SOL    HW231896   3.883   2.179  15.609 -1.3702  1.4067  2.2425
 6813SOL     OW31897   0.108   4.506  17.243 -0.2026 -0.2892  0.2144
 6813SOL    HW131898   0.051   4.583  17.239 -0.7334 -0.7243 -0.5441
 6813SOL    HW231899   0.190   4.553  17.260 -0.1902 -0.5574  0.8888
 6814SOL     OW31900   3.966   3.456   4.272 -0.1315  1.0553 -0.2078
 6814SOL    HW131901   4.047   3.480   4.228 -1.2507 -1.2045 -3.4825
 6814SOL    HW231902   3.914   3.420   4.200  1.1673 -0.9369 -0.1331
 6815SOL     OW31903   0.807   2.751   8.471  0.7590 -0.1819 -0.1499
 6815SOL    HW131904   0.902   2.753   8.478  0.9723  0.9124 -3.6027
 6815SOL    HW231905   0.789   2.661   8.496  0.6181 -0.4404 -1.1955
 6816SOL     OW31906   0.876   4.160   5.117  0.3792 -0.2148  0.1710
 6816SOL    HW131907   0.879   4.253   5.137  0.7162  0.2225 -1.9216
 6816SOL    HW231908   0.808   4.126   5.176  0.1738 -0.2643 -0.0962
 6817SOL     OW31909   3.511   0.109   7.919  0.6895 -0.1117 -0.3225
 6817SOL    HW131910   3.487   0.079   7.832  0.0223  0.7569 -0.4428
 6817SOL    HW231911   3.511   0.025   7.966  0.1814  1.2431  2.1168
 6818SOL     OW31912   1.446   1.316   8.051  0.9721 -0.2417  0.2966
 6818SOL    HW131913   1.467   1.409   8.055  1.1158 -0.1874 -1.4770
 6818SOL    HW231914   1.401   1.321   7.966 -2.5690  1.0511  2.2456
 6819SOL     OW31915   2.328   4.065   4.765  0.3088  0.3681 -0.0883
 6819SOL    HW131916   2.400   4.128   4.772 -2.1764  3.4155 -1.7342
 6819SOL    HW231917   2.383   3.993   4.734  1.0008  1.5745 -1.6432
 6820SOL     OW31918   1.592   1.718   3.717  0.1738 -0.0120  0.4084
 6820SOL    HW131919   1.533   1.777   3.764 -0.7810  0.7864 -1.7793
 6820SOL    HW231920   1.664   1.730   3.779  2.2277 -0.7234 -1.8387
 6821SOL     OW31921   2.675   0.412   6.612  0.5757 -0.3458 -0.1654
 6821SOL    HW131922   2.669   0.450   6.525  1.2147  0.3096  0.0778
 6821SOL    HW231923   2.675   0.318   6.595 -2.3546 -0.1295 -1.3839
 6822SOL     OW31924   3.392   0.395   9.123 -0.2793 -0.8591 -0.4458
 6822SOL    HW131925   3.418   0.473   9.073 -1.0531 -1.5389 -1.9274
 6822SOL    HW231926   3.364   0.447   9.199 -0.0910 -1.1946 -0.1474
 6823SOL     OW31927   1.900   4.165  15.550  0.1662  0.6220  0.0029
 6823SOL    HW131928   1.987   4.176  15.589  1.0346 -1.9366 -1.1848
 6823SOL    HW231929   1.864   4.090  15.597  2.1376  0.6540  1.5811
 6824SOL     OW31930   2.268   3.103   2.158 -0.3009  0.3965 -0.1921
 6824SOL    HW131931   2.228   3.166   2.098  0.6063 -0.6537 -1.8993
 6824SOL    HW231932   2.319   3.053   2.094 -0.2199  1.6768 -1.1194
 6825SOL     OW31933   0.643   0.864  11.407 -0.5823 -0.2962  0.4970
 6825SOL    HW131934   0.610   0.798  11.347  0.0813 -0.6683  0.5428
 6825SOL    HW231935   0.665   0.928  11.339  0.7676 -0.6803  0.5800
 6826SOL     OW31936   2.534   3.538   8.890 -0.3720  0.3448 -0.1848
 6826SOL    HW131937   2.545   3.520   8.796  0.1283 -2.4168  0.3964
 6826SOL    HW231938   2.533   3.634   8.887  1.3942  0.3513 -0.4263
 6827SOL     OW31939   0.481   2.792   9.461  0.8406 -0.0596  0.0805
 6827SOL    HW131940   0.424   2.845   9.405 -1.2903 -0.4228  1.9152
 6827SOL    HW231941   0.571   2.821   9.450  0.6671  0.5363  0.2226
 6828SOL     OW31942   3.120   0.299   2.452 -0.3708 -0.0362  0.1670
 6828SOL    HW131943   3.078   0.361   2.393  0.6161  1.2070  0.7536
 6828SOL    HW231944   3.060   0.225   2.448  2.1145 -2.1159  1.8640
 6829SOL     OW31945   2.946   3.136   4.280  0.1894  0.1865 -0.3623
 6829SOL    HW131946   3.018   3.198   4.265 -0.5766  1.0373 -0.5535
 6829SOL    HW231947   2.884   3.173   4.217 -1.9957 -0.1906  1.5900
 6830SOL     OW31948   0.837   1.654   0.042 -0.1360  0.0733 -0.1066
 6830SOL    HW131949   0.755   1.666   0.088 -0.3173  3.5992 -1.3566
 6830SOL    HW231950   0.840   1.741   0.000  1.5193 -0.3841 -0.9369
 6831SOL     OW31951   2.972   0.310  14.097  0.1676  0.2057 -0.2383
 6831SOL    HW131952   2.945   0.256  14.171 -0.9041 -0.4926 -1.1154
 6831SOL    HW231953   3.053   0.349  14.130 -0.7213  0.7362  1.3087
 6832SOL     OW31954   2.933   2.926   8.911 -0.3376 -0.0535  0.0742
 6832SOL    HW131955   2.844   2.951   8.885 -0.3091  0.2571  0.2685
 6832SOL    HW231956   2.975   2.976   8.842  0.8289 -1.6362 -0.3555
 6833SOL     OW31957   1.614   1.929   6.506 -0.0771  0.4345  0.7888
 6833SOL    HW131958   1.559   1.951   6.431 -0.2594 -1.6965  0.3083
 6833SOL    HW231959   1.545   1.902   6.566 -0.5846 -1.8940 -0.8425
 6834SOL     OW31960   1.470   1.174   9.080 -0.5673  0.3432  0.3337
 6834SOL    HW131961   1.389   1.208   9.042 -0.6416  0.7637  0.8723
 6834SOL    HW231962   1.437   1.100   9.132 -1.0209 -0.2702 -0.8154
 6835SOL     OW31963   1.739   2.159   6.620  0.2247  0.4364 -0.0508
 6835SOL    HW131964   1.714   2.089   6.559  2.1068  0.1772 -0.5034
 6835SOL    HW231965   1.830   2.139   6.643 -0.6931 -0.7347  2.6275
 6836SOL     OW31966   0.001   2.152   8.034  0.2079 -0.1675  0.3525
 6836SOL    HW131967   0.095   2.168   8.027  0.2512  0.2067  2.0069
 6836SOL    HW231968   4.716   2.114   7.946 -0.8523  1.2330 -0.1828
 6837SOL     OW31969   4.191   1.359   0.209  0.1765  0.0821  0.1561
 6837SOL    HW131970   4.280   1.351   0.242 -0.0036 -2.6292 -0.0564
 6837SOL    HW231971   4.193   1.296   0.137 -1.2894  0.3067 -0.0834
 6838SOL     OW31972   0.698   1.250  11.746 -0.1809  0.1699  0.0127
 6838SOL    HW131973   0.746   1.220  11.668 -0.3491  0.0602 -0.0483
 6838SOL    HW231974   0.663   1.166  11.775  1.5095 -0.3315  0.6064
 6839SOL     OW31975   4.408   0.551   6.521 -0.5560 -0.6450  0.3522
 6839SOL    HW131976   4.414   0.618   6.590 -1.1884  0.0053 -0.2219
 6839SOL    HW231977   4.412   0.475   6.580 -0.7880  0.1216  1.3619
 6840SOL     OW31978   0.801   3.056   9.017 -0.2775 -0.3121 -0.5823
 6840SOL    HW131979   0.774   2.965   9.016 -2.9742  0.4664  0.5553
 6840SOL    HW231980   0.895   3.045   9.003 -0.0497 -1.3398  1.8250
 6841SOL     OW31981   4.472   0.173  16.356 -0.3454 -0.5151  0.2144
 6841SOL    HW131982   4.430   0.102  16.307 -2.9836  2.2311 -1.4937
 6841SOL    HW231983   4.521   0.203  16.279 -1.0048  1.7272  0.6873
 6842SOL     OW31984   0.796   2.848   0.550 -0.3390  0.8846  0.4170
 6842SOL    HW131985   0.845   2.769   0.529 -0.9394  0.1293  1.8894
 6842SOL    HW231986   0.740   2.814   0.619  0.6388  0.3734  0.9618
 6843SOL     OW31987   2.657   0.666   1.006  0.2307 -0.1469  0.2242
 6843SOL    HW131988   2.576   0.635   0.967  0.3828  0.3833 -0.5217
 6843SOL    HW231989   2.621   0.717   1.078  1.5405  3.0452 -1.3769
 6844SOL     OW31990   1.998   0.848   5.177 -0.2764 -0.5898  0.3856
 6844SOL    HW131991   1.959   0.805   5.101 -2.4483  0.1019  1.0830
 6844SOL    HW231992   2.082   0.804   5.188 -0.4423 -0.7147  1.1690
 6845SOL     OW31993   2.234   3.855  16.491 -0.2346 -0.3914 -0.0689
 6845SOL    HW131994   2.150   3.880  16.530 -1.1040 -0.4207 -1.9087
 6845SOL    HW231995   2.261   3.943  16.465 -0.7449 -0.1975  0.0562
 6846SOL     OW31996   2.991   3.708  10.338  0.0717  0.2822  0.3431
 6846SOL    HW131997   2.905   3.667  10.342  0.4761 -0.5907  0.0062
 6846SOL    HW231998   2.982   3.784  10.395  0.1821  1.7798 -1.6297
 6847SOL     OW31999   4.336   1.758   4.129  0.0806 -0.2189  0.1697
 6847SOL    HW132000   4.277   1.693   4.168 -0.8077 -0.1655 -1.0853
 6847SOL    HW232001   4.276   1.832   4.119 -0.7156 -0.7110  1.2198
 6848SOL     OW32002   1.369   2.567  14.081 -0.0557 -0.2656 -0.5304
 6848SOL    HW132003   1.275   2.554  14.096  0.2772 -1.5535  0.3342
 6848SOL    HW232004   1.391   2.616  14.160  0.9440 -1.4165 -0.1016
 6849SOL     OW32005   3.891   1.160  16.891  0.2953 -0.3542  0.1299
 6849SOL    HW132006   3.909   1.246  16.928  0.5571  0.3113 -1.5507
 6849SOL    HW232007   3.913   1.110  16.970  1.5949  0.1299  0.0799
 6850SOL     OW32008   1.645   3.538   0.936 -0.8685  0.2785 -0.4810
 6850SOL    HW132009   1.615   3.538   1.027  2.6942 -1.2898  0.7108
 6850SOL    HW232010   1.604   3.618   0.904 -2.6623  0.4381  2.2437
 6851SOL     OW32011   0.467   3.280  11.579  0.4334 -0.3453  0.0997
 6851SOL    HW132012   0.528   3.301  11.508  0.7297  1.6409  0.9403
 6851SOL    HW232013   0.390   3.331  11.552  0.9687  1.1597  1.3743
 6852SOL     OW32014   1.540   3.930   3.334  0.2533 -0.6175 -0.3401
 6852SOL    HW132015   1.508   3.964   3.250  3.1039  1.2214 -0.6936
 6852SOL    HW232016   1.624   3.972   3.353  0.0377 -1.1763  1.8201
 6853SOL     OW32017   4.450   2.840  12.930 -0.3095  0.2463 -0.0263
 6853SOL    HW132018   4.524   2.889  12.966 -1.1240 -0.0547  2.0982
 6853SOL    HW232019   4.416   2.899  12.863  1.6754  0.7500 -0.5953
 6854SOL     OW32020   0.642   0.759  11.688  0.0666  0.1460  0.4229
 6854SOL    HW132021   0.720   0.813  11.705  0.1043 -0.4250  2.1208
 6854SOL    HW232022   0.614   0.807  11.611  0.5335  2.0588  1.4382
 6855SOL     OW32023   0.447   2.868  11.672 -0.5805 -0.3104  0.3087
 6855SOL    HW132024   0.413   2.809  11.740  2.4699 -0.9120  1.3247
 6855SOL    HW232025   0.495   2.807  11.616 -0.8959  0.4983 -0.8368
 6856SOL     OW32026   1.322   0.675   7.421  0.2715  0.0178  0.5190
 6856SOL    HW132027   1.301   0.598   7.368 -1.7084  0.5252  0.5425
 6856SOL    HW232028   1.414   0.694   7.405 -0.1562  0.6861 -1.1663
 6857SOL     OW32029   3.469   0.492  15.826 -0.6718 -0.8461  0.1644
 6857SOL    HW132030   3.539   0.492  15.892  0.2432 -0.1725 -0.7892
 6857SOL    HW232031   3.496   0.419  15.771  2.3312 -0.0870  0.6060
 6858SOL     OW32032   3.938   1.965   0.811 -0.0575 -0.5328  0.3838
 6858SOL    HW132033   3.906   2.051   0.838  0.6721  1.2416 -4.3210
 6858SOL    HW232034   3.879   1.936   0.740 -0.0350  4.2741 -1.5808
 6859SOL     OW32035   1.310   3.580   3.300  0.0953  0.0135 -0.4150
 6859SOL    HW132036   1.304   3.632   3.220 -0.3037  0.2773 -0.2150
 6859SOL    HW232037   1.400   3.549   3.305 -0.2579 -0.8360  0.7413
 6860SOL     OW32038   1.028   3.173  15.158 -0.2314  0.6145  0.2885
 6860SOL    HW132039   1.055   3.093  15.204  2.0991  0.0221 -2.0724
 6860SOL    HW232040   0.959   3.139  15.102  1.5574  1.7859 -2.6064
 6861SOL     OW32041   2.458   2.695   6.410  0.6888 -0.2242 -0.0202
 6861SOL    HW132042   2.420   2.783   6.402  0.1091 -0.5986 -1.5136
 6861SOL    HW232043   2.541   2.718   6.368 -0.3327  2.2056 -0.6895
 6862SOL     OW32044   0.605   3.805  16.657  0.5740 -0.4210  0.1295
 6862SOL    HW132045   0.630   3.891  16.692  0.1926  0.0951 -0.8358
 6862SOL    HW232046   0.672   3.748  16.693  0.1412 -2.4808 -2.3378
 6863SOL     OW32047   4.329   3.649   8.496 -0.1567 -0.0422 -0.4831
 6863SOL    HW132048   4.274   3.643   8.418  0.9837 -0.2990 -1.2554
 6863SOL    HW232049   4.265   3.611   8.557  0.8647  0.2814  0.7847
 6864SOL     OW32050   0.661   1.275   6.796 -0.6006  0.0030  0.5706
 6864SOL    HW132051   0.707   1.354   6.767  0.2160 -0.6460  0.0981
 6864SOL    HW232052   0.724   1.209   6.770 -0.6797 -1.6871  4.5918
 6865SOL     OW32053   4.228   3.214  12.339 -0.2529 -0.0671  0.2803
 6865SOL    HW132054   4.243   3.179  12.427  1.8007 -0.6500 -0.3067
 6865SOL    HW232055   4.180   3.142  12.301  0.3885  1.0176 -2.5793
 6866SOL     OW32056   2.000   2.450  10.114 -0.3430  0.4027 -0.2244
 6866SOL    HW132057   1.958   2.514  10.057  0.5639  1.3110  0.1233
 6866SOL    HW232058   2.089   2.485  10.122  0.0251 -0.9782  1.6323
 6867SOL     OW32059   3.684   3.501   4.716 -0.3653 -0.0243  0.3595
 6867SOL    HW132060   3.673   3.486   4.622 -0.7075  1.7400  0.1147
 6867SOL    HW232061   3.638   3.428   4.757 -0.7709  0.4508  0.7530
 6868SOL     OW32062   1.125   2.017  13.305 -0.2339  0.2079  0.1480
 6868SOL    HW132063   1.187   2.055  13.367  1.9328 -1.9970 -0.6619
 6868SOL    HW232064   1.190   1.975  13.248 -0.8125  1.1006 -1.1488
 6869SOL     OW32065   0.400   1.175   1.973 -0.2785 -0.5188  0.1284
 6869SOL    HW132066   0.327   1.195   2.032 -1.5166 -1.6694 -1.0125
 6869SOL    HW232067   0.459   1.246   1.998  0.2533 -1.2689  1.0304
 6870SOL     OW32068   2.692   1.226   8.164  0.1382  0.0657 -0.0278
 6870SOL    HW132069   2.621   1.163   8.157  1.6132 -1.6488  0.3878
 6870SOL    HW232070   2.729   1.224   8.076  1.2449  0.8549  0.4043
 6871SOL     OW32071   0.076   3.953   2.809 -0.4826  0.6384  0.4410
 6871SOL    HW132072   0.106   3.944   2.719 -1.5568  0.7859  0.0728
 6871SOL    HW232073   0.160   3.976   2.849  0.3479 -2.8145  0.7095
 6872SOL     OW32074   2.492   0.074   1.921  0.5987  0.9257  0.1326
 6872SOL    HW132075   2.408   0.065   1.967  0.8015 -0.0888  0.3201
 6872SOL    HW232076   2.551   0.047   1.991  2.5303  2.2767 -0.9703
 6873SOL     OW32077   1.848   1.568   7.854  0.3008  0.1772 -0.0665
 6873SOL    HW132078   1.775   1.527   7.901 -0.0133  0.9975  0.1650
 6873SOL    HW232079   1.814   1.658   7.847 -1.3539 -0.4018  0.5122
 6874SOL     OW32080   1.638   1.460  15.967 -0.1034 -0.3835  0.2517
 6874SOL    HW132081   1.722   1.499  15.943 -0.4167  0.7060  0.8817
 6874SOL    HW232082   1.647   1.480  16.061 -1.0812 -1.8650  0.6685
 6875SOL     OW32083   4.716   2.654   3.800 -0.3123  0.0756  0.5045
 6875SOL    HW132084   4.690   2.636   3.709 -0.3698 -0.4353  0.6249
 6875SOL    HW232085   4.636   2.614   3.832 -0.6387  1.1998  1.0816
 6876SOL     OW32086   2.462   2.809  15.570  0.5783 -0.2560 -0.7090
 6876SOL    HW132087   2.554   2.783  15.562  1.0892  0.5928  2.1504
 6876SOL    HW232088   2.461   2.889  15.517  0.2469  1.4278  1.8050
 6877SOL     OW32089   2.948   1.292  15.448 -0.4941  0.5272 -0.0222
 6877SOL    HW132090   2.944   1.315  15.541 -0.9130 -0.7469  0.2697
 6877SOL    HW232091   3.042   1.303  15.429 -0.2164 -1.2296  0.3311
 6878SOL     OW32092   1.978   1.367   5.868 -0.3715  0.4533  1.0882
 6878SOL    HW132093   1.885   1.351   5.855  0.2296 -0.3168 -2.3193
 6878SOL    HW232094   1.988   1.459   5.842  1.1047  0.2559  0.9283
 6879SOL     OW32095   3.665   3.272   8.604 -0.5571  0.4141  0.2223
 6879SOL    HW132096   3.681   3.179   8.619 -1.9149  0.0957 -0.3573
 6879SOL    HW232097   3.693   3.277   8.513 -0.2566  0.1308  0.2993
 6880SOL     OW32098   2.968   1.164   5.428  0.1082 -0.2722 -0.1515
 6880SOL    HW132099   2.932   1.214   5.355  1.7959  2.6757  1.0646
 6880SOL    HW232100   3.056   1.201   5.434 -0.8618  1.7825  1.2821
 6881SOL     OW32101   3.864   1.775  10.551  0.4839 -0.2947  0.8359
 6881SOL    HW132102   3.891   1.823  10.472  1.5395 -1.1283  0.6980
 6881SOL    HW232103   3.946   1.757  10.596  0.5319 -0.0117  0.8619
 6882SOL     OW32104   3.806   4.545   1.910 -0.0607 -0.0976  0.4829
 6882SOL    HW132105   3.775   4.504   1.991 -1.1263  0.1539  0.1986
 6882SOL    HW232106   3.742   4.615   1.896  1.1260  0.1083 -3.8893
 6883SOL     OW32107   2.289   3.257   4.683 -0.2244  0.7887  0.0107
 6883SOL    HW132108   2.254   3.338   4.720 -1.3091 -0.8361  2.5208
 6883SOL    HW232109   2.272   3.188   4.747 -0.2319  1.2868  0.5472
 6884SOL     OW32110   2.257   0.672   5.906  0.3143  0.1580 -0.0462
 6884SOL    HW132111   2.257   0.652   5.813  0.4322  2.6189 -0.5749
 6884SOL    HW232112   2.164   0.660   5.925 -0.2848  2.9925 -1.2499
 6885SOL     OW32113   0.692   3.368   4.468  0.1394  0.1647  0.2450
 6885SOL    HW132114   0.724   3.281   4.442 -1.0145  0.3284 -1.6576
 6885SOL    HW232115   0.739   3.417   4.401  0.1876 -0.3355 -0.0883
 6886SOL     OW32116   2.282   2.573   3.673 -0.2605  0.3056 -0.7344
 6886SOL    HW132117   2.267   2.641   3.608  0.9111  0.9487 -0.3336
 6886SOL    HW232118   2.201   2.523   3.680 -0.2559  0.6848  2.0198
 6887SOL     OW32119   2.802   1.785   7.435  0.4934 -0.1807 -0.0588
 6887SOL    HW132120   2.860   1.710   7.420 -1.5001 -1.6895 -0.1205
 6887SOL    HW232121   2.748   1.784   7.357 -2.4093 -0.5403  1.9489
 6888SOL     OW32122   3.580   1.098  10.832  0.3511  0.4442  0.3081
 6888SOL    HW132123   3.564   1.192  10.837 -1.5611  0.1085  0.3434
 6888SOL    HW232124   3.625   1.086  10.748  1.5609 -0.1271  1.0282
 6889SOL     OW32125   4.171   3.585  15.071  0.0735  0.0414  0.3651
 6889SOL    HW132126   4.113   3.545  15.005 -0.4811 -0.1699  0.9774
 6889SOL    HW232127   4.229   3.513  15.094  0.6673  0.0058 -1.2448
 6890SOL     OW32128   1.849   4.656   1.386  0.7678  0.2490 -0.4492
 6890SOL    HW132129   1.890   0.021   1.375 -0.2968  0.7201 -0.7735
 6890SOL    HW232130   1.881   4.631   1.472  1.0705  3.0206  0.2467
 6891SOL     OW32131   2.516   4.700   8.308  0.3622 -0.2734  0.1861
 6891SOL    HW132132   2.591   4.683   8.251 -0.7049  1.2065 -1.6808
 6891SOL    HW232133   2.540   4.660   8.391 -0.9082 -0.9212  0.2440
 6892SOL     OW32134   3.401   3.156   7.193 -0.3494  0.1020  0.5532
 6892SOL    HW132135   3.347   3.108   7.130 -0.7436  0.4881  0.5965
 6892SOL    HW232136   3.471   3.092   7.204 -0.3023  0.0602 -0.0233
 6893SOL     OW32137   3.059   2.222   8.834 -0.1589 -0.2424  0.0260
 6893SOL    HW132138   2.989   2.266   8.785 -1.0187  2.1515  3.3947
 6893SOL    HW232139   3.128   2.237   8.769  0.4308  0.1069  0.7385
 6894SOL     OW32140   3.245   0.818   6.665  0.3023  0.9785 -0.5265
 6894SOL    HW132141   3.204   0.839   6.581  0.1222  3.1235  0.0823
 6894SOL    HW232142   3.331   0.786   6.641 -0.2361 -1.2374  0.5107
 6895SOL     OW32143   2.681   0.191   6.941  0.1004  0.4043 -0.1252
 6895SOL    HW132144   2.744   0.133   6.984 -1.2615  0.7785  2.3636
 6895SOL    HW232145   2.673   0.155   6.853 -0.6977  1.9463 -0.6727
 6896SOL     OW32146   0.054   1.487   6.461 -0.6069  0.3876 -0.2281
 6896SOL    HW132147   4.708   1.542   6.421 -0.8223 -1.5763 -2.5483
 6896SOL    HW232148   0.006   1.407   6.482  0.6976 -0.5992 -1.0881
 6897SOL     OW32149   3.310   0.083  10.775  0.3028 -0.2999  0.3554
 6897SOL    HW132150   3.345   0.009  10.726  0.3683 -0.1528  0.1820
 6897SOL    HW232151   3.319   0.053  10.866  0.1219 -1.0331  0.1349
 6898SOL     OW32152   0.581   0.812   9.053 -0.7180 -0.2645 -0.8159
 6898SOL    HW132153   0.513   0.753   9.021  0.3112 -2.3048  0.7742
 6898SOL    HW232154   0.538   0.898   9.057 -1.8060 -0.8522  0.0826
 6899SOL     OW32155   3.785   1.162   7.012  0.3711 -0.1263  0.0867
 6899SOL    HW132156   3.807   1.098   7.080  0.8934  1.9348  1.8631
 6899SOL    HW232157   3.690   1.151   7.015 -0.0479  3.0798 -1.1810
 6900SOL     OW32158   3.098   3.640   9.769 -0.3307  0.1278 -0.0553
 6900SOL    HW132159   3.184   3.644   9.728  0.1090  1.2597  0.9651
 6900SOL    HW232160   3.082   3.546   9.763  2.0724 -0.3345  0.7238
 6901SOL     OW32161   4.223   1.791   3.794 -0.1303  0.5294 -0.3805
 6901SOL    HW132162   4.291   1.726   3.813  1.1843  1.7620 -0.9485
 6901SOL    HW232163   4.231   1.801   3.700  1.2217 -0.0197 -0.3174
 6902SOL     OW32164   4.301   3.431   7.896 -0.0434  0.1161 -0.2458
 6902SOL    HW132165   4.353   3.492   7.948 -0.3111  1.0341 -1.0483
 6902SOL    HW232166   4.213   3.449   7.928  0.1431  0.4720  0.0576
 6903SOL     OW32167   1.423   1.183   4.563 -0.5226  0.3139  0.0999
 6903SOL    HW132168   1.363   1.215   4.496 -0.5745 -3.3887 -1.6209
 6903SOL    HW232169   1.505   1.207   4.518 -0.3333 -2.2177 -0.8966
 6904SOL     OW32170   3.392   3.654   7.099  0.0982  0.1124  0.3824
 6904SOL    HW132171   3.344   3.710   7.039  0.0059 -1.5427 -1.0764
 6904SOL    HW232172   3.322   3.624   7.158 -0.5579  1.4850  0.2896
 6905SOL     OW32173   1.084   4.669   5.080 -0.2709  0.1962  0.0503
 6905SOL    HW132174   1.174   4.636   5.072 -0.0066  1.0003 -0.2470
 6905SOL    HW232175   1.097   0.009   5.152 -1.6043 -0.2859  0.7097
 6906SOL     OW32176   4.286   1.372   3.078  0.2658 -0.9380 -0.3646
 6906SOL    HW132177   4.214   1.368   3.014 -0.7370 -0.9922  0.7684
 6906SOL    HW232178   4.350   1.326   3.024  1.5667  0.8777 -0.3784
 6907SOL     OW32179   2.618   2.440  13.008  0.3426 -0.1761 -0.2384
 6907SOL    HW132180   2.677   2.482  12.945  1.3887 -0.4900  0.5259
 6907SOL    HW232181   2.600   2.517  13.063 -0.0944 -1.3092  1.1953
 6908SOL     OW32182   0.753   3.002   8.583  0.1486  0.1499 -0.4527
 6908SOL    HW132183   0.781   2.911   8.580 -0.4712 -0.0554 -0.0201
 6908SOL    HW232184   0.831   3.047   8.614 -0.8621  1.3739  0.3595
 6909SOL     OW32185   3.330   2.751  12.782 -0.3728  1.0115 -0.0459
 6909SOL    HW132186   3.258   2.782  12.837  0.6596 -0.2492  2.0314
 6909SOL    HW232187   3.302   2.804  12.707  1.3704  0.6068 -0.9844
 6910SOL     OW32188   3.917   4.506  17.115  0.5628 -0.3002 -0.0879
 6910SOL    HW132189   3.998   4.460  17.139 -0.4667 -1.8760  0.3084
 6910SOL    HW232190   3.853   4.436  17.109 -1.0916  1.0830  1.4079
 6911SOL     OW32191   1.129   0.379   4.303 -1.1399  0.3513 -0.1730
 6911SOL    HW132192   1.212   0.381   4.256 -0.7054  0.5243  0.6050
 6911SOL    HW232193   1.095   0.467   4.287  0.0249  0.4499 -2.1435
 6912SOL     OW32194   3.150   2.997   5.758 -0.0886  0.0983  0.2451
 6912SOL    HW132195   3.220   3.025   5.817  0.9544  1.5708 -1.7018
 6912SOL    HW232196   3.208   2.952   5.697  0.6087  2.2434 -0.6863
 6913SOL     OW32197   1.912   1.127   5.203  1.1961  0.3915  0.1943
 6913SOL    HW132198   1.993   1.160   5.164  0.8640 -0.7016 -1.4467
 6913SOL    HW232199   1.949   1.042   5.229 -2.4254 -1.2097  0.0908
 6914SOL     OW32200   1.273   3.982  12.150  0.1127  0.2412  0.4112
 6914SOL    HW132201   1.287   3.934  12.231 -0.5910  0.9746  0.9717
 6914SOL    HW232202   1.248   3.911  12.090  1.6293 -0.6770  0.8734
 6915SOL     OW32203   1.195   1.246   5.019 -0.7029  0.6948  0.3581
 6915SOL    HW132204   1.276   1.215   5.060 -0.1365 -0.0244 -1.3001
 6915SOL    HW232205   1.215   1.222   4.928  2.3731  1.6634  0.7755
 6916SOL     OW32206   2.815   0.413   7.168 -0.0350 -0.1113  0.5782
 6916SOL    HW132207   2.827   0.332   7.217 -1.6189  0.0584  1.2269
 6916SOL    HW232208   2.793   0.374   7.084 -1.2383 -0.2800  0.9693
 6917SOL     OW32209   1.481   4.005   5.092 -0.1276 -0.9301  0.8664
 6917SOL    HW132210   1.402   3.952   5.102 -1.7574  1.0392 -1.6056
 6917SOL    HW232211   1.461   4.079   5.149  0.2003  1.2867 -1.8658
 6918SOL     OW32212   4.516   0.893   1.449 -0.0699 -0.3236 -0.4635
 6918SOL    HW132213   4.554   0.834   1.383  0.0716 -0.5843 -0.1488
 6918SOL    HW232214   4.462   0.836   1.504 -0.4540 -1.4006 -1.9523
 6919SOL     OW32215   3.475   2.533   5.875  0.2336  0.4968 -0.7962
 6919SOL    HW132216   3.444   2.449   5.907 -1.3832  0.9934 -1.0695
 6919SOL    HW232217   3.560   2.509   5.837  0.4585 -1.3261  0.8608
 6920SOL     OW32218   3.426   3.238   2.212  0.3235  0.0965 -0.3496
 6920SOL    HW132219   3.465   3.151   2.223  0.1007  0.1368  0.7332
 6920SOL    HW232220   3.396   3.245   2.303 -0.8388  0.3240 -0.7415
 6921SOL     OW32221   0.826   3.071   9.429  1.0058 -0.3626 -0.6193
 6921SOL    HW132222   0.887   3.112   9.489 -0.0207  0.5942 -0.2447
 6921SOL    HW232223   0.852   3.116   9.349  0.5184 -0.4020 -0.8021
 6922SOL     OW32224   4.156   3.906   6.788  0.2643 -0.1343  0.0630
 6922SOL    HW132225   4.078   3.962   6.786  0.9025  0.7396 -0.2178
 6922SOL    HW232226   4.121   3.824   6.755  1.0913 -0.3332 -0.3193
 6923SOL     OW32227   1.769   0.545   6.835 -0.3661 -0.1912 -0.0222
 6923SOL    HW132228   1.845   0.517   6.886 -2.1293  0.6785  3.1129
 6923SOL    HW232229   1.813   0.593   6.765 -0.0931 -2.7688 -1.6337
 6924SOL     OW32230   2.636   0.085   3.522  0.2888  0.4079  0.1143
 6924SOL    HW132231   2.702   0.104   3.455  1.5340  1.3862  1.6423
 6924SOL    HW232232   2.658   4.721   3.558  1.0583 -0.1161 -1.6067
 6925SOL     OW32233   3.119   2.548   8.822 -0.4757 -0.0957  0.4942
 6925SOL    HW132234   3.132   2.629   8.871 -1.4364 -0.6688  1.7101
 6925SOL    HW232235   3.070   2.487   8.878  0.6368 -0.0245  1.5452
 6926SOL     OW32236   4.452   1.400   6.725  0.5789  0.1992 -0.6642
 6926SOL    HW132237   4.379   1.392   6.786  0.5798 -2.0406 -0.9554
 6926SOL    HW232238   4.411   1.461   6.663 -0.0501  1.8666  1.4099
 6927SOL     OW32239   2.437   0.574   0.856  0.5593  0.3033  0.6543
 6927SOL    HW132240   2.490   0.498   0.835 -1.0707 -0.7641  0.4562
 6927SOL    HW232241   2.354   0.532   0.879  1.0225 -0.5414  0.7766
 6928SOL     OW32242   4.363   1.218   5.365 -0.0607  0.0431  0.1557
 6928SOL    HW132243   4.300   1.164   5.319 -0.6321 -0.0556  1.0522
 6928SOL    HW232244   4.408   1.256   5.290 -0.1563 -0.7764 -0.3195
 6929SOL     OW32245   2.711   3.223   5.116  0.1340 -0.5244 -0.6362
 6929SOL    HW132246   2.754   3.149   5.158  1.0351  0.1695 -0.3331
 6929SOL    HW232247   2.646   3.176   5.064 -1.4329 -0.6515  1.4322
 6930SOL     OW32248   1.030   0.644  12.638  0.2390  0.1299 -0.0250
 6930SOL    HW132249   1.076   0.564  12.665 -1.3532 -0.5354  0.7229
 6930SOL    HW232250   0.979   0.620  12.561  1.4931  0.4292 -0.9584
 6931SOL     OW32251   3.646   1.279   6.506 -0.0883  0.1883 -0.2209
 6931SOL    HW132252   3.649   1.256   6.599 -0.2038  2.1134  0.2636
 6931SOL    HW232253   3.590   1.206   6.481  0.5925 -0.4305  0.0498
 6932SOL     OW32254   2.100   2.853   5.573  0.3340  0.1977 -0.1250
 6932SOL    HW132255   2.006   2.865   5.559  0.4196 -0.0762 -0.8858
 6932SOL    HW232256   2.092   2.806   5.657 -2.3588  0.6184 -0.1362
 6933SOL     OW32257   1.273   2.374   3.672 -0.6383  0.2194  0.2517
 6933SOL    HW132258   1.215   2.300   3.688 -0.0647  0.3778  3.1819
 6933SOL    HW232259   1.226   2.447   3.714 -1.4372  0.7490 -1.5763
 6934SOL     OW32260   4.614   2.605   6.133  0.4331  0.4730  0.2328
 6934SOL    HW132261   4.584   2.521   6.100 -2.6781  1.7870 -0.2420
 6934SOL    HW232262   4.677   2.586   6.203  0.9493 -0.7743 -0.5795
 6935SOL     OW32263   0.331   1.091   3.492 -0.1134  0.4560  0.0801
 6935SOL    HW132264   0.340   1.142   3.412 -1.1393 -1.4204 -1.2178
 6935SOL    HW232265   0.273   1.024   3.457 -2.2492  1.0271  2.4933
 6936SOL     OW32266   3.600   0.107   8.778 -0.0019  0.0120  0.6210
 6936SOL    HW132267   3.550   0.139   8.704 -1.8088 -1.2970  1.2828
 6936SOL    HW232268   3.675   0.166   8.773  0.5294 -0.5202  2.1669
 6937SOL     OW32269   3.709   3.248  13.840 -0.4138 -0.6375  0.2996
 6937SOL    HW132270   3.757   3.270  13.920 -0.3695  0.4586 -0.0285
 6937SOL    HW232271   3.780   3.228  13.779 -0.2411  0.1936  0.2188
 6938SOL     OW32272   1.553   4.019   0.247  0.3184  0.5666 -0.0239
 6938SOL    HW132273   1.516   4.021   0.158 -0.2585 -0.8756  0.1841
 6938SOL    HW232274   1.489   3.974   0.302  2.6783 -1.1077  1.3591
 6939SOL     OW32275   1.875   1.998   3.792 -0.5033  0.1832 -0.2262
 6939SOL    HW132276   1.850   2.025   3.704  0.1915  0.5369 -0.3151
 6939SOL    HW232277   1.794   2.007   3.842 -0.4378 -0.7544  0.0532
 6940SOL     OW32278   1.175   3.930  15.229 -0.1921 -0.0205  0.4361
 6940SOL    HW132279   1.155   3.841  15.202 -1.8514  0.1329  1.2057
 6940SOL    HW232280   1.214   3.957  15.145  1.0128 -0.0405  0.9951
 6941SOL     OW32281   4.631   2.096   7.252  0.7916 -0.3848 -0.3257
 6941SOL    HW132282   4.675   2.178   7.273 -1.6444  0.2147  2.3948
 6941SOL    HW232283   4.543   2.107   7.289  0.5100 -0.7516 -0.8902
 6942SOL     OW32284   1.135   2.087   6.307 -0.5325  0.2142  0.1571
 6942SOL    HW132285   1.049   2.056   6.338 -0.1713 -0.6694  0.2939
 6942SOL    HW232286   1.173   2.017   6.255 -0.1481  0.4325  0.1510
 6943SOL     OW32287   0.582   3.304   3.196  0.0863  0.1393 -0.4027
 6943SOL    HW132288   0.644   3.255   3.250  0.4687  0.3952 -0.6060
 6943SOL    HW232289   0.526   3.347   3.261  1.1681 -2.6151  2.3252
 6944SOL     OW32290   4.684   3.118   6.419  0.0004  0.1841  0.5245
 6944SOL    HW132291   4.688   3.142   6.327  1.4613  0.5982  0.6931
 6944SOL    HW232292   0.056   3.129   6.438 -0.2678 -0.7581  2.3681
 6945SOL     OW32293   4.150   3.325   8.568 -0.3713  0.1760 -0.5647
 6945SOL    HW132294   4.122   3.384   8.638 -0.7087 -0.8374  0.1558
 6945SOL    HW232295   4.243   3.324   8.590 -0.1537 -0.1428 -1.5160
 6946SOL     OW32296   0.673   1.644   8.746  0.5286 -0.2604 -0.1561
 6946SOL    HW132297   0.587   1.610   8.721 -0.3558 -0.7377  3.5582
 6946SOL    HW232298   0.712   1.647   8.658  0.8221  0.7264  0.0079
 6947SOL     OW32299   1.493   1.771  12.336 -0.3132  0.0710  0.0127
 6947SOL    HW132300   1.488   1.842  12.399  0.9716 -0.4947  0.7543
 6947SOL    HW232301   1.402   1.744  12.326  0.3629 -2.1383 -0.1998
 6948SOL     OW32302   0.324   1.446   4.800  0.0416 -0.3621  0.0289
 6948SOL    HW132303   0.295   1.530   4.765  0.9743  0.7952  2.0756
 6948SOL    HW232304   0.279   1.391   4.736  4.2756 -3.7846 -0.0409
 6949SOL     OW32305   1.266   4.607   6.516  0.2035 -0.6147  0.1334
 6949SOL    HW132306   1.199   4.544   6.544  0.4274 -0.9671 -0.1179
 6949SOL    HW232307   1.255   4.675   6.582 -2.5919 -0.2662 -0.7045
 6950SOL     OW32308   3.825   2.683  14.860  0.3706  0.1357  0.3079
 6950SOL    HW132309   3.919   2.667  14.849 -0.0372 -0.3356 -2.3604
 6950SOL    HW232310   3.798   2.661  14.771 -0.2038  4.0933 -0.5129
 6951SOL     OW32311   0.432   0.394   8.926 -0.1237 -0.3534 -0.4481
 6951SOL    HW132312   0.511   0.372   8.976 -0.1340 -0.2144 -0.3704
 6951SOL    HW232313   0.419   0.314   8.877  1.7682  0.1175 -1.6994
 6952SOL     OW32314   2.581   4.145   7.019  0.0294  0.0426 -0.7103
 6952SOL    HW132315   2.513   4.088   7.055  0.3484 -0.6134 -1.1527
 6952SOL    HW232316   2.533   4.228   7.023 -0.6677 -0.4897  2.0189
 6953SOL     OW32317   4.054   0.384   9.554  0.1385 -0.8095  0.4390
 6953SOL    HW132318   4.110   0.395   9.477 -1.0577  1.6478 -0.0961
 6953SOL    HW232319   4.023   0.295   9.538 -2.2768  0.1670 -0.3237
 6954SOL     OW32320   4.518   1.122   7.956 -0.0857  0.3009 -0.5612
 6954SOL    HW132321   4.595   1.069   7.938  0.6711  1.0631  0.4512
 6954SOL    HW232322   4.529   1.116   8.051  1.1140  0.9628 -0.6636
 6955SOL     OW32323   1.076   1.448   8.163  0.3876  0.1936  0.3371
 6955SOL    HW132324   0.994   1.490   8.136 -0.1591 -0.4344  1.0137
 6955SOL    HW232325   1.137   1.521   8.152 -0.8439  1.0694 -0.5916
 6956SOL     OW32326   1.949   3.768   1.276  0.2424 -0.5034 -0.0689
 6956SOL    HW132327   1.968   3.727   1.192  0.5251  2.8311 -1.6468
 6956SOL    HW232328   1.922   3.855   1.244 -1.6623 -1.6782 -1.6357
 6957SOL     OW32329   2.851   0.431  17.597 -0.1741 -1.2757 -0.3525
 6957SOL    HW132330   2.867   0.496  17.529  4.4142 -1.3076  0.7015
 6957SOL    HW232331   2.838   0.352  17.544  1.1699 -1.6965 -0.0582
 6958SOL     OW32332   1.007   1.180   3.523 -0.3035 -0.2364 -0.1006
 6958SOL    HW132333   0.971   1.185   3.435 -0.9401  2.1800  0.3009
 6958SOL    HW232334   1.078   1.116   3.513  1.0421  1.2576 -0.0108
 6959SOL     OW32335   3.419   3.834   5.970  0.3533  0.1008 -0.4678
 6959SOL    HW132336   3.462   3.877   6.044  0.9389  1.3609 -1.5329
 6959SOL    HW232337   3.379   3.763   6.020 -0.2056 -0.2556 -1.4139
 6960SOL     OW32338   0.970   2.887   4.946  0.2922 -0.0196  0.6463
 6960SOL    HW132339   0.877   2.910   4.945  0.7590  1.9034  0.9935
 6960SOL    HW232340   0.972   2.882   5.042 -1.7614 -1.7209  0.5849
 6961SOL     OW32341   0.492   1.561  15.107  0.1801  0.0627  0.1707
 6961SOL    HW132342   0.446   1.639  15.076  1.1447  1.9548  3.4934
 6961SOL    HW232343   0.549   1.545  15.032  0.1851 -1.1746  0.4380
 6962SOL     OW32344   1.467   0.618   4.765 -0.1804  0.1882 -0.1651
 6962SOL    HW132345   1.397   0.555   4.750 -0.3903 -0.1540  2.3087
 6962SOL    HW232346   1.433   0.679   4.830  2.3042  0.2357  1.1115
 6963SOL     OW32347   1.636   0.990   3.988 -0.3863 -0.1147 -0.1015
 6963SOL    HW132348   1.541   1.000   3.995 -0.5623 -2.2831  0.6682
 6963SOL    HW232349   1.638   0.906   3.943 -0.6085 -0.9143  1.3515
 6964SOL     OW32350   3.128   3.840  17.571 -0.4073  0.9914  0.1686
 6964SOL    HW132351   3.048   3.871  17.529 -1.4672 -1.1741  0.6065
 6964SOL    HW232352   3.087   3.761  17.606  0.2184  0.0771 -1.1798
 6965SOL     OW32353   0.990   3.275   2.391 -0.4247 -0.6105  0.2194
 6965SOL    HW132354   1.029   3.348   2.343  2.0043 -2.1082 -0.0722
 6965SOL    HW232355   0.936   3.321   2.456  1.0530 -2.2186  2.5874
 6966SOL     OW32356   3.210   2.641   2.370  0.1308 -0.5737  0.6684
 6966SOL    HW132357   3.149   2.590   2.425 -1.6665  0.8506  0.0014
 6966SOL    HW232358   3.247   2.692   2.442 -1.3314  3.0682 -1.1740
 6967SOL     OW32359   4.479   0.567   2.152  0.4789  0.1589  0.2042
 6967SOL    HW132360   4.439   0.585   2.067 -0.6030 -2.0386  0.2392
 6967SOL    HW232361   4.403   0.584   2.208  0.9175 -0.3282  0.9472
 6968SOL     OW32362   2.064   2.916   7.818 -0.4576  0.7806 -0.3094
 6968SOL    HW132363   2.112   2.953   7.745 -0.5759 -1.5602 -1.5750
 6968SOL    HW232364   2.033   2.992   7.867  0.8673  1.1362 -0.0195
 6969SOL     OW32365   0.399   3.217   1.203  0.3286  0.1611 -0.1865
 6969SOL    HW132366   0.358   3.131   1.212 -0.9428  0.8607  0.6203
 6969SOL    HW232367   0.330   3.275   1.172 -1.4219 -0.7853  1.9012
 6970SOL     OW32368   0.450   3.904   0.344 -0.4804  0.0942  0.1735
 6970SOL    HW132369   0.499   3.865   0.272  0.0470 -1.9870  1.6554
 6970SOL    HW232370   0.476   3.853   0.421  0.0649  2.4358  1.5530
 6971SOL     OW32371   4.021   1.551  12.871  0.3309 -0.1959 -0.2099
 6971SOL    HW132372   4.003   1.458  12.890 -0.9206  0.3337  1.1841
 6971SOL    HW232373   4.006   1.595  12.954  2.5663  1.2744 -0.5970
 6972SOL     OW32374   1.859   0.412   8.107 -0.3148 -0.5166  0.4263
 6972SOL    HW132375   1.848   0.499   8.068 -1.0572 -0.2724  1.1708
 6972SOL    HW232376   1.892   0.428   8.195  0.4180  2.7316 -0.4443
 6973SOL     OW32377   4.520   3.070   2.484  0.2383  0.1338  0.1329
 6973SOL    HW132378   4.554   3.041   2.399  0.5899 -2.2854  1.1049
 6973SOL    HW232379   4.516   3.165   2.470  0.9019  0.3994  1.7830
 6974SOL     OW32380   0.466   0.449  14.433 -0.1793 -0.3606  0.0044
 6974SOL    HW132381   0.557   0.438  14.459  0.6305  3.3928 -1.2010
 6974SOL    HW232382   0.459   0.442  14.338 -0.4554 -2.3139  0.1753
 6975SOL     OW32383   0.261   4.665   7.208 -0.1001 -0.1395  0.3695
 6975SOL    HW132384   0.260   0.037   7.231  1.3072 -0.0100 -0.1416
 6975SOL    HW232385   0.330   4.669   7.142 -0.8796 -1.4666 -0.5267
 6976SOL     OW32386   3.486   4.365  16.884 -0.3405  0.1429 -0.4778
 6976SOL    HW132387   3.456   4.346  16.973 -2.1506  2.3496 -0.6249
 6976SOL    HW232388   3.569   4.318  16.891  0.6563  1.9883  0.1269
 6977SOL     OW32389   0.891   3.941   3.061 -0.0348 -0.2824  0.2101
 6977SOL    HW132390   0.970   3.917   3.013 -0.6419 -0.6290 -0.6149
 6977SOL    HW232391   0.915   4.029   3.089  2.4322 -0.5029 -1.2068
 6978SOL     OW32392   3.078   2.824   4.030 -0.0673  0.5866  0.0359
 6978SOL    HW132393   3.109   2.751   3.977 -2.2510 -1.2537  1.2634
 6978SOL    HW232394   3.001   2.846   3.978 -0.3277  0.9714  0.5851
 6979SOL     OW32395   3.554   4.217  14.786  0.4167 -0.4893 -0.1686
 6979SOL    HW132396   3.579   4.193  14.697  1.2755  0.8419 -0.2894
 6979SOL    HW232397   3.618   4.166  14.835 -0.9116 -2.3276 -0.3329
 6980SOL     OW32398   2.470   3.129   5.000 -0.9553  0.3449  0.1914
 6980SOL    HW132399   2.412   3.085   4.938 -1.0369 -0.8684  1.1156
 6980SOL    HW232400   2.448   3.080   5.079  1.0044  1.9036  1.7046
 6981SOL     OW32401   3.980   4.396   0.966 -0.6615 -0.3647  0.1952
 6981SOL    HW132402   3.903   4.367   1.014 -1.9128  0.1265 -1.5334
 6981SOL    HW232403   3.938   4.386   0.881 -0.1746 -0.0746 -0.0788
 6982SOL     OW32404   3.518   0.130   3.307  0.6171 -0.0679 -0.0166
 6982SOL    HW132405   3.534   0.041   3.277 -2.2067 -0.0375 -1.5872
 6982SOL    HW232406   3.544   0.118   3.398 -0.7927 -0.4133  0.3347
 6983SOL     OW32407   1.139   1.546   9.274  0.2661  0.0567 -0.7178
 6983SOL    HW132408   1.147   1.571   9.182 -1.0381  1.2474 -0.5023
 6983SOL    HW232409   1.192   1.467   9.275  2.2053  1.3796 -0.0225
 6984SOL     OW32410   2.897   3.026   6.470 -0.7343 -0.1674  0.2248
 6984SOL    HW132411   2.846   3.106   6.483  1.6140  1.2634  0.4579
 6984SOL    HW232412   2.914   3.026   6.376 -2.0915 -0.9699 -0.0298
 6985SOL     OW32413   2.688   2.804  10.592 -0.1867 -0.0431 -0.0407
 6985SOL    HW132414   2.768   2.757  10.567 -1.3432 -1.0503 -1.8874
 6985SOL    HW232415   2.629   2.774  10.522  1.1659 -0.4787 -1.0034
 6986SOL     OW32416   1.160   2.864   5.483 -0.2610  0.2685 -0.2424
 6986SOL    HW132417   1.103   2.811   5.428 -0.6696  1.6364 -1.1474
 6986SOL    HW232418   1.144   2.952   5.448  1.9076  1.3976  1.6131
 6987SOL     OW32419   2.047   1.846  10.254 -0.3641 -0.6469 -0.0727
 6987SOL    HW132420   2.003   1.833  10.170 -3.2872  0.6101  1.2690
 6987SOL    HW232421   2.049   1.758  10.292  2.7285 -0.8063 -0.6472
 6988SOL     OW32422   1.826   1.886   5.583 -0.0758  0.1776 -0.1693
 6988SOL    HW132423   1.847   1.955   5.520 -0.8057  1.9092  1.4689
 6988SOL    HW232424   1.902   1.829   5.585 -2.0002 -2.3390  0.8957
 6989SOL     OW32425   3.505   1.197  17.618  0.3686 -0.3736  0.3555
 6989SOL    HW132426   3.522   1.222   0.021 -3.3649  2.3784  0.3035
 6989SOL    HW232427   3.583   1.143  17.606 -0.3788 -1.6057  1.0838
 6990SOL     OW32428   0.866   1.401   3.992 -0.0218  0.9098 -0.2688
 6990SOL    HW132429   0.852   1.496   3.989 -2.8117  0.4634 -1.2268
 6990SOL    HW232430   0.949   1.402   3.943 -0.1850 -1.2664 -0.5562
 6991SOL     OW32431   1.222   1.940  14.139  0.1093 -0.0389 -0.0188
 6991SOL    HW132432   1.178   1.855  14.134 -0.7747  0.3613  0.9883
 6991SOL    HW232433   1.288   1.922  14.206 -1.9703 -0.5593  1.8678
 6992SOL     OW32434   1.796   2.166  11.275 -0.0607 -1.1254 -0.0106
 6992SOL    HW132435   1.768   2.086  11.230 -1.0623 -0.1189 -1.1660
 6992SOL    HW232436   1.757   2.243  11.234 -0.6731 -0.2130  2.3278
 6993SOL     OW32437   1.294   3.442  16.846 -0.7537  0.4145 -0.1084
 6993SOL    HW132438   1.386   3.450  16.869 -0.9119  0.6033  0.4581
 6993SOL    HW232439   1.296   3.405  16.757  2.0644 -0.2625  0.2524
 6994SOL     OW32440   1.358   4.123   5.607 -0.2430  0.0210 -0.7562
 6994SOL    HW132441   1.358   4.217   5.624 -1.7861  0.0894 -1.1432
 6994SOL    HW232442   1.425   4.101   5.671  0.6686 -0.2809 -1.8260
 6995SOL     OW32443   1.551   2.713   3.087 -0.6562  0.6680 -0.0375
 6995SOL    HW132444   1.481   2.668   3.135 -0.2563 -0.0537 -0.1420
 6995SOL    HW232445   1.511   2.739   3.004 -3.0392 -0.5158  0.7169
 6996SOL     OW32446   3.638   4.476   7.373 -0.1311 -0.2657  0.1334
 6996SOL    HW132447   3.721   4.438   7.346 -1.1893 -1.8793 -0.8204
 6996SOL    HW232448   3.672   4.521   7.451  0.9769 -0.2303 -0.3663
 6997SOL     OW32449   3.414   3.886   3.781  0.0862 -0.2669  0.0096
 6997SOL    HW132450   3.505   3.865   3.804  0.7466  3.3497  0.7320
 6997SOL    HW232451   3.401   3.966   3.832  1.1676 -2.1357  3.1685
 6998SOL     OW32452   0.832   3.551   4.288  0.3339 -0.4518  0.3710
 6998SOL    HW132453   0.892   3.549   4.213  1.1569  1.5359  0.9711
 6998SOL    HW232454   0.875   3.612   4.348 -1.7979  0.5289  0.8718
 6999SOL     OW32455   0.093   3.598   2.383 -0.1981  0.2382 -0.6786
 6999SOL    HW132456   0.153   3.657   2.429 -0.8779  1.3841 -1.2672
 6999SOL    HW232457   0.056   3.666   2.326  0.0776  0.8620 -0.1111
 7000SOL     OW32458   3.699   3.856   0.128  0.2338  0.3659  0.0430
 7000SOL    HW132459   3.683   3.950   0.141 -1.1262  0.2122 -0.5444
 7000SOL    HW232460   3.780   3.839   0.177 -0.7867  1.6865  2.2124
 7001SOL     OW32461   4.123   0.112   8.317  0.3033  0.1308  0.0437
 7001SOL    HW132462   4.034   0.108   8.283  0.9114 -2.4562 -1.2164
 7001SOL    HW232463   4.174   0.083   8.242  0.2036  0.7157 -0.2513
 7002SOL     OW32464   1.544   3.468   6.564  0.6016  0.1314  0.5661
 7002SOL    HW132465   1.548   3.538   6.629 -0.9454 -1.0933  1.9791
 7002SOL    HW232466   1.502   3.401   6.617 -1.4085  1.2880  0.4091
 7003SOL     OW32467   3.561   1.921   3.249 -0.0940 -0.4698 -0.4233
 7003SOL    HW132468   3.503   1.862   3.201 -1.3739 -0.0456  0.6194
 7003SOL    HW232469   3.577   1.992   3.188 -0.6523 -1.3740 -1.6119
 7004SOL     OW32470   3.477   0.592   2.928 -0.1380  0.4728  0.1048
 7004SOL    HW132471   3.411   0.635   2.874 -0.2958 -0.0840 -0.1541
 7004SOL    HW232472   3.492   0.653   3.000  0.8837 -0.6271  0.8498
 7005SOL     OW32473   4.263   0.000   9.321  0.6738 -0.2899  0.1962
 7005SOL    HW132474   4.231   0.078   9.275  3.0342  0.5404 -0.0299
 7005SOL    HW232475   4.196   4.719   9.389  0.8197 -2.1877  0.2717
 7006SOL     OW32476   3.481   0.357   9.582 -0.1059 -0.1584 -0.3469
 7006SOL    HW132477   3.435   0.290   9.531  0.5556 -0.1679 -0.9268
 7006SOL    HW232478   3.461   0.329   9.671 -4.3025  0.7575 -0.9905
 7007SOL     OW32479   0.034   4.499   3.341  0.0847 -0.0522 -0.3040
 7007SOL    HW132480   0.124   4.506   3.371  0.0300 -2.2377  0.3768
 7007SOL    HW232481   0.038   4.422   3.284 -1.5459 -0.9572  0.7932
 7008SOL     OW32482   3.290   1.330   8.460  0.0542 -0.1424  0.4866
 7008SOL    HW132483   3.258   1.409   8.417 -1.3083 -0.7339  0.3905
 7008SOL    HW232484   3.212   1.278   8.481  0.0727 -0.3207  0.1140
 7009SOL     OW32485   1.158   0.031   5.671  0.0872  0.6902 -0.4548
 7009SOL    HW132486   1.213   0.109   5.659 -0.7581  0.9879 -2.3441
 7009SOL    HW232487   1.193   4.715   5.752  1.4141  1.1804 -0.7984
 7010SOL     OW32488   1.805   1.982  17.463 -0.5342 -0.2418 -0.1009
 7010SOL    HW132489   1.769   2.071  17.457 -2.2383 -0.8225  1.6267
 7010SOL    HW232490   1.860   1.981  17.384 -0.8011 -1.1552 -0.2643
 7011SOL     OW32491   2.620   2.967   6.511  0.1691 -0.1151 -0.5488
 7011SOL    HW132492   2.673   2.912   6.453  0.4631 -0.2547 -0.1414
 7011SOL    HW232493   2.574   3.032   6.457 -0.8983 -0.7317 -0.3811
 7012SOL     OW32494   2.824   2.288   7.040  0.0280  0.0340  0.0993
 7012SOL    HW132495   2.818   2.258   7.131  1.9594 -0.0894  0.1996
 7012SOL    HW232496   2.734   2.285   7.009  0.7574 -2.9599 -1.7848
 7013SOL     OW32497   4.136   1.419   6.196  0.0526  0.2418 -0.4680
 7013SOL    HW132498   4.173   1.498   6.234 -0.6275  0.6514 -0.6554
 7013SOL    HW232499   4.051   1.421   6.240  0.6275  1.5044  0.5987
 7014SOL     OW32500   1.062   0.009   0.327  0.4527 -0.6829 -0.4708
 7014SOL    HW132501   1.084   0.092   0.286  0.7343 -1.1864 -1.3429
 7014SOL    HW232502   1.120   0.019   0.402  1.0318  0.1748 -1.0382
 7015SOL     OW32503   1.897   4.507  17.051  0.0341 -0.6169 -0.5411
 7015SOL    HW132504   1.858   4.450  16.985 -0.3065 -0.6896 -0.2757
 7015SOL    HW232505   1.952   4.443  17.097  0.2062  0.2480  0.4702
 7016SOL     OW32506   1.227   2.697   1.217  0.2767  0.1778  0.1772
 7016SOL    HW132507   1.196   2.679   1.306 -0.0112 -0.3561 -0.0302
 7016SOL    HW232508   1.166   2.764   1.187  0.7394  0.4768 -0.0955
 7017SOL     OW32509   2.433   3.596   3.444  0.0102  0.2846 -0.5083
 7017SOL    HW132510   2.374   3.531   3.482 -0.2378  0.6041 -0.3485
 7017SOL    HW232511   2.400   3.675   3.486 -1.4084  0.1837 -1.4522
 7018SOL     OW32512   1.552   0.074  14.214  0.3068 -0.2156  0.0940
 7018SOL    HW132513   1.533   0.009  14.281  1.7321  1.8959  2.5293
 7018SOL    HW232514   1.602   0.006  14.169  0.1682  0.0986 -0.5481
 7019SOL     OW32515   2.865   3.868   9.667 -0.6154  0.1805 -0.0426
 7019SOL    HW132516   2.855   3.933   9.597 -1.2514  1.7972  1.5473
 7019SOL    HW232517   2.847   3.783   9.628  1.5687 -1.1935  1.9889
 7020SOL     OW32518   4.473   2.591  12.826 -0.0933 -0.1345  0.2502
 7020SOL    HW132519   4.544   2.529  12.840 -0.8336 -0.1932  3.7630
 7020SOL    HW232520   4.503   2.672  12.868 -0.5782 -0.3293  0.9853
 7021SOL     OW32521   0.328   0.623   4.327 -0.2660  0.6056 -0.1380
 7021SOL    HW132522   0.350   0.552   4.387  1.3280  0.4666 -0.8912
 7021SOL    HW232523   0.408   0.671   4.304 -0.4497  1.0363  0.1158
 7022SOL     OW32524   2.852   3.018   9.931  0.0728 -0.1947  0.0101
 7022SOL    HW132525   2.942   3.043   9.913 -0.1216  1.2209  0.9887
 7022SOL    HW232526   2.800   3.045   9.856  0.6180  1.3389  0.1950
 7023SOL     OW32527   3.625   0.527   4.922  0.6511  0.5554 -0.4101
 7023SOL    HW132528   3.558   0.586   4.955  1.3207  0.2912  1.4034
 7023SOL    HW232529   3.587   0.500   4.838  0.8816 -0.4569 -0.1912
 7024SOL     OW32530   3.922   4.093  10.521  0.6644 -0.8147  0.0181
 7024SOL    HW132531   3.907   4.181  10.486  0.1024 -0.5716  0.8857
 7024SOL    HW232532   3.948   4.129  10.606  1.4108 -1.2456 -0.0243
 7025SOL     OW32533   1.573   3.304  12.172  0.1960  0.3322 -0.2331
 7025SOL    HW132534   1.498   3.288  12.115  0.7127  2.6315 -1.5438
 7025SOL    HW232535   1.606   3.387  12.137  1.1476  0.5162  1.0891
 7026SOL     OW32536   2.435   3.198   6.925  0.6687  0.3886  0.5429
 7026SOL    HW132537   2.456   3.176   7.015 -2.3233 -1.7523  0.7154
 7026SOL    HW232538   2.517   3.173   6.884  0.4434  0.7324 -0.1244
 7027SOL     OW32539   2.149   1.883   5.279  0.1381 -0.3226  0.3963
 7027SOL    HW132540   2.156   1.822   5.353 -4.5517 -2.3197 -0.8125
 7027SOL    HW232541   2.220   1.943   5.302  1.2214 -1.6094  0.4139
 7028SOL     OW32542   3.831   3.651  15.286 -0.2348  0.7726  0.1264
 7028SOL    HW132543   3.795   3.652  15.198 -0.2711  1.5580  0.1465
 7028SOL    HW232544   3.851   3.745  15.287  1.2753  0.4434 -0.1353
 7029SOL     OW32545   1.846   2.079  16.084  0.1992 -0.2841  0.3526
 7029SOL    HW132546   1.810   2.070  15.996 -0.8348  0.9211  0.6553
 7029SOL    HW232547   1.939   2.074  16.062  0.2990 -0.0742  0.7368
 7030SOL     OW32548   0.130   4.255   6.525  0.0845  0.4754  0.3438
 7030SOL    HW132549   0.224   4.272   6.531  0.2559 -0.0187 -0.9466
 7030SOL    HW232550   0.121   4.161   6.541 -0.5300  1.0534  3.4492
 7031SOL     OW32551   3.641   1.236   4.220 -0.1472  0.2987 -0.4363
 7031SOL    HW132552   3.668   1.206   4.306 -1.8503 -0.4114 -0.1521
 7031SOL    HW232553   3.672   1.326   4.218  0.7771  0.0319  1.6548
 7032SOL     OW32554   3.829   0.235   8.737 -0.2533  0.7165  0.4524
 7032SOL    HW132555   3.854   0.236   8.830  2.0459  0.1923 -0.1764
 7032SOL    HW232556   3.898   0.183   8.697 -2.2593 -0.1844 -1.8136
 7033SOL     OW32557   0.585   1.779   3.644  0.2444 -0.3906  0.1427
 7033SOL    HW132558   0.625   1.834   3.710 -2.2918  0.1750  1.2225
 7033SOL    HW232559   0.554   1.707   3.699  0.3649 -0.0106  0.7002
 7034SOL     OW32560   4.547   4.557  13.443 -0.2568 -0.3320  0.0134
 7034SOL    HW132561   4.641   4.567  13.428 -0.4260  0.0356 -0.8078
 7034SOL    HW232562   4.563   4.511  13.525  2.9212  0.1190 -0.3677
 7035SOL     OW32563   0.889   2.274   6.995 -0.6016  0.1106 -0.8489
 7035SOL    HW132564   0.958   2.280   7.061  0.1862  0.4109 -1.7117
 7035SOL    HW232565   0.919   2.329   6.923  1.4167  0.4671  0.2590
 7036SOL     OW32566   1.897   4.237   8.197 -0.0896 -0.4379  0.2460
 7036SOL    HW132567   1.956   4.252   8.271 -2.1987 -1.2889  2.0967
 7036SOL    HW232568   1.944   4.296   8.139 -0.2586 -0.4750  0.0723
 7037SOL     OW32569   4.556   0.621   0.010 -0.1081 -0.2554 -0.0298
 7037SOL    HW132570   4.614   0.609   0.085 -0.7131 -0.9851  0.3191
 7037SOL    HW232571   4.550   0.528  17.674  1.1070 -0.1669 -0.6983
 7038SOL     OW32572   3.392   1.042  15.758  0.2762 -0.2887 -0.2441
 7038SOL    HW132573   3.423   1.130  15.738 -0.0650 -0.6252 -2.2173
 7038SOL    HW232574   3.477   1.002  15.778  0.3048  0.2038  0.6166
 7039SOL     OW32575   0.488   3.173  12.907 -0.4254  0.1463  0.0632
 7039SOL    HW132576   0.516   3.084  12.884  2.2738  1.2420 -0.9327
 7039SOL    HW232577   0.573   3.216  12.916  0.3304 -1.3084  0.0494
 7040SOL     OW32578   0.634   2.038   7.387  0.5710  0.4152  0.2297
 7040SOL    HW132579   0.693   2.098   7.341  0.5987  0.1571 -0.0746
 7040SOL    HW232580   0.626   1.973   7.317 -0.0196  1.5575 -0.7681
 7041SOL     OW32581   3.661   4.202   9.146 -0.0081 -1.1033  0.0908
 7041SOL    HW132582   3.667   4.113   9.181  0.4388 -1.3623 -0.6526
 7041SOL    HW232583   3.651   4.180   9.053 -0.4723 -1.6654  0.2723
 7042SOL     OW32584   3.678   0.275  11.545 -0.6424  0.6158 -0.3198
 7042SOL    HW132585   3.773   0.279  11.554 -0.4662 -1.5374 -1.1886
 7042SOL    HW232586   3.682   0.184  11.514  0.3335  0.6526 -0.2927
 7043SOL     OW32587   1.318   3.235   3.222 -0.0119 -0.6856 -0.3257
 7043SOL    HW132588   1.349   3.165   3.165  0.5072  0.5318 -1.5425
 7043SOL    HW232589   1.381   3.303   3.200  0.6328 -1.0619  0.3472
 7044SOL     OW32590   1.495   4.132   2.643  0.1905 -0.5035  0.0146
 7044SOL    HW132591   1.568   4.151   2.583 -1.1810 -1.7924 -2.0566
 7044SOL    HW232592   1.415   4.138   2.591 -0.0077  0.1028  0.3880
 7045SOL     OW32593   2.741   1.604   9.541  1.2570 -0.0369 -0.0062
 7045SOL    HW132594   2.670   1.584   9.603  0.3426 -0.2117 -1.1090
 7045SOL    HW232595   2.776   1.682   9.583  0.9176  1.0420 -1.7173
 7046SOL     OW32596   3.307   2.644   6.473 -0.2968  0.2481  0.1145
 7046SOL    HW132597   3.225   2.631   6.424 -0.4423 -0.4278  0.5345
 7046SOL    HW232598   3.290   2.573   6.536 -0.9027  0.5365  0.2735
 7047SOL     OW32599   3.294   3.833   6.647  0.1591  0.7282  0.3875
 7047SOL    HW132600   3.358   3.770   6.617 -1.3017 -1.4590  1.8355
 7047SOL    HW232601   3.307   3.904   6.585  3.2309  0.0753  0.3267
 7048SOL     OW32602   4.713   3.311   0.109 -0.0681 -0.3215 -0.4703
 7048SOL    HW132603   4.711   3.216   0.114 -0.5954 -0.2938 -0.1760
 7048SOL    HW232604   0.055   3.325   0.038  1.4649 -0.7248  0.8112
 7049SOL     OW32605   1.545   4.692   7.208 -0.0509 -0.1673  0.0506
 7049SOL    HW132606   1.620   4.694   7.267  1.2815 -2.3492 -1.5857
 7049SOL    HW232607   1.512   4.608   7.238  1.6077 -0.7956  0.1090
 7050SOL     OW32608   3.174   4.324  11.695 -0.1016 -0.0409  0.3336
 7050SOL    HW132609   3.214   4.299  11.612  1.2140 -0.2008  1.0244
 7050SOL    HW232610   3.140   4.410  11.668  1.0466 -0.3636 -2.1502
 7051SOL     OW32611   3.174   0.798  15.307 -0.6055  0.5313 -0.7285
 7051SOL    HW132612   3.265   0.781  15.282 -0.1278 -1.3189  2.2296
 7051SOL    HW232613   3.193   0.797  15.401 -0.0534 -1.2177 -0.8571
 7052SOL     OW32614   2.712   0.920   7.494  0.3027 -0.9271  0.1701
 7052SOL    HW132615   2.659   0.856   7.446  0.8105  0.4852 -2.2472
 7052SOL    HW232616   2.638   0.952   7.546  1.3263 -1.1808  1.7876
 7053SOL     OW32617   0.461   1.204   8.197  0.3523 -0.6342  0.3045
 7053SOL    HW132618   0.548   1.243   8.205 -0.4979  1.5352 -0.8668
 7053SOL    HW232619   0.412   1.279   8.163  0.6587 -0.6800 -0.2379
 7054SOL     OW32620   0.717   2.901   4.506 -0.1680 -0.5043  0.0137
 7054SOL    HW132621   0.782   2.837   4.534  2.0683  2.6279  2.0610
 7054SOL    HW232622   0.634   2.862   4.532 -0.2957  0.2702  0.7698
 7055SOL     OW32623   1.736   2.607   6.994  0.1406 -0.5370  0.2157
 7055SOL    HW132624   1.745   2.695   7.031  2.7547 -0.9427  0.5341
 7055SOL    HW232625   1.663   2.622   6.933 -0.4595  0.5026  1.1844
 7056SOL     OW32626   3.206   3.021  11.817  0.2658 -0.1285 -0.0902
 7056SOL    HW132627   3.148   3.077  11.766 -0.9040  0.1461  1.5601
 7056SOL    HW232628   3.147   2.993  11.886  0.1694 -0.8078 -0.4481
 7057SOL     OW32629   1.347   3.099   8.042 -0.2716  0.1547  0.2549
 7057SOL    HW132630   1.436   3.102   8.006 -0.4500  2.1835 -0.0275
 7057SOL    HW232631   1.347   3.013   8.083 -0.2832  0.8144  1.6384
 7058SOL     OW32632   2.133   1.871   7.536  0.5338 -0.2004 -0.0053
 7058SOL    HW132633   2.164   1.903   7.451  1.1261  1.0687  0.6863
 7058SOL    HW232634   2.203   1.890   7.599 -0.3867 -1.5292  1.4032
 7059SOL     OW32635   1.313   0.295   4.554  0.0272 -0.2005  0.4252
 7059SOL    HW132636   1.306   0.337   4.640 -2.1648 -0.6969  0.4916
 7059SOL    HW232637   1.312   0.368   4.493  0.5695  0.2162  0.9079
 7060SOL     OW32638   1.152   3.738   7.138  0.2774  0.1241 -0.1722
 7060SOL    HW132639   1.141   3.780   7.052 -2.5608 -0.1388  0.0688
 7060SOL    HW232640   1.116   3.653   7.114 -1.5614  1.0031 -0.4995
 7061SOL     OW32641   1.365   3.365  10.933 -0.2381 -0.3183  0.5040
 7061SOL    HW132642   1.375   3.460  10.935  0.8767 -0.4223 -0.0073
 7061SOL    HW232643   1.273   3.357  10.958 -0.3465 -1.9194 -0.3398
 7062SOL     OW32644   2.162   4.703   4.985  0.2374  0.1048 -0.4488
 7062SOL    HW132645   2.158   0.069   5.023  1.0937 -1.0468  2.3347
 7062SOL    HW232646   2.233   4.675   5.043 -0.6385 -3.5786 -1.0965
 7063SOL     OW32647   0.517   3.675  10.114  0.0798 -0.1200 -0.0135
 7063SOL    HW132648   0.484   3.593  10.077  2.2879 -1.1231  0.1985
 7063SOL    HW232649   0.515   3.731  10.036  0.0777 -1.5169 -1.0038
 7064SOL     OW32650   1.712   3.826   6.772  0.0020 -0.3748  1.0539
 7064SOL    HW132651   1.767   3.903   6.757 -0.2493 -0.3802  0.0783
 7064SOL    HW232652   1.777   3.771   6.815  0.6448 -1.6009 -1.4385
 7065SOL     OW32653   2.616   2.764   9.826  0.4973  0.0466 -0.0783
 7065SOL    HW132654   2.693   2.812   9.797  1.1224 -0.8221  0.1224
 7065SOL    HW232655   2.623   2.749   9.920 -1.2378 -1.6610 -0.2108
 7066SOL     OW32656   2.460   2.229   6.670  0.5282 -0.3016 -0.3466
 7066SOL    HW132657   2.529   2.212   6.606  0.0394 -0.6955 -0.7600
 7066SOL    HW232658   2.470   2.324   6.683  0.5748 -0.3476 -0.0386
 7067SOL     OW32659   2.543   3.145   7.170  0.4532 -0.8895  0.0799
 7067SOL    HW132660   2.608   3.199   7.215 -0.6896  0.6529 -0.1480
 7067SOL    HW232661   2.518   3.089   7.243 -1.2762  0.0555  0.2076
 7068SOL     OW32662   2.680   0.216   1.404  0.3145 -0.6010  0.7343
 7068SOL    HW132663   2.619   0.275   1.448 -1.1772 -1.0722 -0.7396
 7068SOL    HW232664   2.663   0.243   1.314 -0.0240  1.6181  1.4587
 7069SOL     OW32665   4.053   0.140   7.968  0.4566  0.1411  0.1519
 7069SOL    HW132666   4.058   0.177   7.880  1.5446 -0.5042 -0.0550
 7069SOL    HW232667   4.003   0.210   8.009 -0.2771 -0.4803  0.3355
 7070SOL     OW32668   1.200   3.317   8.718  0.3979  0.3689 -0.2262
 7070SOL    HW132669   1.253   3.300   8.641  0.2713 -1.5338  0.1207
 7070SOL    HW232670   1.214   3.247   8.781  2.6672  0.5504 -0.5509
 7071SOL     OW32671   2.178   2.870   3.143  0.1170 -0.0406 -0.0569
 7071SOL    HW132672   2.192   2.861   3.049 -1.4363  1.9702 -0.4730
 7071SOL    HW232673   2.270   2.875   3.171 -0.3763 -0.5172  1.6991
 7072SOL     OW32674   0.709   0.838   1.508  0.3046 -0.3004  0.2470
 7072SOL    HW132675   0.712   0.866   1.599  1.2768  0.8295 -0.1174
 7072SOL    HW232676   0.795   0.798   1.500 -0.5620 -1.8096 -1.5028
 7073SOL     OW32677   0.896   1.902   8.779  0.3700  0.2680 -0.0039
 7073SOL    HW132678   0.824   1.928   8.837  0.8286 -1.4023  1.3045
 7073SOL    HW232679   0.902   1.807   8.783  1.3497  0.3287 -0.0232
 7074SOL     OW32680   3.206   4.225   2.960 -0.5541  0.1783 -0.2854
 7074SOL    HW132681   3.266   4.282   3.008 -0.5866  2.0188 -2.4250
 7074SOL    HW232682   3.123   4.261   2.992 -2.1812 -2.6562 -1.3293
 7075SOL     OW32683   0.407   1.491   8.022  0.1616  0.2037 -0.1188
 7075SOL    HW132684   0.363   1.509   7.940  3.0199 -1.0697 -1.9520
 7075SOL    HW232685   0.341   1.513   8.087 -1.7185 -0.0971 -1.9474
 7076SOL     OW32686   2.230   4.313   3.631 -0.1236 -0.0240  0.1517
 7076SOL    HW132687   2.255   4.269   3.549  0.5379  0.8743 -0.1361
 7076SOL    HW232688   2.207   4.402   3.604  1.1556  0.3041  0.1210
 7077SOL     OW32689   4.492   3.137   5.887  0.1359  0.1773 -0.0145
 7077SOL    HW132690   4.475   3.229   5.904 -1.0959  0.3155 -1.9625
 7077SOL    HW232691   4.473   3.095   5.971  0.4819 -0.4939 -0.2675
 7078SOL     OW32692   1.835   0.120   1.616 -0.1552  0.3028  0.0962
 7078SOL    HW132693   1.805   0.031   1.635  1.1879  0.1683  1.5726
 7078SOL    HW232694   1.852   0.158   1.702 -1.4852 -0.9722  0.9298
 7079SOL     OW32695   0.314   3.610   8.099 -0.0242 -0.5873 -0.5945
 7079SOL    HW132696   0.255   3.618   8.024  0.1775  0.2773 -0.6604
 7079SOL    HW232697   0.318   3.515   8.110 -3.7602 -0.9029 -2.0143
 7080SOL     OW32698   4.644   1.294   3.889 -0.4308 -0.3051  0.8961
 7080SOL    HW132699   4.593   1.213   3.891 -0.6563 -0.1257  2.6269
 7080SOL    HW232700   4.664   1.308   3.981  0.0237  0.7388  0.6362
 7081SOL     OW32701   3.717   0.443   0.237 -0.6521 -0.5884 -0.4731
 7081SOL    HW132702   3.670   0.427   0.319  1.2599  0.4265  0.8102
 7081SOL    HW232703   3.797   0.487   0.264 -0.2071 -2.0521  0.6013
 7082SOL     OW32704   2.684   1.859   8.254  0.2130  0.4727  0.5177
 7082SOL    HW132705   2.611   1.800   8.236  0.6080 -0.0682  0.6672
 7082SOL    HW232706   2.681   1.863   8.350  2.0408  1.4062  0.5310
 7083SOL     OW32707   0.040   3.029   0.044 -0.8158  0.1464 -0.2308
 7083SOL    HW132708   4.713   2.961   0.091  1.8088 -1.8843 -0.5318
 7083SOL    HW232709   0.027   2.999  17.642 -1.8668  1.6733 -0.6028
 7084SOL     OW32710   0.173   4.438   4.023 -0.2573  0.4391  0.1250
 7084SOL    HW132711   0.185   4.444   3.928 -1.6596 -2.7832 -0.2611
 7084SOL    HW232712   0.222   4.517   4.045 -0.5253  0.3510  1.0315
 7085SOL     OW32713   3.329   2.194   3.138 -0.1634  0.3320  0.2167
 7085SOL    HW132714   3.416   2.161   3.117 -0.7035 -0.3408 -0.9880
 7085SOL    HW232715   3.268   2.122   3.123  0.3227  0.1877 -1.1304
 7086SOL     OW32716   2.564   3.069   3.232  0.4444 -0.2917 -0.0046
 7086SOL    HW132717   2.503   3.032   3.296 -0.1598 -3.9461 -2.6546
 7086SOL    HW232718   2.599   2.989   3.192  1.0291 -0.2337  0.3779
 7087SOL     OW32719   3.370   4.546   5.654 -0.2509  0.2053  0.8692
 7087SOL    HW132720   3.395   4.553   5.746  1.1404 -0.7544  0.5645
 7087SOL    HW232721   3.456   4.553   5.612 -1.3707  1.7819 -1.1886
 7088SOL     OW32722   0.797   0.653   8.385  0.1652 -0.3371  0.2522
 7088SOL    HW132723   0.789   0.730   8.441  0.1935  0.4655 -0.8462
 7088SOL    HW232724   0.707   0.638   8.357  0.9153  0.5855 -2.6100
 7089SOL     OW32725   4.504   1.933   4.358  0.3010  0.2070  0.0613
 7089SOL    HW132726   4.530   1.869   4.424 -1.2596 -0.4327  0.0508
 7089SOL    HW232727   4.445   1.878   4.307  2.2179 -0.8211 -1.0337
 7090SOL     OW32728   3.847   4.280  15.718  0.0040 -0.8282 -0.2760
 7090SOL    HW132729   3.902   4.351  15.686 -1.7344  0.5316 -0.2663
 7090SOL    HW232730   3.778   4.281  15.652 -0.3963  2.1432  0.1821
 7091SOL     OW32731   1.840   3.100   8.700 -0.3757  0.5003 -0.2315
 7091SOL    HW132732   1.872   3.165   8.762  1.1028  0.8628 -1.3942
 7091SOL    HW232733   1.780   3.058   8.762  2.5392 -0.9123  1.6261
 7092SOL     OW32734   2.252   2.544   7.661  0.5553 -0.3032  0.0195
 7092SOL    HW132735   2.248   2.622   7.607  0.2662  0.1725  0.7259
 7092SOL    HW232736   2.345   2.535   7.679  0.5935  0.4358  0.1996
 7093SOL     OW32737   0.442   0.042   6.950 -0.2421 -0.1460  0.1062
 7093SOL    HW132738   0.535   0.019   6.953 -0.4316 -0.7921  1.3292
 7093SOL    HW232739   0.441   0.133   6.981  0.9510 -0.2057  0.3192
 7094SOL     OW32740   4.325   0.334  12.999 -0.1615 -0.2621  0.2802
 7094SOL    HW132741   4.358   0.381  12.922 -1.6897  1.8313  0.8977
 7094SOL    HW232742   4.231   0.352  12.995 -0.2909 -0.7968  0.9792
 7095SOL     OW32743   3.847   2.535   6.885 -0.0723  0.0959 -0.1917
 7095SOL    HW132744   3.858   2.440   6.897 -2.5072 -0.1318  0.1327
 7095SOL    HW232745   3.902   2.573   6.954 -0.1285  0.9615 -0.6290
 7096SOL     OW32746   4.127   2.875  15.900  0.2645 -0.2365 -0.0374
 7096SOL    HW132747   4.184   2.837  15.833  2.5337  2.6691  0.2274
 7096SOL    HW232748   4.080   2.937  15.845  1.2132  0.0489 -0.5290
 7097SOL     OW32749   2.985   0.011   1.336  0.3820 -0.1889  0.0112
 7097SOL    HW132750   2.927   0.009   1.412  0.6219  1.3473  0.2364
 7097SOL    HW232751   2.933   0.064   1.275 -1.2203 -0.5554  1.0431
 7098SOL     OW32752   4.442   1.825   7.458  0.1573  0.1284  0.2462
 7098SOL    HW132753   4.364   1.855   7.504 -0.8422 -0.4725 -1.0274
 7098SOL    HW232754   4.512   1.825   7.523  1.5333  2.2172 -1.2668
 7099SOL     OW32755   2.301   1.877   6.600 -0.1777  0.6141 -0.7399
 7099SOL    HW132756   2.232   1.919   6.548 -1.2236 -0.4406 -0.2029
 7099SOL    HW232757   2.347   1.829   6.532  1.2421 -1.2447  1.5292
 7100SOL     OW32758   3.811   3.996   2.125  0.0306  0.5155  0.2918
 7100SOL    HW132759   3.721   3.976   2.148 -0.2904  2.0307  0.3961
 7100SOL    HW232760   3.817   4.090   2.143 -1.2527  0.7560 -0.5424
 7101SOL     OW32761   0.072   0.807   2.659  0.0892 -0.1309 -0.2154
 7101SOL    HW132762   4.714   0.754   2.667 -0.0662  0.4200  1.7573
 7101SOL    HW232763   0.090   0.797   2.565  0.0113  0.9595 -0.3420
 7102SOL     OW32764   0.725   4.689   5.424 -1.0801 -0.1872  0.4308
 7102SOL    HW132765   0.716   4.712   5.332 -1.0220  0.1519  0.5092
 7102SOL    HW232766   0.640   4.716   5.460 -0.6524 -1.4692  2.3956
 7103SOL     OW32767   3.746   3.530   5.772  0.4760 -0.1775 -0.2945
 7103SOL    HW132768   3.695   3.573   5.704  2.2225  1.4240 -0.5763
 7103SOL    HW232769   3.779   3.597   5.832 -1.2792  0.1019  0.3634
 7104SOL     OW32770   2.574   2.496   0.883 -0.3874  0.2001  0.2287
 7104SOL    HW132771   2.557   2.563   0.949  0.7788  0.4323  0.2942
 7104SOL    HW232772   2.662   2.473   0.913 -0.4014  0.4828  0.4921
 7105SOL     OW32773   3.451   0.544   5.503  0.4943 -0.0591  0.1955
 7105SOL    HW132774   3.375   0.533   5.560 -0.5289 -1.2231 -1.3890
 7105SOL    HW232775   3.498   0.572   5.581 -1.2868 -0.4643  1.4119
 7106SOL     OW32776   3.340   0.609   4.398 -0.0935  0.2845 -1.2503
 7106SOL    HW132777   3.296   0.524   4.399  1.3731 -0.4691 -1.1532
 7106SOL    HW232778   3.432   0.585   4.396  0.0779  1.2622 -4.6141
 7107SOL     OW32779   4.628   3.286   2.221  0.0960 -0.0942 -0.2869
 7107SOL    HW132780   4.565   3.217   2.199  0.2521 -0.3147 -0.0364
 7107SOL    HW232781   4.571   3.362   2.232 -1.1692 -1.0481 -0.2366
 7108SOL     OW32782   2.348   4.257   3.153 -0.5307  0.0779  0.0830
 7108SOL    HW132783   2.306   4.202   3.087  0.4114  1.4079 -1.6336
 7108SOL    HW232784   2.438   4.245   3.122 -0.5122 -0.1471  0.2262
 7109SOL     OW32785   2.203   4.470   7.702  0.2959 -0.1699 -0.1369
 7109SOL    HW132786   2.160   4.523   7.635 -0.5069  0.7802  1.1332
 7109SOL    HW232787   2.145   4.485   7.776  0.3753  0.3410 -0.1771
 7110SOL     OW32788   0.198   1.696   4.744  0.2993  0.3311 -0.5258
 7110SOL    HW132789   0.128   1.649   4.698 -0.9742  0.9883  0.7533
 7110SOL    HW232790   0.207   1.775   4.692 -2.8622  1.3136  0.4548
 7111SOL     OW32791   1.514   1.902  14.582 -0.2564  0.3034 -0.5198
 7111SOL    HW132792   1.562   1.985  14.590 -1.9120  1.3694 -1.5858
 7111SOL    HW232793   1.563   1.850  14.646  0.2805  2.1412  0.5846
 7112SOL     OW32794   0.651   4.690   5.131 -0.7323  0.3277 -0.2894
 7112SOL    HW132795   0.561   4.718   5.116 -0.3102  2.4620  1.0439
 7112SOL    HW232796   0.697   0.002   5.053  1.4762 -0.8798  0.4916
 7113SOL     OW32797   1.271   1.866   4.295  0.0102 -0.2631 -0.5153
 7113SOL    HW132798   1.335   1.923   4.339 -0.7106  0.5662 -0.5249
 7113SOL    HW232799   1.273   1.801   4.366  0.6531 -0.3949 -0.6551
 7114SOL     OW32800   2.382   0.301   2.426  0.2191  0.5232 -0.0374
 7114SOL    HW132801   2.373   0.241   2.500 -0.5038 -0.0960 -0.6216
 7114SOL    HW232802   2.388   0.387   2.468 -0.3033  0.8881 -0.6943
 7115SOL     OW32803   0.098   0.670  13.464  0.3478 -0.2160 -0.4164
 7115SOL    HW132804   0.162   0.614  13.508  0.5310  0.7787  0.5860
 7115SOL    HW232805   0.128   0.669  13.373 -0.4550 -0.3320 -0.6793
 7116SOL     OW32806   4.106   3.973   4.498 -0.2240  0.3325  0.2470
 7116SOL    HW132807   4.045   3.974   4.571 -0.2573  1.7605  0.2008
 7116SOL    HW232808   4.109   3.878   4.486 -0.1389  0.5742 -1.7064
 7117SOL     OW32809   4.658   4.613   7.545 -0.5188  0.8997  0.6542
 7117SOL    HW132810   4.698   4.572   7.621 -0.6440  3.1985  1.9406
 7117SOL    HW232811   4.626   4.533   7.503 -0.5880  1.4136 -0.2796
 7118SOL     OW32812   1.021   4.166  16.092  0.5609  0.3101  0.2806
 7118SOL    HW132813   1.059   4.245  16.054  0.1733  0.3476 -0.0240
 7118SOL    HW232814   1.051   4.108  16.022 -0.2693 -1.0191  1.0298
 7119SOL     OW32815   2.912   2.182  10.278 -0.2737 -0.3221 -0.0456
 7119SOL    HW132816   2.939   2.230  10.199  1.3299 -1.2321 -0.0599
 7119SOL    HW232817   2.899   2.253  10.341  2.5754  0.6188 -0.4985
 7120SOL     OW32818   1.751   2.716   7.916 -0.1997  0.7210 -0.1273
 7120SOL    HW132819   1.817   2.683   7.976 -0.7645 -0.4506 -0.1545
 7120SOL    HW232820   1.691   2.767   7.971  0.6444  0.9380  0.5893
 7121SOL     OW32821   1.201   4.305   5.156 -0.3847 -0.1481  0.0353
 7121SOL    HW132822   1.192   4.284   5.249  0.3362  1.8905  0.5873
 7121SOL    HW232823   1.246   4.390   5.157 -0.7651  0.0536  0.2273
 7122SOL     OW32824   3.078   0.782   8.471  0.0139  0.9552  0.3707
 7122SOL    HW132825   3.163   0.738   8.469 -0.1474  0.7087 -1.4154
 7122SOL    HW232826   3.046   0.783   8.381 -0.1408  1.6479  0.4322
 7123SOL     OW32827   4.190   2.830   2.499  0.0219  0.3503  0.2277
 7123SOL    HW132828   4.186   2.749   2.449  0.8439  1.2208 -1.2397
 7123SOL    HW232829   4.107   2.872   2.475  0.2985  1.9371  2.0481
 7124SOL     OW32830   4.365   1.381  11.380 -0.2616 -0.4147  0.1550
 7124SOL    HW132831   4.322   1.297  11.363 -0.5533 -0.2290 -0.0225
 7124SOL    HW232832   4.293   1.428  11.421  0.0172 -0.5002  0.7471
 7125SOL     OW32833   4.224   0.934   2.438 -0.2968 -0.6870 -0.3088
 7125SOL    HW132834   4.163   0.977   2.498  1.7275  1.0260  0.5192
 7125SOL    HW232835   4.187   0.964   2.355  0.5951 -1.4515 -0.9773
 7126SOL     OW32836   1.385   4.301   6.592  0.5003 -0.3355 -0.4212
 7126SOL    HW132837   1.409   4.347   6.673  0.6353  0.1193 -0.7161
 7126SOL    HW232838   1.290   4.311   6.595  0.6685  1.0842  0.6474
 7127SOL     OW32839   2.273   2.405   2.229 -0.0261 -0.4627 -0.0529
 7127SOL    HW132840   2.275   2.481   2.286 -0.2031  0.7435 -1.6392
 7127SOL    HW232841   2.281   2.449   2.144  0.3569  1.2517  0.8844
 7128SOL     OW32842   4.638   0.336   2.459 -1.1725 -0.4965 -0.2794
 7128SOL    HW132843   4.644   0.241   2.449 -0.0641 -0.2777 -1.7087
 7128SOL    HW232844   4.546   0.348   2.482 -1.0820  1.5875 -1.0009
 7129SOL     OW32845   3.627   3.869   6.795 -0.2480 -1.0257 -0.0370
 7129SOL    HW132846   3.559   3.807   6.767  1.7598 -2.1320 -2.4515
 7129SOL    HW232847   3.646   3.822   6.876 -1.1474 -2.7145 -0.8013
 7130SOL     OW32848   4.203   4.258   3.019  0.5368  0.0994  0.2284
 7130SOL    HW132849   4.272   4.195   3.039  1.1493  0.7157  0.0532
 7130SOL    HW232850   4.159   4.206   2.952 -2.2265 -0.3152  2.3813
 7131SOL     OW32851   0.827   0.357   1.285  0.6180 -0.4908  0.5625
 7131SOL    HW132852   0.801   0.445   1.256 -0.3338 -1.0279 -0.2391
 7131SOL    HW232853   0.761   0.296   1.250 -0.0265  0.3375  0.3297
 7132SOL     OW32854   1.263   1.685   5.535  0.5443  0.1858  0.1220
 7132SOL    HW132855   1.216   1.766   5.559  0.4067  0.1928 -0.1735
 7132SOL    HW232856   1.302   1.714   5.453 -1.4888 -1.0679 -1.2788
 7133SOL     OW32857   1.934   2.387   2.014 -0.0934  0.3238 -0.2099
 7133SOL    HW132858   1.967   2.356   2.098 -0.2751  1.1788  0.1805
 7133SOL    HW232859   1.982   2.332   1.953  0.3374 -0.0188  0.4369
 7134SOL     OW32860   1.705   0.882   5.228  0.0334 -0.0244  0.3730
 7134SOL    HW132861   1.703   0.973   5.257  1.4726  0.5599 -1.3794
 7134SOL    HW232862   1.678   0.836   5.307  1.1307  1.7117  1.7371
 7135SOL     OW32863   2.250   3.851  13.069  0.1930  0.6699 -0.4221
 7135SOL    HW132864   2.249   3.777  13.008  1.1364 -0.3523  0.8169
 7135SOL    HW232865   2.168   3.893  13.044 -0.1199 -0.1207 -0.6962
 7136SOL     OW32866   1.526   4.064   5.840  0.8977 -0.4081  0.1536
 7136SOL    HW132867   1.582   3.988   5.856  0.5584 -0.0406  3.0732
 7136SOL    HW232868   1.534   4.114   5.921  1.3434 -1.6255  0.8451
 7137SOL     OW32869   0.632   0.184   4.593  0.1136 -0.6923 -0.2939
 7137SOL    HW132870   0.603   0.264   4.637  0.2544 -1.3389  0.9860
 7137SOL    HW232871   0.659   0.224   4.510  0.9175  1.1183  0.8569
 7138SOL     OW32872   1.139   3.849   8.993 -0.7096 -0.2076  0.2480
 7138SOL    HW132873   1.187   3.892   9.064  0.5829 -1.2411 -0.0007
 7138SOL    HW232874   1.090   3.926   8.962  0.1924  0.6346  0.9342
 7139SOL     OW32875   4.252   4.199   4.143 -0.1909  0.0299 -0.1386
 7139SOL    HW132876   4.304   4.278   4.159 -0.2961 -0.3199  2.0494
 7139SOL    HW232877   4.218   4.187   4.232  0.8720 -1.2102  0.0899
 7140SOL     OW32878   1.256   4.659   4.648 -0.0236 -0.7194  0.1455
 7140SOL    HW132879   1.210   0.020   4.668  1.2258  0.2256 -0.8337
 7140SOL    HW232880   1.214   4.631   4.567 -0.2670 -0.4436  0.1751
 7141SOL     OW32881   2.569   4.188   4.703 -0.2797  0.2576 -0.0746
 7141SOL    HW132882   2.610   4.102   4.712  0.3292  0.3121 -2.4743
 7141SOL    HW232883   2.583   4.204   4.610 -1.3136  0.6904 -0.1477
 7142SOL     OW32884   3.503   1.249  17.027  0.7444  0.9416 -0.3926
 7142SOL    HW132885   3.528   1.244  16.935 -0.2763  0.9122 -0.6754
 7142SOL    HW232886   3.479   1.342  17.026  0.5971  0.8837 -1.4978
 7143SOL     OW32887   3.389   3.765   3.531  0.6227  0.1387  0.7218
 7143SOL    HW132888   3.390   3.783   3.625 -0.7677 -0.7317  0.9033
 7143SOL    HW232889   3.473   3.720   3.528 -0.1080 -1.2351  0.6178
 7144SOL     OW32890   1.743   3.461   4.134 -0.0170  0.2090 -0.6867
 7144SOL    HW132891   1.695   3.525   4.187  0.4855  0.7573 -0.8928
 7144SOL    HW232892   1.720   3.495   4.047  1.4351 -0.4621 -1.3460
 7145SOL     OW32893   4.458   3.710   6.456 -0.0618 -0.3999  0.2256
 7145SOL    HW132894   4.416   3.628   6.481 -0.3635  0.0576  1.2071
 7145SOL    HW232895   4.447   3.749   6.542 -1.4333  0.5011 -0.3671
 7146SOL     OW32896   3.906   3.896  12.648 -0.2376  0.3511 -0.6819
 7146SOL    HW132897   3.951   3.811  12.649  0.7758  0.8926 -0.1084
 7146SOL    HW232898   3.956   3.946  12.713  1.4220 -1.4291 -0.5837
 7147SOL     OW32899   3.383   3.198   3.965  0.7587  0.4378 -0.4850
 7147SOL    HW132900   3.371   3.118   4.016 -1.7562  0.1808 -1.4487
 7147SOL    HW232901   3.467   3.170   3.929  1.8369  1.2120  1.4514
 7148SOL     OW32902   1.151   0.816  10.360 -0.0955  0.2212  0.0570
 7148SOL    HW132903   1.174   0.794  10.450  0.9034  1.5993  0.1431
 7148SOL    HW232904   1.103   0.736  10.337  0.9926 -0.9974  2.0598
 7149SOL     OW32905   0.625   1.472   5.211 -0.4187  0.2435  0.5601
 7149SOL    HW132906   0.711   1.478   5.169 -1.3102  2.7384 -0.9726
 7149SOL    HW232907   0.579   1.534   5.154 -0.4873 -0.0911  0.2503
 7150SOL     OW32908   4.617   3.935   3.008 -0.1808 -0.1877 -0.5674
 7150SOL    HW132909   4.617   3.840   2.998 -2.4947 -0.2557  0.0453
 7150SOL    HW232910   4.674   3.957   2.935  2.4583 -0.7227  1.3274
 7151SOL     OW32911   3.649   1.298   3.510 -0.2671 -0.0229 -0.4512
 7151SOL    HW132912   3.613   1.373   3.557 -1.4113 -1.7355  1.4380
 7151SOL    HW232913   3.666   1.353   3.434 -1.4941 -0.3531 -0.9683
 7152SOL     OW32914   0.532   4.001   4.120 -0.4517  0.4115  0.5778
 7152SOL    HW132915   0.578   4.039   4.045 -2.1772  1.2698 -0.0622
 7152SOL    HW232916   0.607   3.974   4.172 -0.7818  0.3269  1.0065
 7153SOL     OW32917   4.575   3.380  15.617 -0.1829 -0.4079 -0.0665
 7153SOL    HW132918   4.519   3.361  15.692 -1.6425 -0.9366 -1.3035
 7153SOL    HW232919   4.659   3.356  15.657  0.4769  0.8508 -0.7017
 7154SOL     OW32920   2.540   3.517   7.008  0.4721 -0.2320  0.0822
 7154SOL    HW132921   2.540   3.426   6.978 -1.0110 -0.0500 -0.4770
 7154SOL    HW232922   2.581   3.564   6.936  0.2684 -0.4043 -0.1461
 7155SOL     OW32923   3.132   2.354  10.337  0.2133  0.0926 -0.2007
 7155SOL    HW132924   3.157   2.262  10.323 -1.6562 -0.6289  1.2504
 7155SOL    HW232925   3.169   2.389  10.418  1.7762 -1.0752 -0.3949
 7156SOL     OW32926   3.399   3.281   7.975  0.0484 -1.0188 -0.4009
 7156SOL    HW132927   3.391   3.288   8.070 -0.8824 -1.3317 -0.4541
 7156SOL    HW232928   3.455   3.203   7.967  0.7002 -0.3905 -1.9636
 7157SOL     OW32929   3.130   3.346   7.997 -0.0034  0.8305 -0.6786
 7157SOL    HW132930   3.204   3.367   8.054  0.3888  0.3869 -1.0207
 7157SOL    HW232931   3.168   3.283   7.936  1.2082 -0.2606  1.1844
 7158SOL     OW32932   1.868   3.896   3.585  0.1219 -0.3030 -0.4306
 7158SOL    HW132933   1.912   3.970   3.544  2.6211 -1.3895  0.2623
 7158SOL    HW232934   1.864   3.922   3.678 -0.7523  2.5626 -1.2787
 7159SOL     OW32935   2.560   1.515   2.011  0.3058 -0.1806  0.1781
 7159SOL    HW132936   2.525   1.582   2.070  1.7079 -2.4550  3.5679
 7159SOL    HW232937   2.652   1.538   1.996  0.0935  1.3003  1.1941
 7160SOL     OW32938   4.052   4.288   8.983  0.6231  0.4350  0.6932
 7160SOL    HW132939   4.029   4.212   9.036 -0.0360 -0.1878 -0.4856
 7160SOL    HW232940   4.059   4.350   9.055 -1.0316  0.6629  0.6589
 7161SOL     OW32941   3.906   3.551   2.483  0.3005  0.7654 -0.0230
 7161SOL    HW132942   3.979   3.588   2.533 -0.9616  3.1129  0.1080
 7161SOL    HW232943   3.930   3.459   2.479 -1.6065  0.3186 -0.9768
 7162SOL     OW32944   3.022   4.249   0.200 -0.2214  0.0110 -0.3695
 7162SOL    HW132945   3.108   4.230   0.161 -0.4355  0.1704 -0.9197
 7162SOL    HW232946   2.996   4.320   0.142 -0.0455 -0.6993 -1.3318
 7163SOL     OW32947   0.030   2.176   2.679  0.2535 -0.2905 -0.5310
 7163SOL    HW132948   4.697   2.251   2.654 -0.7762 -1.0455 -0.5789
 7163SOL    HW232949   0.112   2.194   2.633  0.3882 -0.6586 -0.4363
 7164SOL     OW32950   1.932   0.730  16.873  0.5690  0.3751 -0.1092
 7164SOL    HW132951   2.026   0.726  16.889  0.7134  2.0974 -0.5401
 7164SOL    HW232952   1.907   0.779  16.952  3.1834  2.3703 -0.5255
 7165SOL     OW32953   4.168   3.674   8.273  0.2968  0.0083 -0.6720
 7165SOL    HW132954   4.082   3.635   8.289  0.9678 -0.7974  0.9832
 7165SOL    HW232955   4.135   3.758   8.240  0.0493  0.7336  1.4274
 7166SOL     OW32956   1.838   3.771   9.926 -0.2122 -0.1985  0.0577
 7166SOL    HW132957   1.925   3.762   9.886 -0.0705  0.9728  0.0926
 7166SOL    HW232958   1.828   3.689   9.974  0.0440 -1.1470 -1.5089
 7167SOL     OW32959   3.391   1.020   3.189  0.3210 -1.2135  1.0513
 7167SOL    HW132960   3.374   1.004   3.282 -2.0229 -1.1919  0.6303
 7167SOL    HW232961   3.334   1.096   3.177 -0.1129 -1.4085  1.9182
 7168SOL     OW32962   4.665   4.171   9.619 -0.3984 -0.2194 -0.0688
 7168SOL    HW132963   0.039   4.178   9.627 -0.4104 -2.2938  1.6268
 7168SOL    HW232964   4.636   4.165   9.710 -0.7251 -0.8224 -0.2182
 7169SOL     OW32965   0.382   3.538   2.285  0.1019  0.2276 -0.2847
 7169SOL    HW132966   0.294   3.518   2.253  1.0369 -1.3691 -1.8088
 7169SOL    HW232967   0.419   3.450   2.286 -1.2829 -0.3745 -1.6163
 7170SOL     OW32968   3.049   1.229   5.029 -0.4162 -0.5896  0.1348
 7170SOL    HW132969   3.082   1.156   4.976 -0.1235 -0.9147  0.7646
 7170SOL    HW232970   3.124   1.288   5.034 -1.0586  0.2281  0.0447
 7171SOL     OW32971   2.210   3.672  13.911  0.1254 -0.3618  0.4597
 7171SOL    HW132972   2.169   3.588  13.890  0.6049  0.2039 -2.7259
 7171SOL    HW232973   2.258   3.649  13.991  0.8330  0.3956  0.2484
 7172SOL     OW32974   4.442   4.029   4.647  0.0089 -0.3611 -0.0669
 7172SOL    HW132975   4.375   3.985   4.699 -1.1511  1.2838 -0.1411
 7172SOL    HW232976   4.400   4.009   4.563 -0.0115  0.5434 -0.2732
 7173SOL     OW32977   0.517   2.906   2.219 -0.0895 -0.0908  0.7477
 7173SOL    HW132978   0.561   2.949   2.146  2.0630  0.0317  2.1104
 7173SOL    HW232979   0.448   2.850   2.182 -0.6234 -1.0070  3.0714
 7174SOL     OW32980   2.195   0.752  17.055 -0.0843  0.4148 -0.0067
 7174SOL    HW132981   2.186   0.770  17.149  0.4229 -4.3835  0.9588
 7174SOL    HW232982   2.202   0.840  17.017  1.6245  0.5141  0.5460
 7175SOL     OW32983   4.442   3.280   8.507  0.0980  0.6675 -0.2158
 7175SOL    HW132984   4.500   3.294   8.582 -0.2328  0.3909  0.0881
 7175SOL    HW232985   4.424   3.187   8.510  0.8826  0.5187 -0.0122
 7176SOL     OW32986   3.534   2.897   5.143 -0.1417 -0.4199 -1.0337
 7176SOL    HW132987   3.580   2.976   5.170  0.0760 -0.8885 -0.0363
 7176SOL    HW232988   3.462   2.934   5.092 -0.0431  1.1417 -0.0219
 7177SOL     OW32989   0.372   3.151   4.092 -0.3891 -0.1655  0.2014
 7177SOL    HW132990   0.416   3.103   4.163 -1.1949 -2.5639 -0.9226
 7177SOL    HW232991   0.436   3.221   4.080 -2.9610  1.7928 -1.8892
 7178SOL     OW32992   1.352   1.168   1.892 -0.2705 -0.5496 -0.1724
 7178SOL    HW132993   1.292   1.146   1.820  1.0473 -0.1495 -1.3928
 7178SOL    HW232994   1.403   1.238   1.850  0.4381 -0.3047  1.0899
 7179SOL     OW32995   0.439   4.506   5.560  0.0028  0.1389  0.6746
 7179SOL    HW132996   0.418   4.451   5.636  0.7254  1.9453  2.1763
 7179SOL    HW232997   0.531   4.483   5.551 -0.0699 -0.6143  1.8697
 7180SOL     OW32998   2.755   3.148   0.394  0.2115 -0.1926 -0.0657
 7180SOL    HW132999   2.756   3.199   0.313  2.0746 -0.5972 -0.3073
 7180SOL    HW233000   2.664   3.151   0.423 -0.2561  0.2413 -1.5781
 7181SOL     OW33001   4.223   2.034   4.600 -0.0373 -0.1404 -0.4297
 7181SOL    HW133002   4.193   1.969   4.537  0.9262 -1.8448  0.8601
 7181SOL    HW233003   4.208   2.120   4.561  0.5107 -0.2487 -0.8661
 7182SOL     OW33004   1.505   0.693   3.605 -0.5520  0.1138 -0.0940
 7182SOL    HW133005   1.439   0.704   3.536 -1.6084 -0.3651  0.8351
 7182SOL    HW233006   1.516   0.785   3.627 -1.3591  0.4540 -1.0842
 7183SOL     OW33007   1.701   1.444   5.903 -0.2081 -0.4161 -0.5196
 7183SOL    HW133008   1.642   1.375   5.875 -0.7777 -0.7150  1.4194
 7183SOL    HW233009   1.692   1.421   5.996  2.0561 -0.7778 -0.3900
 7184SOL     OW33010   1.524   2.799   2.127 -0.7313 -0.1937  0.8652
 7184SOL    HW133011   1.565   2.878   2.090 -0.9439 -0.9857 -1.0647
 7184SOL    HW233012   1.539   2.737   2.055  3.1021  0.0940  1.4262
 7185SOL     OW33013   3.826   3.406   8.044  0.4138 -0.3039  0.5888
 7185SOL    HW133014   3.872   3.328   8.074 -0.4087 -1.3122 -0.7816
 7185SOL    HW233015   3.875   3.406   7.962  0.8068  0.4300  0.8194
 7186SOL     OW33016   4.430   0.171   7.410  0.1030 -0.5834 -0.1875
 7186SOL    HW133017   4.395   0.086   7.438 -0.1297 -0.3652  0.1759
 7186SOL    HW233018   4.508   0.144   7.361  0.7149  1.4160 -0.3094
 7187SOL     OW33019   4.634   0.266  15.111  0.2686  0.1207 -0.0832
 7187SOL    HW133020   4.651   0.294  15.021  0.3155 -0.0869 -0.1407
 7187SOL    HW233021   4.565   0.327  15.136  0.4128 -0.0934  0.8153
 7188SOL     OW33022   4.452   4.308   4.616  0.4370  0.2943  0.2827
 7188SOL    HW133023   4.470   4.214   4.619 -1.0809  0.0209  1.0571
 7188SOL    HW233024   4.514   4.338   4.550 -1.3553  0.4129 -1.3568
 7189SOL     OW33025   1.990   2.837   7.401 -0.8586  0.4729  0.0098
 7189SOL    HW133026   2.020   2.751   7.371 -1.0497 -0.4226  2.3645
 7189SOL    HW233027   1.966   2.821   7.492 -2.2837  0.5459 -0.3585
 7190SOL     OW33028   1.177   3.828   2.216  0.3216  1.0790 -0.4899
 7190SOL    HW133029   1.226   3.763   2.165 -1.1597  0.2713 -0.8754
 7190SOL    HW233030   1.245   3.891   2.241  0.1588  0.9191  0.3500
 7191SOL     OW33031   1.027   1.313  11.441 -0.5878 -0.6831 -0.4227
 7191SOL    HW133032   1.016   1.310  11.536 -0.1870 -1.0817 -0.3881
 7191SOL    HW233033   1.122   1.319  11.446 -0.6606  0.6657 -0.4469
 7192SOL     OW33034   0.608   3.032   6.966  0.0400  0.1705  0.1993
 7192SOL    HW133035   0.585   3.076   7.048 -1.4777 -1.1143  0.4703
 7192SOL    HW233036   0.555   3.075   6.899  1.0213  2.9866  1.2406
 7193SOL     OW33037   2.807   2.222   5.182  0.4505 -0.4785  0.1317
 7193SOL    HW133038   2.739   2.202   5.246  0.0447 -1.2242 -0.5287
 7193SOL    HW233039   2.838   2.307   5.212  2.3737 -0.6259 -1.4278
 7194SOL     OW33040   3.187   3.535   8.814 -0.6847 -0.3848 -0.1515
 7194SOL    HW133041   3.226   3.598   8.874  0.0511 -0.7067 -0.2942
 7194SOL    HW233042   3.096   3.539   8.843  0.0680  0.9933  2.0124
 7195SOL     OW33043   2.969   3.793  14.366  0.0571  0.3896 -0.0589
 7195SOL    HW133044   2.947   3.803  14.273  1.9281 -1.1167 -0.6600
 7195SOL    HW233045   2.914   3.853  14.416 -0.5449 -0.7894  0.6724
 7196SOL     OW33046   3.081   2.421   9.158 -0.4187 -0.0307  0.2585
 7196SOL    HW133047   3.036   2.345   9.194  1.8688 -0.8692  1.3208
 7196SOL    HW233048   3.169   2.394   9.134  0.0281  2.6749 -1.1301
 7197SOL     OW33049   2.537   4.640   0.268 -0.1593 -0.2079 -0.1993
 7197SOL    HW133050   2.523   0.012   0.284 -0.1573 -0.1751 -0.3996
 7197SOL    HW233051   2.600   4.619   0.337  1.2781  1.8484 -0.8705
 7198SOL     OW33052   1.238   2.449   9.526  0.3087  0.3754  0.1562
 7198SOL    HW133053   1.204   2.408   9.446 -0.8626 -0.6730  1.1884
 7198SOL    HW233054   1.321   2.481   9.489 -0.8187  0.7234 -2.0690
 7199SOL     OW33055   3.123   3.560  17.425  0.4794  0.4292 -0.2240
 7199SOL    HW133056   3.104   3.470  17.398  0.3304  0.7220 -1.0727
 7199SOL    HW233057   3.183   3.546  17.499 -0.5656  1.3440  0.7969
 7200SOL     OW33058   3.941   4.539   4.358 -0.5375  0.5450  0.0869
 7200SOL    HW133059   3.978   4.627   4.366  1.7201 -0.6651  2.8338
 7200SOL    HW233060   4.003   4.506   4.422  1.0530  2.7889 -0.3155
 7201SOL     OW33061   3.681   1.209   4.490  0.4382  0.0410 -0.1119
 7201SOL    HW133062   3.705   1.117   4.499 -0.0737  0.2190  2.9113
 7201SOL    HW233063   3.678   1.252   4.575 -2.0368 -1.6990  0.6845
 7202SOL     OW33064   2.401   2.852   7.200 -0.1846 -0.3967 -0.3164
 7202SOL    HW133065   2.474   2.879   7.145 -0.6200  1.6563  0.1413
 7202SOL    HW233066   2.349   2.800   7.138 -1.1325  1.0531 -0.7298
 7203SOL     OW33067   4.131   3.739  10.126 -0.0275 -0.6663 -0.6691
 7203SOL    HW133068   4.213   3.750  10.175  0.0033 -1.1573 -0.6105
 7203SOL    HW233069   4.081   3.680  10.183 -0.5833  1.9888  1.5759
 7204SOL     OW33070   1.068   3.486   7.022 -0.2957 -0.7968  0.4135
 7204SOL    HW133071   1.074   3.414   7.085 -0.1526 -4.0057 -3.2428
 7204SOL    HW233072   0.976   3.514   7.017  0.2799  1.4359  2.0722
 7205SOL     OW33073   4.648   0.497   3.999 -0.7047 -0.4553  0.4025
 7205SOL    HW133074   4.577   0.560   3.988  0.5134  0.9100  0.3586
 7205SOL    HW233075   4.598   0.416   4.007  0.0874 -0.9526  0.3146
 7206SOL     OW33076   0.676   2.323   1.613 -0.3515 -0.1674  0.1927
 7206SOL    HW133077   0.747   2.358   1.667 -0.3804 -0.5774  0.4898
 7206SOL    HW233078   0.683   2.383   1.538 -2.7099  1.2035  1.0852
 7207SOL     OW33079   2.777   2.765  13.763 -0.1523 -0.5566  0.2580
 7207SOL    HW133080   2.756   2.677  13.732 -1.4625 -0.4824  0.9507
 7207SOL    HW233081   2.770   2.822  13.686  1.0618  1.5661  1.7082
 7208SOL     OW33082   0.556   3.657   2.438 -0.5030  0.3874  0.3053
 7208SOL    HW133083   0.476   3.635   2.391 -0.7406 -2.6961  2.1510
 7208SOL    HW233084   0.554   3.751   2.459  2.4459  0.9146 -1.8890
 7209SOL     OW33085   0.109   0.861   1.225 -0.2757 -0.6868  0.0131
 7209SOL    HW133086   0.168   0.809   1.170 -0.0196 -0.1226 -0.2398
 7209SOL    HW233087   0.027   0.816   1.206 -0.2553 -0.9579  0.5663
 7210SOL     OW33088   1.529   3.878  11.329  0.0125 -0.2469  0.6750
 7210SOL    HW133089   1.448   3.917  11.362  0.6474  0.8408  0.9401
 7210SOL    HW233090   1.488   3.810  11.275 -2.7928 -0.3157  2.8671
 7211SOL     OW33091   2.106   1.562   6.843  0.4131 -0.3080  0.1110
 7211SOL    HW133092   2.168   1.547   6.771 -0.0108  2.2562 -0.7927
 7211SOL    HW233093   2.030   1.512   6.815  0.4132 -0.2614  0.0241
 7212SOL     OW33094   0.079   2.721  12.856 -0.2432  0.0373 -0.4038
 7212SOL    HW133095   0.024   2.771  12.796 -1.7121  0.1388  1.0161
 7212SOL    HW233096   0.074   2.779  12.932 -2.8564 -0.6559 -0.0363
 7213SOL     OW33097   2.990   4.122   3.354 -0.0983  0.0636 -0.0613
 7213SOL    HW133098   2.938   4.073   3.418 -0.0820  1.1797  0.8002
 7213SOL    HW233099   2.924   4.175   3.310 -0.5642  0.0576  0.6138
 7214SOL     OW33100   4.215   2.100  15.631  0.1388 -0.6317  0.2962
 7214SOL    HW133101   4.134   2.151  15.631  2.2462  2.7165 -2.1205
 7214SOL    HW233102   4.259   2.122  15.549  0.0045 -1.0248  0.1198
 7215SOL     OW33103   0.805   1.745  17.438 -0.2536  0.3044 -0.3692
 7215SOL    HW133104   0.761   1.820  17.398 -1.5179 -1.0555 -1.5504
 7215SOL    HW233105   0.722   1.697  17.450  1.0091 -1.0391  3.0180
 7216SOL     OW33106   2.228   1.402   7.325 -0.3699 -0.0821  0.8715
 7216SOL    HW133107   2.301   1.463   7.318 -1.9302  1.5587 -0.7353
 7216SOL    HW233108   2.161   1.444   7.379  0.7078  1.7833  0.7498
 7217SOL     OW33109   3.590   3.517   2.548  0.0221  0.0486 -0.4163
 7217SOL    HW133110   3.682   3.513   2.524  0.2324  3.1072 -0.1782
 7217SOL    HW233111   3.549   3.567   2.477 -3.1071  0.4024  1.6516
 7218SOL     OW33112   4.203   3.827   5.173  0.1916  0.1531 -0.0106
 7218SOL    HW133113   4.292   3.802   5.145  0.3179  1.1497 -0.4796
 7218SOL    HW233114   4.149   3.788   5.105 -2.1788  2.7836  0.4095
 7219SOL     OW33115   0.246   2.629  13.531 -0.2568  0.7187 -0.4030
 7219SOL    HW133116   0.256   2.722  13.552  1.2594  0.3193  0.7209
 7219SOL    HW233117   0.327   2.591  13.567 -0.6963 -0.7513 -0.9685
 7220SOL     OW33118   2.429   1.267   6.550  0.2041  0.2251  0.2683
 7220SOL    HW133119   2.492   1.204   6.585 -1.5389  0.7493  4.3532
 7220SOL    HW233120   2.353   1.209   6.540  0.7576 -0.1381 -1.7678
 7221SOL     OW33121   0.037   2.090   5.306 -0.1175 -0.1817  0.3096
 7221SOL    HW133122   0.067   2.032   5.235 -3.4435  0.1637 -1.3677
 7221SOL    HW233123   0.093   2.167   5.300  1.0405 -1.1668 -1.7784
 7222SOL     OW33124   3.928   2.492  14.336 -0.9088  0.4212 -0.0507
 7222SOL    HW133125   3.933   2.586  14.315 -1.0242  0.3239 -0.5119
 7222SOL    HW233126   3.858   2.477  14.273 -1.9793  2.5444  0.6208
 7223SOL     OW33127   3.379   4.568   6.623 -0.0461  0.7922  0.1055
 7223SOL    HW133128   3.398   4.648   6.575  1.8019 -1.4480 -2.8718
 7223SOL    HW233129   3.460   4.527   6.653  0.1085  0.2824 -1.0222
 7224SOL     OW33130   3.027   1.018  12.719  0.1918 -0.0710  0.1176
 7224SOL    HW133131   3.103   1.024  12.777  0.7548 -0.8586 -0.5397
 7224SOL    HW233132   3.033   1.098  12.665 -0.3196 -0.0905  0.0283
 7225SOL     OW33133   0.183   4.302  14.599 -0.7775  0.1868  0.7380
 7225SOL    HW133134   0.278   4.308  14.611 -0.9150 -0.1274  1.9313
 7225SOL    HW233135   0.163   4.290  14.691 -1.0511 -1.6473  0.4236
 7226SOL     OW33136   2.118   3.791   3.361  0.4643  0.5400  0.2521
 7226SOL    HW133137   2.183   3.776   3.429 -0.7707  0.0247  1.3061
 7226SOL    HW233138   2.082   3.876   3.386  1.3592  0.1609  2.7372
 7227SOL     OW33139   0.235   2.348   6.588  0.3481 -0.0181  0.1889
 7227SOL    HW133140   0.217   2.442   6.589 -0.1492 -0.1101 -0.2346
 7227SOL    HW233141   0.298   2.340   6.659 -1.8164  0.1372  2.1317
 7228SOL     OW33142   3.870   0.451   6.395 -0.1061  0.0580 -0.2580
 7228SOL    HW133143   3.906   0.426   6.480 -1.3346 -0.0466  0.2389
 7228SOL    HW233144   3.948   0.477   6.347  1.2639  1.3034  2.6827
 7229SOL     OW33145   1.398   3.280   7.583 -1.1465 -0.1281  0.5526
 7229SOL    HW133146   1.436   3.210   7.635  0.1576  1.3955  1.6689
 7229SOL    HW233147   1.361   3.224   7.515 -0.3116 -0.6859  0.5657
 7230SOL     OW33148   2.846   4.247   8.633  0.2672  0.3641  0.2258
 7230SOL    HW133149   2.835   4.173   8.574 -1.7064  1.1937 -0.4294
 7230SOL    HW233150   2.851   4.314   8.566  0.2669  1.4739  1.3358
 7231SOL     OW33151   2.202   4.263   7.080  0.0337 -0.1392 -0.0747
 7231SOL    HW133152   2.110   4.269   7.055  0.3771 -0.8978 -1.5344
 7231SOL    HW233153   2.232   4.185   7.034 -0.7142  0.4448 -1.5521
 7232SOL     OW33154   3.434   0.226  11.342  0.4287  0.1637 -0.0971
 7232SOL    HW133155   3.507   0.165  11.350 -0.8269 -1.6924 -2.8848
 7232SOL    HW233156   3.354   0.180  11.367  1.0635 -1.5068 -1.1693
 7233SOL     OW33157   1.530   0.144   0.195  0.0834 -0.3021  0.2719
 7233SOL    HW133158   1.542   0.185   0.281 -1.2710 -1.5964  1.0865
 7233SOL    HW233159   1.612   0.098   0.179  0.6876  1.2437 -1.0118
 7234SOL     OW33160   4.697   4.550  13.735  0.2836  0.5962  0.0404
 7234SOL    HW133161   0.060   4.530  13.775 -0.0767 -0.7360  0.1423
 7234SOL    HW233162   4.719   4.621  13.675  0.1059 -0.5711 -1.4008
 7235SOL     OW33163   3.584   3.990   7.658  0.1961 -0.3763  0.0401
 7235SOL    HW133164   3.626   4.059   7.711 -1.2102 -0.3117  1.0793
 7235SOL    HW233165   3.644   3.992   7.584 -1.1257 -0.2586 -1.0075
 7236SOL     OW33166   3.901   0.189   4.747  1.3124 -0.0523 -0.5385
 7236SOL    HW133167   3.934   0.279   4.747  1.7067 -0.2019 -1.9622
 7236SOL    HW233168   3.845   0.193   4.670  0.2449  1.2138  0.3231
 7237SOL     OW33169   1.569   1.705   4.267 -0.3420  0.0444  0.1529
 7237SOL    HW133170   1.486   1.663   4.288  0.0702 -1.1363 -0.5881
 7237SOL    HW233171   1.618   1.687   4.348  0.0752  0.8364  0.0753
 7238SOL     OW33172   1.647   2.627   1.907  0.1225  0.3142  0.2236
 7238SOL    HW133173   1.670   2.560   1.843  1.0290 -0.6791  1.5851
 7238SOL    HW233174   1.607   2.689   1.846  0.8588  0.4014 -0.1702
 7239SOL     OW33175   3.680   0.704   1.367  0.4842 -0.0161  0.3323
 7239SOL    HW133176   3.604   0.750   1.332 -0.1288  0.0218  1.7194
 7239SOL    HW233177   3.739   0.718   1.293  0.2382  1.0565  0.3388
 7240SOL     OW33178   3.243   2.102   5.791  0.2513  0.2804  0.5701
 7240SOL    HW133179   3.213   2.169   5.730 -1.6402 -0.6791  0.4398
 7240SOL    HW233180   3.188   2.028   5.765 -0.0202  1.2642 -1.7113
 7241SOL     OW33181   0.856   2.006  17.674 -0.4245  0.3262  0.5748
 7241SOL    HW133182   0.782   2.067  17.673  0.1903  1.0033 -2.0665
 7241SOL    HW233183   0.888   2.026   0.075 -0.1181 -0.9069  0.7467
 7242SOL     OW33184   0.801   0.569   2.605  0.1059 -0.7740  0.6638
 7242SOL    HW133185   0.875   0.605   2.556  0.1995  0.6958  1.8998
 7242SOL    HW233186   0.739   0.638   2.584  0.2420 -0.7824  0.2174
 7243SOL     OW33187   2.092   1.590   7.104 -0.0799  0.2335 -0.0574
 7243SOL    HW133188   2.181   1.628   7.103  1.0600 -2.4955 -1.4846
 7243SOL    HW233189   2.080   1.580   7.010  2.4282  0.4595 -0.4082
 7244SOL     OW33190   1.638   0.184   5.522  0.6968 -0.9030 -0.4569
 7244SOL    HW133191   1.674   0.187   5.610 -2.1403  0.3400  0.6520
 7244SOL    HW233192   1.654   0.273   5.489  1.0334 -0.9172 -0.3248
 7245SOL     OW33193   4.437   2.540   8.209  0.5534  0.5888 -0.0008
 7245SOL    HW133194   4.346   2.513   8.194  0.0700  1.8946  0.5387
 7245SOL    HW233195   4.495   2.465   8.221  1.5699  1.6004  1.4151
 7246SOL     OW33196   2.818   2.142   3.831 -0.3098 -0.4791  0.0429
 7246SOL    HW133197   2.832   2.208   3.764  0.8534 -0.2317  0.5149
 7246SOL    HW233198   2.860   2.069   3.785 -1.4896  1.1105 -3.4912
 7247SOL     OW33199   3.370   0.962  14.883 -0.2052  0.4355 -0.0194
 7247SOL    HW133200   3.368   1.057  14.882  1.1516  0.4597 -0.2463
 7247SOL    HW233201   3.280   0.946  14.912 -0.5400  0.5841 -0.9625
 7248SOL     OW33202   1.233   1.515   2.418  0.2561  0.0646 -0.1259
 7248SOL    HW133203   1.233   1.596   2.366 -0.3305  1.8617  2.6581
 7248SOL    HW233204   1.147   1.520   2.459  0.7866 -0.9723  1.1280
 7249SOL     OW33205   0.558   2.380  13.601  0.0059  0.1795  0.0060
 7249SOL    HW133206   0.531   2.463  13.639  0.6875  0.1915  0.4714
 7249SOL    HW233207   0.570   2.405  13.509 -2.2471  1.9204  0.1806
 7250SOL     OW33208   0.585   4.558   7.641  0.4466 -0.5121  0.1744
 7250SOL    HW133209   0.615   4.472   7.614  0.3558 -0.5129  0.0792
 7250SOL    HW233210   0.496   4.566   7.608  1.8015  2.5843 -2.7050
 7251SOL     OW33211   4.377   3.345   0.420  0.2187 -0.9328  0.0482
 7251SOL    HW133212   4.378   3.337   0.325  2.8541 -1.0675  0.1101
 7251SOL    HW233213   4.439   3.286   0.462  1.9952 -0.2240 -1.5942
 7252SOL     OW33214   2.188   4.327  12.407 -0.3717  0.0299  0.4558
 7252SOL    HW133215   2.095   4.339  12.391 -0.4205  2.3769  2.5348
 7252SOL    HW233216   2.204   4.301  12.316 -1.1058 -1.7630  0.8405
 7253SOL     OW33217   3.657   1.313  11.335 -0.1392 -0.0473  0.2523
 7253SOL    HW133218   3.694   1.338  11.419 -1.6537  1.0616  0.5839
 7253SOL    HW233219   3.693   1.224  11.328 -2.4959 -1.2215  2.9538
 7254SOL     OW33220   2.773   3.602  10.820 -0.3212  0.2143  0.3545
 7254SOL    HW133221   2.756   3.659  10.894 -0.4725 -0.6659  1.0047
 7254SOL    HW233222   2.722   3.523  10.838 -1.7848  0.7394 -1.4527
 7255SOL     OW33223   3.616   0.409   7.655  0.1773 -0.0214  0.6556
 7255SOL    HW133224   3.678   0.482   7.652  0.4151 -0.0947  3.3218
 7255SOL    HW233225   3.665   0.330   7.674  1.1815  0.0154 -1.8675
 7256SOL     OW33226   1.653   2.482   3.226 -0.2772  0.1502 -0.5304
 7256SOL    HW133227   1.677   2.548   3.162  0.3010  2.0881  1.6894
 7256SOL    HW233228   1.669   2.402   3.175 -1.1254 -0.7976  0.6902
 7257SOL     OW33229   4.690   4.493  14.612  0.5589  0.2160  0.2049
 7257SOL    HW133230   4.688   4.588  14.623  0.7132  0.2814 -0.3771
 7257SOL    HW233231   0.051   4.476  14.658 -0.0879  1.0332  1.6772
 7258SOL     OW33232   1.655   4.517   3.801 -0.3646 -0.4144 -1.2369
 7258SOL    HW133233   1.665   4.606   3.835 -0.4490 -0.9373  0.1938
 7258SOL    HW233234   1.733   4.508   3.746  0.0536 -1.9336 -0.4236
 7259SOL     OW33235   0.482   3.320  16.037  0.0953 -0.0181  0.6641
 7259SOL    HW133236   0.469   3.378  16.112 -2.3707  0.9178 -0.4853
 7259SOL    HW233237   0.528   3.250  16.084  2.2850  0.6277 -0.5131
 7260SOL     OW33238   2.199   3.258   3.212  0.6251 -0.7166 -0.2088
 7260SOL    HW133239   2.199   3.196   3.285 -0.6225 -0.2025  0.2189
 7260SOL    HW233240   2.143   3.212   3.149  0.3741  1.1463 -1.3429
 7261SOL     OW33241   3.265   3.791  11.425  0.0346 -0.5320 -0.5306
 7261SOL    HW133242   3.337   3.844  11.391 -0.7895  2.0062  1.6641
 7261SOL    HW233243   3.196   3.841  11.381 -0.3045 -0.5218  0.0115
 7262SOL     OW33244   4.674   1.393   0.457 -0.2176 -0.4020  0.0225
 7262SOL    HW133245   4.630   1.355   0.534 -0.0591  1.6848  1.1321
 7262SOL    HW233246   0.004   1.463   0.498  0.2469 -0.6182 -0.1886
 7263SOL     OW33247   3.506   3.405   5.953 -0.5374 -0.5158 -0.0540
 7263SOL    HW133248   3.432   3.403   6.014 -0.8000  0.1884 -0.3476
 7263SOL    HW233249   3.462   3.459   5.887  0.1257  1.4179  1.0761
 7264SOL     OW33250   1.720   3.993   1.999  0.5921 -0.3604  0.4946
 7264SOL    HW133251   1.754   3.930   1.936  1.2329 -1.5170  2.0052
 7264SOL    HW233252   1.627   3.972   2.005  0.1742  1.0829 -0.9071
 7265SOL     OW33253   4.092   1.087   8.406 -0.3130 -0.1128 -0.2504
 7265SOL    HW133254   4.186   1.070   8.396 -0.4991 -1.5513  0.3636
 7265SOL    HW233255   4.058   1.018   8.348  0.1500 -0.4407 -0.1328
 7266SOL     OW33256   0.460   2.799   6.953 -0.2247 -0.3345 -0.0084
 7266SOL    HW133257   0.529   2.858   6.921  2.6527 -3.8248 -0.1491
 7266SOL    HW233258   0.422   2.856   7.020 -0.2788  0.8489 -1.0415
 7267SOL     OW33259   2.734   4.363   7.645  0.3177 -0.0312 -0.3411
 7267SOL    HW133260   2.662   4.424   7.663  0.9647  0.9096 -0.8970
 7267SOL    HW233261   2.775   4.408   7.571  2.7746  1.0542  1.6667
 7268SOL     OW33262   1.426   0.938   5.085 -0.2621 -0.0259  0.1165
 7268SOL    HW133263   1.506   0.897   5.119 -0.6771  0.3147  1.5141
 7268SOL    HW233264   1.421   1.016   5.140 -1.0269  1.3220 -1.8544
 7269SOL     OW33265   0.977   0.622   4.633 -0.4215 -0.3679 -0.4800
 7269SOL    HW133266   0.939   0.569   4.703  0.7964 -1.1970 -0.4498
 7269SOL    HW233267   0.903   0.679   4.610 -1.9015 -1.5023  1.4616
 7270SOL     OW33268   1.070   0.014  10.175 -0.2611 -0.1410 -0.4350
 7270SOL    HW133269   1.134   0.084  10.189 -0.0007 -1.1127  3.2280
 7270SOL    HW233270   1.053   4.698  10.261 -2.9141  2.2181  0.0607
 7271SOL     OW33271   0.747   2.797   2.295  1.0211 -0.0501  0.3363
 7271SOL    HW133272   0.660   2.835   2.280  0.9202 -1.0998 -1.8303
 7271SOL    HW233273   0.796   2.837   2.223 -0.9837 -0.0255 -1.0329
 7272SOL     OW33274   0.406   3.607   3.901 -0.1556  0.2155 -0.3075
 7272SOL    HW133275   0.470   3.674   3.878 -0.0212  0.0353 -0.4592
 7272SOL    HW233276   0.350   3.662   3.956  1.2522  1.6134 -0.3057
 7273SOL     OW33277   1.286   4.512   2.542  0.3914  0.0130  0.0173
 7273SOL    HW133278   1.322   4.532   2.629 -1.4395 -1.9934  1.2194
 7273SOL    HW233279   1.243   4.596   2.524 -1.0386 -0.2566  2.1484
 7274SOL     OW33280   3.082   1.351   8.024 -0.1640 -0.0181  0.5255
 7274SOL    HW133281   3.008   1.354   7.963  0.1244 -0.6829  0.1310
 7274SOL    HW233282   3.103   1.439   8.053 -0.7409 -0.0686  1.0907
 7275SOL     OW33283   3.495   2.630  10.237  0.0862  0.6614  0.4424
 7275SOL    HW133284   3.553   2.700  10.205 -1.3401  0.3768 -2.8613
 7275SOL    HW233285   3.466   2.665  10.321 -0.3639 -0.4200  0.7385
 7276SOL     OW33286   3.996   3.550   6.106  0.0836  0.2732  0.4507
 7276SOL    HW133287   4.011   3.581   6.195  2.7059 -0.9861  0.4402
 7276SOL    HW233288   3.912   3.506   6.120  0.3984 -0.6904 -0.7441
 7277SOL     OW33289   3.051   3.709   7.756 -0.4139 -0.0705 -0.2803
 7277SOL    HW133290   2.978   3.722   7.696  1.4663 -0.6945 -2.7127
 7277SOL    HW233291   3.026   3.626   7.799 -0.9580  1.2388  1.9556
 7278SOL     OW33292   3.163   0.638  16.169 -0.3700 -0.4118  0.4878
 7278SOL    HW133293   3.153   0.604  16.080  3.2836 -1.9424  0.6641
 7278SOL    HW233294   3.081   0.617  16.214 -1.4935 -1.2557 -1.9628
 7279SOL     OW33295   1.774   3.752   8.969 -0.0053  0.2061 -0.0840
 7279SOL    HW133296   1.756   3.781   8.880  2.1938 -0.7345 -0.8413
 7279SOL    HW233297   1.853   3.699   8.958  0.1572  0.0774  1.7330
 7280SOL     OW33298   1.597   3.035   2.017  0.1882  0.8948 -0.2606
 7280SOL    HW133299   1.622   3.026   1.925  0.5277 -1.0750  0.0243
 7280SOL    HW233300   1.507   3.062   1.996 -0.2928 -1.1192 -0.8089
 7281SOL     OW33301   4.594   2.292  16.458 -0.7926  0.4919  0.4238
 7281SOL    HW133302   4.609   2.372  16.406 -1.1908  0.0956 -0.3019
 7281SOL    HW233303   4.554   2.332  16.535  0.8297  0.4836  1.2785
 7282SOL     OW33304   3.252   4.694   4.780 -0.5570 -0.5596 -0.1365
 7282SOL    HW133305   3.237   0.025   4.859 -0.2482  1.1269 -1.1946
 7282SOL    HW233306   3.265   0.038   4.711 -1.8495 -0.0171  0.1266
 7283SOL     OW33307   4.241   0.586   2.317 -0.0451 -0.2840 -0.6172
 7283SOL    HW133308   4.214   0.651   2.382 -2.6589 -2.8275  0.8765
 7283SOL    HW233309   4.163   0.579   2.263  1.1542  0.3610 -2.4146
 7284SOL     OW33310   0.367   4.123   4.336  0.1798  0.3771  0.5793
 7284SOL    HW133311   0.427   4.198   4.329  1.2613 -0.3744  1.7172
 7284SOL    HW233312   0.418   4.052   4.297  1.0630  2.0692 -1.3837
 7285SOL     OW33313   1.637   1.216   9.966 -0.0345 -0.1033 -0.1083
 7285SOL    HW133314   1.676   1.165  10.037 -0.6519  2.3785  2.0389
 7285SOL    HW233315   1.712   1.272   9.945  0.1529  0.9191  3.1289
 7286SOL     OW33316   4.615   3.724   8.501  0.6648 -0.1271 -0.1603
 7286SOL    HW133317   4.521   3.740   8.499  0.6702 -0.0577  0.1304
 7286SOL    HW233318   4.658   3.808   8.487  0.8465 -0.2534 -0.3704
 7287SOL     OW33319   4.075   1.219  16.048 -0.0906 -0.0873 -0.2236
 7287SOL    HW133320   4.126   1.288  16.006 -0.5657 -0.5832 -1.6265
 7287SOL    HW233321   4.018   1.277  16.099 -0.2828 -0.7791  0.3516
 7288SOL     OW33322   0.589   0.816  17.467 -0.2621 -0.1165 -0.1979
 7288SOL    HW133323   0.658   0.749  17.458 -0.4998 -0.5581  1.2954
 7288SOL    HW233324   0.648   0.887  17.491 -0.3507 -0.0497 -0.1798
 7289SOL     OW33325   3.467   4.113   4.155 -0.3453 -0.5608 -0.3541
 7289SOL    HW133326   3.539   4.165   4.192  0.0491 -0.9112 -0.6236
 7289SOL    HW233327   3.403   4.133   4.223  0.7619  1.5219  0.0768
 7290SOL     OW33328   0.890   2.733   3.865  0.1206  0.2297  0.3342
 7290SOL    HW133329   0.845   2.674   3.926 -1.8700  1.7280  0.3301
 7290SOL    HW233330   0.829   2.720   3.792 -0.3056 -0.8062  0.8723
 7291SOL     OW33331   3.525   2.080  17.434 -0.2420  0.6721 -0.4157
 7291SOL    HW133332   3.518   2.068  17.529  0.5938 -0.7067 -0.5309
 7291SOL    HW233333   3.620   2.090  17.428  0.0689 -1.6418  0.7107
 7292SOL     OW33334   1.173   1.809   8.814 -0.1523 -0.5125  0.2517
 7292SOL    HW133335   1.113   1.873   8.775 -2.6305 -1.1741  2.9443
 7292SOL    HW233336   1.241   1.805   8.747 -0.5807  1.2119 -0.2763
 7293SOL     OW33337   3.242   1.831   2.512 -0.0155 -0.8156  0.2937
 7293SOL    HW133338   3.274   1.765   2.451  0.5027 -0.7197  0.4570
 7293SOL    HW233339   3.189   1.880   2.450  0.9732  1.5729  1.3388
 7294SOL     OW33340   3.251   2.702   9.241 -0.4729 -0.3702 -0.1066
 7294SOL    HW133341   3.337   2.677   9.273  0.0087 -0.9933 -1.8894
 7294SOL    HW233342   3.279   2.779   9.192 -4.3511  0.7537 -0.5537
 7295SOL     OW33343   4.183   3.615   2.329 -0.4754  0.3593  0.4950
 7295SOL    HW133344   4.187   3.521   2.345 -2.3798  0.0785 -0.7060
 7295SOL    HW233345   4.166   3.637   2.420 -1.1208  1.5096  0.0949
 7296SOL     OW33346   3.406   4.090   8.137 -0.0313 -0.3946  0.2634
 7296SOL    HW133347   3.487   4.043   8.119 -0.0294 -0.5803  0.7580
 7296SOL    HW233348   3.404   4.088   8.233  1.6477 -0.9112  0.2891
 7297SOL     OW33349   0.779   0.722   3.179  0.0701  0.2409  0.0391
 7297SOL    HW133350   0.753   0.637   3.145  2.0097 -0.2658 -0.1643
 7297SOL    HW233351   0.777   0.772   3.098  3.3230 -0.6554 -0.6142
 7298SOL     OW33352   0.588   0.645   5.442 -0.1717  0.2412  0.7268
 7298SOL    HW133353   0.674   0.625   5.477  0.8080  2.4755 -0.3368
 7298SOL    HW233354   0.609   0.710   5.374 -0.5715 -1.8016 -1.3665
 7299SOL     OW33355   0.855   1.477   4.711  0.4497  0.2428 -0.7572
 7299SOL    HW133356   0.892   1.442   4.630  3.6724 -2.4936  1.9145
 7299SOL    HW233357   0.921   1.451   4.775 -1.2570 -2.2356 -0.0031
 7300SOL     OW33358   2.469   0.870   6.120 -0.6488  0.0582  0.0535
 7300SOL    HW133359   2.392   0.894   6.171  0.5978  1.2255  1.3848
 7300SOL    HW233360   2.465   0.946   6.061  1.8889 -0.2490 -0.5068
 7301SOL     OW33361   1.276   3.565  17.367 -0.6764 -0.7585 -0.6618
 7301SOL    HW133362   1.235   3.509  17.301 -2.0386  0.4934 -0.8729
 7301SOL    HW233363   1.229   3.541  17.447  1.9469  0.9920  1.4169
 7302SOL     OW33364   1.347   0.737   3.397  0.3187  0.1111 -0.0507
 7302SOL    HW133365   1.383   0.801   3.336 -0.0826 -0.5840 -1.0039
 7302SOL    HW233366   1.273   0.701   3.349  0.9552  3.1511 -3.3626
 7303SOL     OW33367   0.909   3.753   9.350  1.1111  0.5579 -0.1386
 7303SOL    HW133368   1.003   3.761   9.332  0.9833 -1.5979 -1.8119
 7303SOL    HW233369   0.907   3.660   9.373  1.0389  0.8117  0.8476
 7304SOL     OW33370   1.389   3.201   2.190 -0.0255  0.1337  0.0646
 7304SOL    HW133371   1.371   3.112   2.161 -1.9480 -0.1441  2.0829
 7304SOL    HW233372   1.468   3.184   2.241 -1.1713 -1.2267  1.3720
 7305SOL     OW33373   3.196   0.944  15.551  0.4782 -0.3929  0.1413
 7305SOL    HW133374   3.265   0.981  15.607 -0.2381 -0.8969  1.3412
 7305SOL    HW233375   3.145   1.018  15.517  0.7726 -0.2022  0.1113
 7306SOL     OW33376   1.785   1.274   4.720  0.7515 -0.4603 -0.0209
 7306SOL    HW133377   1.759   1.292   4.630  0.4683  1.6412  0.4843
 7306SOL    HW233378   1.701   1.296   4.761  1.0013  0.1071  0.1761
 7307SOL     OW33379   1.336   1.393   5.401 -0.0107  0.2266 -0.2865
 7307SOL    HW133380   1.260   1.433   5.442 -0.2707  2.6319 -3.0997
 7307SOL    HW233381   1.390   1.465   5.367 -2.2507  2.2785  0.4735
 7308SOL     OW33382   4.113   3.188   7.648 -0.1796 -0.3984 -0.0308
 7308SOL    HW133383   4.195   3.231   7.623 -2.3191  2.5214 -2.0413
 7308SOL    HW233384   4.103   3.140   7.566 -0.7671 -1.3804  0.6199
 7309SOL     OW33385   2.500   0.401  14.444 -0.3992 -0.5104 -0.1782
 7309SOL    HW133386   2.520   0.359  14.528 -1.7645  1.0605  0.9219
 7309SOL    HW233387   2.433   0.336  14.423 -0.0450 -0.0160 -2.7963
 7310SOL     OW33388   0.518   2.849   8.310  0.5206  0.1045 -0.2247
 7310SOL    HW133389   0.554   2.932   8.278  0.8791  0.4835  1.1365
 7310SOL    HW233390   0.585   2.836   8.378 -0.9996  0.2425  1.2979
 7311SOL     OW33391   3.193   0.678   1.648 -0.0198 -0.6885 -0.2417
 7311SOL    HW133392   3.255   0.745   1.619 -1.1047 -0.0526 -1.0496
 7311SOL    HW233393   3.126   0.682   1.580 -0.2527 -0.9034 -0.0258
 7312SOL     OW33394   1.933   0.866   6.724 -0.3634  0.3700  0.7185
 7312SOL    HW133395   1.919   0.935   6.659 -3.8790  0.2370  1.3340
 7312SOL    HW233396   1.887   0.904   6.798 -0.5018 -1.0471  1.3493
 7313SOL     OW33397   0.002   2.518   1.024  0.2273 -0.6423 -0.4370
 7313SOL    HW133398   0.007   2.426   0.998  1.2354 -0.2082 -1.7608
 7313SOL    HW233399   4.628   2.519   1.012  0.2081  3.0634  0.1273
 7314SOL     OW33400   3.203   2.841   8.883  0.1590  0.4816  0.0813
 7314SOL    HW133401   3.236   2.863   8.970  2.7168  3.5521 -1.6287
 7314SOL    HW233402   3.111   2.863   8.893  0.3428  0.8263  1.0052
 7315SOL     OW33403   4.449   2.162  17.137  0.4578  0.4239  0.3010
 7315SOL    HW133404   4.447   2.103  17.212 -0.2787 -0.4367 -0.3951
 7315SOL    HW233405   4.353   2.164  17.129  0.7333 -0.1390 -3.2587
 7316SOL     OW33406   3.159   0.274   8.715 -0.3652 -0.3225 -0.2335
 7316SOL    HW133407   3.193   0.361   8.695 -1.9592  0.9545  2.4820
 7316SOL    HW233408   3.234   0.238   8.762  1.7814  1.0384 -2.6355
 7317SOL     OW33409   1.942   3.239  14.508  0.5786  0.4117  0.1100
 7317SOL    HW133410   1.848   3.227  14.495  0.8894 -1.2952 -0.5463
 7317SOL    HW233411   1.978   3.180  14.442 -0.4281  1.8280 -1.7040
 7318SOL     OW33412   0.214   2.090  16.150  0.2664 -0.2643  0.5293
 7318SOL    HW133413   0.280   2.158  16.168 -0.0460 -0.6585  3.1281
 7318SOL    HW233414   0.215   2.035  16.228 -0.6848 -1.1913 -0.1081
 7319SOL     OW33415   2.380   1.787   1.784 -0.1536  0.2667 -0.2178
 7319SOL    HW133416   2.366   1.699   1.750  0.3843  0.1908 -0.2396
 7319SOL    HW233417   2.348   1.787   1.874  0.3276  0.4942 -0.0432
 7320SOL     OW33418   1.893   0.834   5.441  0.1852 -0.1998  0.0842
 7320SOL    HW133419   1.929   0.844   5.353  0.0065  1.4115  0.1896
 7320SOL    HW233420   1.884   0.922   5.477  0.2407  0.7916 -2.3102
 7321SOL     OW33421   2.113   3.316   5.822  0.4607 -0.2907 -0.0213
 7321SOL    HW133422   2.120   3.252   5.893  0.9653  1.1995  1.2591
 7321SOL    HW233423   2.049   3.373   5.864  3.4523  2.1157  1.2369
 7322SOL     OW33424   3.816   0.776  16.722 -0.7759  0.0716  1.0064
 7322SOL    HW133425   3.753   0.799  16.790 -1.5476 -1.4621  0.8085
 7322SOL    HW233426   3.831   0.862  16.684  0.1869  0.3292  1.9671
 7323SOL     OW33427   0.668   1.703  10.744  0.2880  0.1544 -0.4180
 7323SOL    HW133428   0.708   1.689  10.658 -0.9430 -1.3782 -0.7448
 7323SOL    HW233429   0.667   1.799  10.739 -1.7548 -0.0049 -3.2812
 7324SOL     OW33430   2.785   3.442   5.235 -0.1754  0.0436 -0.0701
 7324SOL    HW133431   2.876   3.416   5.248 -0.2913 -0.4702 -0.2711
 7324SOL    HW233432   2.758   3.354   5.209  0.7124  0.2722 -1.8133
 7325SOL     OW33433   1.886   4.048   8.869  0.3947  0.3525 -0.1398
 7325SOL    HW133434   1.907   4.129   8.915  1.4090 -0.6755  1.2197
 7325SOL    HW233435   1.966   4.007   8.904  0.2032 -0.3244 -0.4916
 7326SOL     OW33436   0.073   0.289   6.893 -0.2476 -0.2106  0.4291
 7326SOL    HW133437   0.042   0.228   6.826  1.5597 -0.8338  0.1737
 7326SOL    HW233438   4.709   0.291   6.936  0.4813 -0.2432  1.8871
 7327SOL     OW33439   0.641   0.969   5.721 -0.2748  0.0084 -0.1829
 7327SOL    HW133440   0.653   0.967   5.816  0.5765 -0.4594 -0.3032
 7327SOL    HW233441   0.706   0.903   5.698  1.2317  1.6482 -0.5978
 7328SOL     OW33442   0.254   2.959   4.688  0.4464 -0.3446 -0.0278
 7328SOL    HW133443   0.162   2.938   4.672 -0.2199  0.3246  2.8372
 7328SOL    HW233444   0.253   2.947   4.783  1.4258 -0.3032 -0.0200
 7329SOL     OW33445   3.287   1.187   2.776  0.2954 -0.2661  0.2423
 7329SOL    HW133446   3.273   1.170   2.682  0.3325  2.3948 -0.2429
 7329SOL    HW233447   3.311   1.279   2.770  1.1637 -0.6229 -2.0850
 7330SOL     OW33448   0.621   0.263  16.976  0.2890  0.2987 -0.0344
 7330SOL    HW133449   0.690   0.228  17.032 -1.1400  0.0804  1.5553
 7330SOL    HW233450   0.554   0.196  16.962 -0.6069  0.7820  2.0381
 7331SOL     OW33451   3.840   4.230  11.012  0.0303  0.5156 -0.1175
 7331SOL    HW133452   3.815   4.159  10.954 -3.9491  2.1461 -0.4159
 7331SOL    HW233453   3.931   4.205  11.028 -1.0340 -2.7189  0.8338
 7332SOL     OW33454   3.881   4.472   7.208 -0.0456 -0.8843  0.0938
 7332SOL    HW133455   3.955   4.449   7.265 -1.7835 -1.9650  1.8777
 7332SOL    HW233456   3.929   4.473   7.124  1.0965  0.2438  0.7458
 7333SOL     OW33457   1.459   4.260   2.895  0.0774 -0.4932  0.5318
 7333SOL    HW133458   1.456   4.224   2.806 -0.2416  1.7979 -0.3854
 7333SOL    HW233459   1.551   4.283   2.898 -0.0608 -0.1856  2.4281
 7334SOL     OW33460   3.914   1.900  13.614 -0.1598 -0.0309  0.3951
 7334SOL    HW133461   3.889   1.988  13.642 -1.3296 -0.1051 -0.4071
 7334SOL    HW233462   3.971   1.926  13.541  0.1433 -0.0000  0.6420
 7335SOL     OW33463   4.266   3.607   4.733 -0.1447 -0.0999  0.3645
 7335SOL    HW133464   4.242   3.527   4.780  2.0600 -1.5902 -1.0517
 7335SOL    HW233465   4.360   3.595   4.723 -0.1163 -0.2561  0.8104
 7336SOL     OW33466   1.615   3.881  12.455  0.7769 -0.0067 -0.4902
 7336SOL    HW133467   1.613   3.791  12.487 -0.8792  1.0694  2.4456
 7336SOL    HW233468   1.525   3.899  12.428  0.1412 -2.6474 -0.0743
 7337SOL     OW33469   0.305   4.524   8.290  1.0110  0.0486 -0.1549
 7337SOL    HW133470   0.325   4.540   8.382  1.3320 -0.2352 -0.1733
 7337SOL    HW233471   0.364   4.587   8.248 -0.4940 -0.5046 -3.0782
 7338SOL     OW33472   2.905   1.617   3.183  0.3154  0.3578 -1.1087
 7338SOL    HW133473   2.896   1.626   3.088 -1.2554  1.7545 -0.8261
 7338SOL    HW233474   2.830   1.564   3.208  0.1328  1.0788 -0.0976
 7339SOL     OW33475   1.182   4.109   7.723 -0.2015 -0.2415  0.2106
 7339SOL    HW133476   1.232   4.054   7.784 -1.8461 -2.1897 -0.1942
 7339SOL    HW233477   1.225   4.080   7.643  0.5677  2.1726 -0.2564
 7340SOL     OW33478   4.232   1.464   5.153 -0.1363  0.5221  0.1732
 7340SOL    HW133479   4.293   1.505   5.215  0.5315  1.9792 -1.3963
 7340SOL    HW233480   4.179   1.415   5.215 -2.1145 -1.1659 -2.8399
 7341SOL     OW33481   3.523   4.239  14.113  0.3152 -0.1840  0.0868
 7341SOL    HW133482   3.434   4.206  14.119  1.1421 -2.4168 -0.0420
 7341SOL    HW233483   3.588   4.180  14.073 -0.2271  0.4385 -1.7074
 7342SOL     OW33484   0.703   3.374   8.162 -0.2716  0.8702  0.0334
 7342SOL    HW133485   0.633   3.392   8.099  0.3431  0.0490 -0.8895
 7342SOL    HW233486   0.782   3.410   8.122 -0.9222  0.5577 -1.5550
 7343SOL     OW33487   1.580   0.917  11.001 -0.0301  0.5918  0.4443
 7343SOL    HW133488   1.541   0.842  10.957 -1.5053 -0.1849  3.0871
 7343SOL    HW233489   1.543   0.988  10.949  0.3100  0.4908  0.0655
 7344SOL     OW33490   2.297   0.023   1.333 -0.3126 -0.1140  0.3711
 7344SOL    HW133491   2.350   0.103   1.342 -1.4194  0.6360  0.2157
 7344SOL    HW233492   2.238   0.017   1.408 -1.4502 -2.1206 -0.7027
 7345SOL     OW33493   1.367   3.717   0.094  0.1634  0.5225  0.6340
 7345SOL    HW133494   1.302   3.741   0.160 -0.8807 -0.8382  0.1209
 7345SOL    HW233495   1.318   3.656   0.038  0.2114  2.0575 -1.0632
 7346SOL     OW33496   2.966   4.406  16.788 -0.1736  0.6370 -0.2917
 7346SOL    HW133497   3.013   4.427  16.868 -0.4510  2.8325 -0.7172
 7346SOL    HW233498   3.025   4.426  16.715  1.1137  2.1067  1.1742
 7347SOL     OW33499   2.495   1.202   8.932 -0.1232 -0.1593  0.0536
 7347SOL    HW133500   2.446   1.282   8.921  0.4631  0.0528 -0.9748
 7347SOL    HW233501   2.460   1.152   9.006  2.2006 -0.0820  1.2253
 7348SOL     OW33502   1.167   4.531   9.462  0.1319  0.1773  0.2603
 7348SOL    HW133503   1.118   4.585   9.524 -2.5735 -1.1969 -0.6514
 7348SOL    HW233504   1.209   4.595   9.404  1.1160 -0.6348  0.0861
 7349SOL     OW33505   2.659   3.396  10.962  0.3749  0.1797  0.1064
 7349SOL    HW133506   2.571   3.421  10.932  0.6663  1.4169  0.2626
 7349SOL    HW233507   2.687   3.342  10.888  1.3151 -0.1695  0.7225
 7350SOL     OW33508   0.072   4.127   7.980  0.0590  0.8887 -0.0258
 7350SOL    HW133509   0.126   4.052   8.004  0.5185  1.5255  0.9439
 7350SOL    HW233510   0.117   4.203   8.018  1.0512 -0.4918  1.5632
 7351SOL     OW33511   1.962   2.945   2.861 -0.5631 -0.1433  0.1231
 7351SOL    HW133512   1.882   2.937   2.809  1.2370 -0.7849 -2.4979
 7351SOL    HW233513   1.977   3.038   2.844 -0.8963 -0.3232 -1.1707
 7352SOL     OW33514   0.785   3.967   4.261  0.3472 -0.1365  0.3948
 7352SOL    HW133515   0.833   3.895   4.302  1.3469  0.1640 -0.2466
 7352SOL    HW233516   0.851   3.995   4.198 -2.3003  0.3143 -2.2035
 7353SOL     OW33517   3.918   4.679   2.487  0.7662  0.1261 -0.0208
 7353SOL    HW133518   3.868   4.686   2.568  0.6847 -0.5390 -0.0205
 7353SOL    HW233519   3.855   4.706   2.420  1.1335  1.5378  0.1964
 7354SOL     OW33520   1.733   0.093   2.315 -0.3318  0.2666  0.5738
 7354SOL    HW133521   1.747   0.006   2.351  1.1501  0.2561 -0.0592
 7354SOL    HW233522   1.823   0.108   2.287 -0.7098  0.5747 -0.4583
 7355SOL     OW33523   1.537   1.198  15.914 -0.3841 -0.3627 -0.4072
 7355SOL    HW133524   1.604   1.130  15.906  0.9914  0.8935  0.4994
 7355SOL    HW233525   1.579   1.283  15.908 -0.0605 -0.4241  0.9802
 7356SOL     OW33526   2.060   3.866  11.660 -0.2452  0.0819 -0.1312
 7356SOL    HW133527   2.001   3.881  11.586 -1.7218 -0.6421  0.8961
 7356SOL    HW233528   2.128   3.832  11.601 -1.0521 -1.3286 -0.2481
 7357SOL     OW33529   3.119   0.133   1.578  0.6581  0.1116 -0.0599
 7357SOL    HW133530   3.156   0.215   1.545  1.5860 -0.4890 -0.5365
 7357SOL    HW233531   3.026   0.152   1.591 -0.1295 -1.7328 -3.0197
 7358SOL     OW33532   0.271   3.921  12.084 -0.5051 -0.1221 -0.9812
 7358SOL    HW133533   0.281   3.878  12.168  1.7490 -0.2108 -1.3122
 7358SOL    HW233534   0.204   3.983  12.115 -0.1215 -0.3026  0.1993
 7359SOL     OW33535   2.053   3.454   3.083  0.4838 -0.0364  0.2104
 7359SOL    HW133536   2.104   3.525   3.043 -1.1241  0.0635 -1.6757
 7359SOL    HW233537   2.128   3.394   3.091 -0.0904 -0.8052 -0.1981
 7360SOL     OW33538   1.403   1.346   9.543  0.4357 -0.1269 -0.6063
 7360SOL    HW133539   1.477   1.293   9.575  0.1672 -0.1398 -0.0147
 7360SOL    HW233540   1.326   1.298   9.573  0.4027  1.7381  2.2878
 7361SOL     OW33541   3.823   3.774   0.648  0.5063  0.2974  0.2377
 7361SOL    HW133542   3.901   3.719   0.659 -0.7071 -1.4457  0.1409
 7361SOL    HW233543   3.853   3.863   0.629 -0.4530  0.8335  1.2299
 7362SOL     OW33544   4.291   1.413   8.417  0.3815  0.2057 -0.0029
 7362SOL    HW133545   4.199   1.430   8.399  0.2036  0.9551  1.5830
 7362SOL    HW233546   4.324   1.443   8.332 -2.2698 -0.0717 -1.1124
 7363SOL     OW33547   1.800   2.367  14.141 -0.6190 -0.2540  0.0217
 7363SOL    HW133548   1.851   2.442  14.111 -2.5347  0.6780 -0.9011
 7363SOL    HW233549   1.834   2.360  14.230 -0.3159 -2.2027 -0.2360
 7364SOL     OW33550   2.676   3.825   4.375 -0.1548 -0.9348  0.1545
 7364SOL    HW133551   2.672   3.843   4.281  1.3910  0.7731  0.4183
 7364SOL    HW233552   2.665   3.730   4.365 -1.4050 -0.6555 -1.0549
 7365SOL     OW33553   1.881   1.888   2.418 -0.2057  0.5071  0.5769
 7365SOL    HW133554   1.826   1.876   2.341 -0.0488 -0.2654  0.5871
 7365SOL    HW233555   1.841   1.966   2.458 -2.8403  0.4682 -2.0723
 7366SOL     OW33556   0.178   2.679   4.033  0.1947 -0.0592 -0.2757
 7366SOL    HW133557   0.156   2.770   4.012 -0.0141 -0.6990 -2.9003
 7366SOL    HW233558   0.126   2.635   3.965 -0.3262  0.6627 -0.3444
 7367SOL     OW33559   1.291   4.024   3.205 -0.4296 -0.5607  0.0412
 7367SOL    HW133560   1.259   4.114   3.209  1.6016  0.2316 -1.7728
 7367SOL    HW233561   1.248   3.977   3.277  0.9090 -1.4222  0.2653
 7368SOL     OW33562   3.534   2.551   8.192 -0.1885 -0.0175 -0.5597
 7368SOL    HW133563   3.466   2.522   8.253  0.3732  0.3693  0.2394
 7368SOL    HW233564   3.535   2.641   8.225 -0.8714  0.4286 -1.7552
 7369SOL     OW33565   3.994   0.419   8.109 -0.2849  0.2949 -0.3851
 7369SOL    HW133566   3.945   0.462   8.039 -2.3737  0.1386  1.0094
 7369SOL    HW233567   3.964   0.468   8.185  2.4706 -0.3445  1.1124
 7370SOL     OW33568   1.464   4.393  10.321  0.1763  0.1719 -0.4251
 7370SOL    HW133569   1.499   4.466  10.372 -2.5863 -0.6514  2.6396
 7370SOL    HW233570   1.391   4.362  10.374  1.1710  1.5984  1.7566
 7371SOL     OW33571   2.458   3.742   5.573  0.1057 -0.3201 -0.5631
 7371SOL    HW133572   2.374   3.736   5.528 -1.4561 -0.6719  2.4187
 7371SOL    HW233573   2.516   3.700   5.509  0.7398  2.1054 -1.5826
 7372SOL     OW33574   1.592   2.916   9.103  0.6025  0.8565  0.3696
 7372SOL    HW133575   1.584   2.946   9.193 -0.0742 -1.3913  1.0472
 7372SOL    HW233576   1.501   2.927   9.076  0.4076  0.5828  0.9278
 7373SOL     OW33577   3.660   2.647   7.950 -0.4328 -0.9502  0.0577
 7373SOL    HW133578   3.610   2.585   8.005 -1.5456  0.0050  0.1198
 7373SOL    HW233579   3.607   2.656   7.871 -1.5860  0.0378  0.9422
 7374SOL     OW33580   0.193   2.061  13.529  0.5892 -0.4817  0.1554
 7374SOL    HW133581   0.182   2.142  13.578 -0.5782 -0.7187  0.3002
 7374SOL    HW233582   0.132   2.085  13.459  1.6170  0.2145 -0.4956
 7375SOL     OW33583   2.249   1.996   9.560 -0.2973  0.0418 -0.2412
 7375SOL    HW133584   2.322   2.046   9.524 -0.0086  1.6789  2.6511
 7375SOL    HW233585   2.187   2.032   9.497 -1.0048 -0.2329  0.2938
 7376SOL     OW33586   2.971   3.931   3.547 -0.1954 -0.1804  0.2521
 7376SOL    HW133587   2.972   3.836   3.561  1.5293  0.0023  1.3277
 7376SOL    HW233588   3.060   3.952   3.574  0.4784 -0.0380 -2.1574
 7377SOL     OW33589   4.048   4.166  15.118 -0.7712  0.2767  0.4634
 7377SOL    HW133590   3.983   4.233  15.097 -1.0185  0.4208  1.6875
 7377SOL    HW233591   4.122   4.219  15.089 -0.1697 -0.6385  0.3188
 7378SOL     OW33592   3.883   0.970   2.346 -0.2403 -0.1685  0.1003
 7378SOL    HW133593   3.921   1.049   2.384  1.8124 -1.4440  0.7015
 7378SOL    HW233594   3.845   1.004   2.266  0.7031  0.2138 -0.1900
 7379SOL     OW33595   3.002   3.918  12.246  0.0165  0.0381  0.4396
 7379SOL    HW133596   3.065   3.990  12.245 -0.6405  0.6115 -0.2242
 7379SOL    HW233597   3.066   3.848  12.254  1.5212  1.0231 -2.8458
 7380SOL     OW33598   2.252   1.273   7.806 -0.4459 -0.0141 -0.0906
 7380SOL    HW133599   2.236   1.365   7.824 -1.8736 -0.8474  2.9228
 7380SOL    HW233600   2.168   1.240   7.839 -0.8940 -1.5417 -2.7180
 7381SOL     OW33601   3.741   1.706   3.229 -0.0685  0.0817 -0.2591
 7381SOL    HW133602   3.692   1.788   3.232 -0.5947 -0.3491  2.5760
 7381SOL    HW233603   3.698   1.659   3.158 -0.2687  1.8776 -1.3189
 7382SOL     OW33604   0.419   4.126  11.300 -0.1072 -0.0661 -0.1326
 7382SOL    HW133605   0.361   4.195  11.333  1.5260  1.8920 -1.3324
 7382SOL    HW233606   0.465   4.168  11.228 -0.5756  0.3085 -0.2112
 7383SOL     OW33607   4.614   2.552   2.224 -0.2796  0.3286  0.6118
 7383SOL    HW133608   4.690   2.561   2.281  0.0433 -1.3131  0.4468
 7383SOL    HW233609   4.658   2.533   2.141 -0.7154 -0.0737  0.4691
 7384SOL     OW33610   4.263   2.556   6.966 -0.2243  0.0878  0.3566
 7384SOL    HW133611   4.175   2.591   6.978  0.1590  0.2725  2.6473
 7384SOL    HW233612   4.324   2.628   6.949 -0.7775  0.5677  0.4174
 7385SOL     OW33613   3.962   1.139  11.496 -0.2687  0.6271 -0.1718
 7385SOL    HW133614   3.929   1.114  11.410 -0.4094  1.4890 -0.3673
 7385SOL    HW233615   4.020   1.068  11.520 -1.8423 -0.0312  1.7447
 7386SOL     OW33616   4.641   3.418   5.561  0.3000 -0.1282  0.4000
 7386SOL    HW133617   4.558   3.446   5.599  0.4165  1.4893 -0.5358
 7386SOL    HW233618   4.690   3.498   5.581  0.8228 -0.3310 -0.0726
 7387SOL     OW33619   1.231   1.460   1.967  0.0597 -0.4793 -0.2758
 7387SOL    HW133620   1.282   1.518   2.024 -1.0307  0.1814  0.0398
 7387SOL    HW233621   1.280   1.380   1.987  0.1130  0.0525  1.8023
 7388SOL     OW33622   1.220   0.270   8.257 -0.6526 -0.2396 -0.4230
 7388SOL    HW133623   1.271   0.203   8.302  1.1367  1.6208  0.3492
 7388SOL    HW233624   1.204   0.327   8.332  1.3456 -0.1150 -0.0999
 7389SOL     OW33625   2.554   0.428   2.722  0.0918 -0.5086 -0.0587
 7389SOL    HW133626   2.498   0.457   2.649 -0.7235 -0.2254  0.6730
 7389SOL    HW233627   2.495   0.392   2.788 -0.7933 -1.5451 -1.4142
 7390SOL     OW33628   2.493   0.411   5.381  0.3368  0.2036 -0.2695
 7390SOL    HW133629   2.418   0.430   5.437  1.3548 -0.7987  1.4363
 7390SOL    HW233630   2.453   0.400   5.295  2.4428  0.9140 -1.3477
 7391SOL     OW33631   0.451   3.958  11.662 -0.0644  0.7030  0.4381
 7391SOL    HW133632   0.439   3.911  11.580  0.0945  1.0308  0.2264
 7391SOL    HW233633   0.536   4.001  11.656 -0.4328  1.5644  1.3562
 7392SOL     OW33634   3.434   0.705  15.279 -0.2587  0.5237 -0.1317
 7392SOL    HW133635   3.429   0.635  15.214  0.7034  1.0367 -0.7546
 7392SOL    HW233636   3.449   0.658  15.361 -2.2183  0.1823  0.0346
 7393SOL     OW33637   1.105   1.672   4.176  0.0364 -0.1604  0.0335
 7393SOL    HW133638   1.025   1.705   4.135 -0.0438 -0.8662 -0.3789
 7393SOL    HW233639   1.165   1.745   4.189  0.2756  0.0188 -2.1524
 7394SOL     OW33640   1.234   0.962  13.973  0.1742 -0.0705 -0.0288
 7394SOL    HW133641   1.281   0.970  14.056 -0.6647  1.1233  0.3229
 7394SOL    HW233642   1.239   1.053  13.942  0.1344  0.0376  0.2862
 7395SOL     OW33643   3.989   4.337   3.661  0.2063  0.1517  0.4679
 7395SOL    HW133644   4.043   4.331   3.582 -0.4439  2.7920 -0.1879
 7395SOL    HW233645   4.032   4.275   3.718 -2.1849 -0.6748  1.3866
 7396SOL     OW33646   3.675   3.932   5.471 -0.0475  0.1847 -0.0230
 7396SOL    HW133647   3.757   3.954   5.514  1.4125 -1.0048 -2.1883
 7396SOL    HW233648   3.676   3.837   5.486  2.4705  0.1259 -0.5851
 7397SOL     OW33649   2.789   4.167  12.934 -0.8633  0.3276 -0.4557
 7397SOL    HW133650   2.740   4.086  12.944 -0.6311  0.2540  0.1014
 7397SOL    HW233651   2.867   4.141  12.883  0.0213  0.4196  0.8513
 7398SOL     OW33652   4.387   2.375   2.124 -0.0089  0.0359  0.1853
 7398SOL    HW133653   4.447   2.450   2.119 -1.4445  0.8886 -4.4260
 7398SOL    HW233654   4.340   2.388   2.207  0.8040  0.0594  0.6404
 7399SOL     OW33655   1.163   1.748   2.738  0.6207  0.2063 -0.0943
 7399SOL    HW133656   1.110   1.740   2.658  0.2209 -0.6350  0.2558
 7399SOL    HW233657   1.245   1.702   2.717 -0.5814 -1.8411 -0.3364
 7400SOL     OW33658   4.435   2.664   9.865 -0.2639 -0.7810  0.6514
 7400SOL    HW133659   4.404   2.596   9.925  1.3499 -0.8481  1.4024
 7400SOL    HW233660   4.478   2.609   9.800  0.6500  1.0403 -0.2716
 7401SOL     OW33661   1.810   3.668  15.094 -0.1275  0.2741 -0.1095
 7401SOL    HW133662   1.832   3.593  15.038 -0.8932  0.0663 -0.1364
 7401SOL    HW233663   1.851   3.739  15.044  0.3105  0.4905  0.5553
 7402SOL     OW33664   3.461   1.703   7.790 -0.0152 -0.1983  0.1115
 7402SOL    HW133665   3.422   1.748   7.714  0.1467  0.7044  0.5609
 7402SOL    HW233666   3.447   1.613   7.761 -1.1668 -0.3127  1.0144
 7403SOL     OW33667   3.976   0.655   3.499  0.3673  0.3294  0.0999
 7403SOL    HW133668   3.909   0.711   3.460  0.4643 -0.0067 -0.5487
 7403SOL    HW233669   3.934   0.574   3.471 -1.6513  0.9590  1.3029
 7404SOL     OW33670   2.392   3.115   8.713  0.1660 -0.0099  0.0381
 7404SOL    HW133671   2.420   3.056   8.782  1.4232  0.3907 -0.1440
 7404SOL    HW233672   2.346   3.178   8.768  1.1573  1.4524 -0.8346
 7405SOL     OW33673   0.918   3.379   2.038 -0.0749  0.0170 -0.2727
 7405SOL    HW133674   0.831   3.417   2.050  0.6862  0.5947  3.3638
 7405SOL    HW233675   0.893   3.286   2.036  0.2625 -0.0683 -0.4263
 7406SOL     OW33676   3.391   0.635  17.353  0.0604  0.1220  0.1885
 7406SOL    HW133677   3.328   0.676  17.412 -0.2283  0.2015 -0.1734
 7406SOL    HW233678   3.386   0.547  17.390  1.7143  0.5278  1.3542
 7407SOL     OW33679   4.094   1.709   4.909 -0.0066  0.7252 -0.2383
 7407SOL    HW133680   4.029   1.731   4.976  0.3216  0.3745  0.1930
 7407SOL    HW233681   4.173   1.752   4.943  0.1039  0.9543 -0.7934
 7408SOL     OW33682   4.371   0.253   8.119 -0.1111 -0.0599  0.1416
 7408SOL    HW133683   4.346   0.260   8.211  1.4991 -1.6688  0.7006
 7408SOL    HW233684   4.332   0.334   8.085 -0.1119  0.0906  0.5080
 7409SOL     OW33685   1.141   0.574  12.002 -0.0156  0.3552  0.5138
 7409SOL    HW133686   1.113   0.515  11.932 -0.4122 -0.1996  1.1445
 7409SOL    HW233687   1.236   0.567  12.002 -0.0522 -0.2612 -3.1294
 7410SOL     OW33688   4.197   1.854   7.577  0.2853 -0.7417  0.5077
 7410SOL    HW133689   4.137   1.801   7.524 -1.3810 -0.6989  2.3734
 7410SOL    HW233690   4.124   1.895   7.622  0.0274  0.5302 -1.0563
 7411SOL     OW33691   0.140   1.790  15.092 -0.4274 -0.0031 -0.0112
 7411SOL    HW133692   0.179   1.852  15.030 -0.1053  0.6238  0.8208
 7411SOL    HW233693   0.146   1.712  15.036 -1.0583 -0.5467  0.6699
 7412SOL     OW33694   2.723   2.377   6.364 -0.1895  0.5228  0.1192
 7412SOL    HW133695   2.697   2.285   6.370 -0.6077  0.4855 -2.0828
 7412SOL    HW233696   2.810   2.370   6.324  0.2078  3.4238  0.5341
 7413SOL     OW33697   1.697   3.104   5.160  0.0926  0.5477 -0.5924
 7413SOL    HW133698   1.744   3.173   5.206 -0.5815 -0.1633  1.1398
 7413SOL    HW233699   1.722   3.118   5.068 -0.5098  2.3335 -0.4738
 7414SOL     OW33700   1.022   1.430   4.890 -0.3893  0.3534  0.6167
 7414SOL    HW133701   1.086   1.370   4.930  0.2374  0.1580 -0.6682
 7414SOL    HW233702   1.002   1.486   4.965 -1.9815 -0.5435  0.8518
 7415SOL     OW33703   3.027   3.388  14.794  0.2578  0.1286 -0.3537
 7415SOL    HW133704   3.082   3.410  14.718  0.8931  0.0864  0.0971
 7415SOL    HW233705   3.091   3.413  14.861  0.3022  1.1505 -0.7778
 7416SOL     OW33706   0.159   3.601   8.417  0.0740  0.1645  0.2880
 7416SOL    HW133707   0.068   3.630   8.413  0.7460  2.0274 -1.3902
 7416SOL    HW233708   0.161   3.552   8.335  1.4294  0.9500 -0.1479
 7417SOL     OW33709   2.390   0.644   8.947  0.0030  0.4605 -0.5227
 7417SOL    HW133710   2.469   0.593   8.930 -0.0057  0.0006  0.8392
 7417SOL    HW233711   2.391   0.705   8.873  0.5038  0.9512 -0.1066
 7418SOL     OW33712   0.898   2.235   3.946 -0.1759 -0.3473  0.4604
 7418SOL    HW133713   0.931   2.273   4.028  1.1018  0.1058 -0.2543
 7418SOL    HW233714   0.892   2.308   3.884  0.4055 -0.1479  0.6290
 7419SOL     OW33715   0.876   2.012  13.477 -0.3850 -0.3813  0.4586
 7419SOL    HW133716   0.961   2.054  13.462  1.1062 -2.8925  1.9333
 7419SOL    HW233717   0.895   1.977  13.564 -0.4045 -0.3292  0.4843
 7420SOL     OW33718   2.682   0.599   7.298  0.7985  0.3695 -0.1340
 7420SOL    HW133719   2.701   0.545   7.375 -0.3594 -0.3985 -0.3779
 7420SOL    HW233720   2.717   0.537   7.234  0.8037 -0.4869  0.6933
 7421SOL     OW33721   2.135   3.943   3.780 -0.0589 -0.1982 -0.5138
 7421SOL    HW133722   2.133   4.034   3.810 -1.0739 -0.0524 -1.0626
 7421SOL    HW233723   2.057   3.897   3.812  0.5829 -0.4541  0.6922
 7422SOL     OW33724   4.326   2.595   4.709 -0.2639  0.3524  0.4543
 7422SOL    HW133725   4.277   2.542   4.647  1.7683 -1.5718  0.5251
 7422SOL    HW233726   4.254   2.642   4.752  0.7037  1.5266  0.7950
 7423SOL     OW33727   3.032   1.565   9.432 -1.0387 -0.1421 -0.2401
 7423SOL    HW133728   2.948   1.572   9.478  0.1597  0.7297  1.8122
 7423SOL    HW233729   3.022   1.635   9.366  0.2476 -0.5941 -0.9083
 7424SOL     OW33730   3.987   3.683   2.162 -0.1105 -0.2315  0.0543
 7424SOL    HW133731   3.894   3.678   2.186  0.0562 -2.2239  0.2333
 7424SOL    HW233732   4.030   3.635   2.232  0.1350 -1.2491 -0.8097
 7425SOL     OW33733   3.658   4.206   7.794 -0.3102 -0.0868 -0.7492
 7425SOL    HW133734   3.681   4.182   7.884  2.6439  0.6494 -1.2939
 7425SOL    HW233735   3.725   4.270   7.770 -2.3605  3.0153  1.8859
 7426SOL     OW33736   2.048   3.951   6.654  0.1375  0.0621  0.6620
 7426SOL    HW133737   2.038   3.993   6.568  0.7676 -3.1895 -0.9876
 7426SOL    HW233738   2.125   4.000   6.681 -2.2456  3.5039  1.3387
 7427SOL     OW33739   0.215   3.658   8.681 -0.1476 -0.0077 -0.0091
 7427SOL    HW133740   0.311   3.657   8.689 -0.2182  1.7155  0.9759
 7427SOL    HW233741   0.204   3.644   8.587  2.2916 -2.0911  0.0098
 7428SOL     OW33742   4.123   2.121   5.140  0.7448  0.1374  0.2487
 7428SOL    HW133743   4.066   2.195   5.163 -2.1707 -1.4457 -1.9488
 7428SOL    HW233744   4.174   2.150   5.064  0.9900  0.8247  0.6745
 7429SOL     OW33745   1.457   2.740   2.825  0.6368  0.1738 -0.0967
 7429SOL    HW133746   1.379   2.794   2.821 -1.9917 -3.4785  1.4185
 7429SOL    HW233747   1.447   2.682   2.750  1.2220 -1.9182  1.4132
 7430SOL     OW33748   0.386   0.478  13.509  0.5418 -0.0798 -0.6708
 7430SOL    HW133749   0.375   0.501  13.417  2.3668 -0.2338 -0.9228
 7430SOL    HW233750   0.385   0.382  13.507  0.6641 -0.1811  2.8634
 7431SOL     OW33751   3.196   2.993   2.455 -0.0938  0.2004  0.1803
 7431SOL    HW133752   3.152   2.977   2.539 -0.8932 -3.1838 -0.9004
 7431SOL    HW233753   3.279   2.948   2.471  0.3714 -0.0541 -2.8665
 7432SOL     OW33754   1.360   1.068   3.950 -0.3698  0.2182  0.3470
 7432SOL    HW133755   1.274   1.028   3.955  0.7198 -1.9752  1.4501
 7432SOL    HW233756   1.350   1.157   3.916 -0.9933 -0.0222 -0.0968
 7433SOL     OW33757   0.115   3.768   0.225  0.0070 -0.6533  0.4967
 7433SOL    HW133758   0.084   3.733   0.141 -1.3342  3.2659 -0.6564
 7433SOL    HW233759   0.174   3.839   0.200 -1.8538  1.6517  2.7127
 7434SOL     OW33760   4.635   2.718   5.811 -0.7048 -0.2745 -0.2204
 7434SOL    HW133761   4.664   2.630   5.836 -0.0913  0.4911  1.8057
 7434SOL    HW233762   4.562   2.694   5.754 -0.1515 -2.7130  0.0852
 7435SOL     OW33763   2.161   0.565   2.319  0.0066  0.2527  0.3906
 7435SOL    HW133764   2.175   0.570   2.413  1.9618  2.0027  0.0088
 7435SOL    HW233765   2.068   0.543   2.317 -0.0327  0.3458  1.2057
 7436SOL     OW33766   4.214   3.018   9.805  0.1286  0.2831 -0.3225
 7436SOL    HW133767   4.309   3.015   9.809  0.0289 -1.3961  0.9759
 7436SOL    HW233768   4.205   2.938   9.753  0.4311  0.3096 -0.4129
 7437SOL     OW33769   0.407   3.343  14.329  0.1127 -0.2751  0.3419
 7437SOL    HW133770   0.343   3.392  14.381  1.9547  0.0808  2.2660
 7437SOL    HW233771   0.492   3.377  14.359 -0.5633  0.6979  1.1668
 7438SOL     OW33772   4.045   1.824  16.404 -0.6109  0.0662  0.4480
 7438SOL    HW133773   4.074   1.912  16.378  0.6371  0.4114  3.0426
 7438SOL    HW233774   3.984   1.844  16.475 -1.3093 -0.2965 -0.0432
 7439SOL     OW33775   4.493   3.615   0.567 -0.1278  0.1658 -0.3575
 7439SOL    HW133776   4.476   3.710   0.564  0.2467  0.2038 -1.3194
 7439SOL    HW233777   4.523   3.592   0.479 -0.5313 -0.2645 -0.3789
 7440SOL     OW33778   3.569   0.634  17.104 -0.5392 -0.3922 -0.0259
 7440SOL    HW133779   3.527   0.619  17.189  1.2019  1.4147  1.1438
 7440SOL    HW233780   3.659   0.643  17.134  0.0887  0.1614 -2.0816
 7441SOL     OW33781   2.868   0.085   0.863  0.0625  0.1689  0.4630
 7441SOL    HW133782   2.882   0.093   0.957 -0.2554 -1.1561  0.6211
 7441SOL    HW233783   2.827   0.168   0.837  0.1613 -0.5211 -1.9531
 7442SOL     OW33784   3.462   0.774   8.210 -0.1035  0.1309  0.1860
 7442SOL    HW133785   3.536   0.834   8.220  0.3038 -0.6252  1.7668
 7442SOL    HW233786   3.503   0.699   8.167 -2.0285 -0.2313 -1.0108
 7443SOL     OW33787   3.116   2.030   4.027  0.6790  0.4234 -0.2532
 7443SOL    HW133788   3.186   2.014   4.090 -0.5934  1.9577  1.5488
 7443SOL    HW233789   3.139   1.977   3.950  0.2960 -1.3039  0.8399
 7444SOL     OW33790   4.484   2.086   8.824  0.0333  0.1675  0.4420
 7444SOL    HW133791   4.419   2.132   8.772  0.3324  1.5107  1.2525
 7444SOL    HW233792   4.493   2.000   8.783  1.9163  0.4617  0.2232
 7445SOL     OW33793   3.597   2.042   4.347  0.2662  0.2640  0.5114
 7445SOL    HW133794   3.562   1.953   4.352  1.4190 -0.2747 -0.8524
 7445SOL    HW233795   3.522   2.099   4.334 -0.3365 -0.7232 -0.3767
 7446SOL     OW33796   2.368   4.126   8.282 -0.0933  0.6066 -0.3448
 7446SOL    HW133797   2.462   4.138   8.270  0.0273 -1.1565 -1.2115
 7446SOL    HW233798   2.366   4.109   8.376  1.1320  0.2284 -0.3912
 7447SOL     OW33799   1.824   2.745   0.541 -0.6769  0.2491  0.0488
 7447SOL    HW133800   1.863   2.782   0.462 -0.2752 -0.5942 -0.1416
 7447SOL    HW233801   1.802   2.829   0.581  0.6003 -0.1254  1.5216
 7448SOL     OW33802   1.410   2.339   9.316  0.8443 -0.0077 -0.3261
 7448SOL    HW133803   1.398   2.269   9.380 -1.9269  1.0599  0.3180
 7448SOL    HW233804   1.496   2.376   9.337  0.4243 -1.2627  3.7128
 7449SOL     OW33805   0.459   3.410   7.406 -0.2545  0.1156  0.5886
 7449SOL    HW133806   0.465   3.326   7.452  1.4963 -0.5388 -0.8546
 7449SOL    HW233807   0.385   3.401   7.346  0.1865 -1.3403  0.2693
 7450SOL     OW33808   2.152   3.183   0.551 -0.0886 -0.2130  0.0094
 7450SOL    HW133809   2.142   3.224   0.637 -1.8479 -0.9301  0.1514
 7450SOL    HW233810   2.192   3.254   0.500 -0.7127 -0.4160 -0.7527
 7451SOL     OW33811   0.769   0.960  12.997  0.2030  0.0821  0.4470
 7451SOL    HW133812   0.733   0.960  12.908  0.2171 -0.6110  0.4355
 7451SOL    HW233813   0.797   1.051  13.004 -0.9312  0.4201  0.5523
 7452SOL     OW33814   0.687   1.361   6.176  0.5302 -0.2656 -0.1439
 7452SOL    HW133815   0.597   1.331   6.160  0.2625 -0.1506  1.1918
 7452SOL    HW233816   0.706   1.318   6.259  0.3143 -1.1105 -0.5306
 7453SOL     OW33817   4.444   3.356  14.829 -0.1521  0.1644  0.6621
 7453SOL    HW133818   4.362   3.323  14.866  0.9251 -1.0515  1.9768
 7453SOL    HW233819   4.501   3.281  14.845 -0.4902 -0.7855 -2.5695
 7454SOL     OW33820   4.577   2.146   2.277  0.1688 -0.1012 -0.4166
 7454SOL    HW133821   4.628   2.178   2.202  1.9804 -0.8632  0.4935
 7454SOL    HW233822   4.508   2.212   2.280  2.2146  1.9361  1.7334
 7455SOL     OW33823   2.404   1.942   7.444  0.1035  0.1027  0.3372
 7455SOL    HW133824   2.461   1.929   7.519  1.4691  0.6972 -0.5927
 7455SOL    HW233825   2.390   2.036   7.453  0.7619  0.2008  0.3136
 7456SOL     OW33826   2.864   4.424  17.544  0.6281 -0.4561  0.5675
 7456SOL    HW133827   2.951   4.451  17.515 -0.5779  1.8779 -0.8274
 7456SOL    HW233828   2.883   4.436  17.638 -1.6835 -3.0347  1.3751
 7457SOL     OW33829   1.975   3.000  13.424 -0.0855  0.1175  0.1238
 7457SOL    HW133830   1.889   3.043  13.427  0.1338  0.6951 -1.7356
 7457SOL    HW233831   1.995   2.976  13.333 -0.1119  1.0861 -0.1351
 7458SOL     OW33832   0.764   4.613   6.601 -0.1522 -0.0446 -0.1862
 7458SOL    HW133833   0.670   4.597   6.595 -0.0041 -2.0447  3.0856
 7458SOL    HW233834   0.780   4.698   6.559  1.2666 -0.0665  0.3222
 7459SOL     OW33835   0.559   3.462   7.918 -0.0598  0.2198 -0.8797
 7459SOL    HW133836   0.529   3.464   7.827 -2.8292  0.9236  0.0477
 7459SOL    HW233837   0.496   3.520   7.960  0.1036 -0.3692  0.1908
 7460SOL     OW33838   3.716   0.193   0.120  0.6015  0.0029  0.4187
 7460SOL    HW133839   3.697   0.278   0.160  4.1032  0.9716 -0.0612
 7460SOL    HW233840   3.670   0.196   0.036  2.5826  2.2418 -0.5775
 7461SOL     OW33841   2.244   0.269   4.769 -0.1537  0.3527  0.0478
 7461SOL    HW133842   2.253   0.282   4.674  1.2712 -1.8046 -0.1194
 7461SOL    HW233843   2.331   0.291   4.801  0.5611  2.0047 -3.0472
 7462SOL     OW33844   3.801   0.503   8.732 -0.6246  0.2856  0.3259
 7462SOL    HW133845   3.788   0.532   8.822  0.2572 -0.3827  0.6727
 7462SOL    HW233846   3.812   0.408   8.735 -0.5148  0.2384 -1.5518
 7463SOL     OW33847   4.641   2.355  11.052  0.3149 -0.1895 -0.0539
 7463SOL    HW133848   4.643   2.450  11.040  2.5378  0.1827  2.9274
 7463SOL    HW233849   4.563   2.335  11.104  0.4326  0.1197  0.2443
 7464SOL     OW33850   3.627   4.377   7.029 -0.4586 -0.5091  0.6462
 7464SOL    HW133851   3.698   4.404   7.087  1.0721 -1.6954 -0.6893
 7464SOL    HW233852   3.587   4.315   7.091 -1.4838 -0.3365  0.1593
 7465SOL     OW33853   4.375   1.530   7.654  0.3566  0.2502 -0.3811
 7465SOL    HW133854   4.377   1.540   7.749 -1.0620  3.1009 -0.6375
 7465SOL    HW233855   4.382   1.622   7.628 -1.6108 -0.1682 -2.3810
 7466SOL     OW33856   1.862   2.486   0.379 -0.1152  0.2095 -0.2435
 7466SOL    HW133857   1.838   2.577   0.394 -0.1953  0.3923 -1.5151
 7466SOL    HW233858   1.773   2.451   0.372 -0.4130  0.1416  4.0830
 7467SOL     OW33859   1.688   3.905   4.425 -0.0190 -0.0998 -0.2849
 7467SOL    HW133860   1.739   3.978   4.460 -2.3260  1.5890 -0.4059
 7467SOL    HW233861   1.726   3.835   4.477 -1.9545 -1.4534 -0.6759
 7468SOL     OW33862   0.999   3.293   4.086  0.1285  0.7035  0.2863
 7468SOL    HW133863   1.016   3.199   4.079 -0.8990  0.4585  1.1026
 7468SOL    HW233864   1.029   3.314   4.174  1.1914 -0.2602  0.1589
 7469SOL     OW33865   0.409   3.211   9.362  0.0706 -0.7516  0.0710
 7469SOL    HW133866   0.481   3.220   9.424  0.4520 -1.9080 -0.2031
 7469SOL    HW233867   0.456   3.198   9.280 -2.6737  1.0962 -1.7881
 7470SOL     OW33868   1.834   3.935  15.707  0.0895 -0.4682 -0.1746
 7470SOL    HW133869   1.850   3.900  15.619  2.8224  0.5299 -0.0665
 7470SOL    HW233870   1.834   3.850  15.752 -0.3026  0.4947  1.6159
 7471SOL     OW33871   2.014   4.663   1.762  0.0499  0.2178  0.1222
 7471SOL    HW133872   1.922   4.660   1.735 -0.3574  0.9969  1.4252
 7471SOL    HW233873   2.007   0.014   1.825  0.3670  0.8859 -0.6157
 7472SOL     OW33874   1.590   1.030   4.821 -0.2011  0.3747 -0.3644
 7472SOL    HW133875   1.570   0.972   4.748  2.2608 -0.0165 -0.7399
 7472SOL    HW233876   1.507   1.075   4.830  0.2077  0.1916  4.8909
 7473SOL     OW33877   0.762   3.062   5.590  0.4142  0.3119  0.2562
 7473SOL    HW133878   0.772   3.144   5.540 -0.3122 -0.5642 -1.3208
 7473SOL    HW233879   0.690   3.082   5.651  0.7861 -0.8607  1.0636
 7474SOL     OW33880   3.978   2.274   7.730  0.3716  0.4410  0.0212
 7474SOL    HW133881   3.994   2.368   7.724  2.9824 -0.0059 -0.0070
 7474SOL    HW233882   3.883   2.275   7.745  0.2833  0.5491 -0.5421
 7475SOL     OW33883   1.478   1.625   8.024 -0.1827 -0.4257  0.3578
 7475SOL    HW133884   1.400   1.677   8.047 -1.9474 -2.8254 -0.1560
 7475SOL    HW233885   1.442   1.587   7.944  0.5919 -1.0552  0.3184
 7476SOL     OW33886   4.549   1.436  11.154  0.0288  0.0739  0.2533
 7476SOL    HW133887   4.506   1.393  11.228 -0.9071 -1.2782 -1.0662
 7476SOL    HW233888   4.511   1.524  11.153 -1.5712 -0.6110  0.3688
 7477SOL     OW33889   1.348   2.417   8.440  0.0272  0.3991 -0.5087
 7477SOL    HW133890   1.354   2.322   8.447  1.3021  0.4173 -1.3221
 7477SOL    HW233891   1.317   2.425   8.350 -0.0102 -0.8498 -0.6099
 7478SOL     OW33892   3.718   3.024   5.936 -0.0284  0.3229 -0.0390
 7478SOL    HW133893   3.706   3.083   5.861  0.9477  1.7247  0.9083
 7478SOL    HW233894   3.762   3.081   5.999 -0.6046  0.0418  0.6152
 7479SOL     OW33895   0.433   0.022   8.171  0.3138 -0.3853 -0.1279
 7479SOL    HW133896   0.455   0.031   8.264 -0.7289 -0.9080  0.1634
 7479SOL    HW233897   0.520   0.015   8.132 -0.1079 -0.9395 -0.9605
 7480SOL     OW33898   2.755   2.763  10.137 -0.1219 -0.2941 -0.5844
 7480SOL    HW133899   2.840   2.768  10.094  0.2334 -0.7325  0.0824
 7480SOL    HW233900   2.773   2.735  10.227 -2.0535  2.6124  0.7066
 7481SOL     OW33901   4.350   1.181  12.213  0.1375 -0.3318 -0.2254
 7481SOL    HW133902   4.302   1.224  12.142 -0.1999  1.9068  1.3696
 7481SOL    HW233903   4.435   1.224  12.200  0.4493 -0.4313  1.4278
 7482SOL     OW33904   4.303   2.094  12.134  0.1899 -0.1618  0.0912
 7482SOL    HW133905   4.219   2.111  12.175 -1.8148 -0.7417 -3.7516
 7482SOL    HW233906   4.313   2.184  12.102 -1.9242  0.0369  0.0268
 7483SOL     OW33907   2.910   1.372   6.183  0.9167  0.3330 -0.7172
 7483SOL    HW133908   2.917   1.281   6.212  2.0338  1.1932  1.6628
 7483SOL    HW233909   2.980   1.411   6.236 -2.7041  4.6032  0.8553
 7484SOL     OW33910   3.510   3.867  12.281  0.3658  0.0916  0.4527
 7484SOL    HW133911   3.567   3.896  12.352 -0.4096  0.6406  0.8387
 7484SOL    HW233912   3.469   3.950  12.258  1.5483  0.5000 -0.1716
 7485SOL     OW33913   0.093   4.628  13.466 -0.2292  0.2232  0.3830
 7485SOL    HW133914   0.107   4.658  13.376 -0.7667  0.1283  0.2657
 7485SOL    HW233915   0.093   4.707  13.520  0.5710  1.9635 -2.1613
 7486SOL     OW33916   1.179   1.311   2.689  0.4053  0.1849 -0.1709
 7486SOL    HW133917   1.098   1.342   2.648  0.5005  0.7037  0.0308
 7486SOL    HW233918   1.156   1.233   2.739  2.5461 -0.6533 -0.5133
 7487SOL     OW33919   4.057   1.525   8.269 -0.0810 -0.5558 -0.4186
 7487SOL    HW133920   4.128   1.589   8.263 -1.4174  0.8972 -0.7243
 7487SOL    HW233921   4.071   1.473   8.190  0.6463 -1.7372  0.4965
 7488SOL     OW33922   1.885   2.572   2.648 -0.1053 -0.2674 -0.0183
 7488SOL    HW133923   1.925   2.642   2.700  1.8277 -0.5442 -1.1431
 7488SOL    HW233924   1.805   2.556   2.698 -1.8777 -0.3645 -2.8979
 7489SOL     OW33925   1.012   2.275   5.212 -0.2046 -0.4055 -0.2787
 7489SOL    HW133926   1.020   2.369   5.194 -0.1334 -0.3950 -0.1924
 7489SOL    HW233927   1.086   2.259   5.270 -1.0453 -2.1484  0.3371
 7490SOL     OW33928   2.546   3.907   6.598  0.2631 -0.1463  0.1147
 7490SOL    HW133929   2.529   3.818   6.567  2.9364 -0.0546 -1.5375
 7490SOL    HW233930   2.641   3.913   6.596  0.2639  0.2976  1.3911
 7491SOL     OW33931   1.449   1.422   1.190  0.3437 -0.3322  0.5877
 7491SOL    HW133932   1.528   1.395   1.237  0.8533  1.1342  0.5702
 7491SOL    HW233933   1.401   1.339   1.187 -1.4974  0.6943  1.6199
 7492SOL     OW33934   3.341   0.758   3.768  0.5929 -0.0675  0.5877
 7492SOL    HW133935   3.409   0.759   3.835  2.6112  2.2457 -1.4986
 7492SOL    HW233936   3.357   0.678   3.717 -0.9950 -0.8103  1.2585
 7493SOL     OW33937   4.173   3.270   6.591  0.0266 -0.1231 -0.2591
 7493SOL    HW133938   4.222   3.345   6.625  1.4290 -0.2005 -2.0711
 7493SOL    HW233939   4.246   3.214   6.564  1.8142  1.5860  1.0274
 7494SOL     OW33940   1.058   0.908  12.931 -0.2724 -0.1455  0.2356
 7494SOL    HW133941   1.018   0.939  12.850 -0.7682  0.5678  0.7550
 7494SOL    HW233942   0.974   0.905  12.978  1.1825 -1.3521  2.7670
 7495SOL     OW33943   3.394   1.566   2.627 -0.1839  0.0229  0.0021
 7495SOL    HW133944   3.363   1.579   2.537 -1.6189 -0.5933  0.4233
 7495SOL    HW233945   3.312   1.547   2.671 -0.5835 -0.5290 -0.9816
 7496SOL     OW33946   0.498   0.050   2.514  0.0094  0.2832  0.5107
 7496SOL    HW133947   0.501   0.019   2.423 -1.0408 -1.7481  1.1666
 7496SOL    HW233948   0.590   0.061   2.534  0.1414 -0.7881  0.5178
 7497SOL     OW33949   3.518   4.615  13.076  0.0972  0.5940 -0.0956
 7497SOL    HW133950   3.576   4.608  13.152 -0.0145  2.3376  0.1527
 7497SOL    HW233951   3.436   4.575  13.105 -0.3715  1.0317 -0.8266
 7498SOL     OW33952   0.186   3.078   6.789  0.3614 -0.3136 -0.2474
 7498SOL    HW133953   0.121   3.055   6.723 -0.3181  0.9860 -0.0291
 7498SOL    HW233954   0.129   3.120   6.853 -1.8349 -1.3556 -1.5223
 7499SOL     OW33955   3.779   0.933   3.702  0.2782 -0.0566 -0.1436
 7499SOL    HW133956   3.867   0.905   3.677 -1.2702 -2.5446 -2.7964
 7499SOL    HW233957   3.738   0.846   3.707 -1.6690  0.9040  0.8631
 7500SOL     OW33958   1.773   2.941   5.921 -0.6640 -0.1742  0.0509
 7500SOL    HW133959   1.744   2.997   5.849 -0.7180  0.0829  0.2738
 7500SOL    HW233960   1.699   2.949   5.981 -0.7104 -0.0997 -0.0157
 7501SOL     OW33961   1.004   2.447   6.169  0.6781 -0.1095 -0.2436
 7501SOL    HW133962   1.078   2.391   6.147 -1.4060 -2.2166 -1.7862
 7501SOL    HW233963   0.938   2.432   6.102 -1.9619  0.1751  2.2492
 7502SOL     OW33964   3.885   1.802   1.024  0.3238 -0.0456 -0.1938
 7502SOL    HW133965   3.900   1.834   0.935 -1.7629  0.1621 -0.4695
 7502SOL    HW233966   3.874   1.709   1.004  0.4126  0.5147 -2.8194
 7503SOL     OW33967   3.669   0.534   3.352 -0.7701 -0.1890  0.0331
 7503SOL    HW133968   3.739   0.490   3.400  1.9720  0.5789 -3.2458
 7503SOL    HW233969   3.684   0.625   3.379 -0.9863 -0.0422 -0.3355
 7504SOL     OW33970   2.439   0.406   8.488  0.2427  0.6061 -0.4507
 7504SOL    HW133971   2.508   0.374   8.430  0.5870 -0.5166  0.5974
 7504SOL    HW233972   2.456   0.352   8.565 -0.0075  0.3613 -0.5647
 7505SOL     OW33973   0.745   3.368   6.815  0.0197  0.3607 -0.5818
 7505SOL    HW133974   0.769   3.377   6.908  0.6566  0.8364 -0.7936
 7505SOL    HW233975   0.733   3.459   6.789 -1.8325  0.0023 -0.9495
 7506SOL     OW33976   3.097   1.997   9.263 -0.0961 -0.3058 -0.0404
 7506SOL    HW133977   3.076   2.006   9.170  1.7680  2.6239 -0.1914
 7506SOL    HW233978   3.038   2.062   9.302 -0.0209 -0.2355 -0.0438
 7507SOL     OW33979   1.172   0.180   3.307  0.3283 -0.1548  0.1669
 7507SOL    HW133980   1.251   0.126   3.308  1.2453  1.2076  1.3623
 7507SOL    HW233981   1.110   0.121   3.350 -1.6874  1.7363 -0.1344
 7508SOL     OW33982   0.811   1.711   4.319  0.0767  0.1326 -0.3164
 7508SOL    HW133983   0.810   1.617   4.339 -1.5733 -0.1728 -1.8724
 7508SOL    HW233984   0.761   1.697   4.239 -1.1971 -1.1434  0.7037
 7509SOL     OW33985   4.525   1.732   4.567 -0.2606 -0.0903  0.2066
 7509SOL    HW133986   4.467   1.667   4.607  0.2590 -0.3398  0.5511
 7509SOL    HW233987   4.609   1.687   4.559 -1.4000 -2.3341  0.9228
 7510SOL     OW33988   0.657   3.653  10.351  0.1183  0.2670  0.6310
 7510SOL    HW133989   0.607   3.665  10.271 -1.1375 -0.2669  1.3310
 7510SOL    HW233990   0.720   3.724  10.356 -0.1617  0.5769 -0.3880
 7511SOL     OW33991   3.881   4.350  17.406 -0.4847  0.0720  0.1170
 7511SOL    HW133992   3.804   4.363  17.351  1.0863  0.1660 -2.0251
 7511SOL    HW233993   3.840   4.392  17.482  0.4673 -0.2344  0.7951
 7512SOL     OW33994   3.867   1.485   6.261  0.4267  0.3742  0.0665
 7512SOL    HW133995   3.875   1.553   6.195  0.0984 -0.9174 -1.3004
 7512SOL    HW233996   3.782   1.448   6.238  0.7749 -0.2908 -0.1639
 7513SOL     OW33997   2.185   2.069   6.131  0.9827 -0.2605  0.1450
 7513SOL    HW133998   2.151   1.987   6.094 -0.8131  0.3620  0.4095
 7513SOL    HW233999   2.260   2.069   6.071  1.3918 -1.5817  0.6497
 7514SOL     OW34000   2.210   2.505  12.110 -0.4831  0.3500  0.2003
 7514SOL    HW134001   2.200   2.410  12.125  0.3544 -0.0712 -2.0220
 7514SOL    HW234002   2.130   2.514  12.058  0.1771 -0.6851 -0.9839
 7515SOL     OW34003   1.549   1.903   8.980  0.1934 -0.4938  0.2645
 7515SOL    HW134004   1.471   1.892   9.035 -0.9526  1.3002 -1.0175
 7515SOL    HW234005   1.530   1.857   8.898  0.6521  0.3855 -0.3259
 7516SOL     OW34006   0.708   1.772  12.965 -0.3718  0.0413  0.3744
 7516SOL    HW134007   0.760   1.834  12.915 -0.1191 -0.0355  0.5420
 7516SOL    HW234008   0.738   1.786  13.054  1.1140  1.4771 -0.3423
 7517SOL     OW34009   4.535   1.478   7.149  0.0757  0.2817  0.2117
 7517SOL    HW134010   4.615   1.528   7.139  1.1292 -1.2335  1.0843
 7517SOL    HW234011   4.490   1.528   7.217  1.1494 -1.6182  2.3266
 7518SOL     OW34012   4.412   1.002   5.515  0.5312 -0.6246 -0.1523
 7518SOL    HW134013   4.498   1.023   5.551 -0.4808  0.0050  1.9070
 7518SOL    HW234014   4.405   1.082   5.463 -0.4235 -0.5874  0.0268
 7519SOL     OW34015   0.912   1.367   2.689 -0.1729  0.0957 -0.5109
 7519SOL    HW134016   0.857   1.419   2.630 -0.5657 -0.6723 -0.8266
 7519SOL    HW234017   0.859   1.345   2.765 -0.5341  1.3432 -0.4091
 7520SOL     OW34018   4.401   3.971   8.000 -0.0486  0.2558  0.3945
 7520SOL    HW134019   4.458   3.960   7.924  1.2272  0.0526  1.3935
 7520SOL    HW234020   4.316   3.972   7.955  1.0224 -0.3201 -1.6401
 7521SOL     OW34021   1.039   0.657   2.068 -0.0586  0.3863  0.8117
 7521SOL    HW134022   1.107   0.615   2.015 -1.8576 -1.9040  0.3197
 7521SOL    HW234023   0.997   0.585   2.116 -0.3130 -0.4045 -0.5832
 7522SOL     OW34024   3.915   2.667   9.703  0.0177 -0.4548 -0.2242
 7522SOL    HW134025   3.841   2.608   9.719 -0.2200 -0.6240 -1.8707
 7522SOL    HW234026   3.868   2.751   9.703  0.5533 -0.1635  1.4380
 7523SOL     OW34027   2.743   3.081  10.612  0.0279  0.1018  0.5180
 7523SOL    HW134028   2.752   2.987  10.598  1.3990  0.6174 -1.9830
 7523SOL    HW234029   2.685   3.099  10.538  1.1348  1.3137 -0.0468
 7524SOL     OW34030   2.876   3.527   4.371  0.0740  0.5077  0.9872
 7524SOL    HW134031   2.919   3.577   4.302  0.4266 -2.4132 -0.9263
 7524SOL    HW234032   2.939   3.455   4.377  0.7453  0.9808 -0.4088
 7525SOL     OW34033   0.393   2.303   5.082 -0.4067  0.1035 -0.2040
 7525SOL    HW134034   0.410   2.250   5.004  4.1116  0.1033  0.7689
 7525SOL    HW234035   0.472   2.358   5.082  0.7377 -1.5414  1.7490
 7526SOL     OW34036   4.650   1.684  10.311 -0.2094  0.3671 -0.2346
 7526SOL    HW134037   4.680   1.626  10.382 -0.7735 -0.3427 -0.5774
 7526SOL    HW234038   4.721   1.747  10.296  0.0625 -0.2045 -1.3715
 7527SOL     OW34039   3.768   3.872   1.253  0.1464 -0.6818 -0.5428
 7527SOL    HW134040   3.841   3.822   1.289 -0.2176  0.1538  1.3539
 7527SOL    HW234041   3.748   3.928   1.329 -0.4985  0.1317 -1.3166
 7528SOL     OW34042   1.356   1.056   8.002  0.3592 -0.1463  1.0806
 7528SOL    HW134043   1.301   0.995   8.052  0.0188 -1.0714 -0.4387
 7528SOL    HW234044   1.368   1.128   8.064 -0.2499 -0.4888  1.5930
 7529SOL     OW34045   0.848   0.073   3.131  0.4336  0.1668 -0.6982
 7529SOL    HW134046   0.765   0.104   3.094 -0.9421  1.3550  3.3966
 7529SOL    HW234047   0.831   0.084   3.224  3.2609 -0.1058 -0.1672
 7530SOL     OW34048   4.592   0.729  12.747  0.8116  0.3306  0.4653
 7530SOL    HW134049   4.671   0.690  12.784  1.1720  1.1421  0.5467
 7530SOL    HW234050   4.621   0.770  12.666  2.0475  0.6212  1.0696
 7531SOL     OW34051   0.075   0.521   9.643 -0.2696 -0.0150 -0.4835
 7531SOL    HW134052   0.034   0.497   9.726 -0.1324  2.0605  0.1958
 7531SOL    HW234053   0.132   0.594   9.666  2.1421 -1.3680 -2.2150
 7532SOL     OW34054   2.207   0.046  11.011 -0.7508  0.2116 -0.0751
 7532SOL    HW134055   2.223   0.116  10.948  1.0830 -0.7654 -0.6991
 7532SOL    HW234056   2.119   0.079  11.028 -0.9157  0.1036 -0.7383
 7533SOL     OW34057   0.127   0.590   2.025  0.0650  0.6438 -1.0528
 7533SOL    HW134058   0.139   0.499   1.998  1.1950  0.6467 -0.5390
 7533SOL    HW234059   0.053   0.576   2.084  0.3189  0.5459 -0.7613
 7534SOL     OW34060   1.517   1.002  11.569  0.3741 -0.0591  0.1082
 7534SOL    HW134061   1.437   1.036  11.608 -0.6049 -1.5704 -0.5443
 7534SOL    HW234062   1.524   1.045  11.483 -1.4229  0.1151  0.0514
 7535SOL     OW34063   0.004   2.894   4.745 -0.2344  0.1788  0.1067
 7535SOL    HW134064   4.656   2.958   4.762  0.0523  0.5820 -0.2423
 7535SOL    HW234065   4.685   2.821   4.698  1.4030 -0.0519 -0.9487
 7536SOL     OW34066   4.075   2.609   6.703 -0.4737  0.1894 -0.6822
 7536SOL    HW134067   4.115   2.537   6.753  0.0384  1.2808  0.4709
 7536SOL    HW234068   3.989   2.578   6.730 -0.5492 -0.2180 -1.3944
 7537SOL     OW34069   1.870   2.344  11.478  0.4546 -0.1461  0.1381
 7537SOL    HW134070   1.842   2.283  11.410  2.3812 -0.5639 -0.2522
 7537SOL    HW234071   1.955   2.307  11.501  2.1949  1.9149 -3.0986
 7538SOL     OW34072   0.443   3.107   6.736 -0.0766  0.3104  0.5394
 7538SOL    HW134073   0.454   3.157   6.655 -2.2639  1.3013  0.8605
 7538SOL    HW234074   0.350   3.109   6.756  0.0927  1.3678  1.2482
 7539SOL     OW34075   2.602   4.076  13.536  0.2330  0.0009 -0.1351
 7539SOL    HW134076   2.646   3.992  13.520  1.5574  0.7822 -0.6036
 7539SOL    HW234077   2.574   4.099  13.448  1.7677  1.4999 -0.2341
 7540SOL     OW34078   3.143   1.882   3.517  0.2023 -0.1257 -0.0382
 7540SOL    HW134079   3.137   1.800   3.468  1.6583  1.5698 -3.0458
 7540SOL    HW234080   3.221   1.920   3.477 -0.1900  0.5425 -0.1689
 7541SOL     OW34081   0.410   0.853   8.611 -0.0400  0.2059 -0.3950
 7541SOL    HW134082   0.345   0.855   8.681 -0.5260 -1.0745 -0.8048
 7541SOL    HW234083   0.424   0.759   8.620 -2.3583 -0.0853  0.1649
 7542SOL     OW34084   0.181   4.201   1.664  0.1410 -0.6537  0.1251
 7542SOL    HW134085   0.205   4.260   1.593  1.5689 -3.0848 -1.4163
 7542SOL    HW234086   0.108   4.155   1.623 -1.5506  3.8207 -1.8117
 7543SOL     OW34087   2.625   2.522   2.799  0.2241  0.6694  0.5733
 7543SOL    HW134088   2.649   2.519   2.891 -0.0290  2.0009  0.6845
 7543SOL    HW234089   2.580   2.607   2.801  1.1741  1.2793 -3.3098
 7544SOL     OW34090   3.596   0.211   4.497 -0.3243 -0.5663 -0.0206
 7544SOL    HW134091   3.576   0.207   4.404  2.4183  0.0523 -0.6429
 7544SOL    HW234092   3.648   0.131   4.501  2.6839  1.4586  1.5542
 7545SOL     OW34093   2.122   1.200   7.502 -0.4076  0.1286  0.0763
 7545SOL    HW134094   2.075   1.281   7.518 -0.9020  0.0475 -0.9533
 7545SOL    HW234095   2.166   1.225   7.420 -0.1371  0.1178  0.2194
 7546SOL     OW34096   1.164   1.639  13.670 -0.2147 -0.2824 -0.0378
 7546SOL    HW134097   1.246   1.621  13.716  0.4404 -0.2958 -1.2090
 7546SOL    HW234098   1.196   1.686  13.593 -1.8203  0.9436  0.0384
 7547SOL     OW34099   2.307   2.582  10.243  0.2952 -0.2841  0.1760
 7547SOL    HW134100   2.324   2.632  10.163  2.1960  0.8263  1.2548
 7547SOL    HW234101   2.366   2.507  10.234  0.1105 -0.3958 -0.0889
 7548SOL     OW34102   3.204   0.921  11.630 -0.0964  0.3349  0.6378
 7548SOL    HW134103   3.191   1.014  11.648  1.3100  0.7776 -0.6015
 7548SOL    HW234104   3.252   0.891  11.708  0.1293  0.4625  0.5487
 7549SOL     OW34105   2.371   1.236   4.412  0.0428  0.6919 -0.3527
 7549SOL    HW134106   2.420   1.162   4.448  0.4431  0.4338 -1.4394
 7549SOL    HW234107   2.368   1.285   4.495  1.7414 -2.0609  1.3637
 7550SOL     OW34108   4.705   2.877  10.809 -0.3839 -0.4547  0.3567
 7550SOL    HW134109   4.618   2.903  10.777 -0.1353  0.1257  0.1445
 7550SOL    HW234110   4.696   2.784  10.829  0.3324 -0.5466  0.2480
 7551SOL     OW34111   0.829   1.735  11.898  0.0010 -0.0543 -0.2122
 7551SOL    HW134112   0.794   1.650  11.874  1.4409 -0.3170 -1.3862
 7551SOL    HW234113   0.861   1.755  11.810 -1.9196  0.4855 -0.7907
 7552SOL     OW34114   3.459   4.502   4.081 -0.3590 -0.6808  0.2214
 7552SOL    HW134115   3.513   4.463   4.012 -1.8132 -1.0518 -0.7211
 7552SOL    HW234116   3.523   4.533   4.146 -1.1733  0.6947  0.3646
 7553SOL     OW34117   1.045   2.202  16.972 -0.2440 -0.0405  0.1460
 7553SOL    HW134118   1.115   2.226  17.033 -0.6276  1.8928 -0.1795
 7553SOL    HW234119   1.081   2.116  16.950  0.1655 -0.2469  1.6308
 7554SOL     OW34120   4.718   2.046  15.049 -0.2907  0.4293  0.5529
 7554SOL    HW134121   0.084   2.024  15.015  0.1100  0.8152  1.3526
 7554SOL    HW234122   4.656   2.015  14.983  0.3479  0.6511 -0.1605
 7555SOL     OW34123   1.178   0.470   5.855  0.1321 -0.5646  0.2115
 7555SOL    HW134124   1.170   0.389   5.805 -1.0060 -0.1635 -0.2511
 7555SOL    HW234125   1.269   0.489   5.831  0.2757 -1.5804 -0.0451
 7556SOL     OW34126   2.242   2.235   9.741  0.1757  0.0945 -0.2852
 7556SOL    HW134127   2.206   2.279   9.818  0.4647  1.4974 -0.9444
 7556SOL    HW234128   2.189   2.157   9.730  0.8875 -0.6342  1.4984
 7557SOL     OW34129   1.182   0.841   6.628  0.7717  0.2352 -0.3575
 7557SOL    HW134130   1.218   0.915   6.581 -1.3745  0.5185 -1.5526
 7557SOL    HW234131   1.171   0.780   6.555 -2.9316 -0.7394  0.9981
 7558SOL     OW34132   4.528   1.293   0.672 -0.5529 -0.0680 -0.1337
 7558SOL    HW134133   4.594   1.313   0.738 -0.7526  1.9088 -0.5302
 7558SOL    HW234134   4.462   1.234   0.710  0.6583 -1.5715 -0.4008
 7559SOL     OW34135   3.147   4.549   7.702  0.4605 -0.3514  0.3676
 7559SOL    HW134136   3.113   4.462   7.720  1.8769 -1.2786 -1.5006
 7559SOL    HW234137   3.197   4.534   7.622  0.1190 -0.9870  0.2731
 7560SOL     OW34138   0.407   0.176   3.186  0.1379  0.3916  0.2185
 7560SOL    HW134139   0.399   0.271   3.175  0.2772  0.4054  0.2321
 7560SOL    HW234140   0.490   0.159   3.141 -0.8433 -1.5325 -0.8069
 7561SOL     OW34141   3.380   4.636   0.669  0.3285 -0.1793 -0.1484
 7561SOL    HW134142   3.420   4.685   0.598  0.9577 -1.6694 -0.7986
 7561SOL    HW234143   3.291   4.619   0.637  0.5437 -2.8703  0.6903
 7562SOL     OW34144   4.518   2.111   5.952  0.1699 -0.1705 -0.3991
 7562SOL    HW134145   4.466   2.183   5.916 -2.7439 -1.7461  0.6817
 7562SOL    HW234146   4.473   2.099   6.035  0.8723 -2.9804 -0.4483
 7563SOL     OW34147   1.051   0.947   1.485  0.4908 -0.3402  0.0735
 7563SOL    HW134148   1.085   0.909   1.404  0.6084  0.4341 -0.2405
 7563SOL    HW234149   0.983   1.001   1.445  0.1638  0.4201  1.6499
 7564SOL     OW34150   4.651   1.254   6.634 -0.0525  0.3289 -0.1775
 7564SOL    HW134151   4.591   1.315   6.677  2.6916 -0.4986  4.9145
 7564SOL    HW234152   4.594   1.250   6.558 -0.3632  4.3483 -0.1702
 7565SOL     OW34153   1.502   3.412   7.945 -0.0427  0.6156  0.0891
 7565SOL    HW134154   1.534   3.400   8.035 -0.9601 -2.2174  0.0389
 7565SOL    HW234155   1.427   3.470   7.956 -0.7589 -0.1371 -0.8591
 7566SOL     OW34156   3.148   3.573  11.854 -0.8740 -0.6100  0.0877
 7566SOL    HW134157   3.229   3.605  11.892 -0.3353 -2.3258  0.3979
 7566SOL    HW234158   3.119   3.649  11.804  1.8861 -0.3579 -1.1189
 7567SOL     OW34159   0.134   0.018   2.126 -0.4700 -0.3973 -0.0569
 7567SOL    HW134160   0.228   0.032   2.136 -0.5997 -0.4461  1.3404
 7567SOL    HW234161   0.127   4.656   2.173 -0.0921 -0.8498 -0.8010
 7568SOL     OW34162   2.169   1.688   4.638 -0.3880 -0.7092  0.0168
 7568SOL    HW134163   2.208   1.674   4.725  1.0129 -0.6012 -0.5917
 7568SOL    HW234164   2.236   1.736   4.588 -2.6352  2.2197 -0.1694
 7569SOL     OW34165   0.738   1.869  10.229  0.0551 -0.0219  0.4216
 7569SOL    HW134166   0.673   1.800  10.242 -0.3127  0.3676  0.6297
 7569SOL    HW234167   0.786   1.836  10.153  2.1348  0.2798  1.6014
 7570SOL     OW34168   3.478   3.310  13.729 -0.0930  0.3356 -0.4775
 7570SOL    HW134169   3.552   3.274  13.777 -0.6425 -0.0967  0.0435
 7570SOL    HW234170   3.413   3.241  13.744 -1.4393  0.9302 -3.5768
 7571SOL     OW34171   0.281   0.419   1.739 -0.2607  0.3597 -0.2134
 7571SOL    HW134172   0.231   0.337   1.734  2.7492 -1.4826  0.1027
 7571SOL    HW234173   0.282   0.452   1.649 -0.7958  0.3972 -0.2065
 7572SOL     OW34174   2.600   0.003   2.172  0.1158  0.4798  0.2454
 7572SOL    HW134175   2.561   4.660   2.231  0.7830  0.2554  0.4480
 7572SOL    HW234176   2.614   0.076   2.233  0.6085  0.0619  0.6305
 7573SOL     OW34177   2.740   1.808  16.885  0.1209 -0.2305  0.1528
 7573SOL    HW134178   2.825   1.765  16.889 -0.2460 -0.8670  1.0471
 7573SOL    HW234179   2.743   1.860  16.966  1.3189 -0.8150  0.4920
 7574SOL     OW34180   2.194   4.339   2.759 -0.0153  0.0288 -0.2182
 7574SOL    HW134181   2.220   4.264   2.813  0.3317  0.0968 -0.2931
 7574SOL    HW234182   2.166   4.292   2.681  0.9369 -0.4396 -0.2727
 7575SOL     OW34183   3.378   3.580   1.764 -0.2816 -0.1814 -0.2086
 7575SOL    HW134184   3.312   3.629   1.715  0.6243  1.1297 -0.1060
 7575SOL    HW234185   3.337   3.496   1.743  0.4243 -1.5587  3.8256
 7576SOL     OW34186   3.583   0.938   1.212 -0.0157 -0.5740  0.3597
 7576SOL    HW134187   3.590   0.946   1.117  0.5013 -0.9563  0.3685
 7576SOL    HW234188   3.671   0.970   1.231 -0.1901 -0.3380  0.7786
 7577SOL     OW34189   0.751   4.246   7.254  0.4770 -0.7305 -0.0058
 7577SOL    HW134190   0.779   4.334   7.228  1.7839 -0.1909  3.2498
 7577SOL    HW234191   0.663   4.238   7.216  0.9282  1.1415 -1.4776
 7578SOL     OW34192   2.947   2.697   3.103  0.1504 -0.4349  0.1182
 7578SOL    HW134193   2.900   2.764   3.053 -0.1650  0.1342  1.1690
 7578SOL    HW234194   2.922   2.623   3.047 -0.6165  0.8945 -1.3187
 7579SOL     OW34195   1.719   1.025  10.153 -0.3656 -0.2654 -0.3209
 7579SOL    HW134196   1.627   1.034  10.180 -0.7101 -0.6487 -1.3854
 7579SOL    HW234197   1.730   0.938  10.116  2.0407 -0.1821  0.2381
 7580SOL     OW34198   0.688   2.135   2.802  0.3719 -1.0448  0.3619
 7580SOL    HW134199   0.682   2.227   2.826  1.0335 -1.0942  0.7263
 7580SOL    HW234200   0.768   2.111   2.848  1.9758 -0.2321 -2.0081
 7581SOL     OW34201   2.315   3.903   6.372 -0.6236 -0.0574  0.4113
 7581SOL    HW134202   2.344   3.972   6.431 -0.6669  0.9464 -0.7582
 7581SOL    HW234203   2.224   3.920   6.348 -1.4404 -1.5806  2.4172
 7582SOL     OW34204   1.258   1.810   7.659  0.0100  0.0453 -0.0503
 7582SOL    HW134205   1.339   1.761   7.650 -1.0953 -2.2219  2.2275
 7582SOL    HW234206   1.197   1.746   7.620 -0.1753  0.5619 -0.6220
 7583SOL     OW34207   4.019   3.530   7.299 -0.2688 -0.3961  0.5327
 7583SOL    HW134208   3.943   3.490   7.257 -0.8192  2.7581 -1.5197
 7583SOL    HW234209   4.086   3.488   7.245  0.0857  0.8729 -0.0195
 7584SOL     OW34210   2.134   1.311   3.266  0.4712 -0.3781  0.6551
 7584SOL    HW134211   2.126   1.263   3.184 -0.2040  1.3016 -0.2746
 7584SOL    HW234212   2.171   1.396   3.243 -0.3486 -0.3285 -0.4558
 7585SOL     OW34213   3.779   0.438  15.774 -0.3706 -0.2973  0.4328
 7585SOL    HW134214   3.871   0.463  15.765  0.2425 -2.0241  1.8975
 7585SOL    HW234215   3.747   0.479  15.855 -0.2396 -0.5033  0.5874
 7586SOL     OW34216   2.440   3.135   2.998 -0.3906  0.1692  0.3639
 7586SOL    HW134217   2.504   3.133   3.069  0.6364  0.5549 -0.5334
 7586SOL    HW234218   2.359   3.157   3.043  0.3537  0.7092  1.4385
 7587SOL     OW34219   4.298   2.951   4.593  0.7265  0.4151 -0.0802
 7587SOL    HW134220   4.285   2.893   4.518 -0.0270  2.4237 -1.5025
 7587SOL    HW234221   4.206   2.959   4.621  0.9225 -1.4084  1.1003
 7588SOL     OW34222   0.104   3.593   7.956  0.9845  0.0093  0.4938
 7588SOL    HW134223   0.082   3.533   7.885 -1.8094  1.3493  0.2407
 7588SOL    HW234224   0.043   3.560   8.022  0.9973 -0.2631  0.3714
 7589SOL     OW34225   0.583   4.304  15.306  0.3724 -0.1545  0.0549
 7589SOL    HW134226   0.597   4.344  15.392 -2.1741  1.2225 -0.1931
 7589SOL    HW234227   0.550   4.375  15.250  0.3484 -1.7172 -1.9213
 7590SOL     OW34228   3.656   2.263   0.925 -0.2350  0.2252  0.8585
 7590SOL    HW134229   3.748   2.237   0.930 -0.5825 -1.4200 -1.2356
 7590SOL    HW234230   3.659   2.333   0.990 -0.6890 -1.5156  2.7617
 7591SOL     OW34231   2.550   0.197   8.935  0.4199 -0.0831  0.2596
 7591SOL    HW134232   2.642   0.171   8.946  0.7341  0.1003 -2.0125
 7591SOL    HW234233   2.540   0.218   8.842 -1.4375  3.6539  1.3362
 7592SOL     OW34234   0.018   3.944  11.363 -0.1671 -0.1140 -0.0085
 7592SOL    HW134235   4.678   3.915  11.431 -1.3389  2.0768 -0.1252
 7592SOL    HW234236   0.037   4.036  11.378 -1.9681 -0.2469  3.1563
 7593SOL     OW34237   3.202   2.283   2.414 -0.4007 -0.2186 -0.0294
 7593SOL    HW134238   3.110   2.286   2.389  0.3379 -0.2305 -2.7009
 7593SOL    HW234239   3.212   2.338   2.492 -0.9866  0.0010 -0.1079
 7594SOL     OW34240   0.375   1.939   6.203  0.6271  0.0894 -0.0422
 7594SOL    HW134241   0.310   1.954   6.134 -0.3724  2.1217  1.3690
 7594SOL    HW234242   0.414   1.868   6.151 -1.5686 -1.9818  1.1098
 7595SOL     OW34243   1.717   1.737  13.029 -0.1967  0.2659 -0.2797
 7595SOL    HW134244   1.779   1.756  13.100  0.7057  1.8238 -1.4614
 7595SOL    HW234245   1.705   1.642  13.034  0.1349  0.1954 -0.8336
 7596SOL     OW34246   2.210   1.510   2.448 -0.5241 -0.0053  0.0075
 7596SOL    HW134247   2.261   1.583   2.414  0.8694 -1.1579 -0.3745
 7596SOL    HW234248   2.208   1.520   2.543 -0.1825 -2.3500  0.2478
 7597SOL     OW34249   1.702   2.287  14.985 -0.2959 -0.2391  0.3093
 7597SOL    HW134250   1.739   2.248  15.064  1.2973 -0.4207 -0.5344
 7597SOL    HW234251   1.770   2.337  14.940  1.0816 -2.3574  0.0375
 7598SOL     OW34252   3.531   4.428   3.821 -0.2715  0.0507  0.3914
 7598SOL    HW134253   3.557   4.520   3.821  1.2549 -0.3975 -0.1249
 7598SOL    HW234254   3.614   4.393   3.792 -1.4502 -2.3934  0.0065
 7599SOL     OW34255   1.074   1.842   8.335 -0.4672  0.4183  0.7088
 7599SOL    HW134256   1.036   1.883   8.257  0.0793 -0.8186 -0.2101
 7599SOL    HW234257   1.013   1.871   8.402  0.4188  1.4245  1.0841
 7600SOL     OW34258   3.774   4.457   2.819  0.0162 -0.0442  0.2554
 7600SOL    HW134259   3.858   4.441   2.778 -0.3216  2.5361 -1.4715
 7600SOL    HW234260   3.760   4.542   2.776 -3.3177 -0.9316 -0.4092
 7601SOL     OW34261   4.318   3.255   7.476  0.2554  0.2302  0.1302
 7601SOL    HW134262   4.277   3.309   7.408 -0.2471 -0.2672  0.0381
 7601SOL    HW234263   4.369   3.322   7.522  0.6490 -0.4116  0.6253
 7602SOL     OW34264   3.443   0.227  11.970 -0.1033  0.0597  0.2198
 7602SOL    HW134265   3.362   0.267  11.938 -0.9537 -0.0452  2.2914
 7602SOL    HW234266   3.477   0.299  12.022  0.1462 -0.0869  0.2621
 7603SOL     OW34267   0.059   0.835   7.392  0.2869 -0.0389  0.3379
 7603SOL    HW134268   0.090   0.745   7.380  0.7650  0.2864 -0.8464
 7603SOL    HW234269   4.690   0.835   7.362  0.6592 -0.4065 -0.7880
 7604SOL     OW34270   0.695   4.317   7.590 -0.1012  0.2827  0.3708
 7604SOL    HW134271   0.719   4.272   7.671 -1.0939  1.0859  1.1156
 7604SOL    HW234272   0.778   4.290   7.551  1.3564  1.5898  2.5464
 7605SOL     OW34273   3.093   3.774  11.690  0.0499  0.2727 -0.3693
 7605SOL    HW134274   3.052   3.842  11.743  0.2500  2.1590 -2.6117
 7605SOL    HW234275   3.030   3.748  11.622 -0.6568  0.1712  0.3250
 7606SOL     OW34276   4.086   0.530   3.871  0.2367  0.5573  0.7199
 7606SOL    HW134277   4.152   0.563   3.810 -0.9661  0.9940 -0.3728
 7606SOL    HW234278   4.119   0.560   3.955  1.6754 -1.1816  0.7810
 7607SOL     OW34279   1.208   1.776  15.331  0.5320 -0.0840 -0.1033
 7607SOL    HW134280   1.253   1.733  15.403 -0.6980 -1.6610 -0.2917
 7607SOL    HW234281   1.268   1.748  15.262 -0.2014 -1.1556 -0.2927
 7608SOL     OW34282   0.130   4.380   8.105  0.5665 -0.1281 -0.3653
 7608SOL    HW134283   0.094   4.458   8.147  0.7755 -0.2018 -0.0487
 7608SOL    HW234284   0.217   4.403   8.137  1.0497 -0.3669 -1.5400
 7609SOL     OW34285   1.098   1.079   5.260 -0.7280  0.5670 -0.3516
 7609SOL    HW134286   1.115   1.149   5.197 -1.2211  1.4129  0.4716
 7609SOL    HW234287   1.063   1.128   5.334  0.0866  0.5889  0.0135
 7610SOL     OW34288   3.051   0.458   0.092 -0.2745  0.2291  0.2727
 7610SOL    HW134289   2.963   0.461   0.055  0.0338  0.9493 -0.4036
 7610SOL    HW234290   3.087   0.532   0.044 -1.7472 -1.0698 -2.8306
 7611SOL     OW34291   3.720   0.252   6.562  0.1725 -0.2499  0.2668
 7611SOL    HW134292   3.666   0.331   6.555  2.3447  0.9961 -2.3243
 7611SOL    HW234293   3.759   0.242   6.475 -3.0533 -0.6827 -1.1545
 7612SOL     OW34294   3.818   0.461   5.597 -0.6339  0.3048 -0.0692
 7612SOL    HW134295   3.880   0.534   5.601  1.3999 -1.4647  0.5536
 7612SOL    HW234296   3.880   0.388   5.598  0.4718  1.2361 -0.0694
 7613SOL     OW34297   2.279   0.454   4.295  0.4530 -0.1555 -0.1197
 7613SOL    HW134298   2.296   0.518   4.365 -0.6516 -0.2898  0.2728
 7613SOL    HW234299   2.363   0.410   4.284  0.9683  0.3442  1.8466
 7614SOL     OW34300   0.027   3.477  17.262  0.2109  0.1505  0.3773
 7614SOL    HW134301   0.021   3.571  17.247 -1.5292 -0.1257 -0.5926
 7614SOL    HW234302   0.079   3.448  17.187 -0.2678 -2.3212  0.9819
 7615SOL     OW34303   0.428   3.172  11.930 -0.7119  0.0666 -0.0816
 7615SOL    HW134304   0.461   3.096  11.978  0.2481 -0.1345 -1.0618
 7615SOL    HW234305   0.364   3.130  11.872  1.5092 -0.5559 -2.0464
 7616SOL     OW34306   3.918   2.568   2.633 -0.3536 -0.0716 -0.5607
 7616SOL    HW134307   3.884   2.552   2.545  0.0149 -2.0967 -0.3399
 7616SOL    HW234308   3.916   2.663   2.646 -1.1384 -0.2669  0.7098
 7617SOL     OW34309   4.000   2.787   3.481  0.0368 -0.9276  0.1779
 7617SOL    HW134310   4.088   2.761   3.507 -0.2494 -0.9626  1.0868
 7617SOL    HW234311   4.023   2.876   3.454  2.7048 -0.9165  2.5336
 7618SOL     OW34312   0.573   0.848  12.047 -0.1229  0.0066  0.0549
 7618SOL    HW134313   0.640   0.831  12.113  1.5365  0.4439 -1.5140
 7618SOL    HW234314   0.587   0.941  12.031  1.5313 -0.2282  0.1948
 7619SOL     OW34315   3.128   0.226   5.606  0.1447 -0.0568 -0.4444
 7619SOL    HW134316   3.049   0.193   5.562  0.0989  3.7896 -3.2616
 7619SOL    HW234317   3.128   0.158   5.674 -1.0288  2.0111  1.6071
 7620SOL     OW34318   4.599   1.820   7.677  0.6775  0.0115 -0.2592
 7620SOL    HW134319   4.602   1.909   7.713  2.4106  0.1486 -0.7010
 7620SOL    HW234320   4.630   1.762   7.746  1.4015  0.8798  0.1475
 7621SOL     OW34321   3.734   3.862  11.451  0.2325 -0.5114 -0.4745
 7621SOL    HW134322   3.772   3.939  11.408 -0.5344 -0.7386 -1.5537
 7621SOL    HW234323   3.796   3.834  11.518 -2.1570 -1.1096  1.5006
 7622SOL     OW34324   2.794   0.352   2.617  0.0509  0.5305 -0.4348
 7622SOL    HW134325   2.847   0.432   2.618 -0.2942  0.7756 -1.8256
 7622SOL    HW234326   2.730   0.374   2.685 -0.9229  0.8369 -1.4609
 7623SOL     OW34327   0.391   1.824   3.997 -0.0801 -0.2298 -0.1097
 7623SOL    HW134328   0.299   1.801   4.007  0.4704 -1.1077  2.9730
 7623SOL    HW234329   0.425   1.771   3.925  3.0059  0.4948  0.7814
 7624SOL     OW34330   4.557   2.496   7.233 -0.2523  0.4257  0.4479
 7624SOL    HW134331   4.601   2.570   7.192 -1.8803  0.6021 -1.0154
 7624SOL    HW234332   4.620   2.428   7.210  0.3270  0.7412  1.1114
 7625SOL     OW34333   3.216   1.500  10.874 -0.0945 -0.0779  0.1390
 7625SOL    HW134334   3.142   1.560  10.868  0.0147  0.0183 -0.3165
 7625SOL    HW234335   3.272   1.526  10.801 -0.9134 -0.6066 -0.6807
 7626SOL     OW34336   1.976   0.607   7.014  0.0087  0.1223  0.6311
 7626SOL    HW134337   2.026   0.676   6.971  0.0797 -0.1107  0.3402
 7626SOL    HW234338   2.013   0.612   7.103  2.4527 -0.5997 -0.3405
 7627SOL     OW34339   3.615   1.580   0.208  0.5442  0.6529  0.1093
 7627SOL    HW134340   3.638   1.492   0.237 -1.4502 -0.0857 -0.5280
 7627SOL    HW234341   3.521   1.565   0.198  0.5847  0.7488 -0.3796
 7628SOL     OW34342   3.888   3.719   4.313  0.1806  0.4959 -0.2414
 7628SOL    HW134343   3.919   3.629   4.303 -2.1893 -0.1502 -1.7460
 7628SOL    HW234344   3.944   3.742   4.387  1.9875  1.2022 -1.8443
 7629SOL     OW34345   3.409   1.437   7.695  0.3997 -0.2998 -0.3942
 7629SOL    HW134346   3.421   1.349   7.659  1.7326 -0.6293  0.8400
 7629SOL    HW234347   3.345   1.425   7.765  0.7015  1.1379  0.1338
 7630SOL     OW34348   2.784   3.040  13.872 -0.1213 -0.1383  0.1035
 7630SOL    HW134349   2.702   3.078  13.840  0.7009  3.1740  1.9159
 7630SOL    HW234350   2.766   2.949  13.847 -1.4168  0.8888 -2.6713
 7631SOL     OW34351   1.837   0.416   9.300 -0.2667 -0.5792  0.3384
 7631SOL    HW134352   1.813   0.388   9.211  0.7523 -1.3664  0.3033
 7631SOL    HW234353   1.919   0.464   9.285  0.4504 -1.7294  0.5198
 7632SOL     OW34354   0.904   4.703   8.587 -0.3461  0.1672  0.4792
 7632SOL    HW134355   0.918   0.068   8.628 -2.9519  0.2585  1.1991
 7632SOL    HW234356   0.901   0.016   8.498 -0.2882 -0.1417  0.3605
 7633SOL     OW34357   2.985   1.744   9.260  0.0149  0.2227 -0.2927
 7633SOL    HW134358   2.992   1.770   9.168 -0.0707 -0.5922 -0.5334
 7633SOL    HW234359   3.002   1.829   9.301 -1.1623 -1.0757  2.8393
 7634SOL     OW34360   4.028   1.281   2.346 -0.2234 -0.1655 -0.1186
 7634SOL    HW134361   3.952   1.266   2.290  0.2346  1.3288 -1.1326
 7634SOL    HW234362   4.073   1.343   2.289  1.5501 -1.8273 -0.5432
 7635SOL     OW34363   0.395   3.856  13.808  0.6822  0.3663 -0.6935
 7635SOL    HW134364   0.457   3.901  13.865 -0.9681 -1.1686  2.3590
 7635SOL    HW234365   0.351   3.925  13.759 -1.3600 -0.4923 -0.0926
 7636SOL     OW34366   2.218   4.159  10.082  0.1331  0.0713 -0.3852
 7636SOL    HW134367   2.294   4.107  10.109  0.8848  2.3812  1.8679
 7636SOL    HW234368   2.271   4.226  10.040 -0.6541  0.3007 -1.0132
 7637SOL     OW34369   2.533   0.761   6.962 -0.1085 -0.1014 -0.2257
 7637SOL    HW134370   2.517   0.691   6.899 -1.1232  0.6326 -0.7762
 7637SOL    HW234371   2.462   0.748   7.025 -0.5728 -2.0894 -1.1852
 7638SOL     OW34372   3.060   3.350   9.958  0.5527  0.3815  0.5020
 7638SOL    HW134373   3.105   3.310  10.033 -0.0829 -1.2581  0.0186
 7638SOL    HW234374   3.041   3.436   9.994  0.0300 -0.0845  1.3334
 7639SOL     OW34375   3.455   1.730  13.462  0.0009  0.8196  0.1387
 7639SOL    HW134376   3.362   1.715  13.479  0.2535 -0.9078 -0.0023
 7639SOL    HW234377   3.498   1.734  13.547 -0.2352 -0.9163  0.3452
 7640SOL     OW34378   1.213   0.658   7.086 -0.0693 -0.1781  0.4285
 7640SOL    HW134379   1.293   0.710   7.077  0.4107 -0.8132  1.0324
 7640SOL    HW234380   1.222   0.611   7.169  0.8455 -0.2203  0.3084
 7641SOL     OW34381   0.154   1.578  15.355 -0.1248 -0.4883 -0.0241
 7641SOL    HW134382   0.156   1.522  15.277 -0.7648  2.2509 -1.9764
 7641SOL    HW234383   0.163   1.659  15.306  1.5374 -0.6267  0.0459
 7642SOL     OW34384   3.541   1.335   2.483 -0.2730  0.1948  0.0491
 7642SOL    HW134385   3.563   1.312   2.393  2.8332 -1.6106  1.2526
 7642SOL    HW234386   3.454   1.296   2.489 -0.1545 -0.2979 -1.5661
 7643SOL     OW34387   1.844   3.812   8.674 -0.5754 -0.2828 -0.4853
 7643SOL    HW134388   1.773   3.875   8.687 -0.5680 -0.1242 -1.2102
 7643SOL    HW234389   1.906   3.859   8.618 -3.7370 -0.1766 -3.8437
 7644SOL     OW34390   2.955   1.588  16.930  0.4260 -0.2890  0.0205
 7644SOL    HW134391   3.002   1.576  17.013 -0.0652  1.2864  0.5198
 7644SOL    HW234392   3.028   1.631  16.885  1.3056 -1.2372  0.5310
 7645SOL     OW34393   4.382   2.037  12.921  0.5793  0.3821 -0.4650
 7645SOL    HW134394   4.301   1.986  12.919  1.0369 -0.4062  0.5486
 7645SOL    HW234395   4.352   2.120  12.886  0.1909  0.9116  1.1447
 7646SOL     OW34396   2.056   2.352  15.313 -0.2499  0.0376 -0.0761
 7646SOL    HW134397   2.110   2.294  15.366  2.1998  1.4910 -0.9871
 7646SOL    HW234398   1.995   2.293  15.267  0.1527 -1.2114  0.9963
 7647SOL     OW34399   4.024   3.341   0.649 -0.1622 -0.1401  0.5381
 7647SOL    HW134400   3.962   3.271   0.671 -2.4557  1.3375 -1.2140
 7647SOL    HW234401   3.997   3.346   0.557 -1.2750 -3.0437  0.6802
 7648SOL     OW34402   0.120   2.926   7.195  0.1437 -0.2404  0.6989
 7648SOL    HW134403   0.207   2.889   7.183 -0.2493 -1.2025  0.7852
 7648SOL    HW234404   0.070   2.883   7.125  2.6228 -2.3646  0.2261
 7649SOL     OW34405   1.898   0.530   9.563  0.6039 -0.3916 -0.3648
 7649SOL    HW134406   1.876   0.500   9.475 -1.3471  1.1636 -0.4059
 7649SOL    HW234407   1.970   0.468   9.577  0.7681 -0.0148  0.4474
 7650SOL     OW34408   0.086   3.285   5.728  0.0362 -0.2909 -0.1932
 7650SOL    HW134409   0.019   3.336   5.683  1.7575  0.7121 -1.6520
 7650SOL    HW234410   0.170   3.321   5.699 -0.1189  0.3728  0.1818
 7651SOL     OW34411   0.830   0.598  12.411 -0.3534 -0.2134  0.0253
 7651SOL    HW134412   0.749   0.585  12.460 -1.4842  1.3563 -1.4372
 7651SOL    HW234413   0.796   0.648  12.337 -1.8248  1.4980  1.8482
 7652SOL     OW34414   1.133   1.026   2.730  0.5059  0.1634  0.0807
 7652SOL    HW134415   1.115   1.043   2.638 -2.7300 -0.2747  0.6333
 7652SOL    HW234416   1.081   0.949   2.750  1.1724 -0.1238  0.6908
 7653SOL     OW34417   4.231   3.994  11.667 -0.3367  0.0321 -0.1178
 7653SOL    HW134418   4.196   3.908  11.691  1.3723 -0.6930 -0.1940
 7653SOL    HW234419   4.325   3.975  11.660  0.1728  2.8486 -1.0450
 7654SOL     OW34420   1.343   3.935  12.425 -0.3857 -0.4576 -0.3647
 7654SOL    HW134421   1.294   3.873  12.479 -1.2729  0.4949 -0.0820
 7654SOL    HW234422   1.289   4.013  12.436 -1.0957 -0.6437 -2.4112
 7655SOL     OW34423   1.344   3.039   1.974  0.8241  0.3292  1.0542
 7655SOL    HW134424   1.293   2.965   1.940  1.1905  2.3269 -3.8985
 7655SOL    HW234425   1.274   3.105   1.980 -0.7513 -1.2837  0.4596
 7656SOL     OW34426   0.023   1.503   5.147  0.2327 -0.1409 -0.8126
 7656SOL    HW134427   0.100   1.539   5.103  0.6938 -2.1583 -1.6390
 7656SOL    HW234428   4.706   1.580   5.188 -1.0383 -1.2790  0.1084
 7657SOL     OW34429   3.093   3.634   8.046 -0.4700 -0.2883  0.1104
 7657SOL    HW134430   3.114   3.552   8.002 -0.6656 -0.6189  0.6253
 7657SOL    HW234431   3.180   3.671   8.060 -0.5996 -0.0168  0.1904
 7658SOL     OW34432   0.804   1.354   8.789  0.4320  0.4217  0.0789
 7658SOL    HW134433   0.799   1.422   8.856 -1.7763 -1.9243  2.3145
 7658SOL    HW234434   0.760   1.283   8.836  2.0775  0.0838  1.1366
 7659SOL     OW34435   1.105   4.495   5.655 -0.6333 -0.0871  0.0487
 7659SOL    HW134436   1.141   4.583   5.647 -2.9975  0.9966  1.0353
 7659SOL    HW234437   1.051   4.506   5.733  1.2068  2.7273  0.9129
 7660SOL     OW34438   0.356   1.023   6.182  0.5376 -0.2341  0.1473
 7660SOL    HW134439   0.341   0.931   6.158 -1.5220  0.0551  0.3862
 7660SOL    HW234440   0.348   1.013   6.277  2.2466  2.6304  0.5934
 7661SOL     OW34441   2.399   2.424   8.840  0.2104  0.6052 -0.1666
 7661SOL    HW134442   2.393   2.389   8.929  1.3041  0.6404 -0.0880
 7661SOL    HW234443   2.366   2.514   8.847  0.7684  0.7814  0.2119
 7662SOL     OW34444   1.714   3.583   3.896 -0.2600  0.2521 -0.7287
 7662SOL    HW134445   1.674   3.554   3.814  3.5147  2.7796 -3.4232
 7662SOL    HW234446   1.657   3.659   3.905 -0.4182 -0.1971  2.1757
 7663SOL     OW34447   3.312   4.217   2.068  0.2422 -0.1186 -0.1187
 7663SOL    HW134448   3.258   4.179   2.137  1.5767  0.1792  1.0938
 7663SOL    HW234449   3.245   4.255   2.012  0.7752 -0.5091 -1.0139
 7664SOL     OW34450   1.095   3.337   3.352 -0.2799 -0.2904  0.0617
 7664SOL    HW134451   1.167   3.304   3.298  0.6983 -0.6030  1.5717
 7664SOL    HW234452   1.067   3.411   3.298 -0.8320 -0.6463 -0.1497
 7665SOL     OW34453   0.104   2.244   5.587 -0.2772  0.4804 -0.0883
 7665SOL    HW134454   0.177   2.230   5.527  0.0523  2.5309 -0.1832
 7665SOL    HW234455   0.075   2.334   5.571 -1.0261  0.4413  1.0748
 7666SOL     OW34456   4.333   0.951   6.677 -0.8004  0.2965 -0.1695
 7666SOL    HW134457   4.353   1.023   6.735 -0.6480 -1.2591  1.7150
 7666SOL    HW234458   4.413   0.899   6.686 -1.1952 -0.3054 -0.1159
 7667SOL     OW34459   3.291   1.353  11.115 -0.3261  0.1531  0.4088
 7667SOL    HW134460   3.239   1.406  11.055  2.0219  3.6605  1.4711
 7667SOL    HW234461   3.378   1.394  11.112 -0.2911  0.1706  1.7047
 7668SOL     OW34462   2.140   3.680   6.217  0.3252  0.3694 -0.1327
 7668SOL    HW134463   2.156   3.656   6.308  0.6473 -0.3524 -0.3827
 7668SOL    HW234464   2.061   3.630   6.196 -0.4806  1.2720  0.6924
 7669SOL     OW34465   1.285   3.728   1.964 -0.0250 -0.2412 -0.4560
 7669SOL    HW134466   1.286   3.648   1.912  2.2774 -0.8407  0.5004
 7669SOL    HW234467   1.237   3.788   1.907 -0.9774  0.5727  1.1974
 7670SOL     OW34468   4.224   0.491   5.842 -0.0661  0.0083  0.2949
 7670SOL    HW134469   4.233   0.471   5.749  0.6224 -1.0623  0.5906
 7670SOL    HW234470   4.183   0.578   5.841  1.4899  0.7518  1.2040
 7671SOL     OW34471   0.807   2.346   5.376  0.2913 -0.1792 -0.1015
 7671SOL    HW134472   0.864   2.319   5.304 -0.7371 -2.3435 -0.0996
 7671SOL    HW234473   0.815   2.441   5.367  0.4643  0.1490  3.4236
 7672SOL     OW34474   2.745   0.004   2.896  0.3839 -0.2106 -0.2964
 7672SOL    HW134475   2.671   4.665   2.905  1.2248 -1.2531 -0.3536
 7672SOL    HW234476   2.721   0.074   2.957  0.5073  0.2404 -0.7612
 7673SOL     OW34477   3.341   2.844   8.032  0.6834  0.2065  0.3185
 7673SOL    HW134478   3.257   2.886   8.017 -0.1772 -1.3189  0.8649
 7673SOL    HW234479   3.404   2.904   7.992  0.8708  0.2521  0.6797
 7674SOL     OW34480   3.719   2.548   4.757 -0.0802 -0.2736 -0.0064
 7674SOL    HW134481   3.671   2.618   4.713  0.6230 -0.8658 -1.7262
 7674SOL    HW234482   3.758   2.594   4.832 -0.5305 -1.0193  0.6922
 7675SOL     OW34483   3.028   0.455  14.498 -0.1482  0.1572  0.6258
 7675SOL    HW134484   3.073   0.432  14.580 -0.0113 -3.3315 -0.4294
 7675SOL    HW234485   3.042   0.548  14.481  0.6249 -0.0110  0.3391
 7676SOL     OW34486   1.150   0.225   6.098 -0.4240 -0.1839 -0.0917
 7676SOL    HW134487   1.102   0.177   6.166 -2.4846 -0.9838 -2.1383
 7676SOL    HW234488   1.081   0.287   6.078 -0.8685 -0.8945 -0.7447
 7677SOL     OW34489   2.034   2.294   6.717  0.5326  0.2579 -0.2094
 7677SOL    HW134490   2.021   2.301   6.622 -1.5513  2.1388  0.2296
 7677SOL    HW234491   2.103   2.227   6.720  0.0350 -0.2539 -0.1383
 7678SOL     OW34492   2.861   0.264   4.763  0.3028 -0.3825 -0.7342
 7678SOL    HW134493   2.929   0.242   4.699  1.0411  1.7613 -0.6739
 7678SOL    HW234494   2.847   0.182   4.811 -0.0541  0.0586 -0.0860
 7679SOL     OW34495   3.653   2.543  15.426 -0.3064 -0.1317 -0.1275
 7679SOL    HW134496   3.723   2.513  15.483  0.9518  0.6172 -1.2807
 7679SOL    HW234497   3.690   2.627  15.398  1.1945 -0.4014  1.0798
 7680SOL     OW34498   2.349   2.478   4.565 -0.1164 -0.1030 -0.8588
 7680SOL    HW134499   2.422   2.515   4.516  1.8444 -2.2416  0.4692
 7680SOL    HW234500   2.353   2.384   4.550  0.9725 -0.1899  0.0118
 7681SOL     OW34501   2.245   3.583   2.434 -0.0710  0.4783  0.2522
 7681SOL    HW134502   2.279   3.501   2.397 -0.1946 -0.2953  1.8810
 7681SOL    HW234503   2.171   3.553   2.487 -0.3162  0.0602 -0.3252
 7682SOL     OW34504   1.247   4.056   6.464 -0.2350 -0.1641  0.0241
 7682SOL    HW134505   1.268   3.968   6.494  2.5181  0.3547 -0.3506
 7682SOL    HW234506   1.322   4.111   6.489 -0.4118  0.0688  0.0441
 7683SOL     OW34507   2.548   3.684   9.384  0.1132 -0.4521 -0.5389
 7683SOL    HW134508   2.600   3.757   9.351  0.0194 -0.1691 -0.0667
 7683SOL    HW234509   2.484   3.678   9.312 -0.6707 -2.0831  0.3089
 7684SOL     OW34510   3.656   0.966   6.118 -0.2541 -0.0192  0.5497
 7684SOL    HW134511   3.719   1.032   6.146  1.0126 -0.0135 -2.2434
 7684SOL    HW234512   3.647   0.924   6.203 -1.4261  1.0483  0.9445
 7685SOL     OW34513   2.233   0.884  11.113 -0.0587 -0.1698 -0.6632
 7685SOL    HW134514   2.141   0.885  11.084 -0.8260 -0.8837  1.7316
 7685SOL    HW234515   2.275   0.886  11.027  2.4314  1.3985  0.5993
 7686SOL     OW34516   1.764   1.759   4.943 -0.3260  0.2430 -0.2159
 7686SOL    HW134517   1.791   1.704   4.869 -3.8959  0.6357 -1.7955
 7686SOL    HW234518   1.849   1.798   4.961  0.3544 -1.9113  1.3449
 7687SOL     OW34519   3.800   1.304  10.042  0.2213  0.1293 -0.1828
 7687SOL    HW134520   3.771   1.334  10.128 -1.8299  1.3834 -1.3257
 7687SOL    HW234521   3.852   1.382  10.023  1.4345 -0.3374  1.1605
 7688SOL     OW34522   4.473   4.550  15.215 -0.0676  0.3363  0.0335
 7688SOL    HW134523   4.475   4.533  15.121 -1.2487 -1.8287  0.4154
 7688SOL    HW234524   4.541   4.615  15.232 -1.7498  1.5783  2.0457
 7689SOL     OW34525   4.400   0.381   8.365 -0.2485  0.1391  0.6614
 7689SOL    HW134526   4.485   0.348   8.335  0.3253  2.7523 -0.6013
 7689SOL    HW234527   4.439   0.465   8.389 -0.3728  0.6649 -0.9298
 7690SOL     OW34528   1.884   3.356  11.968 -0.2774 -0.9411  0.8531
 7690SOL    HW134529   1.938   3.432  11.947 -1.3256 -0.7499 -1.1650
 7690SOL    HW234530   1.850   3.321  11.885 -0.5958  0.5755  0.3552
 7691SOL     OW34531   3.715   3.675   5.463  0.3189 -0.1427 -0.4099
 7691SOL    HW134532   3.633   3.630   5.482  1.6407 -2.3903 -0.0676
 7691SOL    HW234533   3.724   3.671   5.367  0.1865 -2.8902 -0.2966
 7692SOL     OW34534   3.326   0.887   8.883  0.1809  0.4907  0.0655
 7692SOL    HW134535   3.283   0.903   8.800  1.3925  3.2382 -0.0216
 7692SOL    HW234536   3.307   0.962   8.940 -1.9472 -0.0656  0.0823
 7693SOL     OW34537   2.179   1.515   2.029  0.7219  0.0578 -0.4233
 7693SOL    HW134538   2.212   1.598   1.995  0.2731  0.3832 -0.0692
 7693SOL    HW234539   2.084   1.528   2.026  0.8744  0.9722 -1.4571
 7694SOL     OW34540   2.374   3.944   0.639  0.3981  0.0205  0.0524
 7694SOL    HW134541   2.463   3.955   0.674 -0.2623 -2.4521  2.4407
 7694SOL    HW234542   2.349   4.035   0.622  1.2062 -0.0300 -1.5079
 7695SOL     OW34543   1.263   3.401   1.582  0.0588 -0.4269 -0.3270
 7695SOL    HW134544   1.271   3.444   1.497  2.2252 -0.3263 -0.0797
 7695SOL    HW234545   1.289   3.313   1.552 -0.2638 -1.3453  2.1195
 7696SOL     OW34546   1.826   2.660   5.405  0.5286  0.7299  0.3315
 7696SOL    HW134547   1.815   2.730   5.469  1.5924 -0.2748  1.6076
 7696SOL    HW234548   1.806   2.715   5.330  1.0355 -0.1401 -0.4416
 7697SOL     OW34549   2.777   1.865  11.707 -0.0389 -0.1016  1.5585
 7697SOL    HW134550   2.701   1.876  11.650  1.3725  3.1787  0.2844
 7697SOL    HW234551   2.830   1.943  11.692 -0.8924 -0.0411 -1.0331
 7698SOL     OW34552   1.906   4.145   0.896 -0.1553  0.3902 -0.1409
 7698SOL    HW134553   1.994   4.122   0.924 -0.9596 -0.2380  1.8752
 7698SOL    HW234554   1.876   4.179   0.980  0.9808 -0.7563  0.7229
 7699SOL     OW34555   2.694   4.159   5.025 -0.1437 -0.0678 -0.3698
 7699SOL    HW134556   2.636   4.152   4.949 -2.2633 -1.9003  1.4015
 7699SOL    HW234557   2.648   4.221   5.082  0.6203  1.5752 -1.5359
 7700SOL     OW34558   2.782   1.364  15.235  0.5229  0.4468 -0.0390
 7700SOL    HW134559   2.711   1.314  15.276  0.4899  1.0527  0.6367
 7700SOL    HW234560   2.829   1.391  15.313 -0.7165  0.9083  0.5548
 7701SOL     OW34561   0.657   4.024  15.306  0.1994 -0.0208 -0.4593
 7701SOL    HW134562   0.752   4.028  15.297  0.1656  0.2343 -0.6898
 7701SOL    HW234563   0.639   4.114  15.279 -0.9864  0.7629  2.9343
 7702SOL     OW34564   2.510   0.987   3.095 -0.5028  0.0258  0.8358
 7702SOL    HW134565   2.446   0.958   3.030  0.3096 -0.3139  0.1748
 7702SOL    HW234566   2.581   0.925   3.075 -1.6503 -1.3258  0.9084
 7703SOL     OW34567   2.266   0.685   5.620 -0.3799 -0.1169  0.4668
 7703SOL    HW134568   2.330   0.736   5.570  0.1907  0.3300  1.6548
 7703SOL    HW234569   2.282   0.603   5.574  0.8830  1.2154 -1.4830
 7704SOL     OW34570   4.468   2.998   8.540  0.2534  0.1092  0.1496
 7704SOL    HW134571   4.510   2.921   8.502  1.0192  0.7046 -0.2165
 7704SOL    HW234572   4.374   2.987   8.528  0.1646  3.0068 -2.0235
 7705SOL     OW34573   2.862   1.529  12.776 -0.2611 -0.2316  0.3335
 7705SOL    HW134574   2.867   1.513  12.681 -1.2145 -0.9909  0.4091
 7705SOL    HW234575   2.780   1.494  12.813 -2.6252  2.9987 -1.8234
 7706SOL     OW34576   3.018   0.398   7.435  0.2141  0.0575 -0.2806
 7706SOL    HW134577   3.077   0.322   7.430 -0.3317 -0.2921 -1.3947
 7706SOL    HW234578   2.934   0.351   7.439  0.3551 -0.1132  0.7723
 7707SOL     OW34579   0.159   3.543   0.627  0.5920 -0.5016 -0.0544
 7707SOL    HW134580   0.126   3.621   0.584 -0.1161 -0.2629  0.9142
 7707SOL    HW234581   0.094   3.474   0.612  1.6306 -1.5942  0.4989
 7708SOL     OW34582   0.104   4.076   7.279  0.0468 -0.4519  0.1741
 7708SOL    HW134583   0.032   4.063   7.340  0.0760  2.2900  0.7614
 7708SOL    HW234584   0.175   4.073   7.343 -0.0201  2.2807  0.3743
 7709SOL     OW34585   2.665   1.000   8.880  0.3842  0.2843  0.2454
 7709SOL    HW134586   2.601   1.072   8.881 -0.7380 -0.6886 -0.4530
 7709SOL    HW234587   2.744   1.050   8.900  0.3383 -0.1745  1.5482
 7710SOL     OW34588   2.472   2.226   7.270 -0.1085 -0.0231 -0.3833
 7710SOL    HW134589   2.413   2.230   7.345  0.9228  2.8674  0.2874
 7710SOL    HW234590   2.411   2.205   7.200  0.5967  0.1264 -1.0515
 7711SOL     OW34591   3.764   4.086  13.998 -0.3144  0.0571 -0.2110
 7711SOL    HW134592   3.859   4.092  14.012 -0.1690 -1.4095 -0.6347
 7711SOL    HW234593   3.762   4.113  13.906  1.5622 -2.2378 -0.9096
 7712SOL     OW34594   2.243   1.718  11.876  0.2465 -0.0524  0.4265
 7712SOL    HW134595   2.233   1.624  11.887 -1.2271  0.1568  0.8972
 7712SOL    HW234596   2.276   1.714  11.786  2.1426  2.6481  0.9793
 7713SOL     OW34597   1.339   1.173   6.696  0.3686  0.0533  0.6139
 7713SOL    HW134598   1.307   1.263   6.686 -0.7672 -0.5224 -0.8384
 7713SOL    HW234599   1.340   1.122   6.615 -0.9792  1.0262 -0.0184
 7714SOL     OW34600   3.653   2.284  16.771 -0.9114  0.1421  0.9537
 7714SOL    HW134601   3.645   2.210  16.711  1.7456 -0.4133  1.2602
 7714SOL    HW234602   3.705   2.256  16.846  0.5029 -0.7608 -0.3463
 7715SOL     OW34603   4.430   3.187   6.504  0.3450 -0.2278 -0.2343
 7715SOL    HW134604   4.483   3.248   6.555  0.6538  0.8658 -1.8543
 7715SOL    HW234605   4.505   3.140   6.467  1.3919 -0.4251  2.0983
 7716SOL     OW34606   3.315   3.233   8.850 -0.1999  0.3302 -0.1664
 7716SOL    HW134607   3.327   3.186   8.768  0.9596 -1.6128  1.1212
 7716SOL    HW234608   3.286   3.321   8.825 -0.8634 -0.5744 -2.5387
 7717SOL     OW34609   4.417   4.234  16.255  0.3868 -0.5524  0.7085
 7717SOL    HW134610   4.470   4.299  16.300  0.6744 -0.4673  0.2529
 7717SOL    HW234611   4.340   4.289  16.246  0.0907 -1.1477 -0.4902
 7718SOL     OW34612   0.079   1.295   8.289 -0.7668  0.1684  0.1001
 7718SOL    HW134613   0.086   1.211   8.244 -1.0237  1.1534 -1.7907
 7718SOL    HW234614   0.127   1.270   8.367  0.3618  0.2896 -0.5638
 7719SOL     OW34615   4.377   1.649   2.281  0.2711 -0.0284 -0.4173
 7719SOL    HW134616   4.401   1.736   2.313  0.3801  0.2834 -1.3473
 7719SOL    HW234617   4.429   1.644   2.201  0.7066 -1.6936 -0.0405
 7720SOL     OW34618   3.247   1.877  12.317  0.5375 -0.2909  0.2930
 7720SOL    HW134619   3.251   1.937  12.392 -1.1372  1.3950 -0.9793
 7720SOL    HW234620   3.297   1.807  12.359 -0.3183 -0.2759  1.3533
 7721SOL     OW34621   1.958   1.198   7.884 -0.4493 -0.6000  0.1428
 7721SOL    HW134622   1.953   1.126   7.820 -2.5421  0.2957 -0.7041
 7721SOL    HW234623   1.869   1.217   7.915 -0.3728 -0.3013  0.1797
 7722SOL     OW34624   2.469   0.613   3.106  0.1312  0.2519 -0.6618
 7722SOL    HW134625   2.492   0.526   3.075  2.7032 -0.1487  2.3215
 7722SOL    HW234626   2.550   0.665   3.104  0.7461 -0.7988 -2.5291
 7723SOL     OW34627   3.314   2.712   6.917 -0.0579 -0.2669  0.4272
 7723SOL    HW134628   3.402   2.696   6.951  0.2530 -0.5333 -0.5044
 7723SOL    HW234629   3.283   2.622   6.911 -0.0804 -0.2404  0.1454
 7724SOL     OW34630   0.167   2.401   3.652 -0.1792  0.0599 -0.3695
 7724SOL    HW134631   0.179   2.405   3.747 -0.0094 -0.8477 -0.3574
 7724SOL    HW234632   0.254   2.367   3.631  0.8274  1.0803  2.1558
 7725SOL     OW34633   0.648   0.896   9.308  0.8607  0.6340 -0.5817
 7725SOL    HW134634   0.599   0.862   9.233 -1.4601  1.3033  0.6129
 7725SOL    HW234635   0.697   0.967   9.267  0.5821  1.9154  1.3055
 7726SOL     OW34636   0.405   4.226   6.515 -0.1466 -0.0285 -0.1176
 7726SOL    HW134637   0.458   4.303   6.532 -0.3644 -0.0760  0.7792
 7726SOL    HW234638   0.463   4.158   6.549  1.4515  1.2602 -0.2474
 7727SOL     OW34639   4.672   0.418   3.444  0.6964  0.3793 -0.4576
 7727SOL    HW134640   4.577   0.413   3.429  0.5169  1.6274  0.1905
 7727SOL    HW234641   4.671   0.378   3.531 -0.0903 -0.8847 -1.0434
 7728SOL     OW34642   0.137   1.336   3.450 -0.4599  0.3711 -0.0700
 7728SOL    HW134643   0.092   1.288   3.381 -1.2228  0.9669  0.0215
 7728SOL    HW234644   0.230   1.318   3.433 -0.3722 -0.4968  1.2875
 7729SOL     OW34645   0.201   1.521   8.176 -0.1275  0.0850  0.0640
 7729SOL    HW134646   0.113   1.542   8.145 -0.1752  1.2199  0.9561
 7729SOL    HW234647   0.183   1.445   8.232  0.0631  0.7152  0.9835
 7730SOL     OW34648   1.842   2.845   8.576 -0.1843  0.1115 -0.0238
 7730SOL    HW134649   1.830   2.940   8.577 -2.6808 -0.2080  1.1908
 7730SOL    HW234650   1.828   2.827   8.669  0.0755 -0.8365 -0.1665
 7731SOL     OW34651   1.324   2.143  13.734 -0.3214 -0.0478 -0.1231
 7731SOL    HW134652   1.315   2.078  13.804  1.2282 -1.4658 -1.2415
 7731SOL    HW234653   1.246   2.196  13.749  1.1578  1.2211  3.2934
 7732SOL     OW34654   1.228   1.714   8.126 -0.0410 -0.4647 -0.4610
 7732SOL    HW134655   1.184   1.715   8.211  0.1560  1.8347 -0.3890
 7732SOL    HW234656   1.189   1.789   8.081  1.2876  0.7255  0.3648
 7733SOL     OW34657   0.078   3.933  16.793  0.1970 -0.4010  0.1708
 7733SOL    HW134658   0.173   3.930  16.779  0.5325  0.1693  2.2959
 7733SOL    HW234659   0.066   3.851  16.842 -0.7667  0.0734  0.7237
 7734SOL     OW34660   1.618   1.354   6.141 -0.4575  0.4346 -0.3091
 7734SOL    HW134661   1.542   1.307   6.177 -0.5463  0.2631 -0.7269
 7734SOL    HW234662   1.644   1.399   6.222 -2.6388  0.0941  0.6024
 7735SOL     OW34663   0.217   0.236  15.078  0.0856 -0.6457  0.2766
 7735SOL    HW134664   0.130   0.272  15.095 -0.2562 -1.7643  0.8722
 7735SOL    HW234665   0.279   0.304  15.104  1.3226 -1.7176  0.1060
 7736SOL     OW34666   3.748   3.045  17.074  0.3244 -0.4601  0.1220
 7736SOL    HW134667   3.708   3.080  17.154  1.4670  2.9119 -0.7689
 7736SOL    HW234668   3.819   2.988  17.102  0.8351  0.7589  1.3406
 7737SOL     OW34669   2.751   2.971  14.130  0.9546  0.2085 -0.2986
 7737SOL    HW134670   2.762   2.984  14.036  0.3744  2.6936 -0.0166
 7737SOL    HW234671   2.832   2.924  14.151  1.7942  1.6589 -0.2964
 7738SOL     OW34672   2.329   1.858  15.729 -0.0050  0.3066 -0.2052
 7738SOL    HW134673   2.276   1.928  15.692  0.4119 -0.9071 -3.1219
 7738SOL    HW234674   2.279   1.780  15.707 -1.9502  1.9288 -1.5107
 7739SOL     OW34675   3.760   4.363   8.746 -0.4011 -0.4347 -0.3022
 7739SOL    HW134676   3.803   4.446   8.763 -1.1065 -0.2875  0.7628
 7739SOL    HW234677   3.751   4.364   8.650  1.6767  0.0571 -0.4885
 7740SOL     OW34678   3.657   2.995   1.089 -0.3622  0.5377 -0.2889
 7740SOL    HW134679   3.742   3.038   1.090 -0.4750  0.7379  0.5890
 7740SOL    HW234680   3.627   3.009   1.000 -1.0725  2.2563  0.2365
 7741SOL     OW34681   2.005   3.008  16.738  0.0496  0.0557 -0.4755
 7741SOL    HW134682   1.958   2.980  16.817 -2.0234  1.3016 -1.2719
 7741SOL    HW234683   2.084   3.045  16.778  0.6930  0.6550 -2.3372
 7742SOL     OW34684   3.203   3.240   3.293 -0.0589  0.0127  0.1024
 7742SOL    HW134685   3.129   3.191   3.329 -0.0921  1.6917  2.3284
 7742SOL    HW234686   3.159   3.297   3.230  0.1764  0.1519  0.0607
 7743SOL     OW34687   1.231   2.955   4.481  0.0775  0.3153  0.4955
 7743SOL    HW134688   1.167   3.025   4.472  2.1999  2.2098  0.2598
 7743SOL    HW234689   1.190   2.903   4.550  0.8504 -1.0679 -0.0781
 7744SOL     OW34690   1.704   4.220   6.300 -0.3815  0.1012  0.6452
 7744SOL    HW134691   1.725   4.304   6.341 -0.3218  1.0015 -1.2068
 7744SOL    HW234692   1.644   4.184   6.364 -1.1046  0.9642  0.4648
 7745SOL     OW34693   4.329   3.308  14.339 -0.2509  0.0558 -0.1766
 7745SOL    HW134694   4.420   3.338  14.340 -0.5307  0.7410  3.4517
 7745SOL    HW234695   4.301   3.364  14.411 -0.0338  0.7657 -0.6395
 7746SOL     OW34696   1.692   4.375   5.618 -0.1761  0.5529  0.2289
 7746SOL    HW134697   1.625   4.413   5.676  0.2042  0.2463  0.8716
 7746SOL    HW234698   1.768   4.358   5.674 -0.2252  0.8457  0.3858
 7747SOL     OW34699   1.977   1.123   6.943 -0.0656  0.4630  0.2514
 7747SOL    HW134700   1.882   1.118   6.931 -0.3347  0.5210  2.3374
 7747SOL    HW234701   1.972   1.179   7.021 -0.3963 -1.6125  1.7210
 7748SOL     OW34702   3.535   3.870   1.111  0.5119  0.3561 -0.1432
 7748SOL    HW134703   3.601   3.879   1.180 -0.9147  0.5874  1.2022
 7748SOL    HW234704   3.574   3.806   1.052  1.0407  1.0676 -0.5730
 7749SOL     OW34705   1.897   3.551   6.190  0.0050  0.2748 -0.3683
 7749SOL    HW134706   1.885   3.581   6.280  1.6995  3.6550 -1.2613
 7749SOL    HW234707   1.841   3.606   6.135 -1.5471  0.3289  1.3004
 7750SOL     OW34708   0.166   4.208   5.057  0.1493  0.0710  0.1397
 7750SOL    HW134709   0.179   4.128   5.007  1.5601 -0.1322  0.8042
 7750SOL    HW234710   0.138   4.275   4.995  0.8348 -0.2795 -0.5423
 7751SOL     OW34711   1.450   3.038   5.275 -0.0149 -0.4003  0.5245
 7751SOL    HW134712   1.405   2.982   5.211 -2.5095  2.0866  0.1010
 7751SOL    HW234713   1.516   3.074   5.217 -1.1683  1.3048  0.2770
 7752SOL     OW34714   4.279   4.017   8.805  0.1701  0.4697 -0.2081
 7752SOL    HW134715   4.291   3.968   8.886 -0.0609  0.7602  0.0019
 7752SOL    HW234716   4.365   4.006   8.764  0.7491 -0.0234  1.1522
 7753SOL     OW34717   2.844   3.290  10.774  0.4878  0.4347 -0.0641
 7753SOL    HW134718   2.897   3.224  10.819 -0.3223 -0.4732 -0.4265
 7753SOL    HW234719   2.802   3.233  10.709  2.0217  1.2515 -1.7801
 7754SOL     OW34720   2.612   4.567   8.528  0.4093 -0.4804  0.1883
 7754SOL    HW134721   2.624   4.568   8.623  2.1607 -3.0065 -0.0107
 7754SOL    HW234722   2.567   4.484   8.515  0.3338 -0.4008 -0.0725
 7755SOL     OW34723   1.828   3.627   5.232 -0.3056 -0.4796  0.1066
 7755SOL    HW134724   1.748   3.680   5.239 -0.8040 -1.3277  0.9412
 7755SOL    HW234725   1.875   3.670   5.161 -0.3586  1.0058  0.9788
 7756SOL     OW34726   1.091   3.292   2.946 -0.6154 -0.1357 -0.4276
 7756SOL    HW134727   1.177   3.301   2.987 -0.1476  0.1535 -1.4803
 7756SOL    HW234728   1.106   3.241   2.867  0.0622 -0.2024 -0.2531
 7757SOL     OW34729   2.674   2.687   4.038 -0.0276  0.4370 -0.3128
 7757SOL    HW134730   2.712   2.623   4.098 -1.0779 -0.0010 -0.1114
 7757SOL    HW234731   2.624   2.628   3.981  0.7436 -1.2318  0.7415
 7758SOL     OW34732   0.458   3.848   6.409 -0.2012  0.6879  0.2312
 7758SOL    HW134733   0.479   3.884   6.495 -0.1914 -0.0287  0.5331
 7758SOL    HW234734   0.531   3.788   6.392 -0.5883  0.0350  0.8555
 7759SOL     OW34735   3.827   4.075   2.690 -0.0275 -0.6531  0.4714
 7759SOL    HW134736   3.844   3.982   2.673 -0.1592 -0.6774  0.4715
 7759SOL    HW234737   3.738   4.062   2.724 -0.5800  0.5083 -0.5386
 7760SOL     OW34738   2.601   1.853  11.484  0.0384  0.0904 -0.3995
 7760SOL    HW134739   2.632   1.764  11.501  0.2079  0.3119  0.4504
 7760SOL    HW234740   2.516   1.843  11.442  0.0596  0.5647 -0.5539
 7761SOL     OW34741   2.469   2.757   2.840  0.0444 -0.1474  0.1628
 7761SOL    HW134742   2.475   2.841   2.796 -0.5547 -0.8705 -1.2801
 7761SOL    HW234743   2.375   2.741   2.847  0.2124 -0.6800  1.3741
 7762SOL     OW34744   0.167   3.139   2.301  0.4285  0.0036  0.3608
 7762SOL    HW134745   0.100   3.172   2.242  0.6864  1.6667  0.9888
 7762SOL    HW234746   0.246   3.129   2.249 -0.7622 -0.6634 -1.2999
 7763SOL     OW34747   2.408   0.225   0.164  0.0308 -0.3957  0.7174
 7763SOL    HW134748   2.485   0.206   0.217  0.5551 -1.1669 -0.3234
 7763SOL    HW234749   2.448   0.271   0.091 -0.4905 -0.3087  0.4906
 7764SOL     OW34750   2.093   2.687   5.112 -0.3286 -0.3493  0.0879
 7764SOL    HW134751   2.027   2.655   5.051  0.4880 -0.7051 -0.6087
 7764SOL    HW234752   2.065   2.778   5.119 -0.5540 -0.4715  0.7838
 7765SOL     OW34753   2.487   0.326   7.024 -0.0019 -0.5151  0.0340
 7765SOL    HW134754   2.541   0.248   7.009  1.2783  0.6201 -1.2286
 7765SOL    HW234755   2.506   0.341   7.117  1.5422 -0.3946 -0.3104
 7766SOL     OW34756   2.226   4.440   4.676 -0.0651  0.0053  0.5148
 7766SOL    HW134757   2.226   4.535   4.680 -0.5257 -0.0160  1.0941
 7766SOL    HW234758   2.285   4.429   4.751  1.4101 -2.1502 -0.9528
 7767SOL     OW34759   1.421   3.134  12.692  1.1649  0.1553 -0.5819
 7767SOL    HW134760   1.476   3.203  12.655 -0.3262  1.3876 -0.5167
 7767SOL    HW234761   1.473   3.055  12.675  1.8470  0.5903 -0.5157
 7768SOL     OW34762   2.870   1.891  10.299  0.2292 -0.3010  0.5752
 7768SOL    HW134763   2.907   1.805  10.321 -1.3069 -0.8901  0.8607
 7768SOL    HW234764   2.869   1.937  10.383 -3.6227  0.5929  0.0433
 7769SOL     OW34765   0.369   2.573   2.359 -0.0609  0.7532 -0.2052
 7769SOL    HW134766   0.434   2.619   2.412  0.5118 -2.3531  1.7397
 7769SOL    HW234767   0.402   2.599   2.273 -0.9620  1.5099 -0.3237
 7770SOL     OW34768   0.863   1.284   5.179 -0.3099 -0.3782  0.4183
 7770SOL    HW134769   0.928   1.288   5.249 -0.2400  3.1029  0.1683
 7770SOL    HW234770   0.870   1.372   5.141  0.4397 -0.2488  0.8594
 7771SOL     OW34771   4.160   4.553  15.462  0.5802 -0.4031 -0.3942
 7771SOL    HW134772   4.193   4.471  15.425  1.0037 -0.2088 -0.4369
 7771SOL    HW234773   4.223   4.617  15.430  0.7929 -0.6334 -0.4305
 7772SOL     OW34774   2.448   4.396   7.073  0.8295 -0.4138  0.1549
 7772SOL    HW134775   2.359   4.390   7.037 -0.1679  0.1932  2.5841
 7772SOL    HW234776   2.430   4.434   7.158 -0.4561 -0.4070 -0.1212
 7773SOL     OW34777   0.375   3.172   7.532  0.5605 -0.3316 -0.2860
 7773SOL    HW134778   0.333   3.087   7.517  0.8858 -0.3561 -1.0684
 7773SOL    HW234779   0.371   3.168   7.628 -0.0903  2.5142 -0.2043
 7774SOL     OW34780   3.810   0.781   6.002 -0.2531 -0.1851 -0.1572
 7774SOL    HW134781   3.881   0.814   6.058 -0.3692  0.9895 -0.7105
 7774SOL    HW234782   3.732   0.832   6.021 -0.0732  0.2157 -0.5124
 7775SOL     OW34783   2.076   2.948  11.008  0.0941 -0.3044  0.1184
 7775SOL    HW134784   2.116   3.014  10.952 -1.8417  0.5604 -0.2559
 7775SOL    HW234785   2.148   2.886  11.007 -1.3758 -2.0027 -1.0649
 7776SOL     OW34786   1.646   2.959   6.788 -0.1796  0.2981 -0.1387
 7776SOL    HW134787   1.695   2.991   6.712 -2.4201 -0.1273 -1.7727
 7776SOL    HW234788   1.665   2.866   6.771  0.4826  0.0269  2.1358
 7777SOL     OW34789   3.143   2.638  14.135  0.0892 -0.1176 -0.0118
 7777SOL    HW134790   3.092   2.613  14.212 -0.0442  0.1749 -0.0067
 7777SOL    HW234791   3.067   2.664  14.083 -0.4849 -1.2497  0.2419
 7778SOL     OW34792   4.081   0.343   4.979  0.1401 -0.1717 -0.2077
 7778SOL    HW134793   4.089   0.396   5.058  1.0889  1.5511 -1.4433
 7778SOL    HW234794   4.139   0.269   5.000  1.1411  0.3331 -1.1900
 7779SOL     OW34795   1.586   4.122   1.170 -0.1904  0.1750  0.2416
 7779SOL    HW134796   1.495   4.095   1.185  0.8619 -2.2323  2.2581
 7779SOL    HW234797   1.563   4.201   1.121 -0.1681  0.1401  0.1753
 7780SOL     OW34798   0.643   0.886   8.081 -0.1375  0.2122  0.5616
 7780SOL    HW134799   0.696   0.814   8.047  1.8416  1.2039  1.5357
 7780SOL    HW234800   0.650   0.952   8.012  2.1255  0.7745  1.3189
 7781SOL     OW34801   4.360   0.976  14.603  0.1254 -0.8761 -0.2550
 7781SOL    HW134802   4.360   0.978  14.508 -2.7664  1.7710 -0.1702
 7781SOL    HW234803   4.427   0.909  14.618  0.7967  0.2264  1.7600
 7782SOL     OW34804   2.448   0.383  14.093  0.5725  0.0877  0.5378
 7782SOL    HW134805   2.424   0.381  14.000 -0.1586  1.1278  0.7025
 7782SOL    HW234806   2.389   0.317  14.128 -1.1512  1.8224  0.9158
 7783SOL     OW34807   4.251   2.015  14.763 -0.8220  0.3866  0.3705
 7783SOL    HW134808   4.198   2.093  14.780  1.0606  1.6311  0.5041
 7783SOL    HW234809   4.315   2.051  14.702 -0.0507 -1.3365  0.1748
 7784SOL     OW34810   0.591   3.620  12.060  0.1339 -0.2552 -0.4782
 7784SOL    HW134811   0.516   3.648  12.008 -1.7107 -1.3743  1.5783
 7784SOL    HW234812   0.663   3.607  11.998  0.6080 -1.9944  0.4353
 7785SOL     OW34813   4.116   3.503   8.780 -0.1733  0.2057  0.3499
 7785SOL    HW134814   4.176   3.451   8.834  1.1466  0.5684 -0.7706
 7785SOL    HW234815   4.139   3.596   8.784 -0.9428  0.4587 -1.0248
 7786SOL     OW34816   2.254   1.084  12.559  0.5869  0.0249  0.0993
 7786SOL    HW134817   2.260   1.073  12.654 -0.9779  0.7962  0.2778
 7786SOL    HW234818   2.167   1.124  12.554  2.0069  3.1970  0.6535
 7787SOL     OW34819   2.474   3.203   3.881 -0.1889 -0.0978  0.1614
 7787SOL    HW134820   2.454   3.161   3.798 -0.1650 -0.3700  0.2950
 7787SOL    HW234821   2.568   3.222   3.876 -0.1376  0.1098  1.9566
 7788SOL     OW34822   4.397   1.995  17.342 -0.2886  0.6468 -0.0201
 7788SOL    HW134823   4.474   1.985  17.399  1.8941 -0.8518 -3.1954
 7788SOL    HW234824   4.343   1.930  17.385 -0.8947  2.0680  1.3973
 7789SOL     OW34825   4.071   2.124   7.375 -0.0150 -0.2053 -0.2334
 7789SOL    HW134826   4.058   2.142   7.282 -2.8311 -1.4047 -0.0798
 7789SOL    HW234827   4.017   2.045   7.369  0.6213 -0.7425  1.1773
 7790SOL     OW34828   3.183   3.237   9.578 -0.4134  0.1001 -0.1865
 7790SOL    HW134829   3.136   3.300   9.633 -2.8731 -1.8299 -0.1014
 7790SOL    HW234830   3.261   3.222   9.631 -0.2531  0.9307 -0.1797
 7791SOL     OW34831   0.059   1.479  15.673  0.0943  0.6693 -0.7103
 7791SOL    HW134832   4.696   1.468  15.718  1.0006 -0.6102  0.6591
 7791SOL    HW234833   0.074   1.386  15.658  0.0953  0.6107 -0.3530
 7792SOL     OW34834   1.231   2.924   3.549 -0.0501 -0.0340 -0.5827
 7792SOL    HW134835   1.146   2.962   3.573 -0.8781 -0.3455 -3.0391
 7792SOL    HW234836   1.252   2.877   3.630 -1.5571 -1.2927 -0.9158
 7793SOL     OW34837   0.637   1.899   8.290 -0.4296  0.2024  0.8506
 7793SOL    HW134838   0.605   1.968   8.232  1.4532 -1.2654 -1.9508
 7793SOL    HW234839   0.602   1.818   8.253 -1.6471  1.8274 -1.5173
 7794SOL     OW34840   0.952   2.061   1.489  0.0889  0.4455  1.0939
 7794SOL    HW134841   0.869   2.106   1.475  1.7078  1.8191 -4.1520
 7794SOL    HW234842   1.007   2.101   1.421  1.0399  0.4623  1.8727
 7795SOL     OW34843   3.717   4.336  17.155  0.1816  0.4146  0.1358
 7795SOL    HW134844   3.706   4.250  17.195 -1.4735  0.7135  0.3173
 7795SOL    HW234845   3.749   4.304  17.070 -0.6134  0.0386 -0.0330
 7796SOL     OW34846   0.526   0.947   4.497 -0.0725  0.2939  0.2341
 7796SOL    HW134847   0.516   1.036   4.531  0.5376  1.6784 -3.1822
 7796SOL    HW234848   0.477   0.947   4.415  0.4614 -0.1439 -0.0930
 7797SOL     OW34849   2.816   0.490  13.979 -0.0887  0.1118  0.0715
 7797SOL    HW134850   2.885   0.555  13.991 -0.6140  0.8409 -0.9318
 7797SOL    HW234851   2.860   0.411  14.012  0.0891  0.7548  1.3893
 7798SOL     OW34852   3.251   4.638   0.941 -0.1520  0.3963 -0.1053
 7798SOL    HW134853   3.176   4.582   0.927  0.0546  0.1839 -0.3720
 7798SOL    HW234854   3.305   4.631   0.862 -1.4367  2.4756 -1.1859
 7799SOL     OW34855   2.737   2.209  13.553  0.6444 -0.1020  0.2622
 7799SOL    HW134856   2.746   2.304  13.544  3.0913 -0.0284  3.2680
 7799SOL    HW234857   2.644   2.187  13.549  0.0559  2.3050  0.5559
 7800SOL     OW34858   4.582   2.046  15.319 -0.4999 -0.7056 -0.2853
 7800SOL    HW134859   4.490   2.064  15.340 -0.9498 -4.0084  0.5616
 7800SOL    HW234860   4.576   2.027  15.226 -0.8858 -0.5611 -0.2915
 7801SOL     OW34861   1.369   3.088   8.724  0.3816 -0.8607 -0.8912
 7801SOL    HW134862   1.456   3.127   8.726 -0.0979 -0.0191  3.7685
 7801SOL    HW234863   1.387   2.994   8.721  0.6254 -0.8789  2.0154
 7802SOL     OW34864   0.725   3.321   5.515  0.4084  0.2554 -0.1631
 7802SOL    HW134865   0.712   3.365   5.599 -2.8753  0.5527 -0.7998
 7802SOL    HW234866   0.786   3.377   5.467  1.3523 -1.3719 -0.8387
 7803SOL     OW34867   2.332   3.211  16.402 -0.9305 -0.4612  0.2359
 7803SOL    HW134868   2.382   3.239  16.478 -0.7796 -0.2169  0.0485
 7803SOL    HW234869   2.311   3.121  16.427 -2.0457  0.0980  1.2439
 7804SOL     OW34870   1.926   3.957   2.518 -1.0938 -0.0256  0.0436
 7804SOL    HW134871   1.853   3.994   2.470  0.9703 -1.2517 -4.0379
 7804SOL    HW234872   1.967   3.904   2.449 -0.8208 -1.2657  1.1377
 7805SOL     OW34873   2.401   2.194   8.309 -0.4938  0.2199 -0.6212
 7805SOL    HW134874   2.493   2.171   8.299 -0.3059  1.0814 -0.8857
 7805SOL    HW234875   2.388   2.204   8.403 -1.1381 -1.7362 -0.4942
 7806SOL     OW34876   2.867   2.416   0.186  0.4139 -0.0622  0.1028
 7806SOL    HW134877   2.941   2.460   0.146  1.0117 -1.5422 -0.4333
 7806SOL    HW234878   2.883   2.322   0.176  0.2246 -0.3335  2.3080
 7807SOL     OW34879   3.445   3.576   4.154 -0.0452  0.3641 -0.0460
 7807SOL    HW134880   3.508   3.526   4.204 -0.5858  0.1816  0.4480
 7807SOL    HW234881   3.427   3.656   4.203  0.9748  0.5120  0.0919
 7808SOL     OW34882   2.025   3.306   7.357 -0.9016 -0.2105 -0.4165
 7808SOL    HW134883   1.947   3.295   7.303 -0.9787  1.0037 -0.5557
 7808SOL    HW234884   1.981   3.314   7.442  0.2238  0.4203  0.1073
 7809SOL     OW34885   2.906   3.408   6.831  0.1115 -0.1181  0.2178
 7809SOL    HW134886   2.870   3.454   6.756 -1.3709  0.9069  1.5629
 7809SOL    HW234887   2.981   3.466   6.844  0.1257  0.0909 -0.7598
 7810SOL     OW34888   3.184   4.091   5.425 -0.5077 -0.1528 -0.4873
 7810SOL    HW134889   3.170   4.117   5.516  1.6560  1.1587 -0.5305
 7810SOL    HW234890   3.245   4.016   5.423 -0.4193 -0.0778 -0.6065
 7811SOL     OW34891   1.916   2.885  12.231 -0.3884 -0.0767  0.4806
 7811SOL    HW134892   1.850   2.954  12.239  1.1598  1.7117 -1.9364
 7811SOL    HW234893   1.980   2.937  12.182 -0.2894 -1.9378 -1.4139
 7812SOL     OW34894   4.048   3.275  17.011  0.0507 -0.0790 -0.0459
 7812SOL    HW134895   4.007   3.262  17.096 -0.0910 -1.7167 -0.3607
 7812SOL    HW234896   4.042   3.188  16.972  2.5881  0.7693 -2.2963
 7813SOL     OW34897   0.174   1.477  11.268 -0.0970  0.2054 -0.5171
 7813SOL    HW134898   0.125   1.484  11.350  0.8336  1.8434 -0.0948
 7813SOL    HW234899   0.233   1.551  11.282  0.8759 -0.4122 -1.3513
 7814SOL     OW34900   1.560   0.442   5.110  0.1531 -0.0913  0.0624
 7814SOL    HW134901   1.478   0.481   5.077  2.7613  3.8988 -1.7237
 7814SOL    HW234902   1.540   0.349   5.106 -0.4861  0.0629 -0.4121
 7815SOL     OW34903   0.807   0.289  16.771  0.0310 -0.1479  0.2874
 7815SOL    HW134904   0.861   0.218  16.806  1.0472 -0.8596 -2.6888
 7815SOL    HW234905   0.774   0.316  16.856 -1.4908  0.8991 -0.6499
 7816SOL     OW34906   4.124   2.952   5.706 -0.0832 -0.2013  0.0332
 7816SOL    HW134907   4.136   2.941   5.800 -0.5209 -0.2803  0.0774
 7816SOL    HW234908   4.198   3.008   5.681 -0.1638  0.2554  0.8410
 7817SOL     OW34909   1.676   1.967   1.628 -0.4228 -0.0001  0.6372
 7817SOL    HW134910   1.598   2.015   1.655 -0.2399  1.1061 -0.7944
 7817SOL    HW234911   1.662   1.956   1.534 -0.8292  1.8198  0.4767
 7818SOL     OW34912   1.062   2.356   7.189  0.3802 -0.0531 -0.3239
 7818SOL    HW134913   1.137   2.298   7.197 -1.8409 -2.9816 -0.5929
 7818SOL    HW234914   1.108   2.437   7.170  0.1698  0.8344  2.9363
 7819SOL     OW34915   0.003   0.508  11.803 -0.1859 -0.1376 -0.0232
 7819SOL    HW134916   0.005   0.504  11.899  1.0224  1.2859  0.0106
 7819SOL    HW234917   4.631   0.519  11.783  0.2503  0.4570 -1.6616
 7820SOL     OW34918   1.300   1.148  15.842 -0.1811  0.2581 -0.2711
 7820SOL    HW134919   1.288   1.231  15.888 -1.1483  0.5909 -1.1423
 7820SOL    HW234920   1.394   1.151  15.860 -0.1819 -0.7334 -0.1137
 7821SOL     OW34921   0.289   0.284   4.935 -0.7421 -0.2330 -0.0285
 7821SOL    HW134922   0.361   0.223   4.924 -0.3629 -0.3609  3.0936
 7821SOL    HW234923   0.208   0.238   4.912 -0.6593  0.6243 -2.0670
 7822SOL     OW34924   0.178   3.337   9.275  0.1700  0.4029  0.3600
 7822SOL    HW134925   0.268   3.305   9.289  0.5275  0.9864 -0.6258
 7822SOL    HW234926   0.153   3.374   9.359 -0.9677 -1.2367  0.7473
 7823SOL     OW34927   3.854   0.121   8.243 -0.2022  0.3085  0.6615
 7823SOL    HW134928   3.794   0.117   8.318 -1.8339 -2.2118 -0.7445
 7823SOL    HW234929   3.838   0.208   8.208  3.7912 -0.2937 -2.7490
 7824SOL     OW34930   4.254   0.469   8.025  0.1071 -0.1150 -0.0194
 7824SOL    HW134931   4.234   0.501   7.937 -1.2045 -2.4049 -0.5703
 7824SOL    HW234932   4.166   0.454   8.059 -0.1147  0.3144 -0.4097
 7825SOL     OW34933   4.541   3.298   2.714 -0.4654  0.4723 -0.0240
 7825SOL    HW134934   4.481   3.367   2.744 -1.3411 -0.4522  0.3733
 7825SOL    HW234935   4.586   3.339   2.640 -0.0612 -0.6210 -0.3869
 7826SOL     OW34936   1.424   3.950   4.528  0.1328  0.4663  0.4987
 7826SOL    HW134937   1.519   3.943   4.515  0.2348  0.3582  1.3119
 7826SOL    HW234938   1.400   4.020   4.468  0.8395 -1.3207 -1.8826
 7827SOL     OW34939   0.551   2.011   0.572  0.5752 -0.4600  0.8054
 7827SOL    HW134940   0.492   1.947   0.612  0.5575 -0.1811  1.2283
 7827SOL    HW234941   0.585   2.056   0.649 -1.4737  2.4310  0.0297
 7828SOL     OW34942   0.008   3.009  14.247 -0.3613  0.1995  0.3658
 7828SOL    HW134943   4.656   2.999  14.308 -0.3161  1.0983  0.5670
 7828SOL    HW234944   0.016   2.917  14.225  0.4574  0.4540 -0.4041
 7829SOL     OW34945   1.084   2.216   8.513  0.3983  0.3807 -0.3317
 7829SOL    HW134946   1.079   2.311   8.518  0.6191  0.5009 -2.3519
 7829SOL    HW234947   1.029   2.192   8.438 -2.3738  0.7970  1.6083
 7830SOL     OW34948   0.231   3.919   3.138 -0.1203  0.4120 -0.0275
 7830SOL    HW134949   0.286   3.949   3.065 -1.4397 -0.0740 -1.2261
 7830SOL    HW234950   0.197   3.836   3.105 -0.6248 -0.2531  2.2293
 7831SOL     OW34951   1.340   1.771   3.183 -0.2524  0.0764 -0.0321
 7831SOL    HW134952   1.425   1.815   3.190 -0.8805  1.2422  0.2588
 7831SOL    HW234953   1.306   1.811   3.104  0.8115 -0.0253 -0.5472
 7832SOL     OW34954   4.501   3.940  11.595 -0.1295  0.0766 -0.3941
 7832SOL    HW134955   4.587   3.963  11.630  1.0729  0.3254 -3.4993
 7832SOL    HW234956   4.476   3.859  11.639  1.6695  0.3146  1.0708
 7833SOL     OW34957   0.103   2.455  12.782 -0.3182  0.2286  0.0138
 7833SOL    HW134958   0.037   2.406  12.832 -2.7161  1.0420 -2.3621
 7833SOL    HW234959   0.113   2.539  12.826  0.0831  0.2194 -0.0660
 7834SOL     OW34960   2.364   0.332   2.926  0.0928  0.1497  0.4292
 7834SOL    HW134961   2.374   0.237   2.920 -1.6021  0.0019  0.0125
 7834SOL    HW234962   2.278   0.337   2.884 -0.2449 -2.6385  0.7602
 7835SOL     OW34963   0.895   2.012  14.371  0.2353 -0.2859  0.5507
 7835SOL    HW134964   0.872   1.919  14.367  1.5041 -0.6039  0.6836
 7835SOL    HW234965   0.941   2.019  14.287 -0.5731 -0.5995  0.0874
 7836SOL     OW34966   3.130   3.578   2.009 -0.2541 -0.0688 -0.2064
 7836SOL    HW134967   3.102   3.584   1.917  0.5597 -0.1333 -0.4554
 7836SOL    HW234968   3.046   3.574   2.055 -0.1259 -2.2521 -0.1887
 7837SOL     OW34969   1.018   2.928   5.988  0.4925 -0.4228  0.3171
 7837SOL    HW134970   0.964   2.851   5.973  0.9430 -0.5939 -0.4273
 7837SOL    HW234971   1.001   2.966   5.902  1.4594  1.4620  0.9479
 7838SOL     OW34972   1.924   4.572  10.963 -0.4134 -0.1821  0.0697
 7838SOL    HW134973   1.861   4.602  10.898  0.7576  0.3963 -0.7975
 7838SOL    HW234974   1.978   4.651  10.959 -1.0739  0.2080 -1.2446
 7839SOL     OW34975   3.754   4.644  12.062 -0.1965 -0.8793 -0.2246
 7839SOL    HW134976   3.777   0.005  12.106 -1.7369 -0.3172 -0.4889
 7839SOL    HW234977   3.799   4.653  11.978  1.4034 -0.8075  0.6403
 7840SOL     OW34978   2.843   3.213  11.235 -0.3115 -0.4743  0.4238
 7840SOL    HW134979   2.856   3.160  11.157 -0.6212  0.3773 -0.2126
 7840SOL    HW234980   2.845   3.303  11.201  0.1909 -0.2731  0.9804
 7841SOL     OW34981   3.868   2.564   3.855 -0.2689  0.0749  0.0079
 7841SOL    HW134982   3.907   2.634   3.907  0.1404  0.4289 -0.7929
 7841SOL    HW234983   3.943   2.527   3.809  0.0024 -0.0643  0.5619
 7842SOL     OW34984   2.061   1.390   1.440  0.3256  0.1327  0.3691
 7842SOL    HW134985   2.068   1.352   1.352  0.8747  0.9235  0.0761
 7842SOL    HW234986   2.074   1.312   1.494 -0.8070  0.2588  0.8338
 7843SOL     OW34987   1.707   0.198   8.709  0.2005  0.0935 -0.8066
 7843SOL    HW134988   1.793   0.237   8.723 -0.5070  1.2471  0.3669
 7843SOL    HW234989   1.725   0.105   8.712 -2.7032 -0.4257  0.3975
 7844SOL     OW34990   2.759   1.313  15.798  0.3934  0.5116  0.4398
 7844SOL    HW134991   2.753   1.233  15.850  2.6245 -0.5883 -1.0024
 7844SOL    HW234992   2.852   1.313  15.775 -0.0665 -0.3001 -1.4115
 7845SOL     OW34993   2.837   2.858   1.249 -0.1452 -0.3056 -0.0863
 7845SOL    HW134994   2.766   2.800   1.275 -0.6351 -0.5124 -1.8726
 7845SOL    HW234995   2.878   2.870   1.334  2.4904  2.5126 -1.7531
 7846SOL     OW34996   1.020   3.468  16.966  0.2473  0.5345  0.1278
 7846SOL    HW134997   1.099   3.448  16.916 -0.5496 -2.8075  0.2292
 7846SOL    HW234998   1.062   3.489  17.050 -0.6069  0.8860  0.4664
 7847SOL     OW34999   3.968   2.667   6.142  0.1265 -0.3278  0.5614
 7847SOL    HW135000   3.996   2.651   6.232  1.4369  1.2674  0.4343
 7847SOL    HW235001   3.887   2.617   6.134 -1.5736  2.2914  1.3174
 7848SOL     OW35002   3.168   3.792   4.709 -0.2222 -0.2809  0.6506
 7848SOL    HW135003   3.083   3.770   4.749 -0.4105 -0.0191  0.3864
 7848SOL    HW235004   3.136   3.780   4.620 -3.2413 -2.7698  2.0075
 7849SOL     OW35005   0.208   1.506   3.921  0.0364  0.3162 -0.2412
 7849SOL    HW135006   0.273   1.436   3.912 -1.7653 -1.7617  2.6555
 7849SOL    HW235007   0.148   1.481   3.851 -2.9383  0.1639  2.3413
 7850SOL     OW35008   1.561   3.595   1.220  0.3934  0.2588  0.0652
 7850SOL    HW135009   1.626   3.609   1.289 -1.5980 -0.3374  2.0283
 7850SOL    HW235010   1.501   3.668   1.231 -0.0061  0.3776 -2.7956
 7851SOL     OW35011   3.227   2.660   3.764 -0.4805 -0.3069  0.1637
 7851SOL    HW135012   3.221   2.732   3.701 -0.0330  0.1416  0.6245
 7851SOL    HW235013   3.136   2.637   3.781 -0.7283 -0.5319 -1.5062
 7852SOL     OW35014   4.211   4.632  16.936 -0.1520  0.0481 -0.0249
 7852SOL    HW135015   4.172   4.575  16.869  0.1795  0.2526 -0.3884
 7852SOL    HW235016   4.268   4.574  16.987  2.5110  0.3890 -2.5789
 7853SOL     OW35017   2.779   1.793   5.262  0.2997  0.3259 -0.3238
 7853SOL    HW135018   2.725   1.857   5.215  1.8020  0.1783 -2.2535
 7853SOL    HW235019   2.742   1.714   5.224  0.3531 -0.6004  1.5624
 7854SOL     OW35020   3.569   2.428   7.530  0.0434  0.2540  0.0249
 7854SOL    HW135021   3.506   2.469   7.589 -0.3286  0.1302 -0.2886
 7854SOL    HW235022   3.551   2.475   7.448 -0.5858 -0.1880 -0.0938
 7855SOL     OW35023   3.477   0.423   6.763 -0.0087  0.5194  0.2765
 7855SOL    HW135024   3.540   0.492   6.746  3.1832 -2.4289  0.0722
 7855SOL    HW235025   3.451   0.442   6.853 -2.4769 -1.2128 -0.0772
 7856SOL     OW35026   2.164   2.038   3.193 -0.1265  0.2476 -0.2228
 7856SOL    HW135027   2.236   2.042   3.257 -1.1097 -1.3513  0.9829
 7856SOL    HW235028   2.176   2.120   3.147  0.3370  0.2955 -0.0206
 7857SOL     OW35029   2.893   3.646   8.576  0.0868  0.3231  0.4164
 7857SOL    HW135030   2.901   3.676   8.666  2.3073 -2.6624  1.2310
 7857SOL    HW235031   2.836   3.718   8.549 -1.0745 -1.2784 -1.4346
 7858SOL     OW35032   0.661   1.875  15.897  0.1701  0.3720  0.1582
 7858SOL    HW135033   0.578   1.836  15.869  1.4528 -0.7633 -2.0438
 7858SOL    HW235034   0.700   1.796  15.933 -0.0508  0.0447 -0.3162
 7859SOL     OW35035   2.480   0.174   5.586 -0.0440  0.1104 -0.3843
 7859SOL    HW135036   2.416   0.221   5.532  0.0732  0.9897  0.2309
 7859SOL    HW235037   2.455   0.083   5.570 -0.3336  0.2030 -0.4765
 7860SOL     OW35038   3.073   3.993   8.898 -0.7478  0.3522  0.1643
 7860SOL    HW135039   3.141   4.028   8.955  0.4930  0.8532 -1.6353
 7860SOL    HW235040   3.128   3.942   8.838 -0.3046  1.7843 -0.6250
 7861SOL     OW35041   3.175   4.343   1.856  0.1401 -0.1609  0.0019
 7861SOL    HW135042   3.153   4.432   1.881 -0.4749 -0.4619  0.5286
 7861SOL    HW235043   3.084   4.322   1.834  0.6459 -0.3494 -1.9022
 7862SOL     OW35044   1.446   1.476   3.717 -0.5523  0.3159 -0.4476
 7862SOL    HW135045   1.510   1.546   3.709 -0.3060  0.1999  0.4833
 7862SOL    HW235046   1.473   1.411   3.651  0.8148  0.9281 -0.4810
 7863SOL     OW35047   2.373   0.588   4.991 -0.1757  0.5757 -0.0181
 7863SOL    HW135048   2.375   0.607   4.898  0.2812  0.1626 -0.0890
 7863SOL    HW235049   2.447   0.638   5.027  0.0424 -0.3348  0.8185
 7864SOL     OW35050   2.571   1.343   0.117 -0.4139 -0.3772 -0.5492
 7864SOL    HW135051   2.639   1.284   0.150 -1.8970 -1.8772 -0.1813
 7864SOL    HW235052   2.616   1.423   0.090  1.6016 -1.0614  0.7386
 7865SOL     OW35053   4.555   1.457   5.838  0.5129  0.6005 -0.0184
 7865SOL    HW135054   4.556   1.516   5.763 -0.1655 -0.5192 -0.9087
 7865SOL    HW235055   4.523   1.510   5.912 -1.3430 -0.4028 -0.0788
 7866SOL     OW35056   2.857   3.779   1.935 -0.3213 -0.2631 -0.0748
 7866SOL    HW135057   2.846   3.861   1.887  0.4412  0.8496  1.6398
 7866SOL    HW235058   2.821   3.721   1.868  0.9397 -1.8547  0.6192
 7867SOL     OW35059   2.603   2.411   6.111 -0.1147  0.2055 -0.1250
 7867SOL    HW135060   2.660   2.405   6.187 -0.3650 -1.0389 -0.0362
 7867SOL    HW235061   2.666   2.450   6.050  0.0205 -2.1032 -1.4611
 7868SOL     OW35062   2.227   3.736   4.155 -0.2362  0.1802  0.4230
 7868SOL    HW135063   2.276   3.735   4.073 -0.0355  1.6019  0.5123
 7868SOL    HW235064   2.139   3.742   4.118 -0.2280 -0.5759  0.2954
 7869SOL     OW35065   2.372   2.622   5.010 -0.1421 -0.0655  0.2670
 7869SOL    HW135066   2.339   2.584   4.928 -2.0287  0.9208  0.5656
 7869SOL    HW235067   2.314   2.575   5.070 -1.8934  0.2085 -1.1949
 7870SOL     OW35068   3.097   0.455   3.546  0.4845  0.4486 -0.6565
 7870SOL    HW135069   3.124   0.509   3.471 -1.9282  0.5634 -1.4512
 7870SOL    HW235070   3.037   0.515   3.590  0.4362  0.5751 -0.8932
 7871SOL     OW35071   1.941   3.954   4.730  0.2940  0.1981 -0.8402
 7871SOL    HW135072   1.947   4.006   4.810  2.5625 -1.8886  0.3647
 7871SOL    HW235073   1.891   4.008   4.669 -1.8620  0.4346  1.1692
 7872SOL     OW35074   3.812   1.356  11.580 -0.5476  0.6835  0.1024
 7872SOL    HW135075   3.850   1.276  11.543  1.1325  1.7979 -0.5498
 7872SOL    HW235076   3.864   1.424  11.538 -0.5176  0.9054  0.4953
 7873SOL     OW35077   3.398   0.954   4.021 -0.1881 -0.1074 -0.2487
 7873SOL    HW135078   3.491   0.973   4.034  0.3072 -1.1504 -2.2663
 7873SOL    HW235079   3.385   0.875   4.073  0.6560 -2.2511 -3.3318
 7874SOL     OW35080   2.483   1.636   3.733  0.1186 -0.3288 -0.2281
 7874SOL    HW135081   2.419   1.572   3.700 -0.6476 -0.0956  0.7999
 7874SOL    HW235082   2.565   1.609   3.691  0.1770  0.8485 -0.8658
 7875SOL     OW35083   0.809   4.429   4.323  0.3761  0.4075  0.0406
 7875SOL    HW135084   0.723   4.390   4.304  1.5838 -1.3941 -1.7096
 7875SOL    HW235085   0.806   4.511   4.275 -0.2461  1.3840  1.7165
 7876SOL     OW35086   0.931   3.892   6.278 -0.2144 -0.8312  0.7156
 7876SOL    HW135087   0.993   3.900   6.351 -1.9180  0.5269  2.0211
 7876SOL    HW235088   0.901   3.981   6.258 -2.3650 -1.7992 -0.2676
 7877SOL     OW35089   2.367   2.674   9.144 -0.4832  0.5521 -0.0643
 7877SOL    HW135090   2.314   2.742   9.184 -0.8064  0.9195 -1.1089
 7877SOL    HW235091   2.409   2.722   9.072 -0.6125  0.1532 -0.4094
 7878SOL     OW35092   0.058   3.997  12.278  0.4762  0.1617 -0.0870
 7878SOL    HW135093   4.704   4.019  12.223  0.5476 -3.2517 -1.5546
 7878SOL    HW235094   0.023   3.920  12.322 -1.5330  1.3941  0.4362
 7879SOL     OW35095   0.646   1.068   2.342 -0.6650 -0.0363 -0.0222
 7879SOL    HW135096   0.712   1.045   2.277 -0.3866 -2.3381  1.0687
 7879SOL    HW235097   0.592   0.990   2.329 -1.0512  0.0954  0.7698
 7880SOL     OW35098   1.224   0.592  16.708  0.3259  0.0123 -0.2502
 7880SOL    HW135099   1.271   0.644  16.642 -1.5174 -0.4559 -1.9084
 7880SOL    HW235100   1.207   0.653  16.780  0.1758 -0.6029  0.2343
 7881SOL     OW35101   0.613   1.242  12.441 -0.2297 -0.2567 -0.1548
 7881SOL    HW135102   0.610   1.159  12.394 -0.7480 -0.8907  0.9912
 7881SOL    HW235103   0.521   1.267  12.451  0.1111  0.8532  0.2172
 7882SOL     OW35104   2.272   3.951   1.758  0.0416 -0.6410  0.2575
 7882SOL    HW135105   2.311   4.017   1.701 -4.0743  1.7908  0.2670
 7882SOL    HW235106   2.262   3.988   1.845  0.3645  2.8176 -1.2049
 7883SOL     OW35107   1.405   1.206   8.300 -0.0413 -0.0479 -0.6830
 7883SOL    HW135108   1.414   1.252   8.217 -0.8215  2.4401  0.6053
 7883SOL    HW235109   1.472   1.138   8.294 -1.2558 -1.3974  0.7584
 7884SOL     OW35110   2.490   2.700   6.025  0.9211 -0.4815 -0.0666
 7884SOL    HW135111   2.578   2.661   6.025 -0.4072 -3.4536 -0.1709
 7884SOL    HW235112   2.467   2.686   6.117 -1.0967 -1.2268 -0.6944
 7885SOL     OW35113   3.344   1.346  15.112  0.4819 -0.2515 -0.2501
 7885SOL    HW135114   3.369   1.316  15.025  1.5162 -1.0484  0.3119
 7885SOL    HW235115   3.300   1.427  15.086  1.3692  0.5047  0.6243
 7886SOL     OW35116   1.654   3.294   6.939 -0.1332  0.4650 -0.2574
 7886SOL    HW135117   1.577   3.349   6.930 -1.5360 -1.5929 -0.8180
 7886SOL    HW235118   1.682   3.275   6.849 -1.4336 -1.5682 -0.2249
 7887SOL     OW35119   3.828   0.295   5.069 -0.3999 -0.1361 -0.2706
 7887SOL    HW135120   3.912   0.323   5.034  0.1323  1.6919  2.4533
 7887SOL    HW235121   3.803   0.350   5.144 -0.0428 -0.3110 -0.0253
 7888SOL     OW35122   2.194   2.204   3.537  0.3262  0.1518 -0.4710
 7888SOL    HW135123   2.109   2.193   3.495  0.4210  0.2211 -0.6784
 7888SOL    HW235124   2.179   2.192   3.631  0.2573  2.1500 -0.2241
 7889SOL     OW35125   3.089   3.219   2.004 -0.4557 -0.2035 -0.0320
 7889SOL    HW135126   3.104   3.145   2.063  0.6388  0.5321  0.5976
 7889SOL    HW235127   3.162   3.218   1.942  0.2148  1.3633  0.7467
 7890SOL     OW35128   3.250   2.372   7.828 -0.0330 -0.7329 -0.1766
 7890SOL    HW135129   3.267   2.388   7.921  0.6619  0.2662 -0.4750
 7890SOL    HW235130   3.307   2.297   7.810 -0.0558 -0.5180 -1.1328
 7891SOL     OW35131   3.806   0.755   4.020 -0.0747 -0.0764 -0.7458
 7891SOL    HW135132   3.778   0.759   3.929  0.2147  3.2792 -0.6784
 7891SOL    HW235133   3.901   0.761   4.011  0.1428 -2.5290 -0.1380
 7892SOL     OW35134   4.690   2.652   8.925 -0.2088  0.1766 -0.3915
 7892SOL    HW135135   4.715   2.743   8.940  1.1005 -0.2272 -0.1549
 7892SOL    HW235136   4.713   2.641   8.833  3.7640  0.0497  0.6368
 7893SOL     OW35137   0.611   1.221  12.719 -0.1470  0.1071 -0.0243
 7893SOL    HW135138   0.645   1.287  12.779  1.0865 -0.9428  0.4281
 7893SOL    HW235139   0.643   1.241  12.631  1.2735  0.1461  0.5171
 7894SOL     OW35140   4.136   0.425  13.590 -0.3613  0.0577 -0.1849
 7894SOL    HW135141   4.094   0.340  13.599 -0.0795 -0.1671 -1.0367
 7894SOL    HW235142   4.078   0.483  13.639 -0.5261 -0.9746  0.8448
 7895SOL     OW35143   0.305   0.352  12.434 -0.2564  0.1279  0.2335
 7895SOL    HW135144   0.357   0.367  12.513 -2.0556  0.2987  1.3816
 7895SOL    HW235145   0.259   0.272  12.461  0.1420 -0.8933 -2.1058
 7896SOL     OW35146   3.302   3.314   2.977  0.1672 -1.0999  0.2239
 7896SOL    HW135147   3.244   3.333   3.050  0.0878  1.8363 -0.5787
 7896SOL    HW235148   3.276   3.382   2.914  2.1596 -1.3106 -0.8093
 7897SOL     OW35149   2.074   1.838  10.702 -0.1370  0.1978 -0.0150
 7897SOL    HW135150   2.014   1.905  10.667  1.8943  1.3286 -1.3660
 7897SOL    HW235151   2.145   1.838  10.639  1.0148  3.4559  1.2531
 7898SOL     OW35152   3.188   1.732   7.224  0.8448  0.2880 -0.4233
 7898SOL    HW135153   3.245   1.711   7.150  1.6042  1.0329 -0.0531
 7898SOL    HW235154   3.166   1.642   7.251 -2.4995  0.9871 -0.8529
 7899SOL     OW35155   0.436   1.274   6.124  0.0393  0.6587 -0.5364
 7899SOL    HW135156   0.408   1.184   6.144  0.7492  1.0960  2.3737
 7899SOL    HW235157   0.391   1.331   6.186 -0.7089 -1.9341  1.3411
 7900SOL     OW35158   3.521   1.778   4.195 -0.4912 -0.5283 -0.0510
 7900SOL    HW135159   3.487   1.689   4.185  1.0049 -1.0642 -0.4030
 7900SOL    HW235160   3.596   1.777   4.135 -0.4658 -0.0411 -0.0232
 7901SOL     OW35161   3.642   2.795   2.657 -0.7251  0.8459 -0.5349
 7901SOL    HW135162   3.737   2.792   2.651 -0.6398  0.6891  0.8919
 7901SOL    HW235163   3.626   2.838   2.740 -0.8222  2.5725 -1.4564
 7902SOL     OW35164   2.851   3.505   2.913  0.0171 -0.3934 -0.2328
 7902SOL    HW135165   2.767   3.519   2.956 -0.1680  1.0175 -1.0804
 7902SOL    HW235166   2.863   3.410   2.907 -0.2001 -0.4334 -0.0168
 7903SOL     OW35167   3.876   0.692   1.121 -0.2104 -0.1995 -0.3827
 7903SOL    HW135168   3.940   0.713   1.053  0.8266  0.2552  0.7401
 7903SOL    HW235169   3.814   0.647   1.064  1.0891 -2.8737  0.2734
 7904SOL     OW35170   0.334   3.249  13.127 -0.2896  0.0414  0.1838
 7904SOL    HW135171   0.380   3.218  13.049  1.0185  1.0027  0.5713
 7904SOL    HW235172   0.339   3.174  13.186  0.8605 -1.4915 -1.8377
 7905SOL     OW35173   1.669   0.075   8.433  0.0374  0.8131 -0.0779
 7905SOL    HW135174   1.731   0.111   8.497  0.2506  0.6534 -0.1943
 7905SOL    HW235175   1.685   4.702   8.431 -2.1859  0.4217  1.4935
 7906SOL     OW35176   1.294   4.216  11.130  0.8132  0.5421  0.1249
 7906SOL    HW135177   1.236   4.247  11.060  0.3130 -0.4898  0.0810
 7906SOL    HW235178   1.367   4.278  11.133  0.5065  0.7360  3.3824
 7907SOL     OW35179   0.546   2.645   8.049 -0.2778  0.0972  0.1376
 7907SOL    HW135180   0.523   2.654   8.141  0.4103  3.0486 -0.0046
 7907SOL    HW235181   0.566   2.551   8.053  1.7208  0.4765 -0.6817
 7908SOL     OW35182   3.328   3.941  16.001 -0.0242  0.6678 -0.1392
 7908SOL    HW135183   3.309   3.890  16.080  2.0389 -0.1088 -0.1538
 7908SOL    HW235184   3.333   4.026  16.044  0.8440  1.0103 -0.9302
 7909SOL     OW35185   1.578   3.169   4.343  0.3839  0.1453 -0.3979
 7909SOL    HW135186   1.626   3.243   4.382 -0.3239  0.5106 -0.2311
 7909SOL    HW235187   1.550   3.129   4.426  2.2634 -0.6784 -0.1411
 7910SOL     OW35188   2.884   1.916   4.961  0.5568 -0.3096  0.0987
 7910SOL    HW135189   2.940   1.873   5.025 -0.7485 -0.8268  0.8922
 7910SOL    HW235190   2.873   1.853   4.890  1.1913  0.2789 -0.5320
 7911SOL     OW35191   0.874   0.351  16.096 -0.6094  0.0546  0.1713
 7911SOL    HW135192   0.798   0.297  16.118 -0.1452 -0.1859  1.2041
 7911SOL    HW235193   0.911   0.306  16.021  0.9365 -1.1882  1.6767
 7912SOL     OW35194   3.148   0.796   4.429  0.0921 -0.3314  0.5008
 7912SOL    HW135195   3.125   0.795   4.522 -0.6343  1.2293  0.3466
 7912SOL    HW235196   3.227   0.744   4.422  0.5427  0.0826  2.6411
 7913SOL     OW35197   3.470   1.909   3.908 -0.1281  0.2262  0.3987
 7913SOL    HW135198   3.470   1.886   4.001  0.2627 -1.0694  0.0823
 7913SOL    HW235199   3.541   1.863   3.863 -1.0671 -0.7368 -0.1103
 7914SOL     OW35200   1.543   1.689  10.206 -0.3605  0.6873 -0.1709
 7914SOL    HW135201   1.592   1.657  10.130 -0.4791  0.8043 -0.2957
 7914SOL    HW235202   1.610   1.727  10.263  0.5031 -1.5941  0.3257
 7915SOL     OW35203   3.386   2.213   5.484  0.0797 -0.9674 -0.0604
 7915SOL    HW135204   3.367   2.284   5.545 -0.6009 -0.1617 -1.2126
 7915SOL    HW235205   3.403   2.254   5.399  0.8236 -1.3266 -0.0858
 7916SOL     OW35206   1.685   4.400   2.094 -0.1431 -0.2894  0.0801
 7916SOL    HW135207   1.713   4.420   2.005  0.6437 -0.2085  0.3422
 7916SOL    HW235208   1.614   4.463   2.102 -0.6198 -1.1694  2.7823
 7917SOL     OW35209   3.306   2.017  12.561  0.0115  0.8080  0.2916
 7917SOL    HW135210   3.308   2.082  12.631 -0.1389 -0.4101  1.4270
 7917SOL    HW235211   3.264   1.947  12.612 -1.8118  1.7893  0.1134
 7918SOL     OW35212   2.828   2.120  13.975  0.0195  0.1303 -0.5353
 7918SOL    HW135213   2.866   2.144  14.059  0.2697 -1.4178 -0.2127
 7918SOL    HW235214   2.810   2.209  13.943 -1.6878 -0.4041 -1.0533
 7919SOL     OW35215   0.739   3.985   2.448  0.4090  0.5030 -0.8883
 7919SOL    HW135216   0.698   4.042   2.384 -0.0563  0.7003 -0.4180
 7919SOL    HW235217   0.832   3.990   2.426  1.0043  0.5470  1.5684
 7920SOL     OW35218   0.152   0.108   4.277 -0.1592 -0.2988  0.2255
 7920SOL    HW135219   0.109   0.040   4.330 -1.5340 -1.2256 -2.0871
 7920SOL    HW235220   0.082   0.173   4.276  1.8735  1.8630 -0.2570
 7921SOL     OW35221   2.901   1.136   3.791  0.3882  0.2210 -0.4294
 7921SOL    HW135222   2.976   1.180   3.831  0.5510 -1.1639  0.7833
 7921SOL    HW235223   2.948   1.075   3.733 -1.2225 -1.0421 -0.4092
 7922SOL     OW35224   3.415   4.044   2.492  0.2111  0.4352 -0.0209
 7922SOL    HW135225   3.326   4.043   2.455  0.7650  1.9298 -1.3783
 7922SOL    HW235226   3.448   4.132   2.473  0.9125  0.1861  0.0541
 7923SOL     OW35227   1.235   1.787   7.266  0.3035  0.4258  0.7771
 7923SOL    HW135228   1.189   1.703   7.264  2.2371 -0.6458  1.7564
 7923SOL    HW235229   1.163   1.844   7.294 -0.6621 -0.5797  0.3728
 7924SOL     OW35230   0.818   3.060   0.886  0.7233  0.7682 -0.0662
 7924SOL    HW135231   0.749   3.056   0.952 -0.8916 -0.4321 -1.8347
 7924SOL    HW235232   0.809   2.967   0.863  0.6955  1.2431 -2.0140
 7925SOL     OW35233   2.372   1.123  10.401  0.4883 -0.4062 -0.2063
 7925SOL    HW135234   2.358   1.218  10.410  3.2364 -0.0776  0.7541
 7925SOL    HW235235   2.396   1.128  10.309  1.8025  0.7048  0.1949
 7926SOL     OW35236   1.397   4.357   3.158 -0.5019  0.3305  0.2902
 7926SOL    HW135237   1.487   4.357   3.190 -0.1203 -0.0598 -0.7722
 7926SOL    HW235238   1.410   4.314   3.073 -1.3100  1.1329 -0.2374
 7927SOL     OW35239   0.107   3.543   5.338 -0.2227  0.2428  0.0262
 7927SOL    HW135240   0.048   3.554   5.264  0.1600  1.4754 -0.1010
 7927SOL    HW235241   0.043   3.570   5.403 -0.8633  0.6110 -0.7572
 7928SOL     OW35242   1.637   4.012   5.526 -0.0301 -0.1271  0.1270
 7928SOL    HW135243   1.624   3.999   5.432 -0.8885  0.1211  0.2136
 7928SOL    HW235244   1.599   4.094   5.558 -0.3295 -1.1496  2.4036
 7929SOL     OW35245   0.194   3.435   3.865  0.0505 -0.0958  0.3331
 7929SOL    HW135246   0.259   3.506   3.865 -3.8881  3.4982  0.4304
 7929SOL    HW235247   0.222   3.383   3.790 -0.8999  0.0612 -0.1324
 7930SOL     OW35248   3.996   2.117   2.139 -0.0048 -0.1882 -0.3707
 7930SOL    HW135249   3.960   2.203   2.157  0.9957  0.0987  0.2177
 7930SOL    HW235250   3.927   2.075   2.086 -0.0664  0.4730 -0.8102
 7931SOL     OW35251   2.597   2.150   6.447 -1.0616  0.4640  0.3249
 7931SOL    HW135252   2.517   2.176   6.402 -0.8725  0.9943  0.2955
 7931SOL    HW235253   2.597   2.054   6.445  0.4481  0.4922 -1.4126
 7932SOL     OW35254   3.111   2.301   3.879  0.5741 -0.1085  0.5198
 7932SOL    HW135255   3.044   2.240   3.911 -1.1124  1.0609 -0.7976
 7932SOL    HW235256   3.170   2.288   3.953  0.2457  0.5301  0.8946
 7933SOL     OW35257   1.498   4.170  10.188 -0.4489 -0.0861  0.3098
 7933SOL    HW135258   1.585   4.147  10.221 -1.4613  0.1220  3.1340
 7933SOL    HW235259   1.476   4.252  10.232 -0.2670  0.5432 -0.7671
 7934SOL     OW35260   2.897   1.132   6.582  0.4963  0.3095  0.7016
 7934SOL    HW135261   2.918   1.056   6.636  0.9322  0.2247  0.4167
 7934SOL    HW235262   2.803   1.140   6.599 -0.0724 -0.8451 -1.9811
 7935SOL     OW35263   3.207   4.519   6.865 -0.2475 -0.2519 -0.2756
 7935SOL    HW135264   3.246   4.605   6.845  0.8582 -1.0350 -1.5128
 7935SOL    HW235265   3.277   4.458   6.840 -0.4176  0.3803 -2.3003
 7936SOL     OW35266   3.922   4.498  15.586  0.1703 -0.1468 -0.1045
 7936SOL    HW135267   3.876   4.582  15.583  1.3966  0.5113 -0.4723
 7936SOL    HW235268   3.995   4.518  15.527 -1.5747  2.0900 -1.4757
 7937SOL     OW35269   3.852   2.891  12.037 -0.7029  0.4711  0.3176
 7937SOL    HW135270   3.880   2.926  12.122 -0.2834 -0.4388  0.5558
 7937SOL    HW235271   3.766   2.933  12.026 -1.3867 -1.1361 -0.3752
 7938SOL     OW35272   1.524   3.543  15.161  0.6481 -0.1093  0.0587
 7938SOL    HW135273   1.591   3.608  15.137 -0.0208  0.9397  0.9987
 7938SOL    HW235274   1.515   3.488  15.084 -0.3615 -1.4049  1.0975
 7939SOL     OW35275   3.656   2.970   3.338 -0.2158 -0.2665 -0.1490
 7939SOL    HW135276   3.603   2.912   3.282 -0.7755 -0.9031  1.0528
 7939SOL    HW235277   3.715   2.909   3.382  0.1117  0.1161 -0.0600
 7940SOL     OW35278   0.697   4.077   5.325  0.0811 -0.0085 -0.0346
 7940SOL    HW135279   0.681   4.120   5.409 -1.0717  0.4662 -0.4983
 7940SOL    HW235280   0.637   4.133   5.276  0.3888  0.4887  0.1528
 7941SOL     OW35281   0.138   4.623   1.293  0.7243  0.3107  0.1058
 7941SOL    HW135282   0.116   4.554   1.231  0.4887  0.0362  0.5007
 7941SOL    HW235283   0.128   4.575   1.375 -0.2903 -1.0215 -0.8100
 7942SOL     OW35284   3.531   2.953   6.787  0.0809 -0.4721  0.5952
 7942SOL    HW135285   3.531   2.867   6.746  1.9699 -1.1142  1.9412
 7942SOL    HW235286   3.451   2.943   6.838  0.1291 -1.8314  0.4053
 7943SOL     OW35287   3.257   4.594   9.198 -0.4757  0.2345  0.2358
 7943SOL    HW135288   3.302   4.509   9.208 -1.4320 -0.4909 -1.6602
 7943SOL    HW235289   3.334   4.643   9.168 -1.0864  1.0895  0.0752
 7944SOL     OW35290   1.212   4.509   3.322  0.0091 -0.4989 -0.6129
 7944SOL    HW135291   1.131   4.458   3.327 -1.6247  2.0578 -0.9100
 7944SOL    HW235292   1.257   4.465   3.250 -1.8647 -2.0000 -0.8660
 7945SOL     OW35293   4.121   1.518   6.457 -0.5243  1.1403  0.5373
 7945SOL    HW135294   4.136   1.424   6.455  0.9789  1.4012 -1.3458
 7945SOL    HW235295   4.033   1.522   6.494 -0.7570  2.5925 -0.1531
 7946SOL     OW35296   3.341   2.678   1.734  0.3261 -0.1108  0.2803
 7946SOL    HW135297   3.369   2.644   1.819 -0.7794  0.6908  0.9607
 7946SOL    HW235298   3.366   2.602   1.681  0.7486 -0.4112  0.9036
 7947SOL     OW35299   3.044   2.245   6.005 -0.0228 -0.1908 -0.2822
 7947SOL    HW135300   3.085   2.158   6.013 -1.5022 -0.9190 -0.6632
 7947SOL    HW235301   2.978   2.229   5.938 -1.4484 -0.7283  1.2532
 7948SOL     OW35302   0.763   0.511  12.101 -0.2828 -0.1244  0.2676
 7948SOL    HW135303   0.699   0.505  12.171 -0.1140  0.0659  0.4346
 7948SOL    HW235304   0.801   0.596  12.121  1.3201 -0.3603 -1.6643
 7949SOL     OW35305   0.081   0.983   4.207 -0.2932 -0.4011  0.0545
 7949SOL    HW135306   0.077   0.967   4.112 -0.8148 -1.8606  0.3361
 7949SOL    HW235307   4.716   0.957   4.238  0.4673  0.4349  2.8251
 7950SOL     OW35308   4.446   2.983  10.818  0.1119 -0.6268  0.3969
 7950SOL    HW135309   4.448   3.078  10.807  1.5787 -0.9977 -2.2590
 7950SOL    HW235310   4.370   2.993  10.876  1.7756  2.3688  2.0707
 7951SOL     OW35311   0.110   1.888   2.397  0.2446  0.5119 -0.3839
 7951SOL    HW135312   0.036   1.915   2.453 -2.9696 -1.5418 -3.6261
 7951SOL    HW235313   0.108   1.968   2.345 -1.6029 -0.5104 -1.8966
 7952SOL     OW35314   3.109   2.216   5.564 -0.3586 -0.8413  0.3300
 7952SOL    HW135315   3.157   2.190   5.485  0.8754 -1.5411  1.3116
 7952SOL    HW235316   3.019   2.207   5.534 -0.2668 -0.1449 -0.1551
 7953SOL     OW35317   0.207   4.716   6.671  0.7262 -0.1759  0.0300
 7953SOL    HW135318   0.221   0.086   6.647 -0.8480  0.0816  0.0584
 7953SOL    HW235319   0.141   4.688   6.608 -1.0903  2.2761  0.8305
 7954SOL     OW35320   3.619   0.553   6.301  0.0108 -0.0787  0.1396
 7954SOL    HW135321   3.693   0.493   6.298  0.1723  0.0502  1.6228
 7954SOL    HW235322   3.665   0.637   6.295 -2.3849  1.0315 -2.5361
 7955SOL     OW35323   4.671   0.208   4.571 -0.3265 -0.0620  0.2099
 7955SOL    HW135324   4.671   0.142   4.502  2.2622  0.3716 -0.1860
 7955SOL    HW235325   4.578   0.231   4.579  0.0201  1.6136 -0.6030
 7956SOL     OW35326   1.071   0.837   8.883 -0.3973  0.4031  0.3376
 7956SOL    HW135327   1.043   0.746   8.895 -1.2789  0.8372  1.5544
 7956SOL    HW235328   0.989   0.883   8.863 -0.3818  0.4188  0.3097
 7957SOL     OW35329   1.890   1.703   6.280 -0.3907 -0.2010  0.5370
 7957SOL    HW135330   1.879   1.710   6.186  1.1515  1.7393  0.5187
 7957SOL    HW235331   1.842   1.623   6.301  0.2958 -0.9919 -0.9413
 7958SOL     OW35332   3.090   3.586   2.600  0.4366  0.3237  0.6900
 7958SOL    HW135333   3.091   3.682   2.598  1.7844  0.3432  2.5049
 7958SOL    HW235334   3.013   3.558   2.552  1.5295 -0.1371 -0.8093
 7959SOL     OW35335   2.623   1.444  12.909  0.3627 -0.0600  0.2832
 7959SOL    HW135336   2.576   1.517  12.949  1.0316  0.6746 -0.2809
 7959SOL    HW235337   2.659   1.408  12.990 -0.7743  2.5738  1.9624
 7960SOL     OW35338   3.602   1.118   2.726 -0.6895 -0.7031 -0.8233
 7960SOL    HW135339   3.567   1.065   2.654 -2.5831 -1.3218  0.5523
 7960SOL    HW235340   3.531   1.098   2.787 -0.3942  0.6904 -0.0336
 7961SOL     OW35341   4.664   1.249  13.738 -0.2314  0.5742 -0.2432
 7961SOL    HW135342   4.695   1.304  13.810 -0.8563  1.2213 -0.4603
 7961SOL    HW235343   0.018   1.198  13.709  0.1631  1.2787 -0.4831
 7962SOL     OW35344   2.678   4.721   7.431 -0.4770  0.3801  0.0229
 7962SOL    HW135345   2.613   4.656   7.402  1.7587 -2.4141  1.3272
 7962SOL    HW235346   2.747   4.667   7.468 -0.0277  0.6055 -0.4769
 7963SOL     OW35347   4.080   4.237   7.563 -0.2162  0.4168  0.1751
 7963SOL    HW135348   4.131   4.182   7.622 -2.3673 -0.5060  1.1799
 7963SOL    HW235349   3.997   4.239   7.612  0.6363 -0.1553  1.6298
 7964SOL     OW35350   1.835   1.257  10.251 -0.2451 -0.1904 -0.5134
 7964SOL    HW135351   1.854   1.179  10.199 -1.4863 -1.9744  1.7264
 7964SOL    HW235352   1.768   1.222  10.309  0.4899  2.0826  1.6893
 7965SOL     OW35353   1.225   3.276   1.142 -0.6433  0.4194 -0.9111
 7965SOL    HW135354   1.148   3.237   1.183  0.5960  1.5051  2.4220
 7965SOL    HW235355   1.212   3.270   1.047  0.9467 -1.6811 -0.9843
 7966SOL     OW35356   4.018   1.354   5.323 -0.1080 -0.0900  0.1380
 7966SOL    HW135357   4.021   1.378   5.415 -1.3995 -1.0179  0.4144
 7966SOL    HW235358   3.936   1.394   5.296  0.4473  2.4309  2.1338
 7967SOL     OW35359   2.993   0.123  14.671 -0.1047  0.5983 -0.1467
 7967SOL    HW135360   2.923   0.097  14.611  1.2278 -1.1878 -0.9464
 7967SOL    HW235361   3.006   0.037  14.713 -0.9936  0.8172  0.5864
 7968SOL     OW35362   2.545   4.605   1.326 -0.4151 -0.4144 -0.3729
 7968SOL    HW135363   2.571   4.570   1.412 -0.2839 -0.2047 -0.3274
 7968SOL    HW235364   2.457   4.632   1.351  0.9083  2.1042  1.5236
 7969SOL     OW35365   3.570   3.108  10.058 -0.2150 -0.1741  0.2764
 7969SOL    HW135366   3.526   3.027  10.084 -1.9375  0.1243 -1.7751
 7969SOL    HW235367   3.496   3.164  10.079 -0.4933  0.0789 -1.3762
 7970SOL     OW35368   3.560   2.245   2.808 -0.1088  0.3185  0.1964
 7970SOL    HW135369   3.592   2.332   2.783  1.3953 -0.5300 -0.8331
 7970SOL    HW235370   3.631   2.189   2.779  0.2433  1.4062 -1.0523
 7971SOL     OW35371   0.722   4.071   8.450 -0.3526 -0.4796  0.1976
 7971SOL    HW135372   0.752   4.083   8.360 -0.4989  2.2221  0.5153
 7971SOL    HW235373   0.669   3.991   8.445 -0.1029 -0.6321  0.0372
 7972SOL     OW35374   3.930   2.222   0.916  0.1932 -0.6090  0.2764
 7972SOL    HW135375   3.980   2.271   0.851 -0.5618 -1.5230 -0.9911
 7972SOL    HW235376   3.986   2.213   0.992 -1.3398  1.4989  1.6584
 7973SOL     OW35377   3.835   1.658  11.196  0.3028 -0.4686  0.1077
 7973SOL    HW135378   3.783   1.734  11.223 -2.8508 -1.1412 -3.9786
 7973SOL    HW235379   3.879   1.630  11.276  1.2630 -0.4461 -0.4131
 7974SOL     OW35380   0.549   2.507   9.058  0.2779  0.3681 -0.2347
 7974SOL    HW135381   0.487   2.579   9.066  0.7360  0.8560 -1.1591
 7974SOL    HW235382   0.618   2.543   9.002  1.4943 -1.5588 -0.0044
 7975SOL     OW35383   0.530   1.218   4.576 -0.0530 -0.2403  0.2337
 7975SOL    HW135384   0.500   1.307   4.561 -0.7712 -0.5771 -0.3261
 7975SOL    HW235385   0.524   1.217   4.672  2.1310  1.4951  0.3909
 7976SOL     OW35386   2.361   0.625   6.539  0.0991 -0.1791 -0.1403
 7976SOL    HW135387   2.401   0.698   6.585  1.3842 -1.3841  0.6375
 7976SOL    HW235388   2.310   0.573   6.601  2.6443 -0.1164  1.9492
 7977SOL     OW35389   4.642   3.814   7.385  0.7372 -0.5787 -0.2036
 7977SOL    HW135390   4.643   3.779   7.474  1.0437 -0.2998 -0.0981
 7977SOL    HW235391   4.709   3.756   7.350 -2.1003 -2.6377 -2.2078
 7978SOL     OW35392   1.781   2.063  13.097  1.0115 -0.7614  0.1124
 7978SOL    HW135393   1.854   2.023  13.050 -1.9219 -3.2022 -2.3521
 7978SOL    HW235394   1.713   2.002  13.069 -1.1101  0.9195  1.7088
 7979SOL     OW35395   3.159   2.868   3.130 -0.4714 -0.7658 -0.1533
 7979SOL    HW135396   3.079   2.845   3.082 -2.1448 -0.5168  2.5493
 7979SOL    HW235397   3.209   2.789   3.107  1.1648 -0.0614  0.9999
 7980SOL     OW35398   4.447   2.390   3.737  0.5768 -0.2873  0.0759
 7980SOL    HW135399   4.510   2.319   3.745  1.3498  0.4070  0.0564
 7980SOL    HW235400   4.442   2.397   3.642 -0.4693  0.0471  0.1501
 7981SOL     OW35401   0.350   1.363   6.626 -0.0930  0.2007 -0.2719
 7981SOL    HW135402   0.359   1.459   6.634 -0.8059  0.3381 -1.1993
 7981SOL    HW235403   0.396   1.342   6.708  1.9824 -2.4122 -2.1193
 7982SOL     OW35404   0.319   1.700   8.416 -0.1541 -0.1421  0.2713
 7982SOL    HW135405   0.284   1.644   8.347  0.1036  3.6999 -2.9622
 7982SOL    HW235406   0.270   1.779   8.394  0.3911  0.5062  1.3986
 7983SOL     OW35407   1.870   2.190   0.823 -0.2478 -0.1188  0.2031
 7983SOL    HW135408   1.872   2.278   0.786 -1.1123  0.4699  1.5389
 7983SOL    HW235409   1.899   2.203   0.914 -0.5547 -0.0498  0.2911
 7984SOL     OW35410   1.606   1.238  11.989 -0.6211 -0.0175  0.2312
 7984SOL    HW135411   1.655   1.157  11.974 -0.3659  0.3707 -1.0800
 7984SOL    HW235412   1.538   1.232  11.922 -0.8763 -0.3028  0.5149
 7985SOL     OW35413   2.915   0.383  16.435  0.3379  0.4700  0.4577
 7985SOL    HW135414   2.997   0.337  16.416 -0.1942 -0.7434  1.0888
 7985SOL    HW235415   2.943   0.466  16.397 -2.2872  1.8160  1.4678
 7986SOL     OW35416   2.739   2.956   4.842 -0.0877 -0.1762  0.2726
 7986SOL    HW135417   2.659   3.008   4.847  0.5054  0.9602 -2.0916
 7986SOL    HW235418   2.719   2.885   4.903 -2.0467 -0.5889 -0.8612
 7987SOL     OW35419   1.493   2.826   3.360 -0.8800 -0.8058  0.1195
 7987SOL    HW135420   1.545   2.830   3.440  0.2607  1.9484 -0.7843
 7987SOL    HW235421   1.553   2.803   3.289 -0.5473  0.7624 -0.1006
 7988SOL     OW35422   1.642   1.938   6.054  0.1674 -0.0370 -0.3870
 7988SOL    HW135423   1.731   1.908   6.034  1.2672  0.2543  4.1499
 7988SOL    HW235424   1.592   1.863   6.024  0.8716 -0.0626 -1.5135
 7989SOL     OW35425   0.515   3.860  11.387 -0.4248 -0.1870  0.0550
 7989SOL    HW135426   0.564   3.806  11.325  0.1033 -0.7825  0.9823
 7989SOL    HW235427   0.493   3.943  11.345 -2.0693 -1.6890 -2.0135
 7990SOL     OW35428   3.213   1.008   3.813  0.5061 -0.1419 -0.3806
 7990SOL    HW135429   3.290   1.009   3.871  1.4083  1.1889 -1.6062
 7990SOL    HW235430   3.236   0.923   3.776 -2.1795 -0.5683 -1.0667
 7991SOL     OW35431   3.409   1.381   4.359  0.3493  0.1521 -0.3745
 7991SOL    HW135432   3.356   1.427   4.423  0.1541 -1.1370  0.3830
 7991SOL    HW235433   3.398   1.290   4.385  2.9710 -0.1361 -0.2580
 7992SOL     OW35434   2.501   3.183  10.763  0.2813  0.4574 -0.2623
 7992SOL    HW135435   2.424   3.190  10.706  1.1687  1.4439 -1.3675
 7992SOL    HW235436   2.562   3.238  10.714 -0.2997  0.3968 -1.0539
 7993SOL     OW35437   3.817   1.177   6.223 -0.3571  0.8149 -0.2172
 7993SOL    HW135438   3.873   1.206   6.295 -0.4143  1.0935 -0.2839
 7993SOL    HW235439   3.751   1.246   6.214 -1.8587 -0.8174 -1.6705
 7994SOL     OW35440   2.370   2.051   9.119 -0.4129 -0.5141  0.3256
 7994SOL    HW135441   2.413   2.004   9.190  2.4142  2.1196  0.3551
 7994SOL    HW235442   2.353   1.977   9.061  0.6681  0.6849 -1.5251
 7995SOL     OW35443   1.036   0.288  16.518  0.2412  0.2301  0.4779
 7995SOL    HW135444   1.069   0.293  16.608  2.0635 -2.2806 -0.0701
 7995SOL    HW235445   1.115   0.297  16.465  1.1285 -1.4605  1.5169
 7996SOL     OW35446   2.531   0.638   4.181 -0.4738  0.3087  0.3973
 7996SOL    HW135447   2.529   0.573   4.252 -0.4480 -0.1874 -0.0557
 7996SOL    HW235448   2.511   0.724   4.220  1.6731  1.5018 -1.1745
 7997SOL     OW35449   3.559   3.530   8.564 -0.3363 -0.3464  0.0316
 7997SOL    HW135450   3.582   3.437   8.567 -0.2949 -0.3156  0.7316
 7997SOL    HW235451   3.623   3.574   8.621  0.4014 -2.6268  0.9367
 7998SOL     OW35452   2.165   3.037  14.925  0.3571 -0.3517 -0.0668
 7998SOL    HW135453   2.237   2.988  14.884  2.2977  1.2514  1.4030
 7998SOL    HW235454   2.165   3.110  14.864 -0.9698  0.9662  1.4986
 7999SOL     OW35455   1.190   1.607   3.368  0.4314 -0.4612  0.0783
 7999SOL    HW135456   1.256   1.546   3.402 -0.9769 -1.8407  0.3136
 7999SOL    HW235457   1.253   1.663   3.323 -0.9028 -1.2987 -2.8356
 8000SOL     OW35458   2.481   4.319  11.937  0.1296 -0.0880 -0.1563
 8000SOL    HW135459   2.526   4.369  12.005  1.0305 -1.2343  0.0956
 8000SOL    HW235460   2.546   4.304  11.869  0.2120 -1.5526  0.2580
 8001SOL     OW35461   1.487   3.371  15.549 -0.0942 -0.9078  0.0141
 8001SOL    HW135462   1.433   3.322  15.610 -0.4270 -3.2030 -2.1456
 8001SOL    HW235463   1.543   3.308  15.504  0.3229  0.6292 -1.6191
 8002SOL     OW35464   3.760   4.381   2.435 -0.7814 -0.3374  0.4720
 8002SOL    HW135465   3.839   4.390   2.381 -1.4160  0.6513 -0.2671
 8002SOL    HW235466   3.793   4.369   2.524  1.0344 -1.9045 -0.4171
 8003SOL     OW35467   0.316   2.961   9.321 -0.4335  0.2652  0.6248
 8003SOL    HW135468   0.220   2.963   9.325 -0.6156 -2.8363 -2.6046
 8003SOL    HW235469   0.339   3.052   9.339  0.4925  0.0864  0.3053
 8004SOL     OW35470   1.359   2.122   9.478 -0.1131 -0.1698  0.4788
 8004SOL    HW135471   1.374   2.043   9.426 -0.6161  0.9003 -1.3359
 8004SOL    HW235472   1.267   2.107   9.497 -0.3660  1.7000  0.8038
 8005SOL     OW35473   3.836   4.693   8.010 -1.2600  0.0026  0.0514
 8005SOL    HW135474   3.911   4.721   7.957  0.4247 -0.3307  2.2895
 8005SOL    HW235475   3.844   0.031   8.084  1.3002  1.5815 -1.4750
 8006SOL     OW35476   2.114   3.968   4.962  0.3083  0.7997  0.4950
 8006SOL    HW135477   2.180   3.990   4.897  0.1476 -0.7882 -0.2140
 8006SOL    HW235478   2.153   3.887   4.995 -1.7011 -1.4632 -2.7066
 8007SOL     OW35479   2.493   4.350   9.283  0.5251  0.1072 -0.0545
 8007SOL    HW135480   2.453   4.343   9.369 -0.2804 -0.0253 -0.4421
 8007SOL    HW235481   2.569   4.292   9.292  1.1507  0.9494  0.0265
 8008SOL     OW35482   1.895   1.772   2.736  0.1924 -0.8918  0.4357
 8008SOL    HW135483   1.970   1.819   2.701  1.0930 -1.6162  1.4013
 8008SOL    HW235484   1.849   1.742   2.657  0.2891  1.8182 -0.6477
 8009SOL     OW35485   3.895   1.932   6.279  0.6633  0.0517 -0.4810
 8009SOL    HW135486   3.974   1.965   6.322  1.1766  0.3657 -1.6432
 8009SOL    HW235487   3.841   2.009   6.264  2.7723  1.8513  1.1745
 8010SOL     OW35488   2.621   2.747   1.584 -0.7188  0.6749  0.2769
 8010SOL    HW135489   2.673   2.731   1.663 -3.1152  2.0584  2.1335
 8010SOL    HW235490   2.577   2.829   1.604  0.0097  1.4641 -1.4130
 8011SOL     OW35491   4.627   3.792   9.363  0.9626  0.3708 -0.4500
 8011SOL    HW135492   4.665   3.706   9.344  1.5049  0.3874  0.5314
 8011SOL    HW235493   4.707   3.843   9.378  1.3793 -1.3095  3.1325
 8012SOL     OW35494   2.571   0.625  12.136 -0.3654  0.5006  0.0762
 8012SOL    HW135495   2.490   0.585  12.104  0.1242  0.0404 -0.5943
 8012SOL    HW235496   2.557   0.624  12.231  2.3854  0.9244  0.4933
 8013SOL     OW35497   0.623   1.160   7.523  0.1851  0.3032 -0.2405
 8013SOL    HW135498   0.661   1.082   7.562  1.5631  0.3647 -1.4619
 8013SOL    HW235499   0.549   1.176   7.582  0.5130 -2.4034  0.8946
 8014SOL     OW35500   2.516   1.033   4.006 -0.0108 -0.2051  0.1960
 8014SOL    HW135501   2.597   1.005   3.962  0.3436  0.3255  0.5137
 8014SOL    HW235502   2.530   1.127   3.998 -2.4902 -0.1368 -3.3472
 8015SOL     OW35503   3.766   2.787   5.850  0.3130 -0.0907 -0.5824
 8015SOL    HW135504   3.751   2.872   5.892 -0.0986  0.6151 -2.1633
 8015SOL    HW235505   3.808   2.736   5.919 -1.9123 -2.4932 -0.9565
 8016SOL     OW35506   3.933   3.477   5.102  0.5324 -0.0219 -0.4650
 8016SOL    HW135507   3.971   3.563   5.084 -0.0235 -0.1080 -2.1325
 8016SOL    HW235508   3.860   3.500   5.159 -0.5158 -1.9325 -1.0283
 8017SOL     OW35509   2.963   0.371   3.001  0.6726  0.2568  0.4269
 8017SOL    HW135510   3.041   0.422   2.978  1.2216 -1.0592 -0.6264
 8017SOL    HW235511   2.996   0.322   3.076 -0.5885  1.9359  2.0680
 8018SOL     OW35512   1.708   4.152   2.450  0.2299 -0.5974 -0.0223
 8018SOL    HW135513   1.659   4.143   2.368 -0.0920  0.9714 -0.0129
 8018SOL    HW235514   1.687   4.244   2.467  2.4526 -0.4907  2.1237
 8019SOL     OW35515   3.604   1.994   7.760 -0.3719 -0.4141 -0.4321
 8019SOL    HW135516   3.539   1.965   7.696  0.4804  1.5121 -2.1719
 8019SOL    HW235517   3.669   2.024   7.696  0.9298  0.9404  1.4733
 8020SOL     OW35518   2.008   2.106  10.088  0.4366  0.3085 -0.0854
 8020SOL    HW135519   2.053   2.047  10.028 -0.6370 -2.2173  1.5692
 8020SOL    HW235520   2.070   2.178  10.104  2.7238 -1.3571 -1.4809
 8021SOL     OW35521   2.558   0.161   4.606 -0.3541 -0.3021 -0.3166
 8021SOL    HW135522   2.634   0.162   4.548  1.2861 -0.7826  1.8529
 8021SOL    HW235523   2.487   0.181   4.545 -0.7556  0.3728  0.3773
 8022SOL     OW35524   4.258   3.830  16.331 -0.2889  0.4365  0.0684
 8022SOL    HW135525   4.247   3.804  16.239  5.3671  0.2075 -0.5138
 8022SOL    HW235526   4.217   3.752  16.368  2.7207 -2.1296 -1.9604
 8023SOL     OW35527   2.733   4.712   1.139  0.2061  0.3880 -0.0604
 8023SOL    HW135528   2.666   0.058   1.128  0.0354 -0.2488 -3.0410
 8023SOL    HW235529   2.700   4.673   1.220  0.4615  1.4646  0.5619
 8024SOL     OW35530   3.113   2.317   4.591  0.2122  0.3581 -0.0947
 8024SOL    HW135531   3.162   2.260   4.649 -1.1240  2.1020  2.7411
 8024SOL    HW235532   3.058   2.255   4.542 -0.0488 -0.1368  0.8386
 8025SOL     OW35533   2.189   0.533   7.663  0.4856 -0.0309  0.5815
 8025SOL    HW135534   2.150   0.619   7.679 -0.8529 -0.4999 -0.1476
 8025SOL    HW235535   2.118   0.477   7.632  1.5837 -1.3708  0.4679
 8026SOL     OW35536   2.693   0.386   2.046  0.5432  0.3123 -0.3334
 8026SOL    HW135537   2.762   0.435   2.090 -0.3595 -0.0010  1.4311
 8026SOL    HW235538   2.674   0.324   2.117 -1.9556  0.5536 -0.7873
 8027SOL     OW35539   3.781   2.766  15.292 -0.8593 -0.1947  0.0183
 8027SOL    HW135540   3.709   2.753  15.231  0.6151  1.1696 -2.0149
 8027SOL    HW235541   3.849   2.788  15.228 -2.3796  0.9748 -1.2126
 8028SOL     OW35542   2.516   1.272   3.110  0.2067  0.3419 -0.7945
 8028SOL    HW135543   2.476   1.291   3.025 -0.1155  2.4023 -0.1786
 8028SOL    HW235544   2.507   1.177   3.114 -1.5227  0.5467 -0.0158
 8029SOL     OW35545   2.784   3.991   8.440  0.4588  0.2034  0.7016
 8029SOL    HW135546   2.878   3.973   8.443  0.4133  0.2293  1.9678
 8029SOL    HW235547   2.756   3.908   8.400  1.2574  0.7241 -0.9305
 8030SOL     OW35548   1.772   0.727  10.429  1.0184  0.1326 -0.6788
 8030SOL    HW135549   1.788   0.637  10.456 -2.2440 -0.4568 -0.7576
 8030SOL    HW235550   1.709   0.723  10.358 -2.2995  0.7308  2.2341
 8031SOL     OW35551   0.223   1.549  12.430  0.0459  0.2800 -0.2682
 8031SOL    HW135552   0.231   1.634  12.473 -3.0769  0.3266  0.1926
 8031SOL    HW235553   0.155   1.555  12.363  1.7104  2.4434 -1.7477
 8032SOL     OW35554   2.947   0.425   4.405  0.1609  0.1161 -0.5664
 8032SOL    HW135555   2.900   0.482   4.466 -0.9614  1.6523 -2.8641
 8032SOL    HW235556   2.929   0.341   4.447 -2.3885  1.7367  1.6089
 8033SOL     OW35557   1.160   4.387  16.024 -0.0210  0.0136  0.2357
 8033SOL    HW135558   1.200   4.360  15.942  0.6514 -2.4790  1.3781
 8033SOL    HW235559   1.199   4.474  16.032  0.7012 -0.2544 -0.3874
 8034SOL     OW35560   1.234   4.357   4.699  0.6977  0.3847 -0.2167
 8034SOL    HW135561   1.268   4.423   4.638  1.7830  0.3980  0.3967
 8034SOL    HW235562   1.202   4.408   4.773  2.4411 -1.1524  1.6030
 8035SOL     OW35563   1.256   2.599  13.784  0.5349  0.1995 -0.2521
 8035SOL    HW135564   1.272   2.569  13.874 -0.1913 -1.4443 -0.6572
 8035SOL    HW235565   1.308   2.529  13.744 -0.0113  0.6858 -1.7900
 8036SOL     OW35566   2.019   2.739   6.466  0.0316  0.3005 -0.5656
 8036SOL    HW135567   2.062   2.655   6.482  0.0522  0.6891  1.3135
 8036SOL    HW235568   2.090   2.804   6.463  1.0740 -0.8272 -0.1147
 8037SOL     OW35569   2.797   3.458   8.952 -0.2537  0.1024  0.5430
 8037SOL    HW135570   2.703   3.474   8.947 -0.1399  0.6697  0.2258
 8037SOL    HW235571   2.816   3.493   9.039  0.9024  0.1229  0.2859
 8038SOL     OW35572   3.915   1.285   8.318 -0.3660 -0.2347 -0.5308
 8038SOL    HW135573   3.964   1.357   8.279 -0.8315  0.0139 -0.6631
 8038SOL    HW235574   3.981   1.223   8.348 -0.0193  0.4719  0.1529
 8039SOL     OW35575   1.000   3.551   4.060 -0.6513 -0.2868 -0.2072
 8039SOL    HW135576   0.921   3.538   4.007  0.2799  1.6726 -2.1240
 8039SOL    HW235577   1.011   3.459   4.085 -0.7959 -0.0725  0.6367
 8040SOL     OW35578   2.835   4.123   7.334  0.2524  0.2431 -0.1499
 8040SOL    HW135579   2.929   4.126   7.320  0.0451  0.5526 -1.4924
 8040SOL    HW235580   2.810   4.204   7.289 -1.6939  0.0480  0.5731
 8041SOL     OW35581   1.832   0.906   3.377  0.7686  0.5366  0.2398
 8041SOL    HW135582   1.797   0.830   3.331  1.5043 -0.5328  1.4473
 8041SOL    HW235583   1.905   0.866   3.423  1.1713  0.4757 -0.4566
 8042SOL     OW35584   3.935   3.428   1.164  0.1422  0.1066  0.7046
 8042SOL    HW135585   3.890   3.505   1.130  1.0981 -0.6254 -2.2574
 8042SOL    HW235586   3.983   3.471   1.234 -0.2011  0.3331  0.8034
 8043SOL     OW35587   1.214   2.530   2.828 -0.1773 -0.4967 -0.0695
 8043SOL    HW135588   1.214   2.619   2.864  1.0737 -0.4588 -0.1581
 8043SOL    HW235589   1.122   2.508   2.844 -0.4362  0.8039  0.2288
 8044SOL     OW35590   0.858   4.244  16.648 -0.0208  0.4295  0.1042
 8044SOL    HW135591   0.864   4.215  16.739  0.0492  0.0849 -0.0105
 8044SOL    HW235592   0.905   4.327  16.648  0.3448  0.2202 -0.2751
 8045SOL     OW35593   3.182   4.215   7.478 -0.1836 -0.1816 -0.0946
 8045SOL    HW135594   3.209   4.174   7.560  2.9087  2.1076  0.0536
 8045SOL    HW235595   3.195   4.149   7.410  0.0416 -1.6564  1.3930
 8046SOL     OW35596   3.680   0.183  10.320  0.2239 -0.1776  0.1879
 8046SOL    HW135597   3.691   0.231  10.237 -3.5672  0.3463 -0.0356
 8046SOL    HW235598   3.620   0.245  10.362  0.1426 -0.2979  0.2481
 8047SOL     OW35599   0.608   4.480   0.521 -0.2257  0.3212  0.2742
 8047SOL    HW135600   0.682   4.524   0.481 -0.4408  0.6536  0.2454
 8047SOL    HW235601   0.550   4.478   0.445 -1.4633 -1.9991  1.2743
 8048SOL     OW35602   2.960   4.315   3.042 -0.9002 -0.4944  0.3167
 8048SOL    HW135603   3.022   4.358   3.102 -0.6909  0.4642 -0.5884
 8048SOL    HW235604   2.895   4.303   3.112 -0.2106 -2.0536  0.6829
 8049SOL     OW35605   4.621   1.614   9.160 -0.2939 -0.4475  0.5397
 8049SOL    HW135606   4.659   1.658   9.235 -0.6810  0.1643  0.3752
 8049SOL    HW235607   4.596   1.532   9.202 -1.7096 -1.3354 -2.0350
 8050SOL     OW35608   1.886   3.523   1.666  0.1367  0.0260  0.6625
 8050SOL    HW135609   1.831   3.464   1.718 -1.4711  0.4277 -0.5615
 8050SOL    HW235610   1.834   3.525   1.586 -0.8004 -1.8896  1.2117
 8051SOL     OW35611   4.079   2.329  14.500  1.0252  0.1075 -1.1235
 8051SOL    HW135612   4.035   2.320  14.416  1.2935 -0.7203 -1.1731
 8051SOL    HW235613   4.093   2.237  14.521 -0.2219  0.1587 -0.0509
 8052SOL     OW35614   1.387   4.707   3.270  0.3386 -0.6554  0.8780
 8052SOL    HW135615   1.474   4.701   3.309  0.4192  0.8704  0.9257
 8052SOL    HW235616   1.348   4.623   3.297 -0.9662  0.7392  3.3126
 8053SOL     OW35617   0.366   4.706   7.563 -0.0667 -0.3157  0.1853
 8053SOL    HW135618   0.350   4.720   7.656  1.6257  1.7324  0.1739
 8053SOL    HW235619   0.279   4.706   7.523 -1.3308  1.6063  2.9874
 8054SOL     OW35620   1.008   2.387   3.265  0.0027  0.5994 -0.2957
 8054SOL    HW135621   1.075   2.322   3.285 -0.3587 -0.5803 -2.8953
 8054SOL    HW235622   1.054   2.468   3.285  1.5075 -0.2552 -0.2739
 8055SOL     OW35623   3.386   4.359  17.123 -0.0464  0.1715  0.7006
 8055SOL    HW135624   3.419   4.307  17.197 -1.0067 -2.0714 -0.4580
 8055SOL    HW235625   3.412   4.447  17.151  2.0856 -0.2831  0.1816
 8056SOL     OW35626   4.672   3.311   4.754 -0.0116  0.1175  0.1392
 8056SOL    HW135627   4.606   3.260   4.802  1.4136  0.3115  2.3463
 8056SOL    HW235628   0.026   3.298   4.812 -1.2511 -1.3285  1.4516
 8057SOL     OW35629   0.960   1.091   0.404 -0.2006  0.2633 -0.3105
 8057SOL    HW135630   1.012   1.165   0.436  0.5986 -1.1291  1.6195
 8057SOL    HW235631   1.021   1.019   0.424  0.5185  0.7628 -0.6864
 8058SOL     OW35632   2.839   4.061   2.991 -0.1708  0.7707  0.0212
 8058SOL    HW135633   2.795   4.021   3.066  0.5830 -0.1447 -0.0232
 8058SOL    HW235634   2.893   4.131   3.026 -0.2280  0.1159  1.4254
 8059SOL     OW35635   1.948   0.320   8.676  0.0796  0.5424  0.5984
 8059SOL    HW135636   1.935   0.395   8.619 -0.0012 -1.3961 -1.9368
 8059SOL    HW235637   2.017   0.283   8.621  0.0012  1.8013 -0.3419
 8060SOL     OW35638   0.074   2.170  16.634  0.0898 -0.6260 -0.2851
 8060SOL    HW135639   0.024   2.209  16.563 -0.5458  0.3991  0.7290
 8060SOL    HW235640   0.165   2.191  16.611 -1.1458  0.8795 -3.7314
 8061SOL     OW35641   2.535   4.562   4.445 -0.1219  0.1060 -0.2226
 8061SOL    HW135642   2.514   4.557   4.538  0.1176  0.0095 -0.1739
 8061SOL    HW235643   2.452   4.536   4.405  1.1433 -2.2647 -1.2982
 8062SOL     OW35644   1.570   4.659   2.715  0.1146 -0.3613  0.4047
 8062SOL    HW135645   1.500   4.697   2.662 -1.1643 -0.4010  2.0577
 8062SOL    HW235646   1.519   4.604   2.775 -2.3799  0.8647 -0.5945
 8063SOL     OW35647   0.169   4.057   3.934 -0.0625  0.3717 -0.7130
 8063SOL    HW135648   0.227   4.124   3.899  0.9566 -0.0847  0.1090
 8063SOL    HW235649   0.138   4.098   4.015 -0.5357  1.0099 -1.2192
 8064SOL     OW35650   0.233   4.153   7.021  0.0782 -0.1208 -0.4496
 8064SOL    HW135651   0.194   4.232   6.982 -1.5084 -1.3781 -1.4054
 8064SOL    HW235652   0.180   4.138   7.099 -2.2042  1.0947 -1.7414
 8065SOL     OW35653   3.267   2.622  11.083 -0.0845  0.0753 -0.1779
 8065SOL    HW135654   3.325   2.689  11.047  0.2467 -0.6367 -0.9905
 8065SOL    HW235655   3.298   2.539  11.046 -0.6110  0.2298 -0.9513
 8066SOL     OW35656   4.276   2.794  11.729  0.0891 -0.3405 -0.6404
 8066SOL    HW135657   4.228   2.876  11.726 -0.4635 -0.5648  1.9211
 8066SOL    HW235658   4.366   2.825  11.723 -0.0467  0.4466  1.4027
 8067SOL     OW35659   4.226   2.180   7.618 -0.2787  0.0628 -0.0344
 8067SOL    HW135660   4.157   2.162   7.555 -0.0589  1.2411 -0.6211
 8067SOL    HW235661   4.171   2.208   7.692  3.0726 -0.6284  2.7571
 8068SOL     OW35662   0.921   3.118  13.129  0.1624 -0.3752  0.4050
 8068SOL    HW135663   0.883   3.179  13.192  0.0579 -0.8668  0.8185
 8068SOL    HW235664   0.929   3.036  13.178 -1.0276 -0.9552 -0.3675
 8069SOL     OW35665   0.301   4.444  10.979 -0.5557  0.0501 -0.5783
 8069SOL    HW135666   0.218   4.469  10.939 -2.0909 -0.9261  1.9563
 8069SOL    HW235667   0.343   4.530  10.966  1.7080 -1.1795 -1.3580
 8070SOL     OW35668   0.408   0.574   5.184 -0.0985  0.5059 -0.9864
 8070SOL    HW135669   0.379   0.543   5.098 -1.0641 -2.4295  0.4009
 8070SOL    HW235670   0.471   0.508   5.215 -1.2576  1.1430  2.6966
 8071SOL     OW35671   0.071   2.743   5.499 -0.2222  0.8734 -0.0665
 8071SOL    HW135672   0.088   2.755   5.406  2.2565  0.2854  0.3148
 8071SOL    HW235673   4.697   2.757   5.503 -0.4617 -1.1381  1.4757
 8072SOL     OW35674   2.097   0.661   8.803 -0.0735  0.0503 -0.3315
 8072SOL    HW135675   2.134   0.749   8.811 -0.0949 -0.1622  2.1828
 8072SOL    HW235676   2.146   0.610   8.868 -3.1736 -1.7619  0.5759
 8073SOL     OW35677   3.910   3.895   1.776  0.2607 -0.4889 -0.3535
 8073SOL    HW135678   3.917   3.864   1.867  1.8188 -1.0704 -0.6775
 8073SOL    HW235679   3.962   3.975   1.781 -0.1982 -0.1974 -0.2563
 8074SOL     OW35680   2.294   1.795   2.454  0.5307  0.0045 -0.7703
 8074SOL    HW135681   2.347   1.875   2.457 -0.5977  0.7476 -0.7231
 8074SOL    HW235682   2.231   1.821   2.387 -1.2759 -0.5603  0.7059
 8075SOL     OW35683   0.342   3.903   6.159  0.1934  0.3150  0.4134
 8075SOL    HW135684   0.374   3.900   6.249 -0.8313 -0.9558  0.7241
 8075SOL    HW235685   0.330   3.809   6.149 -2.0990  0.7007 -0.2933
 8076SOL     OW35686   3.346   2.400   4.763 -0.2306 -0.5122 -0.2768
 8076SOL    HW135687   3.304   2.317   4.788 -2.4960  1.0406  1.0287
 8076SOL    HW235688   3.426   2.358   4.732 -1.5376 -1.1948 -2.6630
 8077SOL     OW35689   2.582   0.739   8.412  0.1972 -0.1161 -0.1857
 8077SOL    HW135690   2.529   0.819   8.415  0.8409  0.3542 -1.4766
 8077SOL    HW235691   2.665   0.770   8.376  0.8659 -0.8437  0.7355
 8078SOL     OW35692   0.941   0.884  12.677  0.2896 -0.3172  0.4536
 8078SOL    HW135693   0.875   0.826  12.713 -1.3239  1.8329  0.9635
 8078SOL    HW235694   0.993   0.814  12.638 -0.9887  0.4943 -2.7296
 8079SOL     OW35695   1.390   0.274   9.155 -0.1010 -0.4977 -0.3537
 8079SOL    HW135696   1.405   0.291   9.062  1.2833 -2.3196 -0.4603
 8079SOL    HW235697   1.477   0.295   9.189 -0.1283 -1.3151  0.2129
 8080SOL     OW35698   0.959   3.721   8.845  0.1261 -0.3528 -0.1403
 8080SOL    HW135699   1.037   3.688   8.801 -0.3208  0.1318 -1.2693
 8080SOL    HW235700   0.998   3.768   8.918 -3.9316  1.4088  0.9253
 8081SOL     OW35701   2.035   2.385  13.583  0.5844  0.5385  0.0249
 8081SOL    HW135702   2.001   2.467  13.547  2.1113  0.1972 -2.2045
 8081SOL    HW235703   1.964   2.358  13.641  0.1238 -0.0285 -0.8017
 8082SOL     OW35704   2.651   4.101   4.145  0.3435  0.4976  0.5917
 8082SOL    HW135705   2.636   4.115   4.238  0.1518 -0.6593  0.7332
 8082SOL    HW235706   2.611   4.179   4.106  1.3055  0.1509 -1.0799
 8083SOL     OW35707   3.591   2.428  16.541 -0.1668 -0.1789  0.2568
 8083SOL    HW135708   3.532   2.502  16.554  2.6580  2.1726 -0.2646
 8083SOL    HW235709   3.590   2.397  16.632  3.3429 -0.0675  0.3256
 8084SOL     OW35710   2.119   1.300   8.155  0.0533  0.7874  0.5618
 8084SOL    HW135711   2.104   1.392   8.178  0.6016  1.3258 -1.2600
 8084SOL    HW235712   2.105   1.298   8.060 -0.4181 -0.1760  0.6464
 8085SOL     OW35713   3.141   0.728   6.039 -0.7850 -0.2588  0.3631
 8085SOL    HW135714   3.068   0.667   6.044 -2.0183  1.3500  1.7746
 8085SOL    HW235715   3.206   0.659   6.024 -1.5073 -1.0233  0.7105
 8086SOL     OW35716   0.698   2.407   2.849 -0.6981  0.2237  0.3370
 8086SOL    HW135717   0.625   2.464   2.874 -0.4717  0.1514  1.1775
 8086SOL    HW235718   0.711   2.437   2.759 -1.5712 -2.7986 -0.8104
 8087SOL     OW35719   4.436   3.448   2.319 -0.1682 -0.6121  0.1098
 8087SOL    HW135720   4.347   3.418   2.337 -0.7843  1.6974  0.8451
 8087SOL    HW235721   4.449   3.522   2.378 -0.9344  1.0472 -1.7906
 8088SOL     OW35722   2.744   3.738   8.343  0.2098 -0.0267 -0.3346
 8088SOL    HW135723   2.685   3.668   8.313  1.5514 -1.9400  1.5074
 8088SOL    HW235724   2.808   3.744   8.273 -0.0564 -1.2565 -0.6862
 8089SOL     OW35725   1.741   4.099  12.376  0.2415 -0.1027 -0.5279
 8089SOL    HW135726   1.697   4.015  12.392  0.0447  0.2400  0.7091
 8089SOL    HW235727   1.793   4.081  12.297 -0.6132 -1.4240 -0.8015
 8090SOL     OW35728   2.110   3.519   8.209  0.2955 -0.3112 -0.0522
 8090SOL    HW135729   2.046   3.566   8.156 -1.0912  0.0776  1.9619
 8090SOL    HW235730   2.117   3.578   8.284 -0.4439  2.4933 -2.1925
 8091SOL     OW35731   0.500   0.801   2.336 -0.5831 -0.2226  0.2621
 8091SOL    HW135732   0.564   0.747   2.290  0.3675 -0.1342  1.4991
 8091SOL    HW235733   0.424   0.806   2.278 -0.4934 -0.5873  0.1124
 8092SOL     OW35734   0.881   0.464   2.156 -0.3665  0.5519  0.0934
 8092SOL    HW135735   0.820   0.402   2.115 -2.1177  2.9169 -0.9128
 8092SOL    HW235736   0.935   0.403   2.205 -1.5946 -0.7363 -0.1442
 8093SOL     OW35737   0.532   1.404   2.039 -0.5493 -0.5927  0.3730
 8093SOL    HW135738   0.506   1.487   1.997 -3.5021  0.1563  3.7040
 8093SOL    HW235739   0.605   1.433   2.094 -0.5372  0.5348 -0.2192
 8094SOL     OW35740   1.700   1.853  10.373 -0.1558  0.4508 -0.1336
 8094SOL    HW135741   1.641   1.864  10.448  0.2939  1.5164  0.0615
 8094SOL    HW235742   1.728   1.942  10.353 -1.9735  1.3867  1.4393
 8095SOL     OW35743   0.708   4.529   8.788 -0.1829  0.1986 -0.6132
 8095SOL    HW135744   0.744   4.595   8.729 -0.2582  0.0125 -0.8707
 8095SOL    HW235745   0.774   4.461   8.773  1.4753  1.8127 -0.5701
 8096SOL     OW35746   1.425   4.015   1.771 -0.4151 -0.3266  0.7274
 8096SOL    HW135747   1.474   4.079   1.719 -0.5559 -0.9077 -0.1290
 8096SOL    HW235748   1.335   4.047   1.757 -0.2990 -0.8531 -1.2919
 8097SOL     OW35749   1.255   2.146   7.264 -0.1243  0.2512  0.2636
 8097SOL    HW135750   1.308   2.070   7.288 -1.7697 -0.7355  0.7905
 8097SOL    HW235751   1.243   2.128   7.171 -0.2375 -0.3159  0.3882
 8098SOL     OW35752   3.800   1.219   7.747  0.1765  0.2870 -0.3424
 8098SOL    HW135753   3.877   1.163   7.733  0.1006  0.1090 -0.0325
 8098SOL    HW235754   3.835   1.276   7.815 -1.3238 -0.9417  1.4286
 8099SOL     OW35755   1.441   2.005   6.962 -0.4594  0.1199  0.0834
 8099SOL    HW135756   1.506   1.957   7.013 -0.9650  0.1822  0.7970
 8099SOL    HW235757   1.493   2.081   6.937 -1.4133  0.7666  0.0774
 8100SOL     OW35758   3.492   4.050   2.850 -0.5887 -0.4359 -0.2536
 8100SOL    HW135759   3.504   3.962   2.815  0.2743 -0.8959  1.1793
 8100SOL    HW235760   3.410   4.036   2.896  0.1806 -1.7796  0.7152
 8101SOL     OW35761   1.889   1.692   6.610 -0.7353 -0.4099 -0.0042
 8101SOL    HW135762   1.861   1.763   6.667 -1.0032 -0.5074 -0.0134
 8101SOL    HW235763   1.942   1.727   6.540 -1.1660  1.5241  0.6446
 8102SOL     OW35764   2.571   4.281   9.686  0.4112 -0.1966  0.5525
 8102SOL    HW135765   2.655   4.321   9.660  0.4075 -0.1238  0.6549
 8102SOL    HW235766   2.507   4.319   9.625  1.6500 -0.4945 -0.9281
 8103SOL     OW35767   3.043   0.578  15.767 -0.2005 -0.3631 -0.3671
 8103SOL    HW135768   3.086   0.538  15.842  0.9012 -0.8583 -1.2733
 8103SOL    HW235769   3.108   0.646  15.750  1.5205 -2.8070 -3.4566
 8104SOL     OW35770   4.135   3.044  12.035 -0.1043  0.4003 -0.5816
 8104SOL    HW135771   4.211   3.032  11.977 -1.3335 -0.7557 -1.9620
 8104SOL    HW235772   4.071   2.977  12.009 -0.8910  0.0631  2.2259
 8105SOL     OW35773   4.297   2.654   3.358  0.6573  0.1511  0.2916
 8105SOL    HW135774   4.254   2.595   3.420 -1.2887  1.4956  0.2461
 8105SOL    HW235775   4.352   2.708   3.414  1.5006  1.8538 -2.1831
 8106SOL     OW35776   1.101   1.938   3.195 -0.7569  0.1184 -0.0744
 8106SOL    HW135777   1.046   1.956   3.270 -0.1546 -0.8013  0.5904
 8106SOL    HW235778   1.181   1.987   3.215 -2.0385  2.1350  0.0647
 8107SOL     OW35779   2.689   1.961   6.183 -0.7934  0.0843 -0.2780
 8107SOL    HW135780   2.645   1.901   6.242 -0.2070 -0.6978 -0.6374
 8107SOL    HW235781   2.771   1.981   6.228 -0.1139 -0.1752 -1.3862
 8108SOL     OW35782   0.419   2.021   5.241  0.3437  0.6824  0.5140
 8108SOL    HW135783   0.501   2.047   5.283  1.9973 -0.7135 -1.8610
 8108SOL    HW235784   0.373   2.104   5.227 -0.2238  0.0438 -1.3754
 8109SOL     OW35785   3.164   2.592   7.677  0.4283  0.5066 -0.4525
 8109SOL    HW135786   3.197   2.521   7.732 -1.0279  1.4745  1.6527
 8109SOL    HW235787   3.107   2.531   7.630  0.3099 -0.3105  0.7648
 8110SOL     OW35788   2.631   2.037  10.101 -0.0812 -0.1326  0.0050
 8110SOL    HW135789   2.554   2.094  10.112 -1.1246 -1.5297 -0.1214
 8110SOL    HW235790   2.586   1.953  10.108 -0.4172  0.0739  0.3285
 8111SOL     OW35791   0.875   1.880   9.152 -0.2168  0.0767  0.4988
 8111SOL    HW135792   0.832   1.928   9.080  2.0316  1.0774 -0.1904
 8111SOL    HW235793   0.965   1.894   9.121  0.4966 -1.7963  1.7722
 8112SOL     OW35794   2.735   3.404   5.761  0.2878  0.0001 -0.5170
 8112SOL    HW135795   2.789   3.336   5.800  1.1375  1.5013  0.9205
 8112SOL    HW235796   2.665   3.354   5.718  1.3536 -1.2357 -0.7860
 8113SOL     OW35797   3.407   2.561  13.837 -0.5755 -0.5693  0.7732
 8113SOL    HW135798   3.480   2.588  13.782 -0.6712  0.8968  1.3735
 8113SOL    HW235799   3.343   2.610  13.785 -0.1961 -0.5794  0.3068
 8114SOL     OW35800   2.370   0.626   4.496  0.3741 -0.3797 -0.0741
 8114SOL    HW135801   2.435   0.696   4.487  0.3752 -0.1360  1.9380
 8114SOL    HW235802   2.390   0.588   4.581 -0.5353 -0.0531  0.2857
 8115SOL     OW35803   0.240   1.616   3.590  0.0247  0.3652  0.6163
 8115SOL    HW135804   0.182   1.541   3.601 -0.2679  0.5492  0.3237
 8115SOL    HW235805   0.311   1.576   3.539  0.8025  1.5965  0.7405
 8116SOL     OW35806   3.768   2.880   3.765 -0.6780  0.4384  0.0612
 8116SOL    HW135807   3.738   2.836   3.686 -0.1321 -0.4681  0.3622
 8116SOL    HW235808   3.860   2.855   3.767 -1.1395 -1.2224  1.2178
 8117SOL     OW35809   0.505   1.265  16.818 -0.2431  0.3235 -0.2033
 8117SOL    HW135810   0.481   1.259  16.725  0.7904  0.1974 -0.4552
 8117SOL    HW235811   0.421   1.246  16.862 -0.0021 -2.1772 -0.8033
 8118SOL     OW35812   0.325   2.586  16.897  0.0840 -0.0911  0.0782
 8118SOL    HW135813   0.258   2.627  16.842  2.0836  0.6490 -1.8188
 8118SOL    HW235814   0.397   2.581  16.833  1.9226 -0.7662  2.1995
 8119SOL     OW35815   3.264   3.902   0.221  0.1389 -0.3843 -0.2799
 8119SOL    HW135816   3.276   3.873   0.131  0.9296 -0.2884 -0.1981
 8119SOL    HW235817   3.350   3.883   0.259  0.5199  0.3707 -0.7744
 8120SOL     OW35818   0.954   2.374  12.173 -0.3018 -0.3725  0.3553
 8120SOL    HW135819   1.001   2.454  12.151 -1.5834  0.0265 -0.8936
 8120SOL    HW235820   0.994   2.319  12.106  1.7474  0.5569  0.8068
 8121SOL     OW35821   1.914   1.824  10.022 -0.1214  0.1676  0.1072
 8121SOL    HW135822   1.978   1.793   9.958  0.4872 -0.0542  0.8229
 8121SOL    HW235823   1.839   1.768  10.003  1.4278 -1.7950 -0.2556
 8122SOL     OW35824   0.764   2.624   4.887 -0.1960 -0.9220  0.3345
 8122SOL    HW135825   0.710   2.701   4.869 -0.0479 -0.9025 -0.0447
 8122SOL    HW235826   0.692   2.562   4.894 -0.9892 -0.0419 -0.0470
 8123SOL     OW35827   2.258   0.630   2.892  0.2227  0.1975 -0.1305
 8123SOL    HW135828   2.188   0.572   2.923 -1.4771  1.7193 -1.1095
 8123SOL    HW235829   2.330   0.608   2.951 -1.7189 -1.3244  1.6807
 8124SOL     OW35830   2.982   3.739   6.395  0.0726  0.2630 -0.9444
 8124SOL    HW135831   2.937   3.823   6.382  2.4326  1.4861 -1.2573
 8124SOL    HW235832   2.971   3.722   6.488 -0.2223  0.1823 -0.9948
 8125SOL     OW35833   0.581   1.590   5.557  0.2693  0.3382  0.2177
 8125SOL    HW135834   0.597   1.505   5.515  0.1547  0.9307 -1.0230
 8125SOL    HW235835   0.560   1.646   5.482 -3.0102  1.2080  1.7808
 8126SOL     OW35836   2.461   0.256  13.322 -0.0943  0.5890  0.4798
 8126SOL    HW135837   2.418   0.264  13.237 -0.1649 -1.8811  0.2834
 8126SOL    HW235838   2.398   0.204  13.371 -1.1822  0.5497 -0.9777
 8127SOL     OW35839   2.326   2.103  11.285 -0.4068  0.3682 -0.9084
 8127SOL    HW135840   2.318   2.109  11.190  0.3027 -0.0603 -0.9919
 8127SOL    HW235841   2.239   2.141  11.302  0.7214  1.1584  3.1341
 8128SOL     OW35842   1.002   1.001   7.493 -0.5906 -0.4843 -0.2455
 8128SOL    HW135843   1.098   0.999   7.489 -0.5859  2.6520 -2.0761
 8128SOL    HW235844   0.984   0.943   7.567  0.0316 -2.1510 -1.4187
 8129SOL     OW35845   3.148   0.261  11.521  0.1977 -0.0927 -0.0331
 8129SOL    HW135846   3.138   0.167  11.504 -0.2148 -0.4086  1.9592
 8129SOL    HW235847   3.241   0.275  11.538  1.0868 -0.1484 -4.7457
 8130SOL     OW35848   4.264   0.515  13.347 -0.1498 -0.1109  0.0323
 8130SOL    HW135849   4.217   0.542  13.268  0.8186  0.9411 -0.1763
 8130SOL    HW235850   4.191   0.511  13.409  0.3873 -0.8527  0.6183
 8131SOL     OW35851   1.773   4.472   4.046  0.0747 -0.0035 -0.0972
 8131SOL    HW135852   1.733   4.464   3.959 -0.2695  2.5929 -0.1583
 8131SOL    HW235853   1.737   4.557   4.071 -3.0766 -1.1890 -0.6605
 8132SOL     OW35854   3.763   1.403   0.645 -0.1766 -0.3081  0.4772
 8132SOL    HW135855   3.728   1.452   0.719  0.1483 -0.8631  0.9963
 8132SOL    HW235856   3.858   1.404   0.662 -0.1448 -0.5695  0.3194
 8133SOL     OW35857   1.872   1.796   7.581 -0.3682  0.3875  0.0080
 8133SOL    HW135858   1.963   1.825   7.577  0.4225 -2.0333  0.1920
 8133SOL    HW235859   1.833   1.852   7.648  1.8882  0.0660  1.5970
 8134SOL     OW35860   2.767   3.859   7.323 -0.4282  0.2730 -0.4634
 8134SOL    HW135861   2.799   3.948   7.309 -1.8802  0.9832  0.6601
 8134SOL    HW235862   2.827   3.804   7.273 -1.3339 -0.7558 -0.4230
 8135SOL     OW35863   1.669   3.272  15.350  0.9301 -0.1909  0.7316
 8135SOL    HW135864   1.717   3.203  15.305 -0.2377  0.8509 -2.0888
 8135SOL    HW235865   1.686   3.351  15.299 -0.7567  0.0985  0.6171
 8136SOL     OW35866   1.825   4.031   0.434  0.6078  0.4176 -0.4236
 8136SOL    HW135867   1.861   4.017   0.522 -2.0330 -1.1085  0.4371
 8136SOL    HW235868   1.903   4.059   0.388  1.7763  0.4003  1.5444
 8137SOL     OW35869   3.156   3.429   7.153 -0.1814  0.5446 -0.2470
 8137SOL    HW135870   3.167   3.374   7.231 -1.0685  1.3753  0.4546
 8137SOL    HW235871   3.097   3.380   7.096  1.5540  0.0700 -1.6503
 8138SOL     OW35872   0.070   0.847   8.574 -0.1708  0.2489  0.0788
 8138SOL    HW135873   4.697   0.859   8.558 -0.5034 -4.1119 -1.0462
 8138SOL    HW235874   0.083   0.775   8.635 -1.0970 -0.0490 -0.0753
 8139SOL     OW35875   2.632   4.269  15.424  0.2128  0.1004  0.4444
 8139SOL    HW135876   2.725   4.274  15.446  0.2024 -0.7813  0.6691
 8139SOL    HW235877   2.609   4.360  15.447 -1.4473 -0.4091  0.8263
 8140SOL     OW35878   0.152   0.492   8.273 -0.4454  0.2229 -0.0178
 8140SOL    HW135879   0.196   0.544   8.206 -1.8655 -0.2756 -1.3569
 8140SOL    HW235880   0.060   0.519   8.267 -0.8209 -1.3595 -1.4580
 8141SOL     OW35881   3.419   4.331   7.732 -0.3426 -0.0890  0.2407
 8141SOL    HW135882   3.505   4.301   7.703 -0.7076 -1.1352  0.2176
 8141SOL    HW235883   3.426   4.326   7.828  1.0927 -1.1470  0.0819
 8142SOL     OW35884   1.810   1.185  14.837  0.0613  0.2358 -0.0315
 8142SOL    HW135885   1.846   1.208  14.752 -0.7278 -0.6961 -0.6062
 8142SOL    HW235886   1.874   1.118  14.860  0.9117  1.1156  0.1768
 8143SOL     OW35887   0.301   1.016   4.784  0.0684 -0.5563  0.1408
 8143SOL    HW135888   0.377   1.071   4.804 -0.9719  0.3428  1.6353
 8143SOL    HW235889   0.299   0.953   4.856 -1.9719  0.2255  0.7547
 8144SOL     OW35890   3.680   4.677   3.876  0.3630 -0.4580  0.3026
 8144SOL    HW135891   3.731   4.701   3.953  3.3441 -2.2785 -1.1330
 8144SOL    HW235892   3.749   4.642   3.820  0.5506  0.1827  0.1271
 8145SOL     OW35893   1.703   3.018  13.047 -0.0641 -0.4671  0.5281
 8145SOL    HW135894   1.664   3.094  13.091  1.4469  1.6567 -1.7529
 8145SOL    HW235895   1.763   3.056  12.982 -0.1709 -0.0028  0.7014
 8146SOL     OW35896   0.780   1.499   3.517  0.0832  0.4883 -0.1240
 8146SOL    HW135897   0.764   1.407   3.492  2.8709  0.1766 -0.7388
 8146SOL    HW235898   0.869   1.506   3.551 -0.2416 -0.7740  0.9765
 8147SOL     OW35899   0.981   1.263   9.011 -0.0295 -0.2883  0.3416
 8147SOL    HW135900   1.062   1.275   8.962 -0.3020 -1.7788 -0.4768
 8147SOL    HW235901   0.961   1.356   9.013 -1.2921 -0.5150 -1.3693
 8148SOL     OW35902   3.025   0.676   1.446 -0.0055 -0.0856  0.2018
 8148SOL    HW135903   3.025   0.718   1.360 -0.6425  0.6333  0.5489
 8148SOL    HW235904   2.933   0.648   1.448 -0.1670  0.2962 -1.4197
 8149SOL     OW35905   2.732   1.314   6.810 -0.8019 -0.3527  0.4526
 8149SOL    HW135906   2.751   1.331   6.902  0.4709  0.2727  0.0755
 8149SOL    HW235907   2.738   1.399   6.767  2.4752 -0.9176 -0.1844
 8150SOL     OW35908   2.366   1.661   7.860  0.3251  0.5562  0.1993
 8150SOL    HW135909   2.317   1.604   7.800 -1.8079  0.4197  2.0539
 8150SOL    HW235910   2.296   1.690   7.919 -1.2162  1.3383 -2.0111
 8151SOL     OW35911   2.781   4.255   8.096  0.0060  0.1576  0.4469
 8151SOL    HW135912   2.876   4.256   8.107  0.3579 -2.7266 -2.4709
 8151SOL    HW235913   2.774   4.231   8.004 -0.0135 -1.6348  0.9292
 8152SOL     OW35914   0.725   0.513   1.694  0.4942 -0.0004  0.3890
 8152SOL    HW135915   0.782   0.477   1.761  0.4227  0.4901  0.7149
 8152SOL    HW235916   0.777   0.590   1.669 -0.7723  0.6021 -0.3959
 8153SOL     OW35917   4.118   3.519   1.340  0.0520  0.4996  0.2195
 8153SOL    HW135918   4.149   3.608   1.351  1.4012 -0.1762  1.7871
 8153SOL    HW235919   4.122   3.484   1.429  0.4748 -1.0614 -0.4021
 8154SOL     OW35920   1.124   3.755  12.310 -0.0231  0.2513  0.2614
 8154SOL    HW135921   1.194   3.724  12.253 -0.6769 -0.5249 -0.1338
 8154SOL    HW235922   1.061   3.807  12.260 -0.0600  1.7506  1.8958
 8155SOL     OW35923   3.212   1.551   8.310  0.8651 -0.2656  0.1856
 8155SOL    HW135924   3.118   1.566   8.295  0.5954  0.9818  2.9514
 8155SOL    HW235925   3.246   1.640   8.315  2.3712 -0.7873 -1.0242
 8156SOL     OW35926   2.201   2.904  16.432 -0.0564 -0.2337  0.8185
 8156SOL    HW135927   2.224   2.921  16.341 -3.4927 -1.1408 -0.2245
 8156SOL    HW235928   2.241   2.817  16.424 -0.1007 -0.2273  0.5317
 8157SOL     OW35929   2.109   2.933   9.546 -0.2779 -0.1684 -0.1850
 8157SOL    HW135930   2.134   2.991   9.474 -0.5194 -0.7360 -0.7301
 8157SOL    HW235931   2.019   2.961   9.562  0.2670  1.9900 -0.9199
 8158SOL     OW35932   1.331   3.179   6.338  0.1877  0.2826 -0.5800
 8158SOL    HW135933   1.324   3.210   6.248  1.0536 -0.5799 -0.9513
 8158SOL    HW235934   1.287   3.247   6.388 -0.5162  0.8616 -2.0087
 8159SOL     OW35935   4.614   4.009   0.342  0.1739 -0.0648  0.3376
 8159SOL    HW135936   4.671   4.073   0.385  1.0456 -0.4286 -0.2797
 8159SOL    HW235937   4.620   3.929   0.394  1.5261 -1.6970 -2.3283
 8160SOL     OW35938   0.787   4.421  14.200 -0.0698  0.1746  0.0136
 8160SOL    HW135939   0.750   4.487  14.259 -0.4772  0.3837 -0.4762
 8160SOL    HW235940   0.829   4.484  14.142  1.0579  0.4843  1.1816
 8161SOL     OW35941   1.291   4.694   3.024  0.1815  0.3628 -0.3167
 8161SOL    HW135942   1.318   4.709   3.114 -1.2430 -0.0151  0.1865
 8161SOL    HW235943   1.208   0.019   3.013 -0.1988 -0.3013 -0.2538
 8162SOL     OW35944   4.658   2.307  14.976 -0.3059  0.4719  0.1542
 8162SOL    HW135945   4.678   2.231  15.032  0.3491  0.1410 -0.5311
 8162SOL    HW235946   0.009   2.361  15.007 -0.4664  0.8893 -0.2040
 8163SOL     OW35947   1.341   2.683   9.323  0.1641 -0.9010  0.3477
 8163SOL    HW135948   1.320   2.776   9.333 -1.7833 -1.3258  0.1941
 8163SOL    HW235949   1.435   2.694   9.312  0.3027 -0.5297  1.8156
 8164SOL     OW35950   2.905   1.694  17.353  0.5307 -0.1516  0.5816
 8164SOL    HW135951   2.973   1.664  17.293 -3.0332 -0.5292 -3.2851
 8164SOL    HW235952   2.852   1.614  17.349 -0.0646  0.2628  0.2311
 8165SOL     OW35953   2.166   0.031   3.129  0.5662  0.9556 -0.5681
 8165SOL    HW135954   2.140   4.671   3.085 -0.3644  1.8071 -1.5952
 8165SOL    HW235955   2.113   0.090   3.076  0.7707  2.3328  0.7825
 8166SOL     OW35956   1.877   1.674  15.562 -1.1748 -0.2670  0.4306
 8166SOL    HW135957   1.901   1.598  15.616 -1.0486  0.9119  2.0226
 8166SOL    HW235958   1.817   1.631  15.501 -2.9569 -2.2354  3.5508
 8167SOL     OW35959   1.887   0.709   3.752  0.3830  0.2106  0.2237
 8167SOL    HW135960   1.919   0.706   3.662  1.4661  0.3804  0.6030
 8167SOL    HW235961   1.933   0.782   3.794  1.0304  0.4719 -0.9597
 8168SOL     OW35962   3.702   2.605   5.571  0.2835 -0.1362 -0.4976
 8168SOL    HW135963   3.702   2.686   5.621 -1.5576 -1.1420  1.1090
 8168SOL    HW235964   3.788   2.567   5.589  1.0763  1.1419 -1.5641
 8169SOL     OW35965   2.539   4.411  10.941  0.4288  0.2068  0.3433
 8169SOL    HW135966   2.547   4.483  11.004 -0.0394 -0.5983  1.3342
 8169SOL    HW235967   2.504   4.471  10.875 -1.0877 -1.2754 -0.2205
 8170SOL     OW35968   3.233   4.457   8.836  0.0794 -0.0483  0.2257
 8170SOL    HW135969   3.323   4.443   8.865  0.1029 -0.5604 -0.0834
 8170SOL    HW235970   3.221   4.377   8.783 -0.2206 -0.5444  1.0493
 8171SOL     OW35971   2.252   3.329   9.867 -0.6954  0.1487  0.1739
 8171SOL    HW135972   2.162   3.313   9.895 -0.2784 -0.2900  1.2807
 8171SOL    HW235973   2.259   3.424   9.876 -1.5396  0.2845 -0.6041
 8172SOL     OW35974   4.323   4.596   7.390  0.6037 -0.3409  0.4041
 8172SOL    HW135975   4.340   4.524   7.451 -0.3959 -2.0801 -1.3782
 8172SOL    HW235976   4.394   4.578   7.328  0.0178 -0.6102 -0.1884
 8173SOL     OW35977   1.487   3.934  17.664  0.3310 -0.2325 -0.2299
 8173SOL    HW135978   1.421   3.875   0.013  2.2116 -2.5191 -0.5265
 8173SOL    HW235979   1.459   3.945  17.573 -2.7506  1.1612  0.9003
 8174SOL     OW35980   2.451   4.387  11.512  0.0844 -0.2680 -0.0325
 8174SOL    HW135981   2.492   4.322  11.454 -0.1349 -2.0231  1.7707
 8174SOL    HW235982   2.528   4.440  11.533 -2.7444  3.4666  0.8343
 8175SOL     OW35983   2.680   3.457  13.189 -0.5082 -0.5198 -0.0693
 8175SOL    HW135984   2.751   3.454  13.253 -0.3750 -0.2142 -0.2039
 8175SOL    HW235985   2.724   3.410  13.118  0.2642  0.0848  0.0164
 8176SOL     OW35986   2.858   3.444  17.545 -0.4605 -0.1909  0.3540
 8176SOL    HW135987   2.907   3.396  17.478 -1.2242  0.7623 -0.9005
 8176SOL    HW235988   2.818   3.373  17.595 -1.0749 -0.8106 -0.9854
 8177SOL     OW35989   3.262   3.850   7.827  0.2527 -0.1277 -0.0809
 8177SOL    HW135990   3.193   3.794   7.792 -0.5654  1.7116 -1.4413
 8177SOL    HW235991   3.306   3.777   7.870  0.5558 -0.8998 -1.7213
 8178SOL     OW35992   0.116   2.356  17.094  0.3644 -0.4985  0.6722
 8178SOL    HW135993   0.205   2.333  17.120  0.4047 -2.0239 -0.8628
 8178SOL    HW235994   0.061   2.345  17.171 -0.8952  2.7988  0.2453
 8179SOL     OW35995   3.102   4.216  15.965 -0.1555  0.1049 -0.1109
 8179SOL    HW135996   3.095   4.307  15.992  0.1673  0.1921 -0.3159
 8179SOL    HW235997   3.181   4.187  16.010 -0.4144 -0.4619 -0.0237
 8180SOL     OW35998   3.943   3.854   0.222 -0.3188 -0.1594 -0.1911
 8180SOL    HW135999   3.991   3.898   0.152 -1.8929 -0.4371 -1.4558
 8180SOL    HW236000   3.988   3.771   0.237  0.5970  0.5677  1.0104
 8181SOL     OW36001   4.114   4.459   9.207 -0.5387  0.2458 -0.1966
 8181SOL    HW136002   4.048   4.469   9.275 -0.3541  0.5550 -0.0617
 8181SOL    HW236003   4.171   4.534   9.225 -1.5498  0.7878  0.7535
 8182SOL     OW36004   3.606   3.695   3.074  0.3925 -0.1440  0.0637
 8182SOL    HW136005   3.605   3.642   2.995  2.5171 -1.9553  1.2399
 8182SOL    HW236006   3.700   3.684   3.086  0.3568 -0.8491 -0.3539
 8183SOL     OW36007   3.197   1.082  12.952  0.5704 -0.2394  0.0418
 8183SOL    HW136008   3.246   1.000  12.944 -1.8099 -1.6120 -0.4798
 8183SOL    HW236009   3.232   1.118  13.034  1.4216  1.3050 -0.9750
 8184SOL     OW36010   1.238   2.186  17.166 -0.3860 -0.3973  0.0526
 8184SOL    HW136011   1.220   2.121  17.233 -0.1243 -1.2780 -0.7390
 8184SOL    HW236012   1.309   2.242  17.198 -0.7568 -0.4487  0.9669
 8185SOL     OW36013   4.380   1.243   2.628 -0.1083 -0.2366 -0.4227
 8185SOL    HW136014   4.462   1.224   2.584  0.0641 -0.1080 -0.1536
 8185SOL    HW236015   4.351   1.316   2.573  1.2116  0.5450 -0.0745
 8186SOL     OW36016   1.372   2.526   8.695  0.8651 -0.5690  0.2464
 8186SOL    HW136017   1.332   2.496   8.614  3.1110  0.0331 -1.0887
 8186SOL    HW236018   1.340   2.462   8.759  0.3661  1.8029  2.3845
 8187SOL     OW36019   2.198   1.798   4.165  0.6654  0.0340  0.3677
 8187SOL    HW136020   2.117   1.755   4.190  0.0264  0.9746 -0.0808
 8187SOL    HW236021   2.170   1.887   4.146  1.5914  0.1444 -0.5188
 8188SOL     OW36022   1.506   2.506   3.955  0.7085  0.2557 -0.3815
 8188SOL    HW136023   1.436   2.460   3.999  0.3729  0.7564 -0.3880
 8188SOL    HW236024   1.502   2.591   3.999  1.0960 -0.0903  0.3352
 8189SOL     OW36025   4.707   2.369  14.507 -0.4098  0.0688  0.2636
 8189SOL    HW136026   4.671   2.333  14.588 -2.0824  1.8040  0.2751
 8189SOL    HW236027   4.701   2.295  14.447  0.7726 -0.1399  0.4139
 8190SOL     OW36028   2.872   1.633   2.871 -0.0958 -0.4778 -0.6134
 8190SOL    HW136029   2.907   1.645   2.783 -2.4918  0.2394 -1.4630
 8190SOL    HW236030   2.785   1.673   2.864  0.7911  1.3642 -1.0614
 8191SOL     OW36031   4.467   3.970   8.261 -0.7488  0.3137  0.1703
 8191SOL    HW136032   4.435   3.948   8.174  1.5281  1.6562 -0.9890
 8191SOL    HW236033   4.524   4.047   8.258  1.9198 -1.6433  0.5197
 8192SOL     OW36034   4.497   1.264   6.054 -0.0407 -0.1492 -0.2914
 8192SOL    HW136035   4.591   1.282   6.059 -0.2813  1.4436 -1.7158
 8192SOL    HW236036   4.466   1.270   5.964 -1.9424  1.6501  0.5047
 8193SOL     OW36037   3.374   0.048  11.100  0.2323  0.4128 -0.1269
 8193SOL    HW136038   3.453   0.055  11.153  0.4905 -3.3581 -0.0251
 8193SOL    HW236039   3.313   0.047  11.174 -1.8059 -2.5873 -1.8240
 8194SOL     OW36040   1.699   3.739   5.559  0.0228 -0.0030  0.1283
 8194SOL    HW136041   1.657   3.724   5.644 -2.2193 -0.2552 -1.0175
 8194SOL    HW236042   1.708   3.834   5.547  1.3978 -0.2094 -0.4584
 8195SOL     OW36043   0.515   0.429   2.432 -0.5420  0.6308  0.0047
 8195SOL    HW136044   0.476   0.505   2.474 -0.8754  1.7650 -2.4263
 8195SOL    HW236045   0.441   0.398   2.380 -1.6003  1.1454  1.1998
 8196SOL     OW36046   1.964   0.398  16.926  0.1376  0.4909 -0.1407
 8196SOL    HW136047   2.038   0.453  16.899 -0.8144  1.6640 -0.3657
 8196SOL    HW236048   1.907   0.457  16.975  1.1437 -1.9437  3.9236
 8197SOL     OW36049   2.243   2.611  12.527  0.5555 -0.4654  0.1291
 8197SOL    HW136050   2.185   2.685  12.508 -1.8854 -2.0409  1.4454
 8197SOL    HW236051   2.192   2.533  12.504  0.8950 -0.3462 -1.0168
 8198SOL     OW36052   3.070   4.392   3.457  0.4619  0.3060 -0.3983
 8198SOL    HW136053   3.066   4.307   3.412  1.0019  0.5406 -0.8856
 8198SOL    HW236054   3.151   4.377   3.506  0.1482  1.0266  0.3277
 8199SOL     OW36055   2.640   0.290   1.135 -0.1734  0.3172  0.2313
 8199SOL    HW136056   2.546   0.291   1.121 -0.4158  1.4981  1.9381
 8199SOL    HW236057   2.671   0.326   1.052 -0.7762 -1.1798 -0.6538
 8200SOL     OW36058   3.748   2.362   4.983  0.0891  0.3309 -0.6970
 8200SOL    HW136059   3.838   2.387   5.000  0.7219 -1.2004 -1.7440
 8200SOL    HW236060   3.760   2.346   4.889 -1.0928 -0.7627 -0.6700
 8201SOL     OW36061   3.251   3.694   0.832 -0.0162 -0.7955 -0.2204
 8201SOL    HW136062   3.259   3.633   0.905 -1.9228 -0.9527 -0.1617
 8201SOL    HW236063   3.254   3.770   0.889 -2.1102  0.3856 -1.6993
 8202SOL     OW36064   0.802   3.619  13.470 -0.1113  0.6569 -0.3999
 8202SOL    HW136065   0.810   3.592  13.379  1.5729 -2.4824  0.6943
 8202SOL    HW236066   0.709   3.624  13.492  0.3801 -1.0279  2.0701
 8203SOL     OW36067   3.812   2.331   2.218  0.4919  0.0962  0.0869
 8203SOL    HW136068   3.783   2.326   2.309 -1.0501  0.9101 -0.3491
 8203SOL    HW236069   3.735   2.354   2.165 -2.2548  0.9201  4.3766
 8204SOL     OW36070   2.069   2.661   2.290 -0.3159 -0.0060 -0.4650
 8204SOL    HW136071   1.996   2.628   2.237  0.1906  0.4233 -1.4474
 8204SOL    HW236072   2.117   2.696   2.215 -1.2342  0.8694 -0.6395
 8205SOL     OW36073   1.303   2.606  17.205  0.1339 -0.6704 -0.3210
 8205SOL    HW136074   1.358   2.567  17.138 -1.7968 -3.8861  0.0035
 8205SOL    HW236075   1.349   2.690  17.211  3.2873 -2.4097  0.1726
 8206SOL     OW36076   2.663   1.414   7.443 -0.3506 -0.2061 -0.6810
 8206SOL    HW136077   2.750   1.443   7.470 -1.3542  0.6677  1.6668
 8206SOL    HW236078   2.629   1.484   7.388 -1.1063  1.1478  1.5023
 8207SOL     OW36079   0.573   2.026  16.091 -0.5363 -0.0160 -0.1662
 8207SOL    HW136080   0.547   1.964  16.159  0.6835  0.8214  1.0544
 8207SOL    HW236081   0.612   1.975  16.020  0.3994 -0.5859  0.7555
 8208SOL     OW36082   3.995   1.329   3.265 -0.4003  0.0510  0.4263
 8208SOL    HW136083   3.941   1.293   3.196 -1.4696 -1.5482  2.0967
 8208SOL    HW236084   4.032   1.403   3.216 -0.3242  0.2839  0.8332
 8209SOL     OW36085   3.553   0.054   4.840 -0.2826 -0.3619 -0.4469
 8209SOL    HW136086   3.460   0.070   4.854 -0.2830  2.9929 -4.2438
 8209SOL    HW236087   3.581   0.124   4.900 -1.0436  0.9603 -1.6248
 8210SOL     OW36088   1.280   4.096   6.192  0.0995 -0.2117  0.0766
 8210SOL    HW136089   1.354   4.036   6.191 -0.0194 -0.3678  1.0292
 8210SOL    HW236090   1.229   4.085   6.273  1.6495  1.0204  1.2102
 8211SOL     OW36091   4.429   3.453   1.209 -0.4281 -0.2289 -0.5476
 8211SOL    HW136092   4.360   3.511   1.178  0.1778  0.3526 -0.8264
 8211SOL    HW236093   4.419   3.459   1.304 -0.7450 -1.8979 -0.4750
 8212SOL     OW36094   4.072   0.488   5.184  0.5284 -0.3342  0.0447
 8212SOL    HW136095   4.002   0.548   5.160  0.6053  0.2555  1.2849
 8212SOL    HW236096   4.139   0.556   5.175  0.7712 -0.5095  0.5315
 8213SOL     OW36097   0.905   0.344   3.574  0.4814  0.5727 -0.3189
 8213SOL    HW136098   0.886   0.414   3.637 -0.1315  1.2037 -1.2000
 8213SOL    HW236099   0.958   0.389   3.508 -0.9123 -0.7962 -2.3573
 8214SOL     OW36100   4.088   1.270   0.941 -0.5605  0.1651  0.2334
 8214SOL    HW136101   4.000   1.236   0.954 -0.9549  0.6135 -1.2656
 8214SOL    HW236102   4.104   1.309   1.028  0.6486 -0.9041  0.4927
 8215SOL     OW36103   2.999   3.069   6.975 -0.6917 -0.3731  0.1736
 8215SOL    HW136104   2.923   3.054   6.918  0.0678 -0.6981 -0.7647
 8215SOL    HW236105   2.970   3.156   7.002  1.1158  0.6076 -1.0040
 8216SOL     OW36106   3.429   2.006   1.975  0.1493 -0.2729 -0.3151
 8216SOL    HW136107   3.346   1.962   1.996  1.2333 -2.2104 -0.0931
 8216SOL    HW236108   3.445   2.066   2.048  0.4198  0.4998 -1.0197
 8217SOL     OW36109   0.477   3.696   8.649  0.1117 -0.1316 -0.1775
 8217SOL    HW136110   0.531   3.631   8.604  0.4816  0.4315 -0.5499
 8217SOL    HW236111   0.540   3.754   8.693 -0.5114  1.2046 -1.0298
 8218SOL     OW36112   1.051   0.951   0.855  0.4530 -0.2370 -0.2702
 8218SOL    HW136113   1.047   0.879   0.918 -0.1615  0.4334  0.4614
 8218SOL    HW236114   1.004   0.903   0.787  0.8152 -1.4821  0.3543
 8219SOL     OW36115   0.463   3.971   9.361 -0.1404 -0.3188 -0.3182
 8219SOL    HW136116   0.462   4.062   9.330  0.9080 -0.8587 -1.9463
 8219SOL    HW236117   0.501   3.926   9.286 -1.9589 -0.8414 -0.9362
 8220SOL     OW36118   3.713   2.777   4.932  0.8478 -0.1535  0.0185
 8220SOL    HW136119   3.709   2.800   5.025 -0.7157 -3.3796  0.7427
 8220SOL    HW236120   3.645   2.712   4.914  0.0576  1.8524 -4.2883
 8221SOL     OW36121   0.426   4.287   5.720  0.1476  0.1861 -0.8529
 8221SOL    HW136122   0.466   4.252   5.799 -0.6913  1.8211  0.2840
 8221SOL    HW236123   0.364   4.215   5.714  0.9171 -0.4393 -1.5083
 8222SOL     OW36124   0.483   4.472   2.423 -0.5733 -0.1000 -0.0844
 8222SOL    HW136125   0.555   4.416   2.392 -1.9351 -1.5922 -0.5630
 8222SOL    HW236126   0.497   4.465   2.517 -1.5366 -1.5642 -0.0576
 8223SOL     OW36127   4.274   0.408  16.659 -0.1359 -0.1746  0.8150
 8223SOL    HW136128   4.178   0.408  16.657 -0.1247  0.5291  0.4283
 8223SOL    HW236129   4.305   0.318  16.653 -1.5764 -0.8346  3.1016
 8224SOL     OW36130   3.885   0.617   5.025  0.0243  0.0961 -0.4434
 8224SOL    HW136131   3.921   0.640   4.940 -0.4131 -1.0330 -0.9315
 8224SOL    HW236132   3.802   0.575   5.004 -0.6170  1.0735  0.1365
 8225SOL     OW36133   1.897   0.458   2.695 -0.1172 -0.4699 -0.5932
 8225SOL    HW136134   1.937   0.503   2.621 -0.6036  0.5202 -0.2570
 8225SOL    HW236135   1.818   0.414   2.662 -0.5200  0.3879 -0.7584
 8226SOL     OW36136   2.983   1.275   7.023  0.1667 -0.5225  0.1148
 8226SOL    HW136137   3.015   1.277   6.933 -2.0194  1.3185 -0.6025
 8226SOL    HW236138   3.055   1.300   7.082 -2.7052  1.4656  2.8067
 8227SOL     OW36139   4.441   3.195   9.622 -0.3720 -0.2052 -0.0302
 8227SOL    HW136140   4.463   3.184   9.529  0.9078 -0.5818  0.3180
 8227SOL    HW236141   4.417   3.287   9.632 -3.2789 -0.7411 -2.0521
 8228SOL     OW36142   0.253   2.051  15.897  0.5498  0.5133  0.2252
 8228SOL    HW136143   0.303   1.972  15.918  0.1854 -0.1451 -1.3965
 8228SOL    HW236144   0.230   2.072  15.987 -1.4469 -0.1030 -0.1410
 8229SOL     OW36145   0.790   0.944   2.141 -0.3189  0.7011 -0.4839
 8229SOL    HW136146   0.810   0.851   2.127 -3.2112 -0.4220  2.8788
 8229SOL    HW236147   0.702   0.951   2.103  0.2309  1.4257 -1.6240
 8230SOL     OW36148   2.542   4.582  11.127  0.5195 -0.4751 -0.3537
 8230SOL    HW136149   2.590   4.517  11.179 -0.6277  0.5403  1.9479
 8230SOL    HW236150   2.595   4.661  11.135 -0.1148  0.0765 -1.5831
 8231SOL     OW36151   1.259   3.649   4.048  0.0404 -0.4955  0.1904
 8231SOL    HW136152   1.305   3.572   4.014  1.2882 -0.3205  1.4421
 8231SOL    HW236153   1.168   3.621   4.040 -0.2714  1.2713 -2.4777
 8232SOL     OW36154   2.730   3.318   7.298 -0.3903 -0.0668  0.1758
 8232SOL    HW136155   2.771   3.295   7.381  1.3914 -1.8782 -1.2040
 8232SOL    HW236156   2.749   3.412   7.295  2.3935 -0.6457 -0.2489
 8233SOL     OW36157   0.258   1.054  12.465  0.2459  0.2818  0.7740
 8233SOL    HW136158   0.223   1.060  12.554 -0.0396  0.7319  0.6292
 8233SOL    HW236159   0.271   1.145  12.440 -1.6166  1.1334  2.8789
 8234SOL     OW36160   4.025   0.126   3.707 -0.7952 -0.9060 -0.1116
 8234SOL    HW136161   4.011   0.041   3.748  1.0231 -0.5391  1.2385
 8234SOL    HW236162   4.053   0.100   3.619  0.3380  3.3870 -1.0511
 8235SOL     OW36163   0.893   0.248   5.290  0.0980  0.4441 -0.1923
 8235SOL    HW136164   0.918   0.156   5.291 -0.9365  0.1457 -1.4939
 8235SOL    HW236165   0.924   0.281   5.374 -0.2299 -0.7631  0.3932
 8236SOL     OW36166   1.505   4.366   5.015  0.3588  0.3208  0.0819
 8236SOL    HW136167   1.451   4.352   4.938  0.6147  0.1002 -0.0541
 8236SOL    HW236168   1.592   4.384   4.979 -0.3373  0.1978 -1.6492
 8237SOL     OW36169   0.011   1.109   5.651 -0.9665  0.2612  0.2355
 8237SOL    HW136170   0.016   1.122   5.556 -0.6870 -0.2386  0.1769
 8237SOL    HW236171   0.067   1.178   5.686 -1.2712  0.5136  0.2239
 8238SOL     OW36172   3.269   1.227  12.432 -0.4831 -0.0733  0.6601
 8238SOL    HW136173   3.310   1.149  12.393  1.7051  0.8912  0.9862
 8238SOL    HW236174   3.304   1.292  12.370 -1.8376  1.0658  1.1054
 8239SOL     OW36175   1.229   3.934   2.636 -0.2228  0.1416  0.5859
 8239SOL    HW136176   1.159   3.927   2.572 -0.8524 -0.3184  1.3203
 8239SOL    HW236177   1.302   3.907   2.580 -0.9753  2.0241 -1.2895
 8240SOL     OW36178   1.038   1.493  11.092 -0.2324  0.1228 -0.3562
 8240SOL    HW136179   0.992   1.577  11.098  2.3161  1.3436  1.7819
 8240SOL    HW236180   1.101   1.518  11.025 -0.2395 -1.0394 -0.8059
 8241SOL     OW36181   0.196   3.271  15.576  0.4430  0.2387 -0.1876
 8241SOL    HW136182   0.269   3.286  15.636  0.0694  1.3353 -0.0085
 8241SOL    HW236183   0.166   3.359  15.552 -4.6150 -1.0670  1.3293
 8242SOL     OW36184   2.168   1.878   0.969  0.5731  0.1883 -0.0596
 8242SOL    HW136185   2.133   1.911   1.052 -1.4367 -2.1466  0.0372
 8242SOL    HW236186   2.181   1.951   0.909  0.7244  1.0303  0.9915
 8243SOL     OW36187   0.254   3.313   4.868 -0.0952  0.0682 -0.3875
 8243SOL    HW136188   0.271   3.233   4.917  1.4455  0.3911 -0.3998
 8243SOL    HW236189   0.255   3.276   4.779  0.7852 -0.1462 -0.2892
 8244SOL     OW36190   0.652   4.037   4.489 -1.1610  0.1604  0.3209
 8244SOL    HW136191   0.703   4.034   4.409 -1.3947  2.6539  0.0922
 8244SOL    HW236192   0.724   4.063   4.546 -1.7278 -1.0600  1.6054
 8245SOL     OW36193   1.778   2.847   3.112  0.1951 -0.3840 -0.2545
 8245SOL    HW136194   1.733   2.918   3.067 -1.2179 -1.4140 -0.4520
 8245SOL    HW236195   1.709   2.780   3.110 -0.5719  0.3887  0.4067
 8246SOL     OW36196   0.436   1.039   7.147 -0.2004  0.5929  0.1720
 8246SOL    HW136197   0.410   0.956   7.107  0.2535  1.6641 -2.3602
 8246SOL    HW236198   0.362   1.066   7.201 -0.2773  0.7994 -0.0366
 8247SOL     OW36199   0.824   4.112   6.139 -0.2682 -0.5210 -0.8398
 8247SOL    HW136200   0.735   4.148   6.146  0.3507  1.1295 -1.5414
 8247SOL    HW236201   0.844   4.122   6.046  2.3305  2.8240  0.0698
 8248SOL     OW36202   1.485   1.736   2.490  0.2050 -0.0124 -0.0568
 8248SOL    HW136203   1.467   1.809   2.430 -3.5242 -0.6840  0.2724
 8248SOL    HW236204   1.469   1.780   2.573 -0.6178 -0.1514 -0.1382
 8249SOL     OW36205   1.119   1.367  13.603  0.6738 -0.2870 -0.0502
 8249SOL    HW136206   1.024   1.369  13.591  0.2809  0.5685  3.2025
 8249SOL    HW236207   1.135   1.460  13.619  1.3430 -0.1939 -1.2319
 8250SOL     OW36208   3.537   3.163   5.506 -0.4270  0.2701  0.0109
 8250SOL    HW136209   3.555   3.196   5.595  2.0524  0.1051 -0.4349
 8250SOL    HW236210   3.489   3.084   5.531  0.5761 -0.5330 -0.6010
 8251SOL     OW36211   1.750   4.256   6.705  0.0325 -0.5190 -0.1198
 8251SOL    HW136212   1.733   4.350   6.716  1.1465 -0.2726 -0.5613
 8251SOL    HW236213   1.844   4.270   6.717 -0.2203 -0.0052  1.2622
 8252SOL     OW36214   0.046   3.447   6.031  0.3682 -0.2825  0.1637
 8252SOL    HW136215   4.689   3.435   6.085  1.4315 -1.6990  1.4071
 8252SOL    HW236216   0.016   3.450   5.940 -0.4343  1.2733  0.4856
 8253SOL     OW36217   2.825   2.048   1.411 -0.1599  0.2443 -0.0011
 8253SOL    HW136218   2.894   2.020   1.351 -0.2981 -0.9062  0.3646
 8253SOL    HW236219   2.777   1.969   1.436  1.2105  0.4280  3.3392
 8254SOL     OW36220   4.258   4.199   6.296  0.1809  0.1553 -0.4609
 8254SOL    HW136221   4.333   4.234   6.344  0.2024 -1.4065  0.6469
 8254SOL    HW236222   4.283   4.219   6.205  0.9671  2.8397  0.3448
 8255SOL     OW36223   3.058   2.576   9.508 -0.3931 -0.8789  0.2061
 8255SOL    HW136224   3.078   2.493   9.551  1.8463 -0.7527 -0.6297
 8255SOL    HW236225   3.008   2.629   9.571  1.0426  0.5815  0.1122
 8256SOL     OW36226   3.434   0.516  10.093  0.4575 -0.4961  0.2336
 8256SOL    HW136227   3.406   0.561  10.013  0.2749 -0.9808  0.0283
 8256SOL    HW236228   3.352   0.530  10.140  0.1464 -0.0526 -0.4446
 8257SOL     OW36229   1.703   0.748   7.549  0.1186  0.0982 -0.3855
 8257SOL    HW136230   1.695   0.843   7.536 -0.1342 -0.0371 -1.1769
 8257SOL    HW236231   1.780   0.730   7.494  1.7057 -2.5143  2.6812
 8258SOL     OW36232   3.873   3.113  10.478 -0.1089  0.0798 -0.7447
 8258SOL    HW136233   3.932   3.075  10.413  0.5656 -0.4041  0.1489
 8258SOL    HW236234   3.800   3.051  10.473 -2.2671  2.5490  0.3515
 8259SOL     OW36235   2.842   3.918   5.622  0.7291  0.6032 -0.5230
 8259SOL    HW136236   2.755   3.889   5.650  1.7581 -3.3300 -1.3766
 8259SOL    HW236237   2.826   3.949   5.533  1.5745 -0.2537 -0.9736
 8260SOL     OW36238   4.074   0.282   3.125 -0.3353 -0.2429 -0.0399
 8260SOL    HW136239   4.069   0.377   3.125  1.0615 -0.1663  0.6033
 8260SOL    HW236240   3.982   0.255   3.116 -0.4571  0.9016 -2.0833
 8261SOL     OW36241   3.212   0.865  15.887 -0.3638  0.2418  0.2119
 8261SOL    HW136242   3.237   0.798  15.823 -0.8704  0.5487 -0.3008
 8261SOL    HW236243   3.269   0.938  15.862  0.2432 -1.1416 -2.4552
 8262SOL     OW36244   1.443   3.320   5.454  0.7365 -0.3637 -0.1348
 8262SOL    HW136245   1.489   3.393   5.496 -1.7989  1.5724 -0.7285
 8262SOL    HW236246   1.484   3.327   5.368  0.8889 -1.1091 -0.1202
 8263SOL     OW36247   0.936   0.623   1.311 -0.1019  0.5083  0.0156
 8263SOL    HW136248   0.971   0.534   1.321  0.3497  1.1418  3.9256
 8263SOL    HW236249   0.924   0.655   1.400  0.6288 -1.0506  0.6750
 8264SOL     OW36250   1.374   3.729  17.191 -0.3596  0.0854  0.4535
 8264SOL    HW136251   1.335   3.675  17.260  1.4939 -1.6726  0.1599
 8264SOL    HW236252   1.450   3.674  17.170 -1.3066 -0.9075 -0.3446
 8265SOL     OW36253   4.104   3.608  16.432  0.0048 -0.2489  0.4211
 8265SOL    HW136254   4.016   3.604  16.396  0.6252  0.5574 -1.1678
 8265SOL    HW236255   4.077   3.615  16.524 -0.4140 -2.8673  0.4802
 8266SOL     OW36256   3.676   4.654   6.850  0.1298  0.3794 -0.3215
 8266SOL    HW136257   3.762   4.677   6.815 -0.4221  2.8484 -0.0977
 8266SOL    HW236258   3.620   4.714   6.801 -0.2926  0.5756  0.3948
 8267SOL     OW36259   1.619   1.153   9.314  0.5954  0.4553 -0.4854
 8267SOL    HW136260   1.675   1.228   9.335 -2.0441  2.6013 -1.1679
 8267SOL    HW236261   1.582   1.159   9.226 -1.8265  2.1731  0.6658
 8268SOL     OW36262   4.126   4.260   5.962 -0.5593 -0.0976 -0.3234
 8268SOL    HW136263   4.214   4.222   5.973 -0.1758  1.0566  0.6478
 8268SOL    HW236264   4.077   4.196   5.911 -0.8033  0.2009 -0.4601
 8269SOL     OW36265   2.955   2.338   2.304 -0.4685 -0.0429  0.0617
 8269SOL    HW136266   2.929   2.430   2.314  1.5399  0.4146  0.9433
 8269SOL    HW236267   2.870   2.294   2.298 -0.0225 -0.7434 -1.1231
 8270SOL     OW36268   1.442   0.243   3.107 -0.6037  0.2110 -0.1879
 8270SOL    HW136269   1.430   0.148   3.111  3.0389 -0.1947  1.6316
 8270SOL    HW236270   1.442   0.270   3.199  0.9865 -0.0489 -0.1034
 8271SOL     OW36271   3.086   1.047  11.391 -0.0838 -0.1383  0.3171
 8271SOL    HW136272   3.012   1.073  11.446 -0.1939  0.1052  0.0506
 8271SOL    HW236273   3.146   1.014  11.458 -0.4975  1.5313  1.5360
 8272SOL     OW36274   0.388   0.853   2.776  0.2077 -0.2089  0.3168
 8272SOL    HW136275   0.382   0.790   2.847  0.1118 -0.3173  0.2103
 8272SOL    HW236276   0.454   0.915   2.809 -0.9164  2.2230 -1.9447
 8273SOL     OW36277   3.222   1.566  15.023 -0.2006 -0.2648 -0.6749
 8273SOL    HW136278   3.133   1.541  15.048  0.1183 -0.4365  0.2921
 8273SOL    HW236279   3.198   1.638  14.965 -0.8517  0.5093  0.5792
 8274SOL     OW36280   1.953   2.694   0.955  0.0908 -0.4432 -0.5823
 8274SOL    HW136281   1.862   2.717   0.969  0.0647 -0.5710 -0.5433
 8274SOL    HW236282   1.985   2.705   1.044  0.0442 -1.2455 -0.4669
 8275SOL     OW36283   3.953   2.378   2.839 -0.1196 -0.3652  0.4968
 8275SOL    HW136284   3.923   2.444   2.776  0.8435  0.0260  0.4523
 8275SOL    HW236285   4.041   2.365   2.805 -0.2703 -0.6398  0.2105
 8276SOL     OW36286   0.561   1.307   7.293  0.1372  0.1972 -0.7387
 8276SOL    HW136287   0.613   1.231   7.266 -1.4298 -1.5445  1.1774
 8276SOL    HW236288   0.585   1.309   7.386 -0.8645  1.9495 -0.5171
 8277SOL     OW36289   2.205   0.253   1.104  0.0529  0.4655 -0.0104
 8277SOL    HW136290   2.172   0.185   1.046 -1.3114  0.0992  1.2048
 8277SOL    HW236291   2.197   0.325   1.042 -0.9765 -0.3392 -0.8097
 8278SOL     OW36292   3.237   0.359   4.374 -0.3979 -0.1581  0.5616
 8278SOL    HW136293   3.259   0.294   4.441  1.3283  0.2526  0.4085
 8278SOL    HW236294   3.143   0.341   4.373 -0.6406  1.1160  1.3959
 8279SOL     OW36295   3.387   0.879  13.775  0.2614  0.0487 -0.2888
 8279SOL    HW136296   3.337   0.819  13.830  1.4830 -0.8638 -0.1806
 8279SOL    HW236297   3.467   0.873  13.828 -0.1674 -0.5852  0.2897
 8280SOL     OW36298   4.035   3.116   4.274  0.2512 -0.0130 -0.0748
 8280SOL    HW136299   3.991   3.089   4.193  3.1363 -2.3715 -0.8453
 8280SOL    HW236300   4.069   3.204   4.258  0.8472 -0.0256  1.1447
 8281SOL     OW36301   2.762   2.287   8.421 -0.8199  0.7198 -0.3130
 8281SOL    HW136302   2.825   2.360   8.429 -0.9889  0.7549  0.6965
 8281SOL    HW236303   2.734   2.266   8.510 -0.0378  2.4935  0.3676
 8282SOL     OW36304   2.787   4.576   1.777  0.5245  0.3615  0.4027
 8282SOL    HW136305   2.814   4.663   1.745 -0.0079  0.0817 -0.7889
 8282SOL    HW236306   2.769   4.591   1.870 -1.5253 -1.9630  0.3787
 8283SOL     OW36307   3.736   2.355  12.211  0.2724  0.2518 -0.3932
 8283SOL    HW136308   3.723   2.367  12.117 -1.5584  3.1600  0.2094
 8283SOL    HW236309   3.715   2.441  12.248 -0.7314 -1.3153  2.6931
 8284SOL     OW36310   2.497   2.746   8.405  1.0827 -0.6158 -0.3464
 8284SOL    HW136311   2.573   2.762   8.462 -0.3351  1.2784  0.9944
 8284SOL    HW236312   2.531   2.667   8.363  1.9749  0.1012 -0.9598
 8285SOL     OW36313   4.462   2.565   3.061 -0.0000  0.1119  0.1745
 8285SOL    HW136314   4.509   2.569   2.979 -1.8348  0.5440 -0.8574
 8285SOL    HW236315   4.367   2.563   3.047 -0.0908  2.2155  0.4286
 8286SOL     OW36316   4.459   0.868   3.719 -0.2910 -0.0582  0.4331
 8286SOL    HW136317   4.550   0.868   3.690 -0.0792  0.1304  1.0935
 8286SOL    HW236318   4.464   0.933   3.789 -1.6938  1.0111 -0.4532
 8287SOL     OW36319   3.373   0.841   6.954 -0.0391 -0.2261 -0.0336
 8287SOL    HW136320   3.292   0.792   6.940 -0.6994  0.4106  1.5607
 8287SOL    HW236321   3.422   0.760   6.964  0.5429 -0.0139 -1.1531
 8288SOL     OW36322   3.170   0.390   6.251  0.2201  0.3494  0.6980
 8288SOL    HW136323   3.087   0.344   6.263  0.9141 -0.6085  1.7764
 8288SOL    HW236324   3.196   0.407   6.342  1.2932 -0.0400  0.4624
 8289SOL     OW36325   3.243   1.772   9.017 -0.1431  0.1965 -0.1666
 8289SOL    HW136326   3.266   1.716   8.944  0.5662 -0.0949  0.2831
 8289SOL    HW236327   3.152   1.799   9.004 -0.3825 -1.7359 -2.3643
 8290SOL     OW36328   0.948   1.298   0.849  1.7448  0.1754  0.2672
 8290SOL    HW136329   0.855   1.290   0.827  1.5004  3.2690  0.2212
 8290SOL    HW236330   0.955   1.393   0.861  0.7267  0.3260 -0.2878
 8291SOL     OW36331   3.443   0.388  15.290  0.3852  0.0427 -0.4636
 8291SOL    HW136332   3.405   0.415  15.206 -2.3111 -1.4704  0.2524
 8291SOL    HW236333   3.375   0.401  15.357  2.2679  2.3219  1.0038
 8292SOL     OW36334   4.118   2.389   3.792 -0.0406  0.3804 -0.1548
 8292SOL    HW136335   4.077   2.361   3.710 -0.6824 -0.6654  0.5171
 8292SOL    HW236336   4.209   2.360   3.784  0.2541  1.9883 -2.6374
 8293SOL     OW36337   0.876   3.603   0.708 -0.1704  0.1619 -0.0674
 8293SOL    HW136338   0.929   3.638   0.636  1.0580 -2.6880 -0.5613
 8293SOL    HW236339   0.857   3.516   0.673  0.9909  0.0906 -0.5130
 8294SOL     OW36340   0.823   3.846   9.896 -0.3739 -0.3323  0.0965
 8294SOL    HW136341   0.829   3.934   9.934 -1.2357 -1.1805  2.2098
 8294SOL    HW236342   0.908   3.807   9.919  0.0684  0.8393  0.4600
 8295SOL     OW36343   2.082   2.089  15.876 -0.3032  0.5008  0.1865
 8295SOL    HW136344   2.138   2.078  15.799  0.5308  1.3837  0.6677
 8295SOL    HW236345   2.004   2.121  15.832 -0.2754  0.8530  0.3963
 8296SOL     OW36346   0.346   0.043   7.834 -0.1223 -0.0948 -1.0816
 8296SOL    HW136347   0.411   0.004   7.893  0.7852 -0.4845 -2.3331
 8296SOL    HW236348   0.333   0.121   7.887  1.2453 -0.7413  0.2145
 8297SOL     OW36349   1.562   4.595  10.471  0.2754 -0.5561 -0.6367
 8297SOL    HW136350   1.488   4.607  10.529  0.3055 -2.0706 -0.2959
 8297SOL    HW236351   1.624   4.557  10.533 -0.0503  1.8838  1.2060
 8298SOL     OW36352   3.643   0.315   7.275 -0.2454  0.3920  0.0990
 8298SOL    HW136353   3.624   0.224   7.299 -1.3572  0.9141  1.2115
 8298SOL    HW236354   3.725   0.308   7.226 -0.4663 -0.3362 -0.1753
 8299SOL     OW36355   0.549   4.070   3.365 -0.0862  0.2815  0.7631
 8299SOL    HW136356   0.643   4.084   3.361  0.0467 -0.4032  1.4372
 8299SOL    HW236357   0.550   4.019   3.284  0.4967 -1.9018  2.1581
 8300SOL     OW36358   3.724   3.849  16.614  0.3296 -0.4494 -0.4990
 8300SOL    HW136359   3.688   3.841  16.525 -0.4917 -0.7196 -0.1375
 8300SOL    HW236360   3.662   3.792  16.659 -0.3207  0.9467  0.3469
 8301SOL     OW36361   0.156   3.628   4.987 -0.2914 -0.5712  0.3019
 8301SOL    HW136362   0.071   3.616   5.030 -0.7738  2.9995  0.3165
 8301SOL    HW236363   0.149   3.579   4.905  1.3083 -0.6203  0.2004
 8302SOL     OW36364   4.433   1.940  11.953 -0.2849  0.1130  0.4491
 8302SOL    HW136365   4.480   2.005  11.901  1.0394 -1.1382  0.0812
 8302SOL    HW236366   4.385   1.998  12.012  1.1723  0.6395  1.1423
 8303SOL     OW36367   3.435   3.453  16.765 -0.4193  0.6267  0.5185
 8303SOL    HW136368   3.512   3.412  16.805 -0.8575 -0.8972 -0.2077
 8303SOL    HW236369   3.369   3.421  16.827 -0.7932 -0.2975 -0.3681
 8304SOL     OW36370   3.149   4.458  17.419 -0.3738 -0.0595  0.3557
 8304SOL    HW136371   3.198   4.532  17.453  3.3057 -1.1628 -2.5264
 8304SOL    HW236372   3.215   4.389  17.420  0.8531  1.1577  2.5963
 8305SOL     OW36373   1.715   2.963   2.735 -0.0827 -0.0212  0.5324
 8305SOL    HW136374   1.692   3.046   2.693 -1.5156 -1.2482 -1.1076
 8305SOL    HW236375   1.682   2.891   2.681  1.6597  2.1178 -3.4279
 8306SOL     OW36376   0.856   0.453  11.728 -0.1149  0.5897  0.1874
 8306SOL    HW136377   0.832   0.384  11.790 -0.0099 -0.7638 -1.2958
 8306SOL    HW236378   0.940   0.482  11.764  0.3629 -1.7029  0.9084
 8307SOL     OW36379   0.321   1.169  11.195 -0.0917  0.0139 -0.9533
 8307SOL    HW136380   0.347   1.102  11.257 -1.1082 -0.4525 -1.0218
 8307SOL    HW236381   0.229   1.148  11.178 -0.9125  1.9894  1.0628
 8308SOL     OW36382   1.789   1.400   9.332 -0.3978  0.3097 -0.0544
 8308SOL    HW136383   1.853   1.443   9.389  2.6512 -2.8160 -1.1205
 8308SOL    HW236384   1.713   1.449   9.365 -1.8507 -0.2821 -2.5755
 8309SOL     OW36385   0.268   2.436   4.280 -0.4302  0.4541  0.3242
 8309SOL    HW136386   0.234   2.429   4.369  1.0890  2.9657  1.1296
 8309SOL    HW236387   0.331   2.364   4.285  0.4364  1.3786  2.7671
 8310SOL     OW36388   2.321   0.193   4.472 -0.3236 -0.7121 -0.5487
 8310SOL    HW136389   2.361   0.242   4.400  1.2548 -1.1844 -0.0106
 8310SOL    HW236390   2.234   0.165   4.445 -2.1873  3.7610  0.8878
 8311SOL     OW36391   2.472   1.253   7.960 -0.0974  0.5366 -0.3095
 8311SOL    HW136392   2.413   1.255   7.885  0.8305 -2.7870 -1.1446
 8311SOL    HW236393   2.518   1.171   7.941  0.4572  0.8964 -0.5188
 8312SOL     OW36394   2.303   0.115   3.675 -0.1979  0.6467  0.0552
 8312SOL    HW136395   2.236   0.137   3.740 -0.2693  0.9637 -0.1257
 8312SOL    HW236396   2.284   0.182   3.610 -0.4314 -1.4658 -2.0478
 8313SOL     OW36397   2.531   4.022   7.808  0.1962  0.0607  0.3281
 8313SOL    HW136398   2.535   4.064   7.723 -0.8392  1.1788  0.8405
 8313SOL    HW236399   2.624   4.006   7.825 -0.3887 -2.0767  1.6862
 8314SOL     OW36400   0.042   3.555  14.558 -0.3627  0.1530 -0.5722
 8314SOL    HW136401   0.007   3.513  14.636  1.3528 -0.1847  0.0226
 8314SOL    HW236402   4.720   3.639  14.571  2.0501  1.3205  0.0778
 8315SOL     OW36403   4.006   1.804   3.425  1.0086 -0.1592 -0.0345
 8315SOL    HW136404   3.954   1.728   3.399  0.1943 -0.1558  1.6020
 8315SOL    HW236405   3.935   1.865   3.445  1.2263  0.3047 -0.6637
 8316SOL     OW36406   0.378   1.598  14.644  0.0029 -0.3072  0.0115
 8316SOL    HW136407   0.310   1.633  14.586 -1.3088  1.5654  2.6731
 8316SOL    HW236408   0.451   1.636  14.596 -2.0723  1.4724 -1.7554
 8317SOL     OW36409   2.872   1.001   3.095  0.6725  0.2741  0.8074
 8317SOL    HW136410   2.940   1.036   3.038 -1.4785  2.3883 -0.4622
 8317SOL    HW236411   2.857   1.078   3.149  0.1398  0.0191  1.0300
 8318SOL     OW36412   3.993   4.092  16.751 -0.0454  0.3378 -0.0122
 8318SOL    HW136413   4.006   4.034  16.676  0.4448 -0.1928  0.4852
 8318SOL    HW236414   3.910   4.138  16.737 -1.3709 -1.9941  0.3070
 8319SOL     OW36415   3.348   3.528   5.782 -0.7610  0.0733 -0.3526
 8319SOL    HW136416   3.302   3.513   5.699  1.4375 -0.8830 -1.4053
 8319SOL    HW236417   3.378   3.619   5.772 -1.3611 -0.0635 -3.4770
 8320SOL     OW36418   3.832   2.587   2.383 -0.0660  0.3853  0.1230
 8320SOL    HW136419   3.751   2.563   2.339 -1.3911  1.3447  2.0620
 8320SOL    HW236420   3.832   2.681   2.366  2.1817  0.5061  0.7536
 8321SOL     OW36421   0.244   3.545  12.743  0.2086  0.0183 -0.4385
 8321SOL    HW136422   0.230   3.490  12.666 -1.7105 -0.9817  0.6215
 8321SOL    HW236423   0.330   3.507  12.759 -0.0900 -0.3910  0.2036
 8322SOL     OW36424   2.648   4.597   5.928 -0.1460  0.1530 -0.1145
 8322SOL    HW136425   2.685   4.509   5.940 -0.8359 -0.0639  0.4645
 8322SOL    HW236426   2.675   4.604   5.837 -0.5610  2.9389 -0.0075
 8323SOL     OW36427   3.622   1.882  15.616  0.1361 -0.1868 -0.0466
 8323SOL    HW136428   3.550   1.928  15.661  0.6183  1.2213 -0.7132
 8323SOL    HW236429   3.567   1.836  15.553 -0.8171  2.2783 -1.0161
 8324SOL     OW36430   3.960   0.363   6.007 -0.3944  0.0891 -0.5414
 8324SOL    HW136431   3.978   0.287   6.062  2.8972 -0.2560 -2.1096
 8324SOL    HW236432   3.961   0.431   6.074 -0.8049 -1.3362  0.9059
 8325SOL     OW36433   0.224   2.126   7.808 -0.2456  0.0736 -0.0766
 8325SOL    HW136434   0.167   2.191   7.766 -0.9500  0.3207  1.2546
 8325SOL    HW236435   0.282   2.176   7.866  1.1837 -0.6966 -0.8614
 8326SOL     OW36436   0.593   0.672   7.153 -0.2452 -0.3515  0.2340
 8326SOL    HW136437   0.545   0.713   7.081 -0.0555 -2.3763 -1.0223
 8326SOL    HW236438   0.554   0.585   7.146 -0.9095 -0.1159  0.9913
 8327SOL     OW36439   0.197   1.817  12.478  0.6089  0.3462  0.1949
 8327SOL    HW136440   0.176   1.858  12.562  1.2049  2.7793 -0.8387
 8327SOL    HW236441   0.130   1.853  12.421  0.6601  0.6460  0.3245
 8328SOL     OW36442   2.920   1.403  12.065  0.2051  0.2682 -0.3650
 8328SOL    HW136443   2.876   1.488  12.063 -0.1846  0.0438 -1.5893
 8328SOL    HW236444   2.927   1.403  12.160  2.3877  0.4468 -0.5241
 8329SOL     OW36445   4.051   4.581   0.264  0.2160 -0.4422 -0.2743
 8329SOL    HW136446   4.027   4.639   0.192  0.3965  1.9911  1.6202
 8329SOL    HW236447   4.143   4.558   0.253 -0.0362 -1.7126  0.2391
 8330SOL     OW36448   3.743   1.657   7.272  0.5210 -0.4146  0.0074
 8330SOL    HW136449   3.717   1.566   7.255  4.5651 -1.3610 -1.2697
 8330SOL    HW236450   3.660   1.704   7.262  1.5592  1.0707 -1.6285
 8331SOL     OW36451   0.154   2.817   5.241 -0.2539 -0.2489 -0.1577
 8331SOL    HW136452   0.187   2.766   5.167  3.2145  1.7873 -0.0319
 8331SOL    HW236453   0.209   2.896   5.243  2.8843 -2.4613  0.3312
 8332SOL     OW36454   1.141   3.525  15.454  0.0251 -0.2353  0.2635
 8332SOL    HW136455   1.124   3.436  15.485  0.4959 -0.7577 -0.9801
 8332SOL    HW236456   1.083   3.577  15.510  0.6562 -0.4270  1.0854
 8333SOL     OW36457   1.134   0.515  13.597 -0.5632 -0.8674  0.5385
 8333SOL    HW136458   1.195   0.480  13.663 -1.2557 -2.4999  0.3317
 8333SOL    HW236459   1.057   0.530  13.651  1.1532 -1.6718  3.2312
 8334SOL     OW36460   0.747   3.160  14.340  0.0878 -0.1606 -0.2686
 8334SOL    HW136461   0.738   3.141  14.434  2.2138 -0.4207 -0.1187
 8334SOL    HW236462   0.706   3.243  14.316  3.5946  1.1445 -1.7523
 8335SOL     OW36463   0.442   2.238   6.130  0.5306 -0.2869  0.3561
 8335SOL    HW136464   0.445   2.148   6.163  3.5940 -0.4213 -0.2520
 8335SOL    HW236465   0.372   2.284   6.176 -0.0039 -0.0850 -0.6629
 8336SOL     OW36466   4.441   0.602  15.344 -0.2146  0.0484 -0.2384
 8336SOL    HW136467   4.463   0.688  15.308  1.7000  0.3281  1.6404
 8336SOL    HW236468   4.358   0.585  15.299  1.5534 -1.1165 -3.0827
 8337SOL     OW36469   1.998   3.607  11.776  0.2280  0.1589 -0.4543
 8337SOL    HW136470   2.014   3.690  11.733  0.0436  1.0832  1.2730
 8337SOL    HW236471   1.915   3.638  11.811  0.1806  0.0089 -0.4304
 8338SOL     OW36472   3.281   3.591   9.525 -0.2052  0.8656 -0.1078
 8338SOL    HW136473   3.331   3.611   9.604  0.1700  0.3239 -0.2077
 8338SOL    HW236474   3.349   3.556   9.467 -0.0833  0.8718  0.0308
 8339SOL     OW36475   0.187   4.091   3.327  0.2698 -0.6112 -0.7313
 8339SOL    HW136476   0.136   4.161   3.286 -0.2312 -1.1681 -1.0440
 8339SOL    HW236477   0.200   4.021   3.263  0.5895 -1.4787  0.2817
 8340SOL     OW36478   0.991   1.249   5.444  0.4041 -0.3016 -0.1045
 8340SOL    HW136479   0.897   1.254   5.464  0.2692  0.0806 -0.7941
 8340SOL    HW236480   1.020   1.319   5.502 -0.9881  0.8268 -0.7740
 8341SOL     OW36481   1.731   3.903   9.685  0.5059 -0.7396 -0.1255
 8341SOL    HW136482   1.729   3.824   9.631  0.5623 -0.8139 -0.0183
 8341SOL    HW236483   1.750   3.871   9.773  0.7414  1.5544  0.6796
 8342SOL     OW36484   4.070   2.596  10.531 -0.2241  0.2741  0.4265
 8342SOL    HW136485   4.061   2.690  10.542 -0.7696  0.3441 -0.6032
 8342SOL    HW236486   4.140   2.571  10.591  0.3371  2.1104  0.5298
 8343SOL     OW36487   2.208   1.610  12.273  0.2392 -0.1136 -0.3486
 8343SOL    HW136488   2.281   1.673  12.274  0.2819 -0.1789  0.7770
 8343SOL    HW236489   2.252   1.537  12.315  1.4085  0.8136  0.0383
 8344SOL     OW36490   4.679   0.648   8.105 -0.1261 -0.4691  0.5614
 8344SOL    HW136491   4.586   0.652   8.128 -0.1292  2.1823  0.0264
 8344SOL    HW236492   4.710   0.694   8.183 -2.8555 -0.1230  1.4595
 8345SOL     OW36493   2.403   1.431   4.072 -0.2392  0.4346 -0.1659
 8345SOL    HW136494   2.325   1.386   4.104  1.5147 -3.1845 -0.9472
 8345SOL    HW236495   2.398   1.402   3.981  0.4403 -1.5846  0.4450
 8346SOL     OW36496   4.108   1.357   8.048 -0.0767 -0.8364 -0.2520
 8346SOL    HW136497   4.125   1.363   7.955 -0.6417 -1.8036 -0.4173
 8346SOL    HW236498   4.028   1.305   8.046 -0.5674 -0.1106  0.1013
 8347SOL     OW36499   2.477   2.799  10.095  0.0584  0.3186 -0.6475
 8347SOL    HW136500   2.457   2.892  10.091  1.6789  0.5800 -2.5714
 8347SOL    HW236501   2.573   2.805  10.096  0.1239 -0.4486 -2.5080
 8348SOL     OW36502   3.144   1.419   6.364 -0.2211  0.3259 -0.0045
 8348SOL    HW136503   3.199   1.358   6.413  0.9237  1.6254  0.3195
 8348SOL    HW236504   3.205   1.445   6.295  0.0168 -2.0029 -0.6614
 8349SOL     OW36505   0.001   3.165   9.515 -0.2994 -0.4730  0.5823
 8349SOL    HW136506   4.721   3.197   9.605 -1.9996  1.3073 -0.0868
 8349SOL    HW236507   0.065   3.093   9.517 -2.0497 -2.0502  0.0784
 8350SOL     OW36508   1.230   0.331  11.093  0.5609  0.3026  0.3988
 8350SOL    HW136509   1.149   0.335  11.143  0.1308 -1.4843 -0.1203
 8350SOL    HW236510   1.294   0.310  11.162  1.1036 -1.5979 -0.6627
 8351SOL     OW36511   1.944   3.494   3.789  0.0802 -0.0224  0.5238
 8351SOL    HW136512   1.915   3.476   3.699 -1.4932  0.5292  0.9257
 8351SOL    HW236513   1.865   3.521   3.835 -0.1044  2.1405 -1.0655
 8352SOL     OW36514   0.372   1.745   9.262 -0.2355  0.6735 -0.2986
 8352SOL    HW136515   0.406   1.667   9.217  0.4950  0.4687  0.6181
 8352SOL    HW236516   0.295   1.713   9.308  0.3493  0.7002  0.7104
 8353SOL     OW36517   3.546   3.483  13.969  0.4814  0.1300 -0.0089
 8353SOL    HW136518   3.560   3.439  13.885  0.5640  0.4578 -0.1667
 8353SOL    HW236519   3.629   3.530  13.971  0.4506  0.2406 -1.3961
 8354SOL     OW36520   3.321   0.338   8.237 -1.1806 -0.6706  0.3489
 8354SOL    HW136521   3.305   0.386   8.156  1.6218 -2.1072 -1.0580
 8354SOL    HW236522   3.228   0.328   8.257 -0.8926 -0.0387  2.0218
 8355SOL     OW36523   3.052   1.658  10.325  0.3149  0.0747 -0.0060
 8355SOL    HW136524   3.121   1.665  10.259 -1.7054  1.3531 -1.9988
 8355SOL    HW236525   3.100   1.653  10.408  0.5126 -0.3317 -0.1495
 8356SOL     OW36526   3.676   2.498  11.975 -0.0771 -0.3762  0.4805
 8356SOL    HW136527   3.605   2.508  11.911 -1.8491 -1.3607  2.2919
 8356SOL    HW236528   3.623   2.534  12.046 -0.8738  0.3241 -0.4701
 8357SOL     OW36529   3.333   2.457   3.195  0.9721  0.4219  0.3474
 8357SOL    HW136530   3.291   2.457   3.282 -1.0809  2.6392 -0.6416
 8357SOL    HW236531   3.327   2.364   3.175 -1.9907  0.5203  0.7276
 8358SOL     OW36532   1.025   1.060  10.547  0.5292 -1.0901  0.1152
 8358SOL    HW136533   1.075   0.980  10.561  0.2057 -1.3636 -0.2955
 8358SOL    HW236534   1.040   1.088  10.456 -0.0945  0.4498  0.4805
 8359SOL     OW36535   1.136   3.082   1.695  0.4858 -0.1523 -0.0044
 8359SOL    HW136536   1.066   3.146   1.702  0.6869  0.1777 -0.9793
 8359SOL    HW236537   1.198   3.120   1.633  1.4219 -0.5242  0.7012
 8360SOL     OW36538   0.119   0.349   6.435  0.4098 -0.1906 -0.5730
 8360SOL    HW136539   0.072   0.266   6.433  2.5582 -1.3866 -1.5959
 8360SOL    HW236540   0.051   0.416   6.428 -0.4326 -0.8513  1.4162
 8361SOL     OW36541   3.140   4.165  10.697 -0.4641 -0.3106  0.0947
 8361SOL    HW136542   3.049   4.136  10.704 -0.6549  1.1825  4.2469
 8361SOL    HW236543   3.194   4.086  10.696  1.6724  1.1046  1.3176
 8362SOL     OW36544   4.567   3.205  14.559  1.1016 -0.4803 -0.5052
 8362SOL    HW136545   4.522   3.130  14.520  0.2424 -0.4229  0.3815
 8362SOL    HW236546   4.605   3.177  14.643 -1.3431  0.4030  0.8891
 8363SOL     OW36547   1.375   1.671  10.659  0.3635 -0.1914 -0.1639
 8363SOL    HW136548   1.291   1.699  10.695  0.1072 -0.7656 -0.3233
 8363SOL    HW236549   1.360   1.581  10.630 -2.5911  0.2743 -0.0491
 8364SOL     OW36550   2.291   1.378  10.376  0.0039 -0.2705  0.2072
 8364SOL    HW136551   2.237   1.442  10.423 -1.9703 -0.4563 -1.7854
 8364SOL    HW236552   2.268   1.399  10.285  1.4249 -1.3603 -0.3974
 8365SOL     OW36553   1.607   2.498   8.420 -0.1382 -0.0111 -0.3907
 8365SOL    HW136554   1.521   2.483   8.460  0.6554  2.1952  2.0983
 8365SOL    HW236555   1.590   2.531   8.332 -0.8989  1.0984  0.1656
 8366SOL     OW36556   1.895   0.893  17.121 -0.3401 -0.6492 -0.0681
 8366SOL    HW136557   1.977   0.914  17.166 -0.8182  0.4692  0.2870
 8366SOL    HW236558   1.873   0.809  17.161  2.0949 -1.2993 -0.0968
 8367SOL     OW36559   2.575   2.708  11.319  0.4076  0.0336 -0.0458
 8367SOL    HW136560   2.488   2.692  11.281 -0.0032 -1.3950  1.5090
 8367SOL    HW236561   2.630   2.662  11.255 -1.1003  0.1920 -1.4597
 8368SOL     OW36562   3.991   0.093  15.480 -0.2077 -0.1730 -0.3633
 8368SOL    HW136563   3.960   0.101  15.570 -3.0138  1.2032 -1.4306
 8368SOL    HW236564   4.048   0.017  15.470  1.7747  1.2578  0.1177
 8369SOL     OW36565   1.888   0.350   9.007  0.4258  0.2040  0.4244
 8369SOL    HW136566   1.926   0.271   9.046 -2.4974 -1.7732 -0.7719
 8369SOL    HW236567   1.964   0.384   8.960 -0.8206  3.1666  0.5691
 8370SOL     OW36568   3.466   1.826  15.359 -0.0488 -0.0035 -0.3988
 8370SOL    HW136569   3.381   1.783  15.364  0.3409 -0.7938 -0.7167
 8370SOL    HW236570   3.496   1.780  15.281 -0.3047 -1.7090  0.5160
 8371SOL     OW36571   4.536   3.193   9.310 -0.3418 -0.3630  0.0945
 8371SOL    HW136572   4.583   3.127   9.260  3.0450  0.8198  1.7001
 8371SOL    HW236573   4.600   3.202   9.380  0.0747  0.6741 -0.4127
 8372SOL     OW36574   3.741   3.354   2.345 -0.4071  0.1046 -0.1897
 8372SOL    HW136575   3.827   3.315   2.355  0.0123 -0.0278 -4.2488
 8372SOL    HW236576   3.700   3.308   2.418  0.8171 -1.6961 -0.6488
 8373SOL     OW36577   1.977   3.751   5.413 -0.4483 -0.1696  0.7621
 8373SOL    HW136578   2.058   3.703   5.430 -0.1921  0.0157  0.0468
 8373SOL    HW236579   1.922   3.677   5.385  0.3391 -0.7645  0.7991
 8374SOL     OW36580   0.200   4.468  15.525 -0.0674  0.1092  0.0925
 8374SOL    HW136581   0.235   4.543  15.573 -1.6155 -0.9338  2.8249
 8374SOL    HW236582   0.185   4.515  15.443  0.0620  0.0299  0.0249
 8375SOL     OW36583   3.867   2.135   2.479 -0.6058  0.2987 -0.6322
 8375SOL    HW136584   3.879   2.064   2.417  1.0914 -1.5469  1.8389
 8375SOL    HW236585   3.786   2.173   2.445 -0.2667 -0.3938 -2.2033
 8376SOL     OW36586   0.274   2.874   8.208  0.3717  0.0957  0.4169
 8376SOL    HW136587   0.369   2.875   8.222  0.3422 -0.9191  0.6417
 8376SOL    HW236588   0.257   2.966   8.229 -1.4335 -0.3431  0.8517
 8377SOL     OW36589   2.189   1.580   9.459  0.3399  0.3460 -0.2060
 8377SOL    HW136590   2.112   1.553   9.509 -0.1706 -1.1044 -1.8025
 8377SOL    HW236591   2.259   1.584   9.524  1.7247 -1.0067 -1.6073
 8378SOL     OW36592   4.674   3.513  14.818  0.1103  0.5149 -0.3689
 8378SOL    HW136593   4.605   3.454  14.787  1.1340 -2.2137  2.6490
 8378SOL    HW236594   4.625   3.541  14.896  0.0546  0.2416 -0.3071
 8379SOL     OW36595   0.788   0.369   2.800 -0.0173 -0.2782 -0.6361
 8379SOL    HW136596   0.866   0.340   2.752 -0.6163  0.2352 -1.9154
 8379SOL    HW236597   0.787   0.454   2.756 -3.5551 -0.0543 -0.1230
 8380SOL     OW36598   1.173   2.035   2.086 -0.4273 -0.7210  0.1489
 8380SOL    HW136599   1.251   2.068   2.041 -0.0814 -0.0911  1.2192
 8380SOL    HW236600   1.097   2.079   2.047 -0.0203 -1.7792 -1.8181
 8381SOL     OW36601   4.017   4.597   1.202  0.0757  0.0269 -0.0032
 8381SOL    HW136602   3.934   4.643   1.196  0.1627  0.3510  1.3260
 8381SOL    HW236603   3.986   4.507   1.201 -0.2426  0.1376 -0.0371
 8382SOL     OW36604   2.809   2.613  16.037  0.4848 -0.1940  0.3708
 8382SOL    HW136605   2.843   2.587  15.951  1.5331  1.1170  0.3858
 8382SOL    HW236606   2.808   2.524  16.071 -0.0046 -0.2086  0.3095
 8383SOL     OW36607   3.495   4.425   4.948  0.1793 -0.2787  0.0861
 8383SOL    HW136608   3.580   4.396   4.917  0.2347  0.9655 -0.9385
 8383SOL    HW236609   3.516   4.492   5.014  0.5524 -1.0132  0.7163
 8384SOL     OW36610   0.815   3.857   6.725 -0.0090  0.1345 -0.1259
 8384SOL    HW136611   0.893   3.908   6.706  0.0511  0.2322  0.3975
 8384SOL    HW236612   0.810   3.867   6.820  3.9789 -1.8475  0.2883
 8385SOL     OW36613   0.994   0.115   2.735 -0.4293  0.1296 -0.3433
 8385SOL    HW136614   1.065   0.093   2.675  1.4192 -0.9215  2.2429
 8385SOL    HW236615   0.917   0.082   2.688 -1.2245  0.4660  0.6963
 8386SOL     OW36616   0.805   3.605   7.494 -0.4015  0.4214  0.2861
 8386SOL    HW136617   0.898   3.629   7.492 -0.3642  0.2196 -0.4337
 8386SOL    HW236618   0.794   3.599   7.589 -1.0890  1.9766  0.3012
 8387SOL     OW36619   0.937   2.054   0.291 -0.1008 -0.2103 -0.0327
 8387SOL    HW136620   0.902   1.968   0.314 -1.1176  0.6915  1.7485
 8387SOL    HW236621   0.993   2.062   0.368 -2.1085 -3.1794  1.7089
 8388SOL     OW36622   2.270   1.253   3.507  0.1173  0.2945  0.2750
 8388SOL    HW136623   2.227   1.245   3.422 -2.4778  1.5092  1.4829
 8388SOL    HW236624   2.353   1.205   3.503  0.9892  1.6367  2.0817
 8389SOL     OW36625   3.317   2.616  15.391  0.7605  0.3343  0.4545
 8389SOL    HW136626   3.364   2.596  15.472  1.6052 -0.5662 -0.2645
 8389SOL    HW236627   3.319   2.532  15.346 -0.3528  0.4830  0.1194
 8390SOL     OW36628   2.141   1.548   3.102 -0.1646 -0.0629 -0.5196
 8390SOL    HW136629   2.210   1.587   3.156 -0.9375 -1.0145  1.1812
 8390SOL    HW236630   2.173   1.571   3.015 -1.9548 -1.5906 -1.5922
 8391SOL     OW36631   2.779   2.495   1.927 -0.7369  0.1678 -0.0191
 8391SOL    HW136632   2.865   2.538   1.926  0.6642 -2.6424 -1.2198
 8391SOL    HW236633   2.723   2.559   1.884 -0.7161  1.3982  1.8028
 8392SOL     OW36634   2.373   1.939   5.034  0.0545  1.0061  0.2243
 8392SOL    HW136635   2.462   1.950   5.066 -0.2859 -1.1118  1.8816
 8392SOL    HW236636   2.336   2.026   5.049 -0.6211  0.7505  0.0345
 8393SOL     OW36637   1.587   2.413   3.664 -0.7737  0.2375 -1.0412
 8393SOL    HW136638   1.506   2.362   3.667  1.3939 -3.0379  1.1297
 8393SOL    HW236639   1.650   2.348   3.694  1.0462  1.1015 -2.9656
 8394SOL     OW36640   0.194   1.247   4.310 -0.6739  0.3361  0.0285
 8394SOL    HW136641   0.129   1.290   4.255  0.0723  4.1578  2.1114
 8394SOL    HW236642   0.184   1.155   4.286  0.7310 -0.2053  1.5059
 8395SOL     OW36643   1.742   2.537  10.618 -0.2544 -0.1307 -0.2966
 8395SOL    HW136644   1.790   2.527  10.536  0.5455  1.1520  0.0305
 8395SOL    HW236645   1.658   2.579  10.598  0.7643  1.6234 -0.8688
 8396SOL     OW36646   3.161   1.288   4.185  0.6946 -0.0996 -0.1359
 8396SOL    HW136647   3.158   1.197   4.213  0.0502 -0.4741 -1.4313
 8396SOL    HW236648   3.158   1.333   4.270 -0.3474 -0.0720 -0.1916
 8397SOL     OW36649   3.675   3.501  15.508 -0.3980  0.4607 -0.1584
 8397SOL    HW136650   3.694   3.412  15.478 -1.4420  0.0337  0.4557
 8397SOL    HW236651   3.714   3.552  15.437 -0.6966  0.8648 -0.0331
 8398SOL     OW36652   3.977   4.254   2.178  0.3351  0.4018 -0.8669
 8398SOL    HW136653   4.043   4.222   2.240 -1.1644  0.9974  1.0482
 8398SOL    HW236654   4.016   4.243   2.092 -1.4082  0.2190 -1.6224
 8399SOL     OW36655   1.836   4.380   1.522 -0.1963  0.6634 -0.1996
 8399SOL    HW136656   1.878   4.348   1.602  0.1210  0.1779 -0.5606
 8399SOL    HW236657   1.815   4.466   1.560 -1.8303 -0.5784  1.7057
 8400SOL     OW36658   2.099   0.304   5.025  0.2327  0.5322  0.3950
 8400SOL    HW136659   2.124   0.282   4.935  0.8439  1.8235  0.2463
 8400SOL    HW236660   2.061   0.389   5.002 -2.8284 -0.6077  1.2288
 8401SOL     OW36661   0.322   2.710  12.711 -0.3553  0.2663 -0.4027
 8401SOL    HW136662   0.255   2.734  12.775  0.9875  0.1393  1.0247
 8401SOL    HW236663   0.281   2.646  12.652 -0.4283 -0.9531  0.9726
 8402SOL     OW36664   4.066   2.288   5.597  0.2107  0.2811  0.1874
 8402SOL    HW136665   3.988   2.269   5.649  0.3461 -1.2238 -0.1659
 8402SOL    HW236666   4.109   2.203   5.597  0.1151  0.2342 -0.0279
 8403SOL     OW36667   3.610   4.004   6.530 -0.4623  0.4334  0.0290
 8403SOL    HW136668   3.629   3.947   6.605 -0.8412 -0.0844 -0.2687
 8403SOL    HW236669   3.523   4.032   6.556  0.2252  1.5035  1.1694
 8404SOL     OW36670   4.338   2.563   8.878 -0.0179 -0.0686 -0.4909
 8404SOL    HW136671   4.427   2.535   8.902  0.9364  1.3522 -2.3693
 8404SOL    HW236672   4.334   2.577   8.783  0.0068  0.6293 -0.3888
 8405SOL     OW36673   2.479   3.220   2.741 -0.6133  0.3588  0.2369
 8405SOL    HW136674   2.547   3.169   2.697 -0.4814  0.7805 -0.0447
 8405SOL    HW236675   2.477   3.168   2.821 -1.5996 -1.7314 -1.1342
 8406SOL     OW36676   4.106   4.565   6.996 -0.1268 -0.3853 -0.1141
 8406SOL    HW136677   4.160   4.489   7.017  0.1109 -0.0145  0.6352
 8406SOL    HW236678   4.136   4.635   7.055  1.3187 -0.3326 -0.9170
 8407SOL     OW36679   3.430   2.996  11.678 -0.2021 -0.7881  0.4859
 8407SOL    HW136680   3.465   3.075  11.636  1.5076 -1.6142  0.3490
 8407SOL    HW236681   3.358   3.030  11.732 -0.6532 -1.1538  0.1162
 8408SOL     OW36682   0.109   1.151   0.474 -0.1973 -0.3743 -0.2510
 8408SOL    HW136683   0.052   1.217   0.437  1.0998  1.6117  1.2789
 8408SOL    HW236684   0.045   1.098   0.522  0.3364 -1.1928 -0.4250
 8409SOL     OW36685   4.408   0.524  12.800 -0.6294 -0.0925  0.6582
 8409SOL    HW136686   4.464   0.600  12.787  0.2830 -1.3915 -2.8591
 8409SOL    HW236687   4.390   0.496  12.711 -0.5240  0.3424  0.5002
 8410SOL     OW36688   2.441   2.296   3.395  0.2676 -0.1688  0.5504
 8410SOL    HW136689   2.368   2.290   3.457  0.4391  2.5713  1.0396
 8410SOL    HW236690   2.514   2.329   3.447 -1.4915 -1.0778  3.6450
 8411SOL     OW36691   1.796   2.390   4.313 -0.0008  0.5392 -0.5715
 8411SOL    HW136692   1.707   2.356   4.314  0.8506 -1.7130 -1.7446
 8411SOL    HW236693   1.794   2.460   4.247  0.8380 -0.5067 -1.7177
 8412SOL     OW36694   0.691   0.540   6.556 -0.0725 -0.1949  0.3211
 8412SOL    HW136695   0.646   0.490   6.624  0.6004  1.0935  1.7003
 8412SOL    HW236696   0.652   0.627   6.552  0.8376  0.1415 -1.1116
 8413SOL     OW36697   4.127   3.851   9.882 -0.5919  0.3717  0.2025
 8413SOL    HW136698   4.110   3.810   9.967 -2.3189  0.1000 -0.2739
 8413SOL    HW236699   4.063   3.806   9.827 -0.9764 -0.5465  1.4008
 8414SOL     OW36700   2.602   2.724   4.931  0.2764  0.4238 -0.5055
 8414SOL    HW136701   2.607   2.713   4.836 -2.0978  2.0858 -0.8179
 8414SOL    HW236702   2.519   2.680   4.949 -0.2128  1.7667  0.4999
 8415SOL     OW36703   2.157   4.634   6.530 -0.4862 -0.1509 -0.7925
 8415SOL    HW136704   2.187   4.546   6.509  1.2954  0.8131 -2.2272
 8415SOL    HW236705   2.142   4.641   6.625  0.6632 -0.1897 -0.6089
 8416SOL     OW36706   2.293   2.201   7.017  0.1410 -0.6361 -0.2528
 8416SOL    HW136707   2.265   2.122   7.064 -0.4106 -0.6304 -0.5714
 8416SOL    HW236708   2.262   2.171   6.931 -0.0166  1.4344 -0.9193
 8417SOL     OW36709   0.430   3.380   7.055 -0.4653  0.3253  0.0984
 8417SOL    HW136710   0.493   3.442   7.019 -0.0014 -1.6961 -2.5636
 8417SOL    HW236711   0.346   3.395   7.011  0.7033 -2.7192 -3.1402
 8418SOL     OW36712   4.410   1.780   8.507  0.1407 -0.3807  0.0283
 8418SOL    HW136713   4.501   1.763   8.485 -0.5188 -1.8383 -1.6239
 8418SOL    HW236714   4.417   1.791   8.602  0.3770  0.9250 -0.1523
 8419SOL     OW36715   4.498   2.017   7.028 -0.0451 -0.0046  0.1510
 8419SOL    HW136716   4.567   2.009   7.095 -0.7256 -0.4819  0.7983
 8419SOL    HW236717   4.548   2.078   6.974 -1.4638  1.3175  0.3372
 8420SOL     OW36718   3.676   2.015   2.255 -0.2132 -0.1162 -0.8212
 8420SOL    HW136719   3.695   2.061   2.173  1.5345  0.3201 -0.1692
 8420SOL    HW236720   3.670   1.928   2.216 -3.0436 -0.9639  1.5729
 8421SOL     OW36721   3.208   3.921  15.450 -0.1783 -0.4580  0.5544
 8421SOL    HW136722   3.170   3.835  15.430  2.3805 -1.3197 -0.5953
 8421SOL    HW236723   3.167   3.946  15.532 -2.0813  2.4324 -1.2862
 8422SOL     OW36724   4.706   1.318   8.711 -0.8057 -0.4268  0.1892
 8422SOL    HW136725   4.648   1.305   8.635 -0.8196  1.6027 -0.1328
 8422SOL    HW236726   0.014   1.230   8.735  0.9333 -0.2132 -1.1656
 8423SOL     OW36727   2.288   3.195   1.717  0.2429 -0.0010  0.0854
 8423SOL    HW136728   2.332   3.110   1.718  1.5935  0.6905 -0.1551
 8423SOL    HW236729   2.224   3.198   1.646  0.7459 -0.1685 -0.3746
 8424SOL     OW36730   2.586   4.190   2.999  0.0251  0.0444 -0.0801
 8424SOL    HW136731   2.605   4.238   2.919  1.3379 -0.4372 -0.0570
 8424SOL    HW236732   2.639   4.114   2.975  0.5143 -0.1109  1.4724
 8425SOL     OW36733   1.731   1.430   9.733  0.1523  0.2553 -1.0463
 8425SOL    HW136734   1.817   1.388   9.742 -0.2010 -0.2408  0.0652
 8425SOL    HW236735   1.688   1.364   9.678  0.3080 -1.7209  1.2245
 8426SOL     OW36736   2.161   2.075   2.443 -0.0119 -0.1802  0.3391
 8426SOL    HW136737   2.110   2.051   2.520  1.9587  0.0145  1.7175
 8426SOL    HW236738   2.090   2.119   2.396  1.6121  0.9858 -1.0273
 8427SOL     OW36739   3.461   3.758   7.574 -0.5850  0.0136  0.0572
 8427SOL    HW136740   3.525   3.694   7.606 -2.5952 -1.4469  1.1254
 8427SOL    HW236741   3.486   3.834   7.626 -2.1149  0.9739 -0.5977
 8428SOL     OW36742   0.202   1.072  12.727  0.1152  0.3353 -0.2162
 8428SOL    HW136743   0.112   1.083  12.759 -0.1312 -1.1405 -0.3871
 8428SOL    HW236744   0.238   1.159  12.713 -1.6721  0.9011 -1.2882
 8429SOL     OW36745   2.853   3.145   5.458  0.0996 -0.2477  0.0607
 8429SOL    HW136746   2.795   3.100   5.519 -3.5258  4.4733  0.0573
 8429SOL    HW236747   2.925   3.083   5.451 -0.4639 -0.8832 -0.0564
 8430SOL     OW36748   4.229   4.266   5.168  0.7495 -0.3960  1.3040
 8430SOL    HW136749   4.142   4.255   5.129  0.6062 -1.5404  1.9455
 8430SOL    HW236750   4.280   4.209   5.110 -0.7463 -0.3707 -0.0417
 8431SOL     OW36751   3.460   2.205   7.908  0.3769 -0.2014  0.3820
 8431SOL    HW136752   3.519   2.146   7.861  0.7696 -0.4449  1.1906
 8431SOL    HW236753   3.407   2.137   7.949  1.9111 -0.8419  1.2982
 8432SOL     OW36754   0.494   1.757   7.607  0.5645 -0.3918 -0.2480
 8432SOL    HW136755   0.414   1.711   7.582 -0.3993  1.2015 -0.1083
 8432SOL    HW236756   0.453   1.844   7.615  1.4389 -0.0861  0.9338
 8433SOL     OW36757   1.873   3.201   4.677  0.2500  0.0791 -0.0669
 8433SOL    HW136758   1.813   3.275   4.685 -1.0394 -0.9501 -0.1993
 8433SOL    HW236759   1.931   3.233   4.608  0.4767  0.5363  0.3371
 8434SOL     OW36760   0.452   2.912   8.761 -0.4712 -0.4070 -0.3241
 8434SOL    HW136761   0.532   2.951   8.727 -0.1198 -2.1056 -1.4253
 8434SOL    HW236762   0.420   2.874   8.679  1.4554 -0.6425 -0.9736
 8435SOL     OW36763   3.076   3.402   0.155  0.1374  0.3641  0.0849
 8435SOL    HW136764   3.122   3.319   0.138 -0.1262  0.5283 -1.4175
 8435SOL    HW236765   3.131   3.426   0.230 -2.1406  2.2151  1.1552
 8436SOL     OW36766   3.391   2.200   9.303 -0.3043  0.2682 -0.3958
 8436SOL    HW136767   3.352   2.143   9.368  0.0625 -0.0279 -0.4344
 8436SOL    HW236768   3.353   2.279   9.343 -0.4471  1.0214 -2.0053
 8437SOL     OW36769   0.815   3.800   8.247  0.0752 -0.4488 -0.4166
 8437SOL    HW136770   0.870   3.875   8.223 -0.1978  0.1912  0.9289
 8437SOL    HW236771   0.797   3.768   8.159  2.5157  1.1866 -1.5319
 8438SOL     OW36772   2.028   4.069  12.419 -0.2619  0.4899  0.3091
 8438SOL    HW136773   1.954   4.102  12.470 -0.6305  1.5437 -0.9139
 8438SOL    HW236774   1.986   4.071  12.334  0.8060  0.1544 -0.2272
 8439SOL     OW36775   0.626   1.286   0.429 -0.4364  0.2359  0.0470
 8439SOL    HW136776   0.657   1.223   0.494 -0.4675 -1.5248 -1.6603
 8439SOL    HW236777   0.537   1.254   0.422 -0.3159  0.1516 -1.0428
 8440SOL     OW36778   3.942   4.650   4.889  0.3672 -0.6335  0.0891
 8440SOL    HW136779   3.916   0.015   4.857  0.2583  0.0508  2.0240
 8440SOL    HW236780   3.955   4.675   4.981  0.3148 -0.1810 -0.0248
 8441SOL     OW36781   1.805   4.417   5.101 -0.1709  0.1752 -0.1539
 8441SOL    HW136782   1.758   4.393   5.181  1.2625  2.4344  1.3494
 8441SOL    HW236783   1.830   4.333   5.064  1.3156 -0.3676  2.1402
 8442SOL     OW36784   2.938   0.728  13.406  0.3692  0.5043 -0.0928
 8442SOL    HW136785   2.856   0.742  13.359  0.6492  0.8559 -0.4791
 8442SOL    HW236786   2.974   0.672  13.336  0.1698 -1.8646  1.7196
 8443SOL     OW36787   1.107   0.565   8.050 -0.4364  0.0212 -0.3762
 8443SOL    HW136788   1.037   0.502   8.066 -1.1356  0.3458 -2.1867
 8443SOL    HW236789   1.120   0.590   8.141 -1.7461 -1.0877  0.1071
 8444SOL     OW36790   3.880   2.638   7.594 -0.0738 -0.2544  0.3152
 8444SOL    HW136791   3.826   2.563   7.617 -2.2995  1.2592  0.0042
 8444SOL    HW236792   3.921   2.651   7.680 -0.8143 -0.5386  0.7076
 8445SOL     OW36793   1.811   2.267  10.177 -0.3023 -0.0499 -0.9893
 8445SOL    HW136794   1.865   2.346  10.165  0.1567 -0.4298 -1.4099
 8445SOL    HW236795   1.868   2.197  10.146 -1.2589 -1.5870  0.7317
 8446SOL     OW36796   3.242   0.704   7.979 -0.7824 -0.0150 -0.2813
 8446SOL    HW136797   3.317   0.664   7.936 -1.8405  1.7175 -3.7243
 8446SOL    HW236798   3.282   0.787   8.006 -2.0041  0.4816  0.0140
 8447SOL     OW36799   2.445   3.900   4.584  0.4205 -0.0754 -0.2834
 8447SOL    HW136800   2.450   3.804   4.592 -1.3574 -0.1195  0.1778
 8447SOL    HW236801   2.519   3.905   4.524  0.3802  1.3525 -0.2151
 8448SOL     OW36802   4.654   1.624  12.791  0.0056 -0.2186  0.2890
 8448SOL    HW136803   0.003   1.566  12.820  1.1292  0.6240 -0.7240
 8448SOL    HW236804   4.667   1.609  12.697  0.4804 -0.9213  0.4689
 8449SOL     OW36805   4.360   0.129  16.598  0.3684  0.2325 -0.1073
 8449SOL    HW136806   4.342   0.041  16.564 -1.8668  0.3948  0.6077
 8449SOL    HW236807   4.407   0.160  16.521  0.3006 -1.5606 -0.8540
 8450SOL     OW36808   0.256   3.815  11.476 -0.5519  0.1037 -0.1073
 8450SOL    HW136809   0.323   3.854  11.420 -2.1875 -0.2807 -2.3547
 8450SOL    HW236810   0.183   3.872  11.450 -1.4507 -0.8480  0.3112
 8451SOL     OW36811   3.102   4.177  11.912 -0.3453  1.0609 -0.0446
 8451SOL    HW136812   3.182   4.131  11.938 -0.0978  1.7123  0.3495
 8451SOL    HW236813   3.119   4.246  11.848  1.9814 -0.7621 -1.3824
 8452SOL     OW36814   3.339   3.133   7.518  0.3603  0.3612  0.2706
 8452SOL    HW136815   3.337   3.058   7.459  2.0291  0.7479 -0.2824
 8452SOL    HW236816   3.293   3.200   7.469  0.9194  0.9448  0.5493
 8453SOL     OW36817   0.733   0.748  14.057  0.1489  0.0863 -0.1501
 8453SOL    HW136818   0.815   0.797  14.063  0.7985 -0.8177 -1.6361
 8453SOL    HW236819   0.725   0.740  13.962  0.9518 -0.7841 -0.1462
 8454SOL     OW36820   0.395   0.216  13.512 -0.5093 -0.3116  0.2769
 8454SOL    HW136821   0.390   0.160  13.590  1.8086 -0.5185  0.2782
 8454SOL    HW236822   0.309   0.209  13.472 -0.1739  1.8893 -0.8334
 8455SOL     OW36823   0.899   1.332   2.154 -0.1964 -0.1241  0.2003
 8455SOL    HW136824   0.971   1.280   2.190  1.4672  1.5310 -0.7463
 8455SOL    HW236825   0.917   1.309   2.063  2.9774  1.2883  0.4741
 8456SOL     OW36826   4.499   1.374  16.136  0.1431  0.1837  0.0980
 8456SOL    HW136827   4.461   1.291  16.108 -1.2048  0.6365  0.6060
 8456SOL    HW236828   4.524   1.347  16.224 -0.3002 -0.3231  0.0647
 8457SOL     OW36829   3.961   2.222   8.246 -0.3820 -0.2560 -0.1385
 8457SOL    HW136830   3.946   2.267   8.329 -1.1858  0.2126 -0.5421
 8457SOL    HW236831   3.912   2.141   8.260 -0.5610 -0.2774 -0.9142
 8458SOL     OW36832   0.602   0.323   3.473 -0.5547 -0.4892  0.0813
 8458SOL    HW136833   0.555   0.386   3.419 -1.0790 -0.5474  0.4679
 8458SOL    HW236834   0.679   0.368   3.509 -1.0833  0.2310  0.3128
 8459SOL     OW36835   4.589   1.278  17.025 -0.2720 -0.0869  0.5964
 8459SOL    HW136836   4.530   1.347  16.995 -0.5231 -0.6859 -0.3210
 8459SOL    HW236837   4.644   1.324  17.089  0.7731  1.0445 -1.1044
 8460SOL     OW36838   4.208   3.739   8.752 -0.0595 -0.2904  0.5133
 8460SOL    HW136839   4.297   3.757   8.783  0.3067 -1.8205  0.3588
 8460SOL    HW236840   4.175   3.825   8.727  0.4497 -0.5000 -0.8845
 8461SOL     OW36841   4.412   4.028   7.581 -0.2595 -0.0577  0.8453
 8461SOL    HW136842   4.493   4.013   7.630 -0.5713 -2.8691  0.4997
 8461SOL    HW236843   4.362   3.952   7.612 -2.3027  0.2819 -1.5781
 8462SOL     OW36844   1.158   3.177  12.997 -0.2850  0.7021  0.1231
 8462SOL    HW136845   1.076   3.164  13.045 -1.1442  2.2102 -0.9400
 8462SOL    HW236846   1.126   3.177  12.907  0.3610  4.0364 -0.0995
 8463SOL     OW36847   2.565   2.446   7.474 -0.1564  0.0429 -0.0142
 8463SOL    HW136848   2.577   2.464   7.381  2.5755  2.5951  0.8324
 8463SOL    HW236849   2.483   2.398   7.470  0.2144 -0.7559  2.0236
 8464SOL     OW36850   0.866   0.258   8.712  0.0549 -0.6715 -0.2291
 8464SOL    HW136851   0.956   0.281   8.690 -0.2810 -1.2896 -2.2464
 8464SOL    HW236852   0.862   0.315   8.789  2.3991 -1.5087  0.5073
 8465SOL     OW36853   3.183   2.418   7.230  0.0613 -0.2597 -0.1763
 8465SOL    HW136854   3.120   2.438   7.160 -0.2183 -3.5854 -0.8670
 8465SOL    HW236855   3.142   2.431   7.315  1.2756 -0.2492  0.4090
 8466SOL     OW36856   1.742   0.952   4.241 -0.1563 -0.0540  0.0308
 8466SOL    HW136857   1.706   0.874   4.282 -2.5311  0.6011 -0.7960
 8466SOL    HW236858   1.693   0.955   4.159  0.0568  5.2139  0.0513
 8467SOL     OW36859   2.148   4.434   9.676 -0.6145 -0.6387 -0.5138
 8467SOL    HW136860   2.114   4.523   9.688  1.8919  0.2423  0.0864
 8467SOL    HW236861   2.098   4.396   9.748 -0.4967 -0.2085 -0.2010
 8468SOL     OW36862   0.926   0.500   3.822  0.3595  0.0340  0.0543
 8468SOL    HW136863   0.836   0.513   3.795  0.3559  0.5630  0.3197
 8468SOL    HW236864   0.907   0.477   3.913 -0.4550 -0.9963 -0.3718
 8469SOL     OW36865   4.294   0.324   1.673 -0.0645 -0.2814  0.1189
 8469SOL    HW136866   4.387   0.345   1.668  0.5561 -2.3575  2.9738
 8469SOL    HW236867   4.297   0.235   1.637  4.0343 -0.5888  1.2568
 8470SOL     OW36868   2.046   2.210   1.062  0.2030 -0.5569  0.4443
 8470SOL    HW136869   2.051   2.286   1.119 -2.0380  0.9046 -1.2910
 8470SOL    HW236870   2.015   2.146   1.126  1.3677  0.9726  2.5090
 8471SOL     OW36871   3.393   0.309  11.636  0.2419  0.1119 -0.0234
 8471SOL    HW136872   3.361   0.224  11.668  1.0131 -0.1950 -0.0578
 8471SOL    HW236873   3.484   0.287  11.616  0.5632 -0.2839  1.8564
 8472SOL     OW36874   3.260   3.807   6.919 -0.3524 -0.1126  0.4825
 8472SOL    HW136875   3.274   3.822   6.826  0.3957 -0.5107  0.5328
 8472SOL    HW236876   3.251   3.902   6.934  1.4856  0.1485 -0.0260
 8473SOL     OW36877   2.364   4.695   5.169 -0.3606  0.4016 -0.7260
 8473SOL    HW136878   2.332   0.009   5.252  0.2474  1.8047 -1.1025
 8473SOL    HW236879   2.357   4.602   5.193  2.6521  0.0002 -1.3731
 8474SOL     OW36880   0.375   2.619   1.154 -0.4616  0.0519 -0.4630
 8474SOL    HW136881   0.339   2.540   1.194  1.5319 -2.0408 -2.7665
 8474SOL    HW236882   0.297   2.658   1.114  0.3510  0.0920 -2.0463
 8475SOL     OW36883   4.117   3.541   0.909  0.0790  0.0756 -0.7809
 8475SOL    HW136884   4.132   3.604   0.839  4.3194 -1.7673 -1.5187
 8475SOL    HW236885   4.066   3.593   0.972  0.5136 -0.2262 -0.1800
 8476SOL     OW36886   3.302   2.427  10.871  0.0341  0.0770  0.0167
 8476SOL    HW136887   3.247   2.401  10.797  0.0294  0.9039 -0.2648
 8476SOL    HW236888   3.324   2.343  10.911 -0.0892  0.4578  0.8851
 8477SOL     OW36889   1.142   0.224   1.634  0.2657 -0.3370  0.3771
 8477SOL    HW136890   1.232   0.251   1.616 -0.3303  2.9500  2.3808
 8477SOL    HW236891   1.162   0.187   1.720  0.4934  0.4570  0.6665
 8478SOL     OW36892   0.384   3.334  10.324  0.3254 -0.1606 -0.8674
 8478SOL    HW136893   0.465   3.283  10.323  1.4499  1.6000 -1.6991
 8478SOL    HW236894   0.417   3.400  10.385 -2.6630 -0.7492  1.3714
 8479SOL     OW36895   2.058   0.217   6.965 -0.2951 -0.2868  0.3735
 8479SOL    HW136896   2.136   0.171   6.994 -1.7352 -1.7966  1.9052
 8479SOL    HW236897   2.079   0.307   6.992 -0.2797 -0.2556  0.2580
 8480SOL     OW36898   1.807   2.918   5.516 -0.0328 -0.6580 -0.2401
 8480SOL    HW136899   1.749   2.982   5.557  0.0859 -0.8058  0.1566
 8480SOL    HW236900   1.858   2.971   5.455 -0.4317 -0.1536 -0.1318
 8481SOL     OW36901   1.056   4.716  16.713 -0.2451  0.0725 -0.0737
 8481SOL    HW136902   1.145   0.031  16.713  0.7352 -2.3217  0.8462
 8481SOL    HW236903   1.011   0.036  16.787  0.9773 -0.6404  1.0613
 8482SOL     OW36904   2.140   2.964   4.391 -0.1915 -0.3884  0.5731
 8482SOL    HW136905   2.071   2.898   4.391 -0.2912 -0.2825  3.0760
 8482SOL    HW236906   2.082   3.041   4.395 -1.4581 -1.2874 -0.5287
 8483SOL     OW36907   0.792   0.034   1.209  0.1044 -0.0099 -0.0779
 8483SOL    HW136908   0.872   0.033   1.261 -1.3575  0.2172  2.2231
 8483SOL    HW236909   0.744   0.098   1.263 -0.0457 -0.6447  0.5355
 8484SOL     OW36910   0.306   2.199   7.373  0.1518 -0.7319 -0.5567
 8484SOL    HW136911   0.225   2.174   7.418  0.0621 -0.8139 -0.7665
 8484SOL    HW236912   0.334   2.283   7.411 -1.5869  0.5618 -2.1158
 8485SOL     OW36913   0.814   2.394   2.525  0.1980  0.1111 -0.1813
 8485SOL    HW136914   0.807   2.443   2.443 -4.5339 -3.5969 -2.0074
 8485SOL    HW236915   0.899   2.428   2.554  0.3154  0.6467 -1.1721
 8486SOL     OW36916   1.859   4.513   2.913  0.0874  0.1252 -0.3990
 8486SOL    HW136917   1.942   4.545   2.949 -0.2462 -1.5139  1.8295
 8486SOL    HW236918   1.799   4.587   2.920 -2.2245 -1.7310 -0.4383
 8487SOL     OW36919   3.832   1.848   4.692  0.3213 -0.3984  0.0672
 8487SOL    HW136920   3.839   1.937   4.657 -0.5722  0.8928  3.2477
 8487SOL    HW236921   3.923   1.836   4.719  0.0466 -0.2613  1.0390
 8488SOL     OW36922   3.016   3.820   0.782  0.4216  0.6952  0.5412
 8488SOL    HW136923   3.047   3.905   0.811  0.2009  0.4040  1.6443
 8488SOL    HW236924   3.093   3.764   0.795 -1.6193 -1.9236  1.3974
 8489SOL     OW36925   1.567   1.750  16.696 -0.1064  0.8387  0.1290
 8489SOL    HW136926   1.570   1.839  16.662 -2.2480  0.4575 -1.0733
 8489SOL    HW236927   1.553   1.769  16.789  1.4693  2.0367  0.1015
 8490SOL     OW36928   0.076   3.466   4.448  0.2438 -0.3903  0.0687
 8490SOL    HW136929   4.711   3.442   4.413  0.1105 -0.1533  0.2410
 8490SOL    HW236930   0.114   3.378   4.443  0.5922 -0.1236 -1.9432
 8491SOL     OW36931   3.712   3.860   3.838  0.7420 -0.7160  0.0580
 8491SOL    HW136932   3.732   3.867   3.931 -0.3071  1.2771  0.1274
 8491SOL    HW236933   3.773   3.924   3.803 -1.1646  0.6119 -0.8155
 8492SOL     OW36934   0.678   3.234   8.841  0.3925 -1.0314 -0.0572
 8492SOL    HW136935   0.747   3.301   8.840 -0.8919  0.2759 -0.4088
 8492SOL    HW236936   0.725   3.167   8.891 -0.4104 -1.7240 -0.2383
 8493SOL     OW36937   4.485   0.032  15.940 -0.0945 -0.1173 -0.3846
 8493SOL    HW136938   4.541   4.713  15.873 -2.0680 -0.2883 -1.9432
 8493SOL    HW236939   4.406   4.721  15.895 -0.8097  1.3695 -0.1836
 8494SOL     OW36940   3.703   1.498   4.327 -0.3969 -0.3341 -0.1602
 8494SOL    HW136941   3.609   1.479   4.332 -0.1488 -0.8883  2.1500
 8494SOL    HW236942   3.733   1.512   4.417  0.8629 -0.4125 -0.5760
 8495SOL     OW36943   1.221   0.784   0.996  0.2132  0.2644  0.3570
 8495SOL    HW136944   1.264   0.853   0.946 -0.2003 -1.1417 -1.9152
 8495SOL    HW236945   1.293   0.721   0.994 -0.4650 -0.4512 -1.4331
 8496SOL     OW36946   0.031   1.384   4.129  0.2478 -0.1887  0.0495
 8496SOL    HW136947   4.678   1.445   4.130  2.4031  2.4825 -3.4699
 8496SOL    HW236948   0.097   1.441   4.088  0.8171 -0.2518  0.8744
 8497SOL     OW36949   0.208   1.645   5.040  0.0436  0.2670 -0.0762
 8497SOL    HW136950   0.265   1.721   5.026  0.1916  0.1401 -0.1586
 8497SOL    HW236951   0.181   1.638   4.948  0.4744 -0.7996 -0.1203
 8498SOL     OW36952   2.848   2.153   5.515 -0.3568  0.0659 -0.1058
 8498SOL    HW136953   2.771   2.135   5.568  0.7990 -0.9889  1.2359
 8498SOL    HW236954   2.829   2.242   5.485 -1.2833  0.1769  0.8355
 8499SOL     OW36955   3.172   0.535   7.599 -0.2383  0.0839 -0.5207
 8499SOL    HW136956   3.149   0.476   7.670  0.6645  0.1101 -0.2063
 8499SOL    HW236957   3.124   0.492   7.528 -1.4364  1.7476 -0.7212
 8500SOL     OW36958   1.413   4.113  15.412  0.2328 -0.0228 -0.7786
 8500SOL    HW136959   1.444   4.197  15.445 -1.4846  0.3830 -0.2013
 8500SOL    HW236960   1.444   4.128  15.322  2.4231 -0.1576 -0.0456
 8501SOL     OW36961   2.095   1.799   5.620  0.4132  0.0087 -0.0585
 8501SOL    HW136962   2.095   1.890   5.650  2.2886  0.2833 -0.8677
 8501SOL    HW236963   2.183   1.775   5.649  0.7129  0.5931 -0.4739
 8502SOL     OW36964   2.157   1.629   4.916  0.6217 -0.5483 -0.0006
 8502SOL    HW136965   2.139   1.721   4.934 -0.9495 -0.2673 -3.0667
 8502SOL    HW236966   2.080   1.596   4.869  0.6226  0.3716 -0.6484
 8503SOL     OW36967   4.691   0.104   6.136  0.7052 -0.5502 -0.7757
 8503SOL    HW136968   4.712   0.151   6.055  1.2944  0.4082 -0.0742
 8503SOL    HW236969   4.628   0.043   6.099 -0.5482 -0.6461  1.5087
 8504SOL     OW36970   0.300   2.178   6.944  0.4259 -0.4421  0.7462
 8504SOL    HW136971   0.262   2.135   6.867  4.5103 -2.6975  0.0132
 8504SOL    HW236972   0.332   2.252   6.891 -0.9546 -1.1067 -1.0263
 8505SOL     OW36973   1.058   4.474   7.665 -0.1427 -0.1674 -0.3942
 8505SOL    HW136974   1.011   4.540   7.716  1.0448 -0.2315  0.7920
 8505SOL    HW236975   1.092   4.434   7.745  1.1313  0.0711 -0.8105
 8506SOL     OW36976   1.433   4.682   7.690 -0.3867  0.4092 -0.1101
 8506SOL    HW136977   1.492   0.028   7.657  2.6953 -1.4154  1.6229
 8506SOL    HW236978   1.470   4.673   7.778 -0.2706 -0.2903 -0.2293
 8507SOL     OW36979   3.857   3.149   6.108 -0.1048 -0.3226 -0.4372
 8507SOL    HW136980   3.826   3.148   6.199  1.2913 -0.8066  0.0429
 8507SOL    HW236981   3.937   3.097   6.117  0.0127  0.1640  1.2914
 8508SOL     OW36982   0.575   0.343   8.388 -0.0965  0.0723 -0.5956
 8508SOL    HW136983   0.492   0.373   8.425  0.2670 -0.8989  1.0211
 8508SOL    HW236984   0.569   0.354   8.293  1.0867 -1.4774 -0.8506
 8509SOL     OW36985   3.737   4.116   8.182  0.4863 -0.4913  0.0744
 8509SOL    HW136986   3.795   4.193   8.186  0.3821 -0.4270  0.3459
 8509SOL    HW236987   3.697   4.115   8.269  0.7463  2.8469  0.2487
 8510SOL     OW36988   1.585   3.844  14.624  0.4660  0.2193 -0.2148
 8510SOL    HW136989   1.675   3.867  14.604 -0.2211  3.4281  0.3520
 8510SOL    HW236990   1.539   3.908  14.570  0.7572 -0.6071 -1.4286
 8511SOL     OW36991   0.324   0.640  12.506 -0.2633  0.2734 -0.2159
 8511SOL    HW136992   0.365   0.559  12.536  1.2448  0.5138 -1.6374
 8511SOL    HW236993   0.236   0.626  12.540 -1.3710 -1.7895 -3.9371
 8512SOL     OW36994   1.350   0.094   4.349 -0.7436 -0.4867  0.4771
 8512SOL    HW136995   1.299   0.025   4.391  2.3483 -2.6866  0.6728
 8512SOL    HW236996   1.319   0.158   4.414  1.0080  0.9714 -0.1186
 8513SOL     OW36997   2.367   2.507   1.993  0.2886  0.5742 -0.3959
 8513SOL    HW136998   2.410   2.520   1.909 -0.1500 -1.1959 -0.9081
 8513SOL    HW236999   2.404   2.578   2.045 -1.5779  0.7430  0.7136
 8514SOL     OW37000   2.957   1.563   7.426  0.1975  0.2909 -0.1619
 8514SOL    HW137001   2.964   1.468   7.416 -0.4523  0.2816 -0.5269
 8514SOL    HW237002   3.028   1.591   7.484  0.2985  1.5203 -0.8885
 8515SOL     OW37003   2.717   2.343  16.139  0.1298 -0.3279  0.0552
 8515SOL    HW137004   2.632   2.299  16.139  0.0104 -0.0620 -3.3362
 8515SOL    HW237005   2.758   2.287  16.206 -0.6488 -0.3244  0.5324
 8516SOL     OW37006   0.570   3.177   5.288  0.0640  0.3844 -0.0783
 8516SOL    HW137007   0.608   3.247   5.340  1.0230  1.5952 -2.4142
 8516SOL    HW237008   0.551   3.218   5.204 -1.4922 -0.6695 -0.2367
 8517SOL     OW37009   2.759   4.555   2.048 -0.2058 -0.6893 -0.2785
 8517SOL    HW137010   2.804   4.498   2.110  1.2587  0.8116  0.0337
 8517SOL    HW237011   2.701   4.609   2.103 -0.2669  0.6789 -1.6983
 8518SOL     OW37012   2.483   3.165   6.322 -0.5599  0.3642 -0.5045
 8518SOL    HW137013   2.485   3.144   6.229 -0.1714 -0.6002 -0.2802
 8518SOL    HW237014   2.466   3.258   6.337  2.6555  0.9170 -0.2260
 8519SOL     OW37015   2.820   4.091   8.860  0.4458  0.3500 -0.0953
 8519SOL    HW137016   2.908   4.056   8.873 -0.1809 -0.9256  0.7468
 8519SOL    HW237017   2.821   4.158   8.792  1.8696  1.5479  1.1100
 8520SOL     OW37018   0.747   2.832   9.376 -0.2551  0.3671 -0.1769
 8520SOL    HW137019   0.796   2.914   9.382 -0.8580  0.7124 -0.0243
 8520SOL    HW237020   0.821   2.773   9.395  1.5577  1.9556 -2.3273
 8521SOL     OW37021   3.346   0.983   5.502 -0.5545 -0.5099  0.1606
 8521SOL    HW137022   3.303   0.924   5.564  0.0366  0.0071  1.0607
 8521SOL    HW237023   3.375   0.915   5.441  1.8283  0.6183  0.0564
 8522SOL     OW37024   1.472   4.711   0.454 -0.5783 -0.0584  0.6162
 8522SOL    HW137025   1.502   4.678   0.538 -0.7903  2.2449  1.6161
 8522SOL    HW237026   1.551   0.008   0.403  0.7728 -3.1013  1.6507
 8523SOL     OW37027   2.950   1.158   8.239  0.7159  0.4247  0.4939
 8523SOL    HW137028   3.001   1.222   8.191 -1.8351  2.3775  0.3375
 8523SOL    HW237029   2.859   1.188   8.228 -0.1587 -2.5792 -0.4198
 8524SOL     OW37030   0.260   4.039   0.141  0.2272  0.5180  0.4931
 8524SOL    HW137031   0.332   4.089   0.104  0.8341 -0.2534  0.6486
 8524SOL    HW237032   0.191   4.076   0.085 -0.8886 -2.4845 -0.1231
 8525SOL     OW37033   3.968   3.003   8.752  0.4053 -0.0557  0.3725
 8525SOL    HW137034   3.884   3.023   8.712  1.0159  0.7024 -0.5075
 8525SOL    HW237035   3.977   3.076   8.813 -0.3133 -0.7494  1.3131
 8526SOL     OW37036   2.790   0.311  14.569  0.2943  0.1659  0.0177
 8526SOL    HW137037   2.797   0.229  14.521 -0.6195 -1.6230  2.9602
 8526SOL    HW237038   2.873   0.354  14.547  0.8735 -0.4472  0.9919
 8527SOL     OW37039   1.539   2.704   5.960  0.5937 -0.3079 -0.3052
 8527SOL    HW137040   1.552   2.771   5.893 -0.3300  0.5102  0.3457
 8527SOL    HW237041   1.542   2.758   6.038  1.2699 -1.4738  0.4825
 8528SOL     OW37042   1.615   0.406  11.012  0.1889  0.3308  0.4845
 8528SOL    HW137043   1.614   0.472  11.081  0.2932  0.2254  0.5860
 8528SOL    HW237044   1.693   0.354  11.030  0.0153  0.6527  2.1467
 8529SOL     OW37045   2.879   4.577  11.157 -0.2828 -0.5201 -0.1356
 8529SOL    HW137046   2.941   4.595  11.227  0.0062 -2.1208  0.0154
 8529SOL    HW237047   2.827   4.507  11.197 -1.5154  0.3163 -0.2743
 8530SOL     OW37048   3.028   2.025  11.612 -0.6518  0.4049 -0.3787
 8530SOL    HW137049   3.098   1.981  11.661 -1.8232 -2.8242 -1.6325
 8530SOL    HW237050   3.012   1.965  11.539  1.2131 -0.8410  0.2250
 8531SOL     OW37051   0.603   1.374  11.184  0.1047  0.5151 -0.8099
 8531SOL    HW137052   0.639   1.425  11.111 -1.7043  2.3183 -0.4294
 8531SOL    HW237053   0.683   1.341  11.223 -0.8801 -1.1430 -0.1849
 8532SOL     OW37054   0.492   1.999   6.520  0.2157  0.0840 -0.2678
 8532SOL    HW137055   0.459   2.009   6.431 -0.2958 -3.6119 -0.4836
 8532SOL    HW237056   0.561   2.064   6.526  0.1124 -0.1228  3.1982
 8533SOL     OW37057   1.550   3.799  11.764  0.3410 -0.9622  0.5183
 8533SOL    HW137058   1.575   3.889  11.743 -0.2103 -0.1762  3.2002
 8533SOL    HW237059   1.598   3.757  11.693  1.7463  0.4238  0.6412
 8534SOL     OW37060   1.383   0.573   6.644  0.4920  0.7073 -0.0219
 8534SOL    HW137061   1.402   0.663   6.673  0.4135 -0.1906  2.7890
 8534SOL    HW237062   1.308   0.538   6.692 -1.6790 -1.0399 -4.7311
 8535SOL     OW37063   3.785   2.579  14.584  0.1652  0.1260 -0.6322
 8535SOL    HW137064   3.723   2.570  14.511 -0.5924 -1.2906  0.1983
 8535SOL    HW237065   3.852   2.517  14.558  2.6737  2.8921 -0.7665
 8536SOL     OW37066   2.958   4.182  15.261  0.0064 -0.2814  0.4579
 8536SOL    HW137067   3.033   4.122  15.266  0.8510  0.6906 -0.8728
 8536SOL    HW237068   2.944   4.210  15.352  0.0760  1.0570  0.0516
 8537SOL     OW37069   4.472   1.444   0.306 -0.4739  0.5370  0.3301
 8537SOL    HW137070   4.438   1.497   0.378 -1.4728  1.8970 -1.1331
 8537SOL    HW237071   4.555   1.423   0.350  0.5912  1.5098 -1.1923
 8538SOL     OW37072   0.959   3.179   1.198  0.1861  0.0492 -0.0802
 8538SOL    HW137073   0.912   3.237   1.139  0.3293  2.0522  1.7603
 8538SOL    HW237074   0.903   3.175   1.276  0.9564  1.3052  0.5395
 8539SOL     OW37075   1.137   3.673   6.709  0.2569  0.4434 -0.0329
 8539SOL    HW137076   1.052   3.633   6.693 -1.1930  2.7912  1.7689
 8539SOL    HW237077   1.185   3.591   6.723 -2.4330 -0.9380  1.1203
 8540SOL     OW37078   3.534   0.875   8.705 -0.1477  0.4392 -0.4822
 8540SOL    HW137079   3.486   0.898   8.784  4.3955 -0.3512  2.5052
 8540SOL    HW237080   3.506   0.949   8.651 -0.1778  0.0861 -0.9532
 8541SOL     OW37081   0.763   3.831   6.014 -0.3585  0.1802  0.8563
 8541SOL    HW137082   0.796   3.862   6.098  2.6623 -0.6909  0.0173
 8541SOL    HW237083   0.808   3.746   6.018 -1.4141 -0.4267 -0.0834
 8542SOL     OW37084   1.002   3.075   8.680 -0.0010 -0.4974 -0.8387
 8542SOL    HW137085   1.032   3.165   8.676  1.4536 -1.0036 -1.3328
 8542SOL    HW237086   1.017   3.064   8.774  1.0885  0.3196 -0.9209
 8543SOL     OW37087   0.511   4.413   8.518 -0.2883 -0.5315  0.2908
 8543SOL    HW137088   0.550   4.489   8.562 -0.7940  0.5508 -1.1257
 8543SOL    HW237089   0.574   4.346   8.541 -0.5114 -0.6678  0.4962
 8544SOL     OW37090   2.806   2.588   9.278  0.3142  0.6877 -0.1244
 8544SOL    HW137091   2.719   2.550   9.267 -0.3645  1.3216  3.1471
 8544SOL    HW237092   2.776   2.652   9.342 -0.2807  1.1056 -0.8289
 8545SOL     OW37093   1.075   1.466   3.148  0.4629  0.3639 -0.9853
 8545SOL    HW137094   1.034   1.542   3.106 -0.8016  0.9401  1.2887
 8545SOL    HW237095   1.129   1.508   3.215 -1.6913  0.1316  0.8906
 8546SOL     OW37096   1.293   3.505   8.302  0.7879  0.6158 -0.1463
 8546SOL    HW137097   1.359   3.466   8.360  0.8045  1.8977  0.6902
 8546SOL    HW237098   1.265   3.429   8.251 -1.8098  1.8298 -0.5252
 8547SOL     OW37099   4.537   2.243  14.715  0.0325  0.4080 -0.1572
 8547SOL    HW137100   4.569   2.286  14.794  0.8094 -0.0372 -0.2395
 8547SOL    HW237101   4.475   2.309  14.683 -0.3902  1.8640  3.5586
 8548SOL     OW37102   4.425   0.601   7.605 -0.3734 -0.1146  0.0370
 8548SOL    HW137103   4.489   0.549   7.556 -0.2981 -1.4179  1.5296
 8548SOL    HW237104   4.479   0.618   7.682  1.0721 -1.5131 -0.6642
 8549SOL     OW37105   1.853   1.835   0.835 -0.4097 -0.2718 -0.2066
 8549SOL    HW137106   1.927   1.812   0.892  0.3776  2.0417 -0.3122
 8549SOL    HW237107   1.811   1.749   0.826 -0.9450  0.0555 -0.8297
 8550SOL     OW37108   0.953   4.156   5.907  0.1647 -0.4727 -0.0878
 8550SOL    HW137109   1.040   4.122   5.928 -0.1057 -0.9759  0.1855
 8550SOL    HW237110   0.912   4.095   5.846  0.4308 -0.0806 -0.6673
 8551SOL     OW37111   0.074   3.832   7.843 -0.8137  0.2212 -0.6419
 8551SOL    HW137112   0.163   3.835   7.809 -1.2004 -1.4835 -1.7860
 8551SOL    HW237113   0.085   3.757   7.902 -1.5258  0.7415  0.1546
 8552SOL     OW37114   4.531   1.058   1.691 -0.5549  0.4847 -0.0690
 8552SOL    HW137115   4.522   1.030   1.600  2.7752  0.8569 -0.5213
 8552SOL    HW237116   4.595   0.997   1.727  1.1126  1.7974 -0.7957
 8553SOL     OW37117   4.552   1.021   3.923 -0.4091  0.0523 -0.6030
 8553SOL    HW137118   4.642   0.988   3.925 -0.1886  0.7204  1.2657
 8553SOL    HW237119   4.523   0.990   4.009 -0.0957  0.7905 -0.2224
 8554SOL     OW37120   4.443   3.765   2.795 -0.3531 -0.3639  0.4351
 8554SOL    HW137121   4.452   3.852   2.833  1.0398  0.1602 -1.0469
 8554SOL    HW237122   4.523   3.759   2.741 -1.1421 -1.0695 -0.6676
 8555SOL     OW37123   1.956   1.773  15.911  0.0257  0.5222  0.1080
 8555SOL    HW137124   1.899   1.794  15.838 -1.6347 -0.7890  1.0267
 8555SOL    HW237125   2.003   1.856  15.923  0.8404  0.3856 -2.2374
 8556SOL     OW37126   2.358   4.152   1.956  0.2625 -0.1979  0.3236
 8556SOL    HW137127   2.310   4.181   2.033  0.5133  2.0033 -0.3399
 8556SOL    HW237128   2.330   4.215   1.889 -0.2280  0.5477  1.2279
 8557SOL     OW37129   4.160   0.244   7.484 -0.2225 -0.5293  0.3484
 8557SOL    HW137130   4.244   0.205   7.460  1.7593  2.5297  2.2539
 8557SOL    HW237131   4.150   0.305   7.411  0.1530 -2.3533 -1.2213
 8558SOL     OW37132   2.931   0.033   7.628 -0.2367  0.1301  0.1227
 8558SOL    HW137133   3.018   0.064   7.651 -1.1006  0.8908  2.3607
 8558SOL    HW237134   2.930   4.660   7.644  2.1390 -0.2794 -2.2082
 8559SOL     OW37135   2.994   4.539   4.390 -0.1229 -0.1180 -0.3287
 8559SOL    HW137136   3.077   4.584   4.371  0.9873 -2.7152 -1.6806
 8559SOL    HW237137   2.975   4.565   4.480 -2.1751 -2.3537 -0.1259
 8560SOL     OW37138   4.294   3.546  14.688  0.0145 -0.5805 -0.3805
 8560SOL    HW137139   4.355   3.619  14.679  0.7130 -1.0771  0.2003
 8560SOL    HW237140   4.345   3.487  14.744  0.6835 -2.1926 -2.6496
 8561SOL     OW37141   1.323   4.050  11.363 -0.2391  0.3043 -0.1946
 8561SOL    HW137142   1.305   4.100  11.283 -3.7628 -2.0108 -0.8170
 8561SOL    HW237143   1.399   4.100  11.393 -0.2130 -0.3916  0.9202
 8562SOL     OW37144   3.599   0.310  17.567 -0.4613  0.0894 -0.1785
 8562SOL    HW137145   3.650   0.367  17.625 -0.3612 -1.0726  0.8813
 8562SOL    HW237146   3.605   0.357  17.484  0.1433 -1.3315 -0.9227
 8563SOL     OW37147   4.332   1.228   4.550 -0.2376 -0.1186  0.0383
 8563SOL    HW137148   4.360   1.170   4.479  0.9570  0.5611 -0.0438
 8563SOL    HW237149   4.395   1.300   4.548  2.0734 -2.1186  2.3035
 8564SOL     OW37150   0.866   1.552   6.130 -0.2846  0.1126  0.0989
 8564SOL    HW137151   0.815   1.474   6.149 -1.2528  1.2963  2.3673
 8564SOL    HW237152   0.794   1.612   6.109  0.7773  0.1160 -3.5354
 8565SOL     OW37153   2.706   4.319   3.763 -0.3984 -0.0353  0.2869
 8565SOL    HW137154   2.773   4.354   3.822  1.9150 -0.5467 -1.9938
 8565SOL    HW237155   2.749   4.235   3.750 -0.4106 -0.1969  1.3529
 8566SOL     OW37156   1.444   2.734   4.101 -0.0296  0.0784 -0.4520
 8566SOL    HW137157   1.448   2.829   4.111 -2.6797  0.1176  0.2478
 8566SOL    HW237158   1.371   2.709   4.158 -0.7058  0.3407 -1.2090
 8567SOL     OW37159   0.402   1.801  15.831 -0.3214 -0.0392  0.2403
 8567SOL    HW137160   0.392   1.709  15.857  0.1692  0.2696  1.5299
 8567SOL    HW237161   0.336   1.805  15.763 -1.1984 -2.1158  0.9566
 8568SOL     OW37162   4.687   2.716  17.051  0.4592  0.4795  0.6779
 8568SOL    HW137163   0.020   2.657  16.999  2.4264  0.9193  2.2007
 8568SOL    HW237164   4.641   2.763  16.982 -0.1703 -0.3230  0.5545
 8569SOL     OW37165   2.381   3.026   3.668 -0.0302  0.7892 -0.0512
 8569SOL    HW137166   2.338   3.007   3.585  1.4518 -0.5215 -0.5242
 8569SOL    HW237167   2.468   3.059   3.645  1.0827 -1.9074  0.2083
 8570SOL     OW37168   0.576   0.980   3.513  0.7623  0.2684  0.3543
 8570SOL    HW137169   0.490   1.022   3.516  0.5245 -0.2780  1.2539
 8570SOL    HW237170   0.572   0.914   3.443 -0.7503  0.3632  0.3480
 8571SOL     OW37171   1.863   1.471   2.593  0.6355  0.1708  0.1492
 8571SOL    HW137172   1.875   1.497   2.501  1.6919 -1.5444 -0.2121
 8571SOL    HW237173   1.834   1.380   2.589  1.5083 -0.0951 -0.2332
 8572SOL     OW37174   4.562   0.118  13.355 -0.0160  0.0934 -0.0811
 8572SOL    HW137175   4.542   0.127  13.448 -1.3743  0.1366 -0.3809
 8572SOL    HW237176   4.559   0.023  13.345  0.6254  0.0185  0.3875
 8573SOL     OW37177   0.924   0.196   4.189  0.1288 -0.1593 -0.9022
 8573SOL    HW137178   0.982   0.166   4.119  2.5925  1.4077  0.4667
 8573SOL    HW237179   0.992   0.248   4.232 -1.5804  1.4184 -0.1387
 8574SOL     OW37180   2.016   3.856   2.920  0.1574 -0.0548  0.1458
 8574SOL    HW137181   1.962   3.875   2.997 -0.5347  0.0366 -0.3600
 8574SOL    HW237182   1.988   3.919   2.853 -1.6982 -0.1314  0.8512
 8575SOL     OW37183   4.721   3.517   1.380  0.1353  0.4961 -0.0617
 8575SOL    HW137184   4.709   3.603   1.422  2.3558 -0.6720  2.9757
 8575SOL    HW237185   4.648   3.471   1.422  1.4601 -1.7555 -0.2430
 8576SOL     OW37186   0.144   1.080  13.679 -0.2400 -0.6063 -0.2177
 8576SOL    HW137187   0.122   1.027  13.755 -2.1526 -0.2032 -0.4768
 8576SOL    HW237188   0.205   1.025  13.629  2.0380  2.8151 -1.2576
 8577SOL     OW37189   1.422   4.372   8.171 -0.1997 -0.1009 -0.4969
 8577SOL    HW137190   1.462   4.452   8.206  1.2910 -0.8630 -0.4616
 8577SOL    HW237191   1.446   4.366   8.079 -0.1844 -1.3501 -0.4030
 8578SOL     OW37192   3.044   0.739   6.315 -0.0166  0.3363  0.0153
 8578SOL    HW137193   3.105   0.785   6.259  1.8922  1.4853  3.0490
 8578SOL    HW237194   3.013   0.668   6.258 -0.7609  0.2599  0.5123
 8579SOL     OW37195   3.565   3.138  17.564  0.2753  0.2918 -0.5668
 8579SOL    HW137196   3.492   3.182  17.521  0.6424 -1.7493 -3.2784
 8579SOL    HW237197   3.611   3.211  17.606  3.1711 -1.5937 -0.4402
 8580SOL     OW37198   2.612   1.935   7.632  0.2721 -0.6350 -0.0696
 8580SOL    HW137199   2.665   1.897   7.562  0.7338 -0.7145  0.3261
 8580SOL    HW237200   2.627   2.029   7.623 -0.0615 -0.5816 -0.0638
 8581SOL     OW37201   1.121   0.621   3.256 -0.0646 -0.0421  0.5058
 8581SOL    HW137202   1.068   0.542   3.269  0.6684 -0.6153 -0.0461
 8581SOL    HW237203   1.176   0.594   3.183  1.1731  0.9752  1.0646
 8582SOL     OW37204   4.250   1.337   0.527 -0.1634  0.4445  0.4252
 8582SOL    HW137205   4.324   1.397   0.518 -0.4191  0.6092 -0.6465
 8582SOL    HW237206   4.299   1.258   0.549 -0.1509  0.2202 -0.3946
 8583SOL     OW37207   4.642   3.508   3.838  0.1015 -0.2087  0.5853
 8583SOL    HW137208   4.632   3.497   3.933 -0.6169 -3.6728  0.1333
 8583SOL    HW237209   0.013   3.490   3.822 -0.2980 -0.5698 -1.2725
 8584SOL     OW37210   1.771   1.440  14.965  0.1061 -0.2577 -0.1117
 8584SOL    HW137211   1.779   1.346  14.948  1.0618  0.2117 -2.2862
 8584SOL    HW237212   1.688   1.450  15.012  0.2739  2.3599 -0.4098
 8585SOL     OW37213   0.127   4.668   6.921 -0.2762  0.0928  0.7295
 8585SOL    HW137214   0.164   4.691   6.836 -0.1795 -0.6937  0.5594
 8585SOL    HW237215   0.188   4.602   6.952  0.8310  0.3192 -0.9950
 8586SOL     OW37216   2.715   4.004  14.257 -0.0617 -0.1721 -0.1695
 8586SOL    HW137217   2.685   4.086  14.217  0.6758 -0.2466 -0.8781
 8586SOL    HW237218   2.791   3.980  14.204 -1.1842 -3.3953 -0.3117
 8587SOL     OW37219   3.337   3.485   2.743 -0.2888  0.5048 -0.2963
 8587SOL    HW137220   3.362   3.417   2.680 -2.4565 -0.6576  0.0944
 8587SOL    HW237221   3.261   3.523   2.697 -0.2345  0.3136 -0.5463
 8588SOL     OW37222   4.630   0.491   7.253 -0.5400 -0.3239  0.6068
 8588SOL    HW137223   4.606   0.484   7.346  1.2932  2.1308  1.2725
 8588SOL    HW237224   4.560   0.553   7.234 -0.2545  0.3499  1.7707
 8589SOL     OW37225   4.324   0.088  12.212 -0.1163  0.1448  0.2877
 8589SOL    HW137226   4.357   0.153  12.150  0.8856  1.0599  1.7657
 8589SOL    HW237227   4.252   0.045  12.165  1.3889 -1.1887 -0.7963
 8590SOL     OW37228   0.897   3.615  16.735  0.3035  0.4377  0.3396
 8590SOL    HW137229   0.851   3.539  16.698  0.6979  0.7844 -0.8585
 8590SOL    HW237230   0.941   3.566  16.805 -0.4783  1.1305  1.3209
 8591SOL     OW37231   1.364   0.890   4.477 -0.5001  0.1939 -0.4758
 8591SOL    HW137232   1.351   0.901   4.383 -1.3635 -2.2901 -0.6388
 8591SOL    HW237233   1.382   0.982   4.495  1.5089 -0.2329 -0.2490
 8592SOL     OW37234   2.204   2.727   3.445  0.1367  0.0164  0.1035
 8592SOL    HW137235   2.183   2.641   3.408  1.0858 -0.6869  1.2097
 8592SOL    HW237236   2.128   2.782   3.428 -0.0996  0.0289  1.1886
 8593SOL     OW37237   1.399   1.376   7.570  0.0259  0.0084 -0.4342
 8593SOL    HW137238   1.411   1.470   7.561 -1.9345  0.1458 -1.7069
 8593SOL    HW237239   1.329   1.365   7.505 -0.2211  2.2266 -0.5442
 8594SOL     OW37240   3.284   1.041   6.140  0.3072 -0.6283  0.0684
 8594SOL    HW137241   3.307   1.131   6.116  0.2766 -0.5294  0.4059
 8594SOL    HW237242   3.243   1.007   6.060 -0.0921  0.2648 -0.1023
 8595SOL     OW37243   3.291   0.313  10.616  0.1976  0.1289 -0.2116
 8595SOL    HW137244   3.272   0.248  10.683 -0.2152 -0.5514 -0.9956
 8595SOL    HW237245   3.202   0.341  10.597 -0.2255 -0.1563  1.3953
 8596SOL     OW37246   1.193   3.588   9.090 -0.1025 -0.7082  0.2841
 8596SOL    HW137247   1.191   3.627   9.177 -0.5742 -0.6271  0.2349
 8596SOL    HW237248   1.164   3.670   9.050 -0.4054 -2.0597 -2.3002
 8597SOL     OW37249   1.693   2.914   8.855 -0.6589 -0.2943 -0.1274
 8597SOL    HW137250   1.681   2.933   8.948 -0.0745 -0.6945  0.0301
 8597SOL    HW237251   1.662   2.823   8.850 -1.6483  0.1479 -1.9116
 8598SOL     OW37252   2.110   0.963  13.482  0.0536  0.9038 -0.7128
 8598SOL    HW137253   2.089   0.880  13.438  1.0540  0.3337 -0.1089
 8598SOL    HW237254   2.181   0.941  13.543 -0.1987  0.7289 -0.4792
 8599SOL     OW37255   3.585   4.277   2.736 -0.6409 -0.5022 -0.0244
 8599SOL    HW137256   3.541   4.240   2.813 -0.0800 -0.9284  0.0903
 8599SOL    HW237257   3.657   4.326   2.778  1.1998 -1.5259 -2.0107
 8600SOL     OW37258   2.090   3.711  10.939 -0.3441  0.2787  0.8254
 8600SOL    HW137259   2.124   3.679  10.855 -0.7337  0.6917  0.5102
 8600SOL    HW237260   2.039   3.784  10.904 -0.2501  0.0804  0.2637
 8601SOL     OW37261   3.123   3.369   4.390 -0.2865 -0.1397  0.2781
 8601SOL    HW137262   3.123   3.298   4.455 -2.8662 -1.2200 -0.9367
 8601SOL    HW237263   3.196   3.350   4.330 -0.7441  1.0851 -0.6577
 8602SOL     OW37264   1.564   0.469   9.929  0.7128 -0.5619  0.0010
 8602SOL    HW137265   1.592   0.408   9.861 -0.0392 -0.1053 -0.7237
 8602SOL    HW237266   1.515   0.533   9.877 -1.0806 -1.5377  0.4821
 8603SOL     OW37267   3.466   0.790   5.354  0.0151  0.2529  0.6408
 8603SOL    HW137268   3.488   0.710   5.402 -5.3483 -1.7389 -0.1799
 8603SOL    HW237269   3.493   0.767   5.265  1.4774 -0.3811  1.2413
 8604SOL     OW37270   1.482   0.430   6.158  0.3040 -0.1479  0.5136
 8604SOL    HW137271   1.405   0.488   6.151 -1.2200 -2.4208 -1.5901
 8604SOL    HW237272   1.508   0.449   6.248 -0.7647  2.2247  0.3356
 8605SOL     OW37273   4.296   4.569   5.961 -0.2374 -0.1696  0.2122
 8605SOL    HW137274   4.262   4.622   5.889 -0.2563  0.3250  0.5807
 8605SOL    HW237275   4.273   4.482   5.929 -0.3789  0.4895 -1.4424
 8606SOL     OW37276   0.926   2.112   7.311 -0.2897  0.2473 -1.0006
 8606SOL    HW137277   0.978   2.191   7.296 -1.8794  1.8681  1.9933
 8606SOL    HW237278   0.991   2.057   7.355 -0.7937 -0.1879 -0.8021
 8607SOL     OW37279   2.315   4.491   4.305 -0.0453  0.0537  0.0247
 8607SOL    HW137280   2.270   4.512   4.224  0.2155 -0.7077 -0.3178
 8607SOL    HW237281   2.329   4.398   4.289  3.8311  0.7933 -0.9509
 8608SOL     OW37282   1.500   1.102   7.607  0.2976 -0.0807  0.5449
 8608SOL    HW137283   1.481   1.196   7.610  0.6099 -0.1419  3.9588
 8608SOL    HW237284   1.465   1.083   7.694  2.5762  2.2174  1.9760
 8609SOL     OW37285   3.539   3.624   6.641  0.4224  0.0893  0.2259
 8609SOL    HW137286   3.485   3.545   6.651 -0.6146  0.7737  0.0976
 8609SOL    HW237287   3.564   3.624   6.548  5.4700  0.9257  1.5909
 8610SOL     OW37288   2.218   1.056   6.579 -0.2103 -0.2883  0.5910
 8610SOL    HW137289   2.214   1.080   6.672  1.0967  0.5302  0.4266
 8610SOL    HW237290   2.127   1.037   6.556  0.4831 -0.5781 -1.9239
 8611SOL     OW37291   3.285   3.349   4.169  0.5113  0.5741 -0.2710
 8611SOL    HW137292   3.331   3.299   4.101 -0.7409 -0.6204 -0.2475
 8611SOL    HW237293   3.319   3.437   4.153 -1.6814  1.2486 -1.2314
 8612SOL     OW37294   3.204   0.080   7.715 -0.6197  0.1332  0.4383
 8612SOL    HW137295   3.175   4.711   7.717 -1.5506  0.4022 -0.9354
 8612SOL    HW237296   3.298   0.066   7.704 -0.8269 -0.8068 -0.1267
 8613SOL     OW37297   1.251   4.077   6.785 -0.2102 -0.0564 -0.2319
 8613SOL    HW137298   1.250   4.156   6.840 -1.2311 -0.5930  0.5006
 8613SOL    HW237299   1.329   4.033   6.817 -1.2229 -0.3203  1.8444
 8614SOL     OW37300   0.916   1.132   0.106 -0.1681 -0.1033 -0.6043
 8614SOL    HW137301   0.872   1.216   0.118  0.5852  0.1441  0.4060
 8614SOL    HW237302   0.973   1.122   0.182 -2.3419  0.6252  1.1227
 8615SOL     OW37303   4.525   0.436   0.533 -0.0447 -0.2353  0.7768
 8615SOL    HW137304   4.505   0.474   0.448 -1.7601 -1.0038  0.8435
 8615SOL    HW237305   4.614   0.401   0.521  0.4168  0.5077  2.0080
 8616SOL     OW37306   3.942   3.609   2.932  0.0619 -0.5037 -0.7541
 8616SOL    HW137307   4.022   3.655   2.906  0.0688  0.3675  0.7917
 8616SOL    HW237308   3.886   3.631   2.858 -0.5939  1.2724  0.2788
 8617SOL     OW37309   3.132   4.704   8.795 -0.3234  0.4443  0.5123
 8617SOL    HW137310   3.183   0.035   8.857 -1.1761  2.2833 -0.3354
 8617SOL    HW237311   3.176   4.619   8.800 -1.3133  0.0116  1.7387
 8618SOL     OW37312   3.452   2.904   5.980 -0.0482  0.7891 -0.2601
 8618SOL    HW137313   3.530   2.960   5.980  1.1563 -0.8803  2.2268
 8618SOL    HW237314   3.387   2.975   5.975 -0.4698  0.5638  1.9676
 8619SOL     OW37315   0.901   1.878   2.460  0.4161  0.2216 -0.0628
 8619SOL    HW137316   0.915   1.969   2.486 -1.2088 -0.0197  1.6779
 8619SOL    HW237317   0.879   1.891   2.368  0.5640 -0.8660 -0.2562
 8620SOL     OW37318   1.673   0.926  12.423 -0.2151 -0.1096 -0.0575
 8620SOL    HW137319   1.611   0.885  12.484 -1.0275  1.4456  0.1477
 8620SOL    HW237320   1.753   0.920  12.475 -0.0241  1.1291 -0.2241
 8621SOL     OW37321   2.478   1.835   4.146 -0.2801 -0.3338  0.0784
 8621SOL    HW137322   2.449   1.758   4.195  3.2735 -0.1406  2.4997
 8621SOL    HW237323   2.547   1.791   4.096 -0.0280 -0.4665  0.5405
 8622SOL     OW37324   1.018   1.580   3.781 -0.4039 -0.1058 -0.0657
 8622SOL    HW137325   1.033   1.662   3.734  1.6290  0.3541  1.4304
 8622SOL    HW237326   1.019   1.529   3.700 -1.2530 -0.6447  0.2608
 8623SOL     OW37327   1.616   1.226  16.421  0.4945 -0.2374  0.1794
 8623SOL    HW137328   1.554   1.227  16.494 -0.3339  1.1575 -0.5567
 8623SOL    HW237329   1.566   1.210  16.341 -0.0539  1.9864  0.0787
 8624SOL     OW37330   0.009   1.900   9.434  0.0391 -0.1598  0.3193
 8624SOL    HW137331   4.681   1.948   9.368  2.8350  1.5272 -0.5650
 8624SOL    HW237332   0.094   1.926   9.397 -0.4874  1.5907  0.3073
 8625SOL     OW37333   2.331   2.192   7.524 -0.0798 -0.0467  0.4092
 8625SOL    HW137334   2.338   2.216   7.617  2.2618  1.2883 -0.1130
 8625SOL    HW237335   2.237   2.187   7.507 -0.2840  0.3186  1.4141
 8626SOL     OW37336   1.841   3.638  17.606 -0.5149  0.0028  0.1436
 8626SOL    HW137337   1.843   3.589   0.000 -1.0795  0.3288  0.3546
 8626SOL    HW237338   1.801   3.718  17.640 -1.0858  0.4067 -1.4541
 8627SOL     OW37339   2.867   3.955   6.316  0.0414  0.4400  0.4223
 8627SOL    HW137340   2.773   3.933   6.316  0.4503 -1.3734 -2.1937
 8627SOL    HW237341   2.860   4.044   6.349  0.4484 -0.1423  2.0526
 8628SOL     OW37342   1.730   2.326  16.131  0.5161  0.2086 -0.2623
 8628SOL    HW137343   1.795   2.256  16.123  0.7147  0.6289 -2.4121
 8628SOL    HW237344   1.667   2.292  16.068 -0.5876  1.7583  0.0144
 8629SOL     OW37345   2.495   4.097   6.244 -0.3591  0.1569  0.6556
 8629SOL    HW137346   2.537   4.114   6.329  1.5039  1.5650 -0.5487
 8629SOL    HW237347   2.519   4.176   6.195  1.6769 -1.0624 -0.3103
 8630SOL     OW37348   2.994   2.858   9.357  0.2787  0.3671 -0.3807
 8630SOL    HW137349   3.089   2.844   9.360 -0.3743 -4.4051 -1.4889
 8630SOL    HW237350   2.989   2.948   9.324  0.2155 -0.7094 -3.3340
 8631SOL     OW37351   3.011   3.393   4.684  0.5242  0.3746 -0.4284
 8631SOL    HW137352   2.980   3.403   4.775  1.6963 -0.3144  0.0460
 8631SOL    HW237353   2.926   3.393   4.640 -0.2316  0.8401  1.0057
 8632SOL     OW37354   4.408   1.109   5.019 -0.1632 -0.0517  0.0995
 8632SOL    HW137355   4.451   1.187   5.053  0.0240 -0.3618  0.5795
 8632SOL    HW237356   4.475   1.072   4.961  1.3784  3.2607 -0.2629
 8633SOL     OW37357   0.207   3.403   7.749 -0.5427  0.6983 -0.1519
 8633SOL    HW137358   0.261   3.363   7.817 -0.0155 -2.1531 -2.2362
 8633SOL    HW237359   0.266   3.385   7.675 -3.1458 -0.4409 -1.9797
 8634SOL     OW37360   2.886   3.004   3.555 -0.2827 -0.0353 -0.0018
 8634SOL    HW137361   2.965   3.056   3.546  0.6039 -0.9742  2.3078
 8634SOL    HW237362   2.884   2.958   3.471 -0.1991 -0.6233  0.3178
 8635SOL     OW37363   4.486   0.339   4.342 -0.0260  0.5567 -0.2513
 8635SOL    HW137364   4.415   0.316   4.281 -0.3467 -3.1602  1.5463
 8635SOL    HW237365   4.458   0.308   4.428  0.5251 -0.6461 -0.5012
 8636SOL     OW37366   1.345   2.388  12.938 -0.6793 -0.3653  0.6806
 8636SOL    HW137367   1.344   2.316  13.001  0.8218 -0.5996  0.4252
 8636SOL    HW237368   1.407   2.347  12.877  0.7266 -0.3101  2.0698
 8637SOL     OW37369   2.407   0.703   8.070 -0.0164  0.1729  0.2777
 8637SOL    HW137370   2.474   0.649   8.110 -0.6532 -1.0292 -0.2700
 8637SOL    HW237371   2.449   0.720   7.986 -0.7162  1.5929  0.2167
 8638SOL     OW37372   0.196   4.481  14.388  0.1084  0.0743 -0.0301
 8638SOL    HW137373   0.219   4.419  14.457 -2.0618 -0.1533  0.4805
 8638SOL    HW237374   0.124   4.530  14.427  0.5857  1.2194 -0.5901
 8639SOL     OW37375   0.697   3.826   8.715 -0.0808 -0.1253 -0.1423
 8639SOL    HW137376   0.763   3.811   8.782  0.8418  1.5737 -0.6569
 8639SOL    HW237377   0.758   3.818   8.642 -0.9179  0.8631 -0.9609
 8640SOL     OW37378   0.585   3.643  12.512  0.3663 -0.0328  0.2455
 8640SOL    HW137379   0.503   3.603  12.482  0.7680  0.0345 -0.9405
 8640SOL    HW237380   0.640   3.631  12.434 -0.8814 -2.2879 -0.2829
 8641SOL     OW37381   4.411   3.783   6.713  0.3018 -0.2064 -0.0630
 8641SOL    HW137382   4.333   3.817   6.756  0.2723 -1.1768  0.6577
 8641SOL    HW237383   4.483   3.797   6.775  0.9815 -1.5673 -0.5491
 8642SOL     OW37384   0.154   1.698   6.571 -0.1605 -0.1647  0.1694
 8642SOL    HW137385   0.123   1.613   6.543  0.4051 -0.9146  1.7806
 8642SOL    HW237386   0.084   1.717   6.634 -0.0467  0.3001  0.1616
 8643SOL     OW37387   2.756   0.431   0.399 -0.5118  0.1749 -0.1180
 8643SOL    HW137388   2.736   0.432   0.305 -1.7111  0.7013  0.1481
 8643SOL    HW237389   2.821   0.500   0.392 -0.9339  0.5809 -0.0046
 8644SOL     OW37390   4.063   1.767  10.732  0.2300 -0.0533 -0.5056
 8644SOL    HW137391   4.004   1.732  10.799  0.2369  2.0101  0.5843
 8644SOL    HW237392   4.147   1.737  10.766  0.3899 -0.8898 -1.6687
 8645SOL     OW37393   0.860   0.187   7.100 -0.3320  0.4367 -0.4499
 8645SOL    HW137394   0.844   0.192   7.194 -1.0165 -0.1419 -0.5373
 8645SOL    HW237395   0.948   0.150   7.105 -1.2137 -1.1862  3.5881
 8646SOL     OW37396   3.845   0.581   7.958  0.8105  0.1392  0.0110
 8646SOL    HW137397   3.896   0.660   7.979 -0.0129  0.7168 -0.1386
 8646SOL    HW237398   3.849   0.590   7.862 -1.1521  0.3137 -0.0739
 8647SOL     OW37399   3.979   1.469   2.599 -0.2900 -0.1608 -0.1366
 8647SOL    HW137400   3.985   1.421   2.517 -0.8477 -0.6490  0.1018
 8647SOL    HW237401   3.893   1.445   2.633 -0.7344 -0.3286 -1.3885
 8648SOL     OW37402   2.146   0.805   6.956 -0.4331  0.5370  0.3897
 8648SOL    HW137403   2.210   0.873   6.975 -0.7659  0.8205  0.5089
 8648SOL    HW237404   2.112   0.844   6.876 -0.8723 -0.4695  0.0848
 8649SOL     OW37405   1.299   2.912   7.631 -0.8269  0.2187 -0.1435
 8649SOL    HW137406   1.290   2.904   7.536 -0.4051  0.8498 -0.2319
 8649SOL    HW237407   1.216   2.956   7.652 -2.0299 -1.2935 -1.6224
 8650SOL     OW37408   1.016   2.209   2.827 -0.0963 -0.1272  0.1235
 8650SOL    HW137409   0.991   2.291   2.870 -0.2671  0.1082 -0.4257
 8650SOL    HW237410   1.039   2.142   2.891 -1.8815 -1.4761 -0.6292
 8651SOL     OW37411   4.717   2.272   4.135  0.2136  0.3603  0.4582
 8651SOL    HW137412   4.712   2.368   4.132 -1.3052  0.2834  0.2879
 8651SOL    HW237413   4.632   2.245   4.171 -1.4958  4.3564 -0.5419
 8652SOL     OW37414   0.278   1.783   5.728  0.0283 -0.1481 -0.1769
 8652SOL    HW137415   0.277   1.749   5.638 -0.0802 -0.8173  0.0805
 8652SOL    HW237416   0.243   1.868   5.702  1.5769  0.7007  0.5133
 8653SOL     OW37417   0.018   3.896   5.152  0.2581  0.2400 -0.4993
 8653SOL    HW137418   0.026   3.963   5.221  1.5350 -0.7348  0.3068
 8653SOL    HW237419   0.105   3.857   5.150 -0.5935 -1.7891  2.1868
 8654SOL     OW37420   3.756   4.188   4.395  0.1037 -0.4529 -0.1211
 8654SOL    HW137421   3.752   4.265   4.452 -1.9397  0.4333 -1.4541
 8654SOL    HW237422   3.830   4.202   4.336  0.9541  0.2007  1.0910
 8655SOL     OW37423   3.653   3.775   1.906  0.0530  0.3710 -0.3063
 8655SOL    HW137424   3.642   3.856   1.855 -1.3151  0.5152  0.2425
 8655SOL    HW237425   3.743   3.754   1.879 -0.3932 -1.2973 -0.4656
 8656SOL     OW37426   1.357   1.954   6.702  0.0064 -0.1662 -0.1207
 8656SOL    HW137427   1.393   1.921   6.784  0.4879  0.8525  0.0770
 8656SOL    HW237428   1.270   1.914   6.695 -0.1713 -0.1361  2.0870
 8657SOL     OW37429   3.063   2.538   6.420  0.4687 -0.4151 -0.2214
 8657SOL    HW137430   3.008   2.600   6.467  0.3783 -1.8428  1.5303
 8657SOL    HW237431   3.010   2.507   6.346 -1.0146 -0.3939  0.8591
 8658SOL     OW37432   4.436   3.900   7.080 -0.0390 -0.1932 -0.3350
 8658SOL    HW137433   4.390   3.958   7.141  1.2689 -0.9308  1.3330
 8658SOL    HW237434   4.371   3.830   7.086  0.3610 -0.6138 -0.9756
 8659SOL     OW37435   4.494   3.845  16.822  0.2196  0.4196 -0.2231
 8659SOL    HW137436   4.399   3.842  16.828  0.2222  1.7319  0.4651
 8659SOL    HW237437   4.526   3.776  16.880 -1.6553 -0.0538  0.2445
 8660SOL     OW37438   3.715   0.417  17.290  0.0200 -0.5843  0.1204
 8660SOL    HW137439   3.682   0.328  17.298 -1.8570 -0.0608 -1.7112
 8660SOL    HW237440   3.723   0.427  17.195  0.7811 -3.4995 -0.1140
 8661SOL     OW37441   4.576   1.346  12.151 -0.5845  0.3341 -0.3784
 8661SOL    HW137442   4.622   1.361  12.068  0.9566 -0.6170  0.2884
 8661SOL    HW237443   4.645   1.379  12.208 -0.2441 -0.4439 -0.3371
 8662SOL     OW37444   1.819   2.349   6.907  0.1132 -0.3435  0.1201
 8662SOL    HW137445   1.880   2.371   6.837  2.9033  0.5436  2.8164
 8662SOL    HW237446   1.790   2.437   6.931 -0.6492 -0.7862  0.8176
 8663SOL     OW37447   3.235   2.373   1.526 -0.3333 -0.1610  0.2464
 8663SOL    HW137448   3.143   2.351   1.532 -0.8014  0.6725 -3.9678
 8663SOL    HW237449   3.265   2.314   1.457 -2.3836 -1.4188  0.4492
 8664SOL     OW37450   0.171   4.381   6.864 -0.0742 -0.3362 -0.8366
 8664SOL    HW137451   0.258   4.407   6.834  0.0147  0.4443  0.1099
 8664SOL    HW237452   0.121   4.458   6.836  1.0914  1.0335  0.8647
 8665SOL     OW37453   0.675   2.426   1.964 -0.1651  0.3126  0.1921
 8665SOL    HW137454   0.760   2.411   1.922  1.1874  1.8070  2.3899
 8665SOL    HW237455   0.683   2.521   1.962 -0.5334  0.3446  0.3121
 8666SOL     OW37456   2.697   1.872  12.886 -0.7463  0.2747 -0.1935
 8666SOL    HW137457   2.670   1.939  12.823 -0.6817  0.4137 -0.0718
 8666SOL    HW237458   2.613   1.833  12.911 -0.9206 -0.5234 -1.9772
 8667SOL     OW37459   0.584   2.901   7.543  0.4762 -0.2347  0.2613
 8667SOL    HW137460   0.489   2.896   7.544  0.4699 -0.0907  0.5357
 8667SOL    HW237461   0.608   2.842   7.615 -0.7544  0.0949  0.9368
 8668SOL     OW37462   0.963   3.235   8.348 -0.5815  0.9403 -0.5195
 8668SOL    HW137463   1.035   3.253   8.287 -2.8680  1.9176 -2.9463
 8668SOL    HW237464   0.954   3.140   8.346 -0.4163  0.8769  1.4380
 8669SOL     OW37465   2.663   1.118   2.482  0.0405 -0.5941 -0.3808
 8669SOL    HW137466   2.733   1.161   2.531  0.6321 -2.2323  0.2183
 8669SOL    HW237467   2.640   1.194   2.428 -0.3869  0.1274  0.8258
 8670SOL     OW37468   0.406   1.844   2.727  0.3283  0.3770  0.0163
 8670SOL    HW137469   0.394   1.937   2.745 -0.6699  0.4660 -1.0851
 8670SOL    HW237470   0.457   1.851   2.646 -0.8250  2.3686 -0.5281
 8671SOL     OW37471   4.173   0.768   5.756 -0.3561 -0.3684  0.1212
 8671SOL    HW137472   4.163   0.830   5.684 -0.3609 -3.2972 -2.3825
 8671SOL    HW237473   4.194   0.839   5.817  1.3361  0.7807 -1.7815
 8672SOL     OW37474   2.245   4.112   2.943  1.0124 -0.0628 -0.2145
 8672SOL    HW137475   2.170   4.054   2.928  1.3589 -0.1524 -1.5444
 8672SOL    HW237476   2.318   4.058   2.915  1.8105  2.0079 -2.1395
 8673SOL     OW37477   2.821   3.025   6.738  0.5893 -0.2901 -1.0646
 8673SOL    HW137478   2.771   3.008   6.659 -0.9133  0.3062 -0.2513
 8673SOL    HW237479   2.901   2.976   6.718  1.5934  0.4674  0.9789
 8674SOL     OW37480   0.460   4.470   7.267  0.1556 -0.2907 -0.6274
 8674SOL    HW137481   0.541   4.518   7.285  1.1371 -1.7952 -1.0618
 8674SOL    HW237482   0.396   4.541   7.264 -0.7737 -1.0307  1.8535
 8675SOL     OW37483   3.616   4.693  15.625 -0.0369  0.2618 -0.3367
 8675SOL    HW137484   3.641   4.619  15.681  0.9728  0.9422  0.1081
 8675SOL    HW237485   3.583   4.644  15.549  0.5097 -0.5780 -0.0373
 8676SOL     OW37486   0.291   4.293   0.389  1.0205  0.9789  0.8583
 8676SOL    HW137487   0.225   4.228   0.369  1.7523  0.6118 -0.3754
 8676SOL    HW237488   0.250   4.378   0.375  0.1694  0.2494 -1.0871
 8677SOL     OW37489   0.969   4.122   1.730 -0.2209 -0.2921  0.2037
 8677SOL    HW137490   1.027   4.057   1.691 -0.1895  0.1294 -0.4474
 8677SOL    HW237491   1.008   4.201   1.691  0.9998 -1.6968 -1.4082
 8678SOL     OW37492   2.985   4.084   6.702  0.0322  0.4364  0.1255
 8678SOL    HW137493   3.020   4.139   6.631  0.3467 -0.7617 -0.6558
 8678SOL    HW237494   3.054   4.103   6.765 -0.2932  0.3643  0.5018
 8679SOL     OW37495   4.415   0.280  12.048 -0.0991  0.5552  0.0105
 8679SOL    HW137496   4.421   0.244  11.960  0.5092 -1.7272  1.0021
 8679SOL    HW237497   4.475   0.353  12.029  1.0191  0.4416  2.9711
 8680SOL     OW37498   4.010   0.849   1.815  0.0674  0.1355  0.5903
 8680SOL    HW137499   3.970   0.793   1.748  1.0358 -1.5111  1.4090
 8680SOL    HW237500   3.968   0.821   1.896 -4.6907 -0.3432 -1.9678
 8681SOL     OW37501   0.302   4.652   4.139 -0.8289  0.7894 -0.3432
 8681SOL    HW137502   0.253   4.719   4.186  0.4171  1.9666 -0.7157
 8681SOL    HW237503   0.320   4.700   4.058 -0.6487 -0.5334 -1.0941
 8682SOL     OW37504   2.662   2.845   5.204  0.1718  0.0983 -0.4823
 8682SOL    HW137505   2.576   2.846   5.246  0.7411 -0.9350  0.7357
 8682SOL    HW237506   2.640   2.831   5.112  1.5154  3.6611 -1.3356
 8683SOL     OW37507   2.813   3.887   6.602 -0.2783 -0.1636  0.1033
 8683SOL    HW137508   2.854   3.964   6.639  1.2853 -0.3980 -1.1156
 8683SOL    HW237509   2.885   3.828   6.624  0.9297  0.7014 -1.5069
 8684SOL     OW37510   0.919   1.707  14.368 -0.3603 -0.3604  0.4772
 8684SOL    HW137511   0.980   1.665  14.307  0.9288  0.7722  1.0007
 8684SOL    HW237512   0.911   1.643  14.439  1.9121 -1.4496 -0.2716
 8685SOL     OW37513   1.029   2.804   9.104 -0.2180 -0.5661  0.2353
 8685SOL    HW137514   1.014   2.745   9.177 -3.9321 -0.2583 -0.2748
 8685SOL    HW237515   1.054   2.886   9.146  0.3706 -0.7190  0.1798
 8686SOL     OW37516   2.698   1.670   1.701  0.0539 -0.2609  0.1132
 8686SOL    HW137517   2.710   1.683   1.795 -0.6419  2.2116 -0.1240
 8686SOL    HW237518   2.655   1.585   1.701 -2.2788  0.9223  3.2219
 8687SOL     OW37519   4.560   1.714  11.166 -0.3910 -0.5420  0.0857
 8687SOL    HW137520   4.546   1.808  11.178 -2.8472 -0.8524 -0.2675
 8687SOL    HW237521   4.641   1.707  11.115 -0.0979  0.5192  0.4283
 8688SOL     OW37522   3.484   3.559   5.440  0.1439 -0.7179 -0.0601
 8688SOL    HW137523   3.442   3.553   5.354  2.3585  0.7800 -1.2560
 8688SOL    HW237524   3.407   3.550   5.496 -0.9603 -0.9537 -1.6330
 8689SOL     OW37525   2.074   4.522   4.473 -0.0416  0.2490 -0.3322
 8689SOL    HW137526   2.120   4.476   4.544 -2.1913 -1.5772 -0.1345
 8689SOL    HW237527   2.148   4.539   4.415 -0.2657 -2.0898 -1.3100
 8690SOL     OW37528   1.889   4.207   4.928 -0.5070  0.0134  1.0393
 8690SOL    HW137529   1.850   4.245   4.849  0.8351 -3.2576 -1.1732
 8690SOL    HW237530   1.980   4.193   4.900 -0.3743  4.5823 -0.8092
 8691SOL     OW37531   0.342   0.671   5.519 -0.5839 -0.2469 -0.7288
 8691SOL    HW137532   0.320   0.764   5.518 -0.9488 -0.3307 -0.4813
 8691SOL    HW237533   0.435   0.676   5.495 -0.1742 -3.8658  0.0590
 8692SOL     OW37534   0.028   1.541   4.639 -0.4951  0.1919  0.3034
 8692SOL    HW137535   4.721   1.504   4.723  0.4253  0.8865  0.9280
 8692SOL    HW237536   0.062   1.463   4.595 -1.5645 -1.0843  1.7461
 8693SOL     OW37537   1.662   4.040   7.744 -0.4316 -0.9072  0.1994
 8693SOL    HW137538   1.740   3.987   7.729  1.3321  1.9092 -0.5140
 8693SOL    HW237539   1.672   4.079   7.831 -0.9432 -1.7056  0.6130
 8694SOL     OW37540   0.436   0.611   5.762  0.6206 -0.0209 -0.0384
 8694SOL    HW137541   0.397   0.629   5.676  1.3876 -0.5674 -0.4968
 8694SOL    HW237542   0.370   0.642   5.825  0.2658  2.2561 -1.5111
 8695SOL     OW37543   3.629   3.178   8.157 -0.3961 -0.3627  0.3261
 8695SOL    HW137544   3.721   3.202   8.152 -1.1379  2.7095  1.6205
 8695SOL    HW237545   3.630   3.161   8.251 -0.7022  1.0834  0.5937
 8696SOL     OW37546   4.638   1.426  15.914  0.0539 -0.4067  0.3798
 8696SOL    HW137547   4.586   1.420  15.994  1.1744 -0.3799  1.1208
 8696SOL    HW237548   4.627   1.520  15.898 -1.1569 -0.3535  1.5212
 8697SOL     OW37549   2.311   0.104   7.005  0.0599 -0.6128  0.3681
 8697SOL    HW137550   2.317   0.092   7.099 -0.1569 -2.3212  0.1542
 8697SOL    HW237551   2.337   0.195   6.990 -3.6556  0.1589 -1.5841
 8698SOL     OW37552   1.512   3.469   2.655  0.1734 -0.5290  0.0668
 8698SOL    HW137553   1.429   3.442   2.615  0.4432 -0.5184 -0.4961
 8698SOL    HW237554   1.511   3.564   2.640  1.8274 -0.5260 -0.0194
 8699SOL     OW37555   2.507   4.043   2.586 -0.2464  0.6932  0.6264
 8699SOL    HW137556   2.425   4.072   2.545 -0.6876  0.4739  1.3651
 8699SOL    HW237557   2.555   4.023   2.505 -0.0958 -0.3771  0.9767
 8700SOL     OW37558   4.711   1.448   1.852  0.3229 -0.2069  0.1443
 8700SOL    HW137559   4.651   1.435   1.778 -0.4813 -1.6701  1.0529
 8700SOL    HW237560   0.046   1.371   1.856 -2.2374 -2.0593  0.5988
 8701SOL     OW37561   3.267   1.254   3.172 -1.1638  0.2355 -0.4215
 8701SOL    HW137562   3.296   1.343   3.150 -0.5448  0.1565  0.0924
 8701SOL    HW237563   3.239   1.261   3.263  0.4909  0.6786  0.0648
 8702SOL     OW37564   2.058   0.575   8.189  0.8621 -0.4802 -0.3599
 8702SOL    HW137565   2.080   0.558   8.097  0.2341 -0.2042 -0.5596
 8702SOL    HW237566   2.111   0.654   8.205 -0.6372  0.6187 -0.8185
 8703SOL     OW37567   2.767   0.933   8.354 -0.4553 -0.4115 -0.0653
 8703SOL    HW137568   2.790   0.930   8.446 -0.5056 -2.8254 -0.1448
 8703SOL    HW237569   2.833   0.989   8.313  0.3684 -0.0415  1.7890
 8704SOL     OW37570   2.988   2.847   3.337 -0.0962 -0.2403  0.4589
 8704SOL    HW137571   2.941   2.792   3.274  1.8936 -1.3396 -0.0620
 8704SOL    HW237572   3.034   2.910   3.281 -0.3195  0.2887  0.8629
 8705SOL     OW37573   2.332   3.593   9.923  0.0191 -0.0179 -0.0691
 8705SOL    HW137574   2.410   3.649   9.928 -1.3275  1.8228  0.1873
 8705SOL    HW237575   2.289   3.633   9.998  0.8721  1.0110 -0.1305
 8706SOL     OW37576   0.712   4.033   5.781 -0.3645  0.6934  0.0419
 8706SOL    HW137577   0.706   3.968   5.851  0.1693  0.5546 -0.0487
 8706SOL    HW237578   0.686   4.112   5.829 -0.4033 -0.2269  1.5372
 8707SOL     OW37579   2.980   0.166  14.313  0.2413  0.0754 -0.2870
 8707SOL    HW137580   2.935   0.137  14.392  0.2579  1.3441  0.1824
 8707SOL    HW237581   3.072   0.157  14.337 -0.5689 -3.9086  1.2237
 8708SOL     OW37582   1.615   0.755  11.659 -0.0502  0.8750  0.9115
 8708SOL    HW137583   1.533   0.730  11.701  1.3849 -2.7061  1.5798
 8708SOL    HW237584   1.599   0.846  11.635  2.3188  0.5073 -2.0904
 8709SOL     OW37585   0.617   1.613   4.726  0.0225 -0.1005 -0.4137
 8709SOL    HW137586   0.698   1.563   4.719 -0.3864 -0.8796  0.4604
 8709SOL    HW237587   0.587   1.612   4.817 -2.3530  0.0426 -1.1801
 8710SOL     OW37588   2.825   1.762   3.394  0.0881  0.0611  0.6454
 8710SOL    HW137589   2.872   1.723   3.321 -0.9384  0.6909 -0.3646
 8710SOL    HW237590   2.870   1.847   3.402  0.4475  0.0235 -0.9927
 8711SOL     OW37591   2.114   2.036   6.459 -0.0168  0.0921 -0.3218
 8711SOL    HW137592   2.036   1.995   6.420  1.1493 -1.5353 -0.9420
 8711SOL    HW237593   2.086   2.127   6.463  1.5004  0.5805 -0.9353
 8712SOL     OW37594   0.729   1.651  10.475 -0.4469 -0.0500  0.1376
 8712SOL    HW137595   0.656   1.684  10.423  0.5937  1.2234 -0.5007
 8712SOL    HW237596   0.804   1.652  10.416 -0.8733  0.9658 -0.3744
 8713SOL     OW37597   0.486   0.115   5.709 -0.5736 -0.5998  0.1708
 8713SOL    HW137598   0.528   0.044   5.756  1.0071  0.4620  0.3600
 8713SOL    HW237599   0.521   0.201   5.732 -0.9063  0.0173 -1.5801
 8714SOL     OW37600   2.941   4.441   4.893 -0.0143  0.6441 -0.7513
 8714SOL    HW137601   2.947   4.362   4.839 -2.1374 -1.0580  1.5275
 8714SOL    HW237602   3.036   4.450   4.901  0.1370  0.0688 -1.8367
 8715SOL     OW37603   1.513   2.097   6.277 -0.0757  0.4547 -0.0860
 8715SOL    HW137604   1.600   2.116   6.241  0.0621 -0.0626 -0.0317
 8715SOL    HW237605   1.468   2.069   6.198  1.2060  0.7301 -0.9089
 8716SOL     OW37606   4.629   1.948   2.602 -0.7677 -0.2535  0.6362
 8716SOL    HW137607   4.660   2.037   2.619  1.9478 -1.0469 -0.3080
 8716SOL    HW237608   4.650   1.905   2.685 -0.6904 -1.8595 -0.2081
 8717SOL     OW37609   0.707   0.900   1.774 -0.4041  0.1444  0.1670
 8717SOL    HW137610   0.648   0.911   1.849 -1.6150  1.6091 -1.0084
 8717SOL    HW237611   0.768   0.972   1.791 -2.0698  2.1462 -2.2557
 8718SOL     OW37612   0.649   3.013  11.777 -0.4372  0.4297 -0.0474
 8718SOL    HW137613   0.713   2.943  11.786  0.1015  0.6545 -2.0628
 8718SOL    HW237614   0.575   2.959  11.751 -0.8104  0.9424 -0.0464
 8719SOL     OW37615   3.743   3.711   2.330  0.2570 -0.1230  0.4470
 8719SOL    HW137616   3.677   3.758   2.380 -1.3464 -2.4841  0.5541
 8719SOL    HW237617   3.781   3.648   2.391  0.1009  1.1978  1.9082
 8720SOL     OW37618   2.968   4.444   2.796  0.1434 -0.3333  0.2048
 8720SOL    HW137619   2.911   4.387   2.743  0.2641 -1.2602  1.0813
 8720SOL    HW237620   2.943   4.418   2.884 -0.8481 -0.2561 -0.0533
 8721SOL     OW37621   1.392   3.014   3.050 -0.1529  0.0312 -0.2607
 8721SOL    HW137622   1.481   3.035   3.021 -0.3629 -0.7020 -1.4656
 8721SOL    HW237623   1.345   3.030   2.968  0.2632 -3.3305 -1.1458
 8722SOL     OW37624   2.995   3.149   0.833 -0.4665 -0.4484  0.0106
 8722SOL    HW137625   2.968   3.085   0.767  1.1374 -0.0239 -1.0657
 8722SOL    HW237626   3.063   3.096   0.874 -1.8406 -1.6898  0.6666
 8723SOL     OW37627   4.428   0.859   5.281  0.0114 -0.7091  0.1218
 8723SOL    HW137628   4.523   0.857   5.270 -0.1122  3.0388 -1.6562
 8723SOL    HW237629   4.421   0.883   5.373  2.9346  0.5315  0.0412
 8724SOL     OW37630   2.888   0.337   7.945 -0.9040 -0.1194  0.1319
 8724SOL    HW137631   2.931   0.354   7.862  1.0286 -0.4248  1.0744
 8724SOL    HW237632   2.926   0.406   8.000 -0.6100 -0.6195  0.5533
 8725SOL     OW37633   3.299   2.276   6.223 -0.6908  0.1956  0.0727
 8725SOL    HW137634   3.320   2.206   6.284 -2.0222 -0.4584 -0.2227
 8725SOL    HW237635   3.210   2.297   6.253 -1.6041 -0.5640 -2.1198
 8726SOL     OW37636   1.419   2.016   5.733 -0.0041 -0.3649  0.0189
 8726SOL    HW137637   1.513   2.033   5.728 -0.2964  1.1267 -0.2810
 8726SOL    HW237638   1.383   2.101   5.755  1.4782  0.8357 -2.2442
 8727SOL     OW37639   0.068   0.586  17.163 -0.3236 -0.0033  0.1822
 8727SOL    HW137640   0.072   0.610  17.255  0.9880  1.1457 -0.1700
 8727SOL    HW237641   0.140   0.635  17.124  2.9808 -2.6805  3.0048
 8728SOL     OW37642   1.737   3.661   9.450 -0.6967  0.5176  0.2131
 8728SOL    HW137643   1.675   3.595   9.482  0.2004 -0.5208 -0.1878
 8728SOL    HW237644   1.695   3.705   9.376  0.0656  1.0845  0.1082
 8729SOL     OW37645   0.247   0.790   1.890  0.3351  0.3452  0.0327
 8729SOL    HW137646   0.185   0.735   1.937 -0.4817  1.8600  0.7037
 8729SOL    HW237647   0.320   0.736   1.858  0.5121  0.0274  0.9804
 8730SOL     OW37648   1.827   1.729   3.863 -0.1766  0.6479 -0.2310
 8730SOL    HW137649   1.874   1.810   3.843 -0.0600  0.7101  0.3008
 8730SOL    HW237650   1.870   1.692   3.940 -0.3086  0.3815 -0.2851
 8731SOL     OW37651   0.933   4.000   7.620  0.1048 -0.0181 -0.2600
 8731SOL    HW137652   0.997   4.044   7.675  0.5811  0.7946 -1.4497
 8731SOL    HW237653   0.972   3.915   7.598  0.6402  0.4544 -1.1539
 8732SOL     OW37654   2.849   0.942   7.743 -1.0435 -0.0244  0.2436
 8732SOL    HW137655   2.899   0.869   7.779 -0.0968  1.2553  1.5321
 8732SOL    HW237656   2.840   0.921   7.650 -1.8297 -0.1083  0.3443
 8733SOL     OW37657   0.101   1.926   7.141 -0.2240  0.0977 -0.1431
 8733SOL    HW137658   0.054   2.002   7.177 -0.5128  0.9900 -2.4418
 8733SOL    HW237659   0.191   1.940   7.169 -0.1903 -1.1916  0.3768
 8734SOL     OW37660   3.517   4.531   8.307 -0.2868 -0.6853  0.0572
 8734SOL    HW137661   3.466   4.451   8.314 -0.5663 -0.3656  1.8305
 8734SOL    HW237662   3.510   4.560   8.398 -3.2970 -0.5854 -0.2124
 8735SOL     OW37663   0.477   2.088   5.814 -0.1597 -0.4188 -0.2603
 8735SOL    HW137664   0.559   2.116   5.854 -1.1629  0.8867  0.8640
 8735SOL    HW237665   0.509   2.058   5.728 -2.4647  0.1375 -1.3250
 8736SOL     OW37666   3.923   2.415  11.959 -0.1016  0.2551  0.6354
 8736SOL    HW137667   3.833   2.441  11.939 -0.1361 -0.3307  0.0456
 8736SOL    HW237668   3.948   2.494  12.007  0.5588  1.2961 -1.4315
 8737SOL     OW37669   2.708   1.614  14.905 -0.2573  0.1682 -0.3118
 8737SOL    HW137670   2.634   1.554  14.914 -0.9872  1.2492  0.7453
 8737SOL    HW237671   2.714   1.628  14.810 -2.3788 -0.8961 -0.6005
 8738SOL     OW37672   4.680   3.668   5.711 -0.2592  0.1992 -0.1137
 8738SOL    HW137673   4.626   3.646   5.787 -0.1596 -1.1757 -0.4428
 8738SOL    HW237674   4.625   3.671   5.633  1.5583 -2.7586 -1.4705
 8739SOL     OW37675   0.495   4.707   8.445 -0.0032  0.5570  0.1639
 8739SOL    HW137676   0.434   4.681   8.514 -1.2304  0.4103 -0.9681
 8739SOL    HW237677   0.555   0.036   8.499 -1.8430 -0.2319  2.9341
 8740SOL     OW37678   4.623   4.128  12.068 -0.0171 -0.2449  0.3109
 8740SOL    HW137679   4.643   4.189  12.139 -0.8395  1.2790 -0.7600
 8740SOL    HW237680   4.528   4.141  12.067  0.2101  1.5406  2.4741
 8741SOL     OW37681   3.921   4.202   0.090 -0.3144 -0.1868 -0.0101
 8741SOL    HW137682   4.008   4.162   0.100  0.1812  1.0675  0.7437
 8741SOL    HW237683   3.880   4.174   0.172 -1.4665 -0.0391 -0.5479
 8742SOL     OW37684   2.908   2.694  11.156 -0.2954  0.4726 -0.4630
 8742SOL    HW137685   2.819   2.659  11.153 -0.6270  1.3344 -0.6352
 8742SOL    HW237686   2.899   2.778  11.110 -1.4370  1.2140  1.0763
 8743SOL     OW37687   3.169   2.938   1.871 -0.0965 -0.1808  0.5308
 8743SOL    HW137688   3.231   2.958   1.942  1.7122 -0.4353 -0.9649
 8743SOL    HW237689   3.204   2.858   1.833 -0.1328  0.4211 -0.7653
 8744SOL     OW37690   3.815   0.196   7.626 -0.2676 -0.0210  0.5242
 8744SOL    HW137691   3.890   0.210   7.683 -0.1217  0.3874  0.2363
 8744SOL    HW237692   3.855   0.149   7.553 -0.4577 -0.4539  0.6977
 8745SOL     OW37693   3.182   0.502   5.639 -0.0959  0.3086  0.2569
 8745SOL    HW137694   3.171   0.407   5.647 -1.0716  0.5895  2.0074
 8745SOL    HW237695   3.184   0.518   5.733  0.2690 -0.5957  0.4037
 8746SOL     OW37696   2.111   1.349   4.702 -0.2751 -0.4010 -0.2055
 8746SOL    HW137697   2.138   1.257   4.698 -1.3626 -0.6971 -0.8644
 8746SOL    HW237698   2.187   1.394   4.665  1.7660 -1.9930  2.0259
 8747SOL     OW37699   3.423   0.362   7.459  0.1062  0.3646 -0.1966
 8747SOL    HW137700   3.454   0.363   7.550  0.5133 -3.8825 -0.2855
 8747SOL    HW237701   3.509   0.352   7.417  0.3980  3.3346 -0.2995
 8748SOL     OW37702   4.178   0.394   9.304 -0.1491 -0.4427 -0.1408
 8748SOL    HW137703   4.125   0.452   9.248 -0.3885  0.2980  0.8504
 8748SOL    HW237704   4.186   0.320   9.244  0.1068 -1.4430  1.1497
 8749SOL     OW37705   1.921   1.788   7.196  0.2717 -0.1612  0.1878
 8749SOL    HW137706   1.986   1.735   7.151  1.1275  0.7506  0.3360
 8749SOL    HW237707   1.898   1.731   7.269 -1.8892  1.2405  0.6163
 8750SOL     OW37708   4.581   0.083   1.486 -0.3440  0.0997  0.3431
 8750SOL    HW137709   4.620   0.169   1.465  0.6321 -0.8330 -1.7347
 8750SOL    HW237710   4.650   0.042   1.539 -2.0884 -0.7170  1.9748
 8751SOL     OW37711   0.281   3.559  14.454  0.0362 -0.0276  0.0983
 8751SOL    HW137712   0.280   3.654  14.441 -0.3336 -0.0039  0.2916
 8751SOL    HW237713   0.194   3.550  14.494  0.6666 -0.8396  1.2934
 8752SOL     OW37714   2.733   2.893   6.014  0.1396  0.1366  0.0253
 8752SOL    HW137715   2.784   2.936   5.946  0.2531 -1.7526 -1.0928
 8752SOL    HW237716   2.671   2.962   6.039 -0.4541 -1.0522  1.8438
 8753SOL     OW37717   1.207   4.202   0.552  1.2434 -0.1051 -0.3878
 8753SOL    HW137718   1.208   4.249   0.636  1.0876  0.2160 -0.5638
 8753SOL    HW237719   1.179   4.113   0.571  0.5962  0.2597  0.3999
 8754SOL     OW37720   3.319   1.707   5.711  0.2974  0.6596  0.2956
 8754SOL    HW137721   3.297   1.623   5.750 -1.4293  1.6377  1.4205
 8754SOL    HW237722   3.269   1.692   5.631 -1.2910  0.7942  1.2628
 8755SOL     OW37723   4.495   3.656   3.557  0.3648  0.3324  0.0909
 8755SOL    HW137724   4.505   3.746   3.587 -1.0143  0.2241  0.8841
 8755SOL    HW237725   4.562   3.651   3.489  0.9038  0.9721  0.5722
 8756SOL     OW37726   1.934   4.328   7.019  0.3983  0.9481  0.4744
 8756SOL    HW137727   1.890   4.412   7.031 -0.5387  0.5856 -0.3294
 8756SOL    HW237728   1.871   4.274   7.068  0.1483  0.4520 -0.3768
 8757SOL     OW37729   1.020   3.954   2.391  0.5209  0.4691  0.2431
 8757SOL    HW137730   1.045   3.893   2.321 -0.9907 -1.8217  1.6755
 8757SOL    HW237731   1.105   3.997   2.397 -0.6911  3.0470 -1.3326
 8758SOL     OW37732   3.565   0.342   2.858 -0.4038  0.1813  0.4732
 8758SOL    HW137733   3.522   0.425   2.880  1.3718  1.3142 -0.3899
 8758SOL    HW237734   3.641   0.381   2.814 -0.1146  0.0044  0.8184
 8759SOL     OW37735   4.006   1.575   3.084  0.0076  0.8517  0.3386
 8759SOL    HW137736   3.941   1.645   3.083  0.9918  1.7369 -0.8955
 8759SOL    HW237737   4.033   1.572   2.993  0.8650  0.8512  0.5931
 8760SOL     OW37738   0.380   1.322   5.055 -0.3938 -0.3505  0.0031
 8760SOL    HW137739   0.372   1.380   4.979 -0.3654  1.2795  1.2670
 8760SOL    HW237740   0.442   1.368   5.111 -2.4936  1.5568  0.7200
 8761SOL     OW37741   2.599   4.184   6.464  0.0110  0.0656  0.3763
 8761SOL    HW137742   2.571   4.220   6.548 -3.2735 -0.6483 -0.3919
 8761SOL    HW237743   2.694   4.174   6.473  0.3021  4.7199  2.1267
 8762SOL     OW37744   0.775   0.304   7.869 -0.0903  0.0032 -0.3086
 8762SOL    HW137745   0.701   0.276   7.815  1.8974  1.0503 -3.5665
 8762SOL    HW237746   0.836   0.311   7.796 -1.3451  1.2970 -1.2199
 8763SOL     OW37747   3.733   3.751   7.015  0.4020  0.3038 -0.3673
 8763SOL    HW137748   3.709   3.722   7.103  0.1548  1.6395  0.0065
 8763SOL    HW237749   3.826   3.765   7.029  0.0460  1.9728  0.3469
 8764SOL     OW37750   0.590   3.137   8.259  0.2538  0.0480 -0.2228
 8764SOL    HW137751   0.645   3.209   8.229 -0.6038  1.1404  0.8621
 8764SOL    HW237752   0.546   3.190   8.325 -1.0959 -1.4948  0.1203
 8765SOL     OW37753   4.178   1.756   6.082 -0.0387 -0.4272  0.2990
 8765SOL    HW137754   4.099   1.706   6.060 -1.2004  1.1280  0.9310
 8765SOL    HW237755   4.186   1.747   6.177 -1.8289  0.4878  0.5282
 8766SOL     OW37756   4.332   0.738   1.598  0.3409 -0.2515 -0.4338
 8766SOL    HW137757   4.355   0.719   1.689 -0.4865  0.6034 -0.0443
 8766SOL    HW237758   4.252   0.685   1.599  0.0852  0.1032 -2.4520
 8767SOL     OW37759   3.040   2.673   1.692 -0.0953 -0.7280  0.2844
 8767SOL    HW137760   3.134   2.662   1.682 -0.2354 -0.5076 -1.3214
 8767SOL    HW237761   3.009   2.629   1.613  0.4467 -2.9888  1.3550
 8768SOL     OW37762   2.283   3.359   9.252  0.0191  0.3966 -0.3100
 8768SOL    HW137763   2.313   3.407   9.329 -2.7172 -0.8985  1.5668
 8768SOL    HW237764   2.372   3.347   9.220  0.3474  0.9982  0.3614
 8769SOL     OW37765   1.735   4.714  17.129  0.5905  0.6482 -0.1741
 8769SOL    HW137766   1.774   4.631  17.100  1.0778  0.5533  0.7554
 8769SOL    HW237767   1.813   0.043  17.107  0.6177  0.7004  0.0435
 8770SOL     OW37768   2.349   1.097   2.507  0.8282  0.0773  0.6596
 8770SOL    HW137769   2.376   1.151   2.433 -3.2236  1.1425  0.0014
 8770SOL    HW237770   2.405   1.141   2.571  1.6040 -0.9361  0.6871
 8771SOL     OW37771   1.470   0.748   8.536 -0.1709 -0.1484  0.3915
 8771SOL    HW137772   1.397   0.809   8.538  1.5867  1.8856  2.0056
 8771SOL    HW237773   1.472   0.719   8.445 -0.7722 -1.7094  0.8761
 8772SOL     OW37774   0.253   4.315  11.440 -0.2410 -0.0862 -0.1450
 8772SOL    HW137775   0.281   4.339  11.529  0.7618  0.9929 -0.7600
 8772SOL    HW237776   0.157   4.322  11.437 -0.1885  1.1712  0.8619
 8773SOL     OW37777   0.651   1.538  15.825 -0.6426  0.0205  0.5507
 8773SOL    HW137778   0.656   1.447  15.797 -0.4375 -0.3010  1.6173
 8773SOL    HW237779   0.589   1.563  15.757  1.2711  1.6799 -0.5743
 8774SOL     OW37780   4.579   0.609   5.515  0.1337 -0.6595 -0.1148
 8774SOL    HW137781   4.664   0.613   5.471  0.5858  0.9546  0.9350
 8774SOL    HW237782   4.523   0.571   5.447  1.2460 -1.3464 -0.6427
 8775SOL     OW37783   0.418   0.800   7.695  0.5238 -0.7496 -0.3932
 8775SOL    HW137784   0.446   0.768   7.610  1.1784  1.1004 -0.8631
 8775SOL    HW237785   0.354   0.866   7.669  0.1151 -1.0731 -0.2076
 8776SOL     OW37786   4.232   4.090  17.111  0.1293 -0.0075  0.6073
 8776SOL    HW137787   4.245   4.126  17.023 -1.9611 -1.5731 -0.3486
 8776SOL    HW237788   4.172   4.019  17.088  0.3134 -0.5080  1.6827
 8777SOL     OW37789   3.679   2.068   9.095  0.2592  0.4282  0.5546
 8777SOL    HW137790   3.601   2.112   9.062  0.6732 -0.5754 -1.7470
 8777SOL    HW237791   3.667   2.080   9.190 -2.2997 -0.5731  0.3401
 8778SOL     OW37792   4.620   4.204   4.224 -0.8346  0.6078 -0.7873
 8778SOL    HW137793   4.714   4.222   4.223 -0.6663 -0.2494 -0.7871
 8778SOL    HW237794   4.593   4.173   4.138 -4.4413  0.4452  0.4108
 8779SOL     OW37795   0.939   2.819   2.807  0.1266 -0.0775  0.1009
 8779SOL    HW137796   1.024   2.782   2.782 -0.8420 -0.1772 -2.9724
 8779SOL    HW237797   0.873   2.796   2.741 -1.1261 -3.3900  2.4508
 8780SOL     OW37798   0.350   1.440   2.944  0.1585  0.2082 -0.0014
 8780SOL    HW137799   0.256   1.432   2.927  0.2959 -1.5028  0.1190
 8780SOL    HW237800   0.360   1.528   2.981 -0.1951  0.5497 -0.7093
 8781SOL     OW37801   1.498   0.632   6.396  0.9450 -1.2095  0.1895
 8781SOL    HW137802   1.451   0.611   6.476  0.1851  1.3684  0.4248
 8781SOL    HW237803   1.562   0.561   6.399  0.9763 -1.1840  0.1399
 8782SOL     OW37804   2.359   4.364   9.054 -0.5020  0.0711 -0.3161
 8782SOL    HW137805   2.269   4.343   9.078  0.2721 -4.6701 -1.5144
 8782SOL    HW237806   2.404   4.339   9.135 -0.0935 -1.6520 -1.0762
 8783SOL     OW37807   3.497   2.478  16.254 -0.2428 -0.1849 -0.4023
 8783SOL    HW137808   3.561   2.477  16.325 -1.0538 -0.2208  0.3345
 8783SOL    HW237809   3.436   2.408  16.277  0.7255 -2.2046 -3.9864
 8784SOL     OW37810   0.467   3.422   3.640  0.1787 -0.2008  0.0458
 8784SOL    HW137811   0.475   3.500   3.696  0.9025 -2.3582  2.9715
 8784SOL    HW237812   0.464   3.353   3.706  0.8155  0.0580  0.3423
 8785SOL     OW37813   4.483   2.018   2.854 -0.3922 -0.1766  0.4519
 8785SOL    HW137814   4.463   2.040   2.763  0.8923  1.6223  0.6135
 8785SOL    HW237815   4.472   2.103   2.897  1.6049  0.8085 -1.0253
 8786SOL     OW37816   4.188   2.784   1.913 -0.0739 -0.4327 -0.2174
 8786SOL    HW137817   4.177   2.796   1.819 -2.9731 -1.9564 -0.0630
 8786SOL    HW237818   4.202   2.690   1.917 -0.0395 -0.4832 -1.9499
 8787SOL     OW37819   1.139   1.792   2.206  0.1088  0.1908 -0.0769
 8787SOL    HW137820   1.142   1.872   2.153 -0.8511  0.2158 -0.0994
 8787SOL    HW237821   1.215   1.746   2.170  0.9314 -0.0480  1.9609
 8788SOL     OW37822   0.834   1.760   1.056  0.0774 -0.0127 -0.6398
 8788SOL    HW137823   0.809   1.774   1.147  3.1089  0.6670  0.0897
 8788SOL    HW237824   0.755   1.755   1.002 -1.3400 -0.2112  1.4454
 8789SOL     OW37825   4.271   1.896   1.748 -0.1389 -0.8436 -0.0048
 8789SOL    HW137826   4.212   1.968   1.730  0.3139 -0.3092  0.6498
 8789SOL    HW237827   4.233   1.844   1.818 -0.8869 -0.1822  0.0697
 8790SOL     OW37828   0.722   0.868  17.011 -0.1388 -0.6102  0.3126
 8790SOL    HW137829   0.812   0.849  17.036  0.6957  0.7726 -1.6239
 8790SOL    HW237830   0.691   0.777  17.006 -3.5249  0.6232 -1.3349
 8791SOL     OW37831   4.209   4.712   3.199 -0.0905 -0.0658  0.2568
 8791SOL    HW137832   4.203   4.618   3.214  0.6687 -0.4436 -1.8649
 8791SOL    HW237833   4.133   0.016   3.147  0.8162  3.2643  0.5317
 8792SOL     OW37834   1.693   1.566   8.160 -0.2671  0.4815 -0.1745
 8792SOL    HW137835   1.618   1.588   8.105  0.3926 -0.6338 -1.5159
 8792SOL    HW237836   1.645   1.578   8.241  0.4043  0.2576  0.2574
 8793SOL     OW37837   0.055   3.717   6.464  0.3511 -0.4108 -0.2783
 8793SOL    HW137838   4.682   3.701   6.463  0.4259 -0.7907 -1.1531
 8793SOL    HW237839   0.087   3.655   6.529 -0.2769 -2.2328 -1.7084
 8794SOL     OW37840   2.801   3.848  15.970  0.5567 -0.8678  0.4087
 8794SOL    HW137841   2.811   3.772  16.028 -2.6724 -1.4031  0.2679
 8794SOL    HW237842   2.855   3.914  16.014  1.0550 -1.5032  0.7459
 8795SOL     OW37843   2.827   4.492   6.367  0.3341  0.4815 -0.4392
 8795SOL    HW137844   2.739   4.511   6.335  0.8266  3.1717 -0.2181
 8795SOL    HW237845   2.847   4.564   6.426 -0.5979  0.9708 -0.7236
 8796SOL     OW37846   1.650   3.865  16.534 -0.3684  0.3641  0.0638
 8796SOL    HW137847   1.593   3.850  16.609 -1.4326  1.9960 -0.4184
 8796SOL    HW237848   1.733   3.826  16.559  0.0856 -0.2328 -2.4012
 8797SOL     OW37849   2.146   3.514   4.524 -0.4551 -0.3643  0.7427
 8797SOL    HW137850   2.073   3.483   4.470 -1.3325  1.3882  0.9273
 8797SOL    HW237851   2.108   3.588   4.572  0.9299  1.4211 -0.8983
 8798SOL     OW37852   2.830   2.037   9.927  0.2896  0.4093 -0.0885
 8798SOL    HW137853   2.774   2.060  10.001  2.4172  0.3845  1.5108
 8798SOL    HW237854   2.882   1.972   9.973  0.7523  0.9528  0.1487
 8799SOL     OW37855   2.066   0.688   4.546 -0.3849  0.4323  0.0969
 8799SOL    HW137856   1.992   0.702   4.606  0.5241  1.0259  1.0663
 8799SOL    HW237857   2.023   0.659   4.465 -0.0725 -1.5628  0.6418
 8800SOL     OW37858   4.587   4.557   9.490 -0.1210 -0.4771 -0.2446
 8800SOL    HW137859   4.655   4.606   9.534  1.3151 -1.6473 -1.1687
 8800SOL    HW237860   4.543   4.504   9.556 -0.6499  0.5114  0.1943
 8801SOL     OW37861   0.615   2.113   0.318  0.5125 -0.4287  0.4020
 8801SOL    HW137862   0.641   2.048   0.253 -1.8454 -0.7779 -0.1811
 8801SOL    HW237863   0.620   2.054   0.393 -1.5511  0.6708  1.4123
 8802SOL     OW37864   0.016   4.500   6.010  0.1235  0.4841 -0.5062
 8802SOL    HW137865   4.658   4.528   6.056  0.0801 -0.5119  0.0262
 8802SOL    HW237866   0.089   4.527   6.067 -1.3181  4.6418 -0.6334
 8803SOL     OW37867   3.991   2.283   5.877  0.0867  0.3815 -0.9330
 8803SOL    HW137868   4.025   2.194   5.885 -0.8316  0.0834 -0.3090
 8803SOL    HW237869   3.944   2.288   5.960 -0.7492 -0.8938 -1.3245
 8804SOL     OW37870   1.538   3.174  13.548  0.4405  0.1315 -0.2391
 8804SOL    HW137871   1.486   3.136  13.620  1.9202  0.0702  0.8141
 8804SOL    HW237872   1.468   3.223  13.507 -1.3621 -1.7490  0.5652
 8805SOL     OW37873   2.808   4.538   3.536  0.0603  0.0520  0.1904
 8805SOL    HW137874   2.890   4.499   3.505  0.8824  1.7457  0.2388
 8805SOL    HW237875   2.829   4.553   3.628  0.7121  2.6436 -0.3807
 8806SOL     OW37876   1.732   4.475   7.867 -0.2683 -0.3364 -0.2997
 8806SOL    HW137877   1.797   4.410   7.840 -0.7121  0.3092 -2.9614
 8806SOL    HW237878   1.650   4.437   7.835 -0.6857 -1.1238  1.6906
 8807SOL     OW37879   1.596   3.216  12.475 -0.4390  0.0005 -0.4494
 8807SOL    HW137880   1.626   3.306  12.483 -0.9641  0.0839  0.6992
 8807SOL    HW237881   1.571   3.200  12.384  0.0287  0.2543 -0.6209
 8808SOL     OW37882   0.077   3.601  15.847  0.7200 -0.0551  0.2019
 8808SOL    HW137883   0.062   3.510  15.873 -2.4352  0.6172  0.7349
 8808SOL    HW237884   0.091   3.649  15.928  0.6937 -0.4591  0.4449
 8809SOL     OW37885   0.230   1.205   2.189 -0.2021  0.3548  0.0493
 8809SOL    HW137886   0.191   1.170   2.269 -2.7119  1.9881 -0.4698
 8809SOL    HW237887   0.244   1.298   2.205 -0.2493  0.3612  0.0531
 8810SOL     OW37888   4.205   0.384  11.224 -0.3951 -0.2254  1.1780
 8810SOL    HW137889   4.273   0.316  11.218  0.9940  1.0827  2.0446
 8810SOL    HW237890   4.170   0.375  11.136  0.8596  1.4175  0.5137
 8811SOL     OW37891   2.876   2.309  10.530  0.1934 -0.1930  0.0498
 8811SOL    HW137892   2.924   2.390  10.553  0.6291 -0.4833  0.1682
 8811SOL    HW237893   2.814   2.307  10.603  0.7074  1.6382  0.5540
 8812SOL     OW37894   0.549   0.587  11.873  0.0483  0.4897 -0.4621
 8812SOL    HW137895   0.634   0.598  11.915 -0.6311 -0.6572  1.2296
 8812SOL    HW237896   0.565   0.645  11.799  1.0804  1.7759  0.7598
 8813SOL     OW37897   3.927   3.263  17.280  0.0294 -0.4506  0.5369
 8813SOL    HW137898   3.973   3.225  17.355  0.5678 -1.9793 -0.5522
 8813SOL    HW237899   3.835   3.245  17.297  0.4663 -1.4970  1.7797
 8814SOL     OW37900   3.087   0.792   2.863 -0.5845 -0.1801  0.1593
 8814SOL    HW137901   3.105   0.698   2.875  0.2174 -0.0900 -0.4251
 8814SOL    HW237902   3.177   0.822   2.854  0.4963 -3.2756  0.3528
 8815SOL     OW37903   0.488   3.407  12.749  0.0611 -0.0767  0.1654
 8815SOL    HW137904   0.548   3.351  12.700 -2.1775 -1.2360 -1.2326
 8815SOL    HW237905   0.467   3.354  12.825 -0.4111 -1.4214 -0.9079
 8816SOL     OW37906   0.429   3.379  10.013  0.6815 -0.4089 -0.1198
 8816SOL    HW137907   0.434   3.283  10.014  0.2882 -0.4307 -0.5778
 8816SOL    HW237908   0.386   3.402   9.931  1.6252  1.4095 -0.1187
 8817SOL     OW37909   1.835   0.539   5.448  0.5898 -0.6298 -0.3422
 8817SOL    HW137910   1.809   0.597   5.377  0.2878  1.4639  1.4975
 8817SOL    HW237911   1.930   0.528   5.442  0.5769 -1.0628  0.2146
 8818SOL     OW37912   3.308   1.908   4.154  0.3426  0.6143  0.4209
 8818SOL    HW137913   3.255   1.831   4.134  2.4691 -0.8403  0.3312
 8818SOL    HW237914   3.385   1.862   4.188  0.0573  0.1241  0.3974
 8819SOL     OW37915   4.661   2.990  13.270 -0.3045  0.0249  0.0567
 8819SOL    HW137916   4.701   3.073  13.295  0.7532 -1.1881  2.3915
 8819SOL    HW237917   4.568   3.014  13.275 -0.6384 -1.2709  0.0183
 8820SOL     OW37918   3.993   1.886  10.317 -0.1608 -0.4620 -0.5424
 8820SOL    HW137919   3.926   1.855  10.256 -0.8052  0.4553 -0.3021
 8820SOL    HW237920   4.052   1.932  10.257 -0.6529  0.3338 -0.4169
 8821SOL     OW37921   3.245   3.107   3.736 -0.1332 -0.2672  0.3494
 8821SOL    HW137922   3.215   3.178   3.679 -2.1583 -0.5236  1.0983
 8821SOL    HW237923   3.309   3.147   3.795 -0.3958  1.9991 -0.9087
 8822SOL     OW37924   1.706   0.917   2.688  0.1374  0.3810  0.2404
 8822SOL    HW137925   1.636   0.956   2.634 -0.0123 -1.6622 -1.0445
 8822SOL    HW237926   1.746   0.998   2.718  1.1076 -0.4749  1.2267
 8823SOL     OW37927   4.654   2.165   9.028 -0.1489 -0.2508  0.0431
 8823SOL    HW137928   4.642   2.093   9.090 -1.9331 -0.0694 -0.0964
 8823SOL    HW237929   4.581   2.142   8.971 -0.7800  0.5928  0.5226
 8824SOL     OW37930   1.206   2.550  12.654 -0.3117 -0.1907 -0.4503
 8824SOL    HW137931   1.194   2.605  12.731  2.1317 -0.4221  0.0896
 8824SOL    HW237932   1.302   2.553  12.649 -0.4182  3.4364  0.0564
 8825SOL     OW37933   1.050   4.298   5.410  0.3761  0.4449 -0.2164
 8825SOL    HW137934   1.107   4.291   5.487  0.1455 -2.5919 -0.3024
 8825SOL    HW237935   1.034   4.391   5.424 -0.7431 -0.1465  2.4506
 8826SOL     OW37936   1.070   1.554   7.344 -0.4426 -0.0812  0.3893
 8826SOL    HW137937   1.028   1.604   7.413  0.3562 -0.8610  1.4517
 8826SOL    HW237938   0.999   1.528   7.285 -0.5805 -0.3187  0.6587
 8827SOL     OW37939   2.158   4.379   5.791  0.2472  0.1216  0.0472
 8827SOL    HW137940   2.172   4.306   5.851 -0.3015  0.6469  0.8069
 8827SOL    HW237941   2.220   4.439   5.833 -0.2718  1.1198 -0.6134
 8828SOL     OW37942   1.982   0.274   7.789  0.5287 -0.1052  0.6474
 8828SOL    HW137943   2.040   0.209   7.830  0.3531  0.0071  1.0750
 8828SOL    HW237944   1.966   0.334   7.862  1.3911 -0.1556  0.8798
 8829SOL     OW37945   1.793   2.133  15.823 -0.7433  0.1554 -0.0187
 8829SOL    HW137946   1.779   2.054  15.772  1.4478 -1.0558  1.2583
 8829SOL    HW237947   1.710   2.181  15.817 -0.9348 -0.1645  0.0624
 8830SOL     OW37948   0.063   4.491   8.585 -0.1846  0.5651 -0.2202
 8830SOL    HW137949   0.110   4.430   8.642  0.0795 -0.2010 -1.2780
 8830SOL    HW237950   4.703   4.441   8.583  0.0370  0.1855  0.3119
 8831SOL     OW37951   1.825   4.659   8.703 -0.1413 -0.2509  0.3559
 8831SOL    HW137952   1.812   4.616   8.619 -1.1204 -3.4657  2.1596
 8831SOL    HW237953   1.919   4.644   8.713  0.3400  1.5452 -1.5798
 8832SOL     OW37954   2.336   0.156   9.821  0.4570 -0.4350 -0.0241
 8832SOL    HW137955   2.382   0.175   9.902 -0.6487 -0.3218  0.5720
 8832SOL    HW237956   2.337   0.242   9.778  0.6383  0.4028  1.6435
 8833SOL     OW37957   3.002   3.461  15.272  0.2614 -0.3206 -0.4843
 8833SOL    HW137958   2.919   3.438  15.314 -0.5113 -0.2425 -1.9446
 8833SOL    HW237959   3.014   3.547  15.310 -4.0884  0.6160 -1.2280
 8834SOL     OW37960   3.539   2.936  12.822  1.1421  0.2915  0.0669
 8834SOL    HW137961   3.485   2.995  12.874 -0.2040  0.1178 -1.1472
 8834SOL    HW237962   3.466   2.887  12.785  1.7191 -0.8586  0.4720
 8835SOL     OW37963   3.385   0.770   1.366  0.5053 -0.2748 -0.2989
 8835SOL    HW137964   3.388   0.839   1.300  1.1642  0.8105  0.8582
 8835SOL    HW237965   3.313   0.720   1.327 -2.2700  2.7186  0.8809
 8836SOL     OW37966   3.554   0.256   5.040  0.6306  0.3714  0.2521
 8836SOL    HW137967   3.526   0.347   5.047  0.1570  0.1783  0.9260
 8836SOL    HW237968   3.646   0.264   5.063  0.3355 -2.2009  2.3424
 8837SOL     OW37969   0.059   2.129   7.538  0.7754 -0.0191 -0.1016
 8837SOL    HW137970   0.093   2.044   7.510  1.0609  0.6143 -1.6662
 8837SOL    HW237971   0.016   2.108   7.621 -0.3227  2.9282  0.0716
 8838SOL     OW37972   1.051   2.636  12.197 -0.4598  0.4988  0.1173
 8838SOL    HW137973   1.071   2.670  12.284  1.8529  1.2377 -0.7070
 8838SOL    HW237974   1.120   2.672  12.142  0.5209 -2.0154 -0.2675
 8839SOL     OW37975   0.921   1.845   9.430 -0.0512  0.1117  0.0630
 8839SOL    HW137976   1.010   1.879   9.430 -0.1513  0.3700 -0.1020
 8839SOL    HW237977   0.912   1.832   9.336 -0.0408 -0.1428  0.0973
 8840SOL     OW37978   2.149   0.641   7.233 -0.2801  0.1122 -0.2592
 8840SOL    HW137979   2.242   0.620   7.238 -0.2067  1.4299  4.6787
 8840SOL    HW237980   2.156   0.737   7.235  2.1860 -0.0854  0.3681
 8841SOL     OW37981   2.790   2.728   1.790 -0.3423  0.0424 -0.1710
 8841SOL    HW137982   2.855   2.735   1.720 -2.5261  1.5211 -2.0380
 8841SOL    HW237983   2.812   2.810   1.835 -0.5748  1.0450 -1.8675
 8842SOL     OW37984   1.726   3.271   5.539 -0.0117  0.2360  0.1670
 8842SOL    HW137985   1.744   3.267   5.633  0.1119 -1.0605  0.0898
 8842SOL    HW237986   1.651   3.214   5.524  1.4987 -2.0806  1.4418
 8843SOL     OW37987   1.363   3.341  15.230 -0.2036  0.5943  0.2409
 8843SOL    HW137988   1.421   3.417  15.227 -2.1210  1.9358 -3.0805
 8843SOL    HW237989   1.369   3.317  15.322  1.9322  1.5592  0.3459
 8844SOL     OW37990   0.192   1.421   7.014  0.2804  1.0953  0.3569
 8844SOL    HW137991   0.254   1.392   6.947  1.2488 -0.6626  2.0186
 8844SOL    HW237992   0.247   1.425   7.092  0.9879 -0.1646 -0.0704
 8845SOL     OW37993   0.547   0.372   7.200  0.0254  0.0377  0.2907
 8845SOL    HW137994   0.544   0.288   7.246 -2.0363  0.8513  1.6297
 8845SOL    HW237995   0.570   0.343   7.112  1.7493  0.6484  0.5351
 8846SOL     OW37996   0.136   1.242  12.978 -0.3084 -0.4474 -0.4216
 8846SOL    HW137997   0.100   1.177  12.918 -0.8789  0.5358 -1.1493
 8846SOL    HW237998   0.088   1.228  13.059  0.9664  3.9166  1.0548
 8847SOL     OW37999   0.197   3.599  10.798  0.2717 -0.2352 -0.7244
 8847SOL    HW138000   0.177   3.599  10.892  0.7395  4.0176 -0.6420
 8847SOL    HW238001   0.292   3.588  10.801  0.2655  0.0895  1.0496
 8848SOL     OW38002   0.466   0.740  13.388 -0.2282 -0.6594  0.1223
 8848SOL    HW138003   0.420   0.676  13.334 -0.4178  1.3290 -2.1073
 8848SOL    HW238004   0.550   0.694  13.384  0.3831  0.4042  0.6993
 8849SOL     OW38005   3.182   0.423  14.218 -0.5530  0.1820 -0.2683
 8849SOL    HW138006   3.251   0.370  14.257  0.1679  0.5116 -1.0996
 8849SOL    HW238007   3.160   0.493  14.279  2.4917  0.9393 -0.0425
 8850SOL     OW38008   3.202   1.844   7.458 -0.3644 -0.0436  0.3201
 8850SOL    HW138009   3.194   1.809   7.369  1.5180 -0.8999  0.4881
 8850SOL    HW238010   3.130   1.907   7.455  0.2353  0.5925 -0.6059
 8851SOL     OW38011   0.008   0.859   5.981 -0.5961  0.4065  0.1504
 8851SOL    HW138012   0.061   0.939   5.986  0.5034 -0.3080  0.0819
 8851SOL    HW238013   0.005   0.846   5.886  2.2344  0.9083 -0.0111
 8852SOL     OW38014   2.990   4.245  14.988 -0.1766 -0.1271 -0.2710
 8852SOL    HW138015   3.077   4.285  14.983 -0.6998  0.6515 -3.3069
 8852SOL    HW238016   2.976   4.240  15.082  0.5583 -1.0460 -0.2065
 8853SOL     OW38017   2.055   0.949   7.280 -0.5214 -0.0837  0.0402
 8853SOL    HW138018   2.060   0.977   7.372  0.6504  0.4174 -0.1840
 8853SOL    HW238019   2.118   1.004   7.233 -0.0181  2.3737  3.5695
 8854SOL     OW38020   3.325   3.655   6.165  0.2592 -0.4886 -0.0149
 8854SOL    HW138021   3.365   3.726   6.216 -0.0188 -0.5314  0.2589
 8854SOL    HW238022   3.291   3.597   6.233  3.7270  0.8316  2.8570
 8855SOL     OW38023   3.538   3.323  10.544 -0.0291  0.0190  0.1108
 8855SOL    HW138024   3.603   3.282  10.601 -2.3250 -1.5308  1.6333
 8855SOL    HW238025   3.595   3.392  10.511 -1.9266  1.2900 -0.5250
 8856SOL     OW38026   2.763   4.012   3.748  0.2352  0.3423  0.6057
 8856SOL    HW138027   2.839   4.039   3.696  1.4575 -0.7944  1.7704
 8856SOL    HW238028   2.770   3.919   3.770 -0.2886  0.2151  0.2222
 8857SOL     OW38029   1.866   2.824   4.315  0.1159  0.5483  0.7735
 8857SOL    HW138030   1.870   2.873   4.233 -0.8154 -0.2627  0.2392
 8857SOL    HW238031   1.825   2.743   4.285  0.0828  0.9612 -0.2921
 8858SOL     OW38032   3.445   0.074   3.788  0.2959 -0.0241  0.6922
 8858SOL    HW138033   3.448   0.066   3.693  0.2712  0.4261  0.6546
 8858SOL    HW238034   3.534   0.043   3.809  1.1604  1.9090 -0.1488
 8859SOL     OW38035   4.641   4.234   3.886 -0.2157 -0.1959  0.3108
 8859SOL    HW138036   4.563   4.243   3.832 -1.1668 -2.6855  1.2562
 8859SOL    HW238037   4.699   4.179   3.835 -0.4825 -0.4448  0.2730
 8860SOL     OW38038   1.659   4.061  12.029  0.1122  0.4199  0.1979
 8860SOL    HW138039   1.709   4.142  12.023 -1.1746  1.3559  2.1123
 8860SOL    HW238040   1.572   4.088  12.001 -0.2459  0.7199  1.6006
 8861SOL     OW38041   3.221   3.937   2.919 -0.1743  0.0890  0.1411
 8861SOL    HW138042   3.205   4.030   2.934  2.1647  0.5612 -0.2481
 8861SOL    HW238043   3.168   3.889   2.983  0.1976 -0.5619 -0.0310
 8862SOL     OW38044   3.350   1.630   8.050  0.0600 -0.0670  0.5966
 8862SOL    HW138045   3.364   1.663   7.961  1.3757 -0.1205  0.7796
 8862SOL    HW238046   3.255   1.622   8.051  0.1370 -1.1744 -0.1202
 8863SOL     OW38047   2.033   4.079   4.244 -0.0490 -0.1229 -0.5713
 8863SOL    HW138048   2.113   4.052   4.290  0.2212  3.1298  0.9247
 8863SOL    HW238049   1.993   4.134   4.311 -0.2486  0.1572 -0.9229
 8864SOL     OW38050   2.372   2.823   1.221 -0.4729 -0.1063  0.0041
 8864SOL    HW138051   2.306   2.777   1.272  0.4294  0.5944  1.7859
 8864SOL    HW238052   2.352   2.916   1.235  3.0194  0.8969 -1.7013
 8865SOL     OW38053   1.522   4.367  11.124  0.5350 -0.2015 -0.5503
 8865SOL    HW138054   1.528   4.457  11.091 -0.6458 -0.7132 -2.1851
 8865SOL    HW238055   1.610   4.338  11.100  1.3872  0.5157  1.7778
 8866SOL     OW38056   3.015   0.110   3.744  0.1756  0.1928 -0.9280
 8866SOL    HW138057   3.036   0.158   3.825 -1.5278  0.0990 -0.4434
 8866SOL    HW238058   2.940   0.057   3.768  0.0599  1.3236  1.2392
 8867SOL     OW38059   0.081   0.172   1.330 -0.3793 -0.1355 -0.3148
 8867SOL    HW138060   0.077   0.079   1.354  3.6322 -0.0896  0.4561
 8867SOL    HW238061   0.059   0.167   1.236 -0.5534 -0.1156 -0.2747
 8868SOL     OW38062   1.705   0.896   5.706 -0.3685 -0.0460 -0.3351
 8868SOL    HW138063   1.795   0.875   5.727 -1.0659 -1.7895  0.9147
 8868SOL    HW238064   1.680   0.944   5.784 -2.3616  0.8395 -1.5029
 8869SOL     OW38065   1.926   3.804   3.865 -0.8957  0.0669 -0.0277
 8869SOL    HW138066   1.912   3.712   3.844 -0.9573  0.3880 -1.3875
 8869SOL    HW238067   1.911   3.794   3.959  2.9457  1.1462  0.7271
 8870SOL     OW38068   4.501   3.808   8.818 -0.8847 -0.1822  0.3943
 8870SOL    HW138069   4.524   3.816   8.911  2.9475 -1.2915 -0.4990
 8870SOL    HW238070   4.567   3.748   8.784 -1.3263  0.6582 -1.9265
 8871SOL     OW38071   2.034   1.881   1.396 -0.4509 -0.1614  0.4313
 8871SOL    HW138072   2.107   1.846   1.448  0.5151  0.1739 -0.6997
 8871SOL    HW238073   2.025   1.968   1.436 -1.3619 -0.3957  0.7251
 8872SOL     OW38074   0.251   3.138   8.278 -0.7323  0.2347  0.2697
 8872SOL    HW138075   0.168   3.183   8.265 -0.6670  0.5023  0.8093
 8872SOL    HW238076   0.314   3.209   8.292 -2.8341  1.9581  0.9004
 8873SOL     OW38077   3.888   0.934   3.248  0.2141 -0.4186 -0.4287
 8873SOL    HW138078   3.966   0.925   3.193 -0.0951 -1.7553 -0.6531
 8873SOL    HW238079   3.923   0.984   3.321 -0.6583 -0.9477  0.3427
 8874SOL     OW38080   2.874   4.501   7.419  0.1844 -0.4292 -0.3119
 8874SOL    HW138081   2.855   4.440   7.348  0.8867 -0.2821 -0.6282
 8874SOL    HW238082   2.965   4.523   7.399 -0.9776  1.2475 -3.7583
 8875SOL     OW38083   1.911   2.319   1.618 -0.1578 -0.6524  0.0395
 8875SOL    HW138084   1.829   2.367   1.632  0.7888  0.4526  1.7425
 8875SOL    HW238085   1.974   2.354   1.681 -0.1022  0.0859 -0.4303
 8876SOL     OW38086   0.766   4.169   6.456 -0.0943 -0.3488  0.0075
 8876SOL    HW138087   0.834   4.146   6.519  0.0709 -2.6610 -1.0062
 8876SOL    HW238088   0.689   4.133   6.499 -1.7146 -0.3410 -2.8833
 8877SOL     OW38089   2.706   3.184  12.418  0.1623 -0.4094 -0.2144
 8877SOL    HW138090   2.743   3.202  12.332 -1.3163  2.9815 -0.1011
 8877SOL    HW238091   2.643   3.255  12.425 -2.0126 -2.3296 -0.0879
 8878SOL     OW38092   2.817   0.209  17.461  0.0692 -1.0261 -0.6927
 8878SOL    HW138093   2.831   0.182  17.371  1.1895 -1.6642 -0.3271
 8878SOL    HW238094   2.732   0.166  17.472 -0.4991 -0.0671 -1.4741
 8879SOL     OW38095   4.270   4.451   3.201  0.2324  0.5466  0.3294
 8879SOL    HW138096   4.354   4.492   3.182  1.6590 -2.4209  0.2002
 8879SOL    HW238097   4.254   4.402   3.120 -0.4910 -0.7725  1.2555
 8880SOL     OW38098   4.532   3.617  15.048  0.5925  0.0962 -0.4723
 8880SOL    HW138099   4.570   3.682  15.107 -1.3027  2.2652 -1.6283
 8880SOL    HW238100   4.454   3.668  15.026 -0.3668 -1.4856 -0.6787
 8881SOL     OW38101   3.235   2.285   2.885  0.3966 -0.2879 -0.4300
 8881SOL    HW138102   3.263   2.277   2.976  1.5587 -1.3777 -0.8807
 8881SOL    HW238103   3.176   2.210   2.879  0.1047 -0.2801  2.0792
 8882SOL     OW38104   4.425   2.066   6.200  0.1802  0.3413 -0.4171
 8882SOL    HW138105   4.452   2.117   6.276  1.1374 -0.6498 -0.0993
 8882SOL    HW238106   4.475   1.986   6.213 -1.5259 -0.8520 -1.2424
 8883SOL     OW38107   2.504   3.431   2.499  0.1734 -0.1399 -0.1171
 8883SOL    HW138108   2.474   3.392   2.581 -0.6921  0.3989 -0.1780
 8883SOL    HW238109   2.462   3.374   2.434 -0.2900  0.9660 -0.7794
 8884SOL     OW38110   3.139   3.316   2.457 -0.6720  0.0957  0.2380
 8884SOL    HW138111   3.229   3.284   2.465 -0.5363  0.1320 -1.0643
 8884SOL    HW238112   3.140   3.400   2.503 -3.1123  0.0897  0.2990
 8885SOL     OW38113   3.589   0.569   1.965  0.2385 -0.3496 -0.4503
 8885SOL    HW138114   3.496   0.575   1.942 -0.1991  0.0259  1.4364
 8885SOL    HW238115   3.608   0.628   2.037 -0.1833 -1.5008  0.6131
 8886SOL     OW38116   4.000   2.918  13.818 -0.2184 -1.2704  0.4810
 8886SOL    HW138117   3.962   2.873  13.742  0.7284  1.3267 -1.5264
 8886SOL    HW238118   3.992   3.008  13.785 -0.9013 -1.6696 -0.4417
 8887SOL     OW38119   1.957   0.636   4.975  0.1404 -0.1717 -0.4011
 8887SOL    HW138120   1.891   0.695   4.939  1.7305  2.1075  0.3726
 8887SOL    HW238121   2.031   0.661   4.919 -0.8794 -1.9127 -2.5170
 8888SOL     OW38122   0.244   0.210   2.466  0.2582 -0.0317 -0.0986
 8888SOL    HW138123   0.316   0.151   2.490  1.0728  0.4124 -1.4571
 8888SOL    HW238124   0.174   0.147   2.454 -0.2475  1.1029 -2.9598
 8889SOL     OW38125   0.094   2.853   6.365 -0.8470 -0.1944  0.3456
 8889SOL    HW138126   0.056   2.896   6.289  1.8201  0.1671 -0.7566
 8889SOL    HW238127   0.157   2.792   6.327 -0.9123 -0.0913  0.0755
 8890SOL     OW38128   4.287   2.277  12.871  0.4929 -1.0941 -0.5989
 8890SOL    HW138129   4.275   2.335  12.796  3.3114  2.8494  2.0299
 8890SOL    HW238130   4.214   2.301  12.929  2.2152  2.0117  0.2523
 8891SOL     OW38131   0.941   1.974   9.833 -0.1003 -0.4318 -0.3550
 8891SOL    HW138132   0.906   1.911   9.770  1.8162  0.2512 -2.1420
 8891SOL    HW238133   0.856   2.011   9.855  0.6663  0.2395  1.5254
 8892SOL     OW38134   1.226   3.458   6.419  0.1194  0.7648 -0.3349
 8892SOL    HW138135   1.271   3.449   6.335 -0.4552 -1.2004 -0.4267
 8892SOL    HW238136   1.164   3.527   6.396 -0.0886  0.5098 -0.5368
 8893SOL     OW38137   3.338   0.151   2.422 -0.4036 -0.4956  0.2976
 8893SOL    HW138138   3.369   0.213   2.357  0.0951 -1.7835 -0.7032
 8893SOL    HW238139   3.254   0.193   2.436 -0.6163 -1.0225  0.5907
 8894SOL     OW38140   0.291   4.487   3.469 -0.4792 -0.1780 -0.1329
 8894SOL    HW138141   0.336   4.567   3.442  0.1711 -0.7261 -0.6520
 8894SOL    HW238142   0.346   4.432   3.414 -0.9581 -0.8530  0.0596
 8895SOL     OW38143   3.341   2.580   0.116 -0.2838  0.3117 -0.0200
 8895SOL    HW138144   3.423   2.552   0.076  0.7232  3.5245 -0.2030
 8895SOL    HW238145   3.375   2.598   0.203  0.5939  1.0827 -0.5076
 8896SOL     OW38146   0.373   0.568   3.566  0.1125  0.1019  0.1012
 8896SOL    HW138147   0.359   0.480   3.531  0.2793 -0.6930  2.0286
 8896SOL    HW238148   0.393   0.622   3.490  1.0033  0.4439  0.5751
 8897SOL     OW38149   3.565   3.285   4.835 -0.2608  0.2092 -0.6526
 8897SOL    HW138150   3.626   3.266   4.907  0.8927 -2.2411 -2.2674
 8897SOL    HW238151   3.594   3.225   4.766  1.0701  1.3494 -1.0634
 8898SOL     OW38152   1.466   0.694   9.574  0.1017 -0.0157 -0.2229
 8898SOL    HW138153   1.508   0.614   9.608  2.3501  0.6757 -1.4023
 8898SOL    HW238154   1.490   0.680   9.483  3.2749  1.7453  0.3467
 8899SOL     OW38155   3.580   1.456   2.875 -0.5727 -1.1714  0.4991
 8899SOL    HW138156   3.638   1.393   2.833 -0.8072 -1.3016  0.3698
 8899SOL    HW238157   3.529   1.480   2.797 -0.1471 -1.7539  0.0449
 8900SOL     OW38158   3.237   1.467   3.574 -0.1040 -0.2153  0.1105
 8900SOL    HW138159   3.265   1.519   3.649 -1.5435 -1.8565  1.7707
 8900SOL    HW238160   3.253   1.377   3.604 -0.0277 -0.7127 -1.3816
 8901SOL     OW38161   1.797   0.153   7.032 -0.1006  0.0400 -0.3421
 8901SOL    HW138162   1.887   0.172   7.006  0.2981  0.0983  1.1015
 8901SOL    HW238163   1.779   0.071   6.986  1.1409 -0.2785 -0.2579
 8902SOL     OW38164   1.548   4.151   0.534 -0.6360 -0.5056 -0.0565
 8902SOL    HW138165   1.465   4.185   0.567 -0.5291 -0.2017 -0.1034
 8902SOL    HW238166   1.528   4.067   0.492 -0.9198 -0.3216 -0.2926
 8903SOL     OW38167   0.391   2.219   1.633 -0.5816  0.1579  0.1542
 8903SOL    HW138168   0.482   2.245   1.618 -0.1916  1.1176  4.2295
 8903SOL    HW238169   0.404   2.145   1.691 -1.1793 -0.5434 -0.6086
 8904SOL     OW38170   2.483   4.287   7.472 -0.4710  0.0985  0.5274
 8904SOL    HW138171   2.432   4.272   7.552  1.0264  1.6013  1.7767
 8904SOL    HW238172   2.566   4.251   7.504 -1.1202 -1.9473 -0.0890
 8905SOL     OW38173   0.162   4.368   0.667  0.0390 -0.7434  0.5493
 8905SOL    HW138174   0.113   4.311   0.608 -2.4985  1.9563  0.0255
 8905SOL    HW238175   0.196   4.432   0.604 -0.6275 -0.6030  0.3365
 8906SOL     OW38176   1.941   3.726   4.125 -0.3571  0.2580  0.4005
 8906SOL    HW138177   1.891   3.806   4.142 -0.8087 -0.1927  1.2066
 8906SOL    HW238178   1.888   3.659   4.169 -0.6331  1.2109  1.5494
 8907SOL     OW38179   4.526   1.883   5.535  0.6452 -0.2990 -0.4373
 8907SOL    HW138180   4.435   1.856   5.540  0.3398  1.0841  1.6574
 8907SOL    HW238181   4.529   1.923   5.448  2.3469 -0.2163 -0.3446
 8908SOL     OW38182   2.160   1.030  11.788  0.1535  0.2477 -0.0409
 8908SOL    HW138183   2.099   0.980  11.734  0.5709 -0.6664  0.3274
 8908SOL    HW238184   2.204   0.965  11.843  2.3563  1.5035 -0.3435
 8909SOL     OW38185   3.352   4.022   9.889  0.1101  0.7320  0.3181
 8909SOL    HW138186   3.413   3.948   9.898 -2.6425 -1.7448 -1.3630
 8909SOL    HW238187   3.403   4.092   9.928  1.0623  0.9950 -1.3872
 8910SOL     OW38188   3.964   4.107  17.521  0.1401 -0.7400  0.0867
 8910SOL    HW138189   3.925   4.135  17.604  1.2079  0.2351  0.2447
 8910SOL    HW238190   3.916   4.145  17.448  1.8456  0.1807 -0.5408
 8911SOL     OW38191   0.709   2.059   9.505 -0.0740 -0.0241  0.3435
 8911SOL    HW138192   0.791   2.014   9.483 -0.6328 -1.3820  1.0318
 8911SOL    HW238193   0.644   2.040   9.438 -0.6825  0.9214  0.6748
 8912SOL     OW38194   2.282   3.071  16.634  0.2467 -0.2764 -0.0165
 8912SOL    HW138195   2.243   3.030  16.557  1.2898  1.8955 -1.6708
 8912SOL    HW238196   2.213   3.134  16.654 -2.6239 -3.4272  0.0500
 8913SOL     OW38197   1.724   2.067   5.225  0.2438  0.0250 -0.2444
 8913SOL    HW138198   1.770   2.090   5.305  0.9486  0.6599 -0.8383
 8913SOL    HW238199   1.781   2.109   5.160 -0.0651  2.6257  1.1883
 8914SOL     OW38200   0.021   0.065   7.376 -0.1674 -0.6759  0.0524
 8914SOL    HW138201   4.704   4.719   7.432  0.1207 -1.4216 -0.6386
 8914SOL    HW238202   0.022   0.023   7.290 -1.6381  0.4930 -0.5136
 8915SOL     OW38203   2.164   0.918   1.089  0.7827 -0.2668 -0.5185
 8915SOL    HW138204   2.244   0.960   1.122 -1.8288  1.1204  4.1384
 8915SOL    HW238205   2.210   0.887   1.011  0.4484  0.0902 -0.8590
 8916SOL     OW38206   0.198   2.428  14.951  0.5112 -0.1230  0.0275
 8916SOL    HW138207   0.204   2.472  14.867 -2.4272 -0.2064 -0.2048
 8916SOL    HW238208   0.249   2.347  14.941  0.3004 -0.3588  0.8422
 8917SOL     OW38209   1.692   2.401   9.322 -0.3971  0.8415  0.1017
 8917SOL    HW138210   1.668   2.494   9.317 -2.0765  0.5115  2.0224
 8917SOL    HW238211   1.785   2.405   9.343 -0.9491 -0.1860  2.7681
 8918SOL     OW38212   0.285   3.067   5.227 -0.7220  0.0643  0.3801
 8918SOL    HW138213   0.239   3.146   5.254 -1.5044 -0.6212  1.0398
 8918SOL    HW238214   0.340   3.058   5.305  1.2070 -1.1980 -1.1313
 8919SOL     OW38215   4.333   0.505   3.702 -0.6721 -0.0271  0.4215
 8919SOL    HW138216   4.357   0.540   3.616  2.5145 -0.0549  1.2955
 8919SOL    HW238217   4.385   0.558   3.764 -0.2685  0.9530 -0.7551
 8920SOL     OW38218   2.075   0.722  13.376 -0.4704  0.3758  0.0431
 8920SOL    HW138219   2.142   0.655  13.390 -1.2018 -0.1609  1.0040
 8920SOL    HW238220   2.005   0.663  13.346  1.9052 -3.4219  1.9183
 8921SOL     OW38221   0.121   2.991  15.868 -0.2537  0.0297 -0.1031
 8921SOL    HW138222   0.212   2.992  15.838  0.2141  1.1487  1.3395
 8921SOL    HW238223   0.096   2.900  15.857 -1.6885  0.3100  0.8891
 8922SOL     OW38224   0.235   4.587   2.986  0.0579  0.1407  0.1178
 8922SOL    HW138225   0.175   4.512   2.987 -1.2465  1.1684 -0.8195
 8922SOL    HW238226   0.189   4.640   2.921  0.1343 -0.1824 -0.1999
 8923SOL     OW38227   0.877   1.796   7.309 -0.3160 -0.6341  0.7221
 8923SOL    HW138228   0.913   1.708   7.297  1.0434 -0.3587  2.8322
 8923SOL    HW238229   0.845   1.836   7.228  2.7777  1.1791  0.3930
 8924SOL     OW38230   2.577   0.350   0.809 -0.0830  0.4106  0.1101
 8924SOL    HW138231   2.644   0.314   0.751 -0.3938  0.8830 -0.5388
 8924SOL    HW238232   2.536   0.267   0.832  0.1652 -0.2442 -1.8998
 8925SOL     OW38233   0.688   0.531   3.717 -0.2522  0.0229  0.0210
 8925SOL    HW138234   0.709   0.595   3.649 -0.4281 -1.5686 -1.5218
 8925SOL    HW238235   0.606   0.501   3.678 -0.4927  0.2675  0.3307
 8926SOL     OW38236   3.143   0.443   0.533 -0.4774 -0.1017  0.1328
 8926SOL    HW138237   3.093   0.503   0.477  0.5176  0.1346 -0.5046
 8926SOL    HW238238   3.139   0.480   0.621  0.6659 -0.2294  0.2331
 8927SOL     OW38239   1.031   4.356   1.550 -0.7324 -0.0272 -0.0709
 8927SOL    HW138240   0.959   4.390   1.495  0.1011  1.0436 -0.5108
 8927SOL    HW238241   1.020   4.417   1.623 -0.2605  1.8391 -1.5422
 8928SOL     OW38242   2.386   4.546   3.086 -0.5250 -0.0648 -0.2271
 8928SOL    HW138243   2.335   4.465   3.087 -1.2754  0.4106  2.5855
 8928SOL    HW238244   2.451   4.537   3.156 -1.5465 -0.0100  0.7491
 8929SOL     OW38245   0.208   0.767   5.259 -0.0595 -0.2936  0.1203
 8929SOL    HW138246   0.253   0.822   5.323  1.5091 -1.0160 -0.3583
 8929SOL    HW238247   0.261   0.687   5.271  2.1201  0.9100 -1.4787
 8930SOL     OW38248   0.176   4.614   8.938 -0.0828 -0.3389  0.5456
 8930SOL    HW138249   0.094   4.650   8.973 -0.6704 -0.9504 -0.1997
 8930SOL    HW238250   0.222   4.655   9.010 -1.2887  0.9258  0.6090
 8931SOL     OW38251   0.018   0.010   6.446 -0.2555  0.2721 -0.1008
 8931SOL    HW138252   0.009   4.645   6.485  0.2280  0.1581 -0.2427
 8931SOL    HW238253   4.688   4.716   6.367  2.4714  0.2907 -1.8529
 8932SOL     OW38254   1.350   2.679   6.285 -0.1044  0.9655  0.2019
 8932SOL    HW138255   1.382   2.754   6.234  1.2138  0.9714  1.0337
 8932SOL    HW238256   1.396   2.608   6.240 -2.3475 -1.1546  1.2477
 8933SOL     OW38257   1.766   0.234  13.291  0.4899  0.4343  0.3703
 8933SOL    HW138258   1.746   0.278  13.374 -0.6185  0.4499  0.0981
 8933SOL    HW238259   1.696   0.259  13.231  1.0756  0.4499 -0.2980
 8934SOL     OW38260   1.745   1.959  11.124 -0.1130  0.2351 -0.3817
 8934SOL    HW138261   1.826   1.931  11.080 -0.3218 -0.3701 -0.3749
 8934SOL    HW238262   1.709   1.876  11.155  1.0412 -0.3062 -0.4868
 8935SOL     OW38263   3.754   3.789   2.774 -0.0646  0.0212 -0.1860
 8935SOL    HW138264   3.688   3.731   2.811 -0.6349  1.4040  0.9522
 8935SOL    HW238265   3.754   3.755   2.684  0.8565 -1.7516  0.4898
 8936SOL     OW38266   3.007   0.865   8.197 -0.3719  0.1897 -0.3482
 8936SOL    HW138267   3.010   0.955   8.167  1.8204 -0.3604 -1.7769
 8936SOL    HW238268   3.095   0.843   8.166 -1.2168 -2.5995 -0.8119
 8937SOL     OW38269   0.177   0.871   3.323 -0.2030 -0.3816  0.2921
 8937SOL    HW138270   0.134   0.814   3.387 -0.7223  1.2996  1.4507
 8937SOL    HW238271   0.110   0.868   3.255  0.2414  0.9956 -0.2107
 8938SOL     OW38272   3.010   2.667   8.096  0.2672 -0.4100  0.0617
 8938SOL    HW138273   2.989   2.727   8.024 -1.7867 -1.8418 -0.5198
 8938SOL    HW238274   3.097   2.642   8.067  0.3493  1.4793 -1.3800
 8939SOL     OW38275   4.217   2.445   2.322  0.6966  0.3789 -0.1354
 8939SOL    HW138276   4.160   2.399   2.383 -1.1110  1.4731 -0.9975
 8939SOL    HW238277   4.157   2.452   2.248  0.4385 -0.7881 -0.0361
 8940SOL     OW38278   2.841   3.652   1.037  0.2590 -0.6030 -0.0265
 8940SOL    HW138279   2.816   3.571   1.082  0.4876 -0.6155  0.0757
 8940SOL    HW238280   2.806   3.625   0.952  0.1493  0.1156 -0.2044
 8941SOL     OW38281   3.357   2.189   0.017  0.2379  0.2334 -0.1111
 8941SOL    HW138282   3.315   2.112  17.668 -1.3061 -0.3566  2.8226
 8941SOL    HW238283   3.443   2.161   0.049  1.2141 -0.5236 -3.4548
 8942SOL     OW38284   2.712   4.350  13.118  0.6656  0.4682 -0.1796
 8942SOL    HW138285   2.804   4.375  13.103  0.9437 -0.7307 -0.4620
 8942SOL    HW238286   2.714   4.274  13.061 -0.0217  0.2402  0.1073
 8943SOL     OW38287   1.194   2.629   1.997  0.2350  0.2803 -0.0268
 8943SOL    HW138288   1.190   2.696   1.929  0.2954  0.4403  0.1267
 8943SOL    HW238289   1.166   2.550   1.950  1.0956 -1.1354  1.8408
 8944SOL     OW38290   2.237   2.441   2.589  0.0931  0.2329 -0.4513
 8944SOL    HW138291   2.148   2.435   2.554 -0.5377  1.9487  0.9018
 8944SOL    HW238292   2.268   2.529   2.568 -0.5273  0.4324 -0.5356
 8945SOL     OW38293   2.906   4.090   4.023  0.0228  0.0294 -0.3202
 8945SOL    HW138294   2.878   4.075   3.932 -1.8770  2.4729 -0.1355
 8945SOL    HW238295   2.818   4.086   4.062 -0.1544  1.1107 -0.6202
 8946SOL     OW38296   2.693   4.326   5.886  0.2284  0.2108 -0.6732
 8946SOL    HW138297   2.730   4.287   5.807 -3.0609 -1.4470 -1.3871
 8946SOL    HW238298   2.702   4.253   5.947 -0.8320  0.1707 -0.5773
 8947SOL     OW38299   3.313   3.421  17.143 -0.2487 -0.1355  0.3561
 8947SOL    HW138300   3.258   3.497  17.160 -0.4819 -0.0175 -0.9613
 8947SOL    HW238301   3.267   3.375  17.073 -0.0283  0.7267 -0.3524
 8948SOL     OW38302   2.238   3.105   8.059 -0.2695  0.1647 -0.2263
 8948SOL    HW138303   2.265   3.025   8.105  2.6232  0.7765 -0.8740
 8948SOL    HW238304   2.326   3.134   8.034  0.0063 -1.4415 -1.1334
 8949SOL     OW38305   1.461   0.352   8.903 -0.1622 -0.1064 -0.0021
 8949SOL    HW138306   1.415   0.418   8.850 -1.3172  0.2072  1.3644
 8949SOL    HW238307   1.441   0.278   8.846  0.7383 -0.4278  0.1069
 8950SOL     OW38308   4.551   4.599   3.181 -0.5122  0.0662  0.3467
 8950SOL    HW138309   4.543   4.694   3.192 -0.1552 -0.0678  1.7784
 8950SOL    HW238310   4.630   4.584   3.234 -0.8040  1.5107  1.1813
 8951SOL     OW38311   3.944   3.689   1.085  0.1572  0.3641  0.1996
 8951SOL    HW138312   3.953   3.712   1.177 -0.7150  0.2523  0.3116
 8951SOL    HW238313   3.898   3.766   1.051 -1.5721 -0.9127 -0.3790
 8952SOL     OW38314   0.359   1.035   0.756  0.0814 -0.0644 -0.1782
 8952SOL    HW138315   0.315   1.096   0.696 -2.6614 -0.8994  0.9688
 8952SOL    HW238316   0.308   1.066   0.831  0.4328  2.2399 -0.9002
 8953SOL     OW38317   1.759   3.474  14.583 -0.9099 -0.0998  0.3445
 8953SOL    HW138318   1.827   3.419  14.543 -1.4725 -0.6637  0.1546
 8953SOL    HW238319   1.741   3.419  14.659  0.9888  0.0033  0.8698
 8954SOL     OW38320   1.680   1.732  10.834 -0.1039 -0.1952 -0.2141
 8954SOL    HW138321   1.727   1.650  10.846  1.0052 -0.1417 -4.1848
 8954SOL    HW238322   1.648   1.761  10.919  1.1173 -0.6275  0.4038
 8955SOL     OW38323   2.485   3.934   3.699 -0.4624  0.4339 -0.1017
 8955SOL    HW138324   2.568   3.942   3.747  0.2963  0.9810 -1.5011
 8955SOL    HW238325   2.416   3.972   3.754 -2.6519  0.0035 -2.5690
 8956SOL     OW38326   3.674   3.287   9.511  0.0839  0.0142  0.5012
 8956SOL    HW138327   3.671   3.266   9.418 -0.1602  0.8863  0.3070
 8956SOL    HW238328   3.678   3.202   9.554  0.1371 -0.3685 -0.2660
 8957SOL     OW38329   3.703   1.422   4.714 -0.3372 -0.1752  0.0528
 8957SOL    HW138330   3.690   1.471   4.632  1.8636 -1.5696 -1.1513
 8957SOL    HW238331   3.779   1.459   4.758  1.3385 -1.5251 -1.6723
 8958SOL     OW38332   0.152   2.702   0.953 -0.4157 -0.0524 -0.4486
 8958SOL    HW138333   0.120   2.699   0.863 -2.7453  3.6394  0.2589
 8958SOL    HW238334   0.092   2.636   0.987 -1.5210  0.8046 -0.7322
 8959SOL     OW38335   1.617   4.286   7.628 -0.1992 -0.0191 -0.0439
 8959SOL    HW138336   1.676   4.300   7.555  2.5741 -2.8614  1.6665
 8959SOL    HW238337   1.625   4.192   7.648  0.2538 -0.0691 -0.4804
 8960SOL     OW38338   1.775   2.650   9.722 -0.0754  0.6830  0.0077
 8960SOL    HW138339   1.870   2.662   9.723  0.2301 -1.7277  0.4485
 8960SOL    HW238340   1.789   2.556   9.710  1.9378  1.1673 -1.4908
 8961SOL     OW38341   2.368   1.198  11.699 -0.4656 -0.4125 -0.4103
 8961SOL    HW138342   2.300   1.134  11.717 -1.4512  0.9302  0.6862
 8961SOL    HW238343   2.438   1.139  11.727 -0.1277 -0.2925 -1.0066
 8962SOL     OW38344   4.151   0.638   6.532  0.1347  0.0187 -0.0994
 8962SOL    HW138345   4.240   0.622   6.502  1.1748  2.1936  1.7990
 8962SOL    HW238346   4.114   0.551   6.521 -1.3862  0.4913  1.3045
 8963SOL     OW38347   1.714   1.734  17.190  0.0812 -0.9383 -0.3802
 8963SOL    HW138348   1.662   1.714  17.267  1.4074  0.5323  0.9021
 8963SOL    HW238349   1.773   1.805  17.217 -0.5060 -0.5121 -0.2163
 8964SOL     OW38350   2.747   2.557  11.502 -0.4534 -0.2302 -0.0938
 8964SOL    HW138351   2.686   2.626  11.474  1.5544  1.3318 -0.6199
 8964SOL    HW238352   2.677   2.493  11.520 -0.1833 -1.0839 -2.1491
 8965SOL     OW38353   1.228   3.746   7.763  0.1043  0.0165  0.4629
 8965SOL    HW138354   1.214   3.767   7.856 -1.4790  1.7260 -0.1531
 8965SOL    HW238355   1.324   3.754   7.758  0.2796 -2.1579  0.5848
 8966SOL     OW38356   0.355   3.790  12.319 -0.3569  0.8627 -0.1104
 8966SOL    HW138357   0.276   3.781  12.372 -1.4189 -1.0954 -2.0347
 8966SOL    HW238358   0.398   3.709  12.347 -1.1757  0.7687  0.8795
 8967SOL     OW38359   3.746   4.385   2.117 -0.3818 -0.0057 -0.6423
 8967SOL    HW138360   3.834   4.350   2.127  0.4262  2.1410 -0.1157
 8967SOL    HW238361   3.689   4.314   2.146  1.4884 -0.6414  1.4592
 8968SOL     OW38362   2.650   3.619   5.417  0.0014 -0.0184 -0.3669
 8968SOL    HW138363   2.726   3.566   5.391  0.5767  0.9115 -0.5572
 8968SOL    HW238364   2.668   3.691   5.357 -2.2728  0.1917 -0.8025
 8969SOL     OW38365   3.485   0.646   7.875 -0.2891  0.0238  0.0002
 8969SOL    HW138366   3.552   0.605   7.930  1.0267  0.5981 -1.1582
 8969SOL    HW238367   3.515   0.737   7.879 -1.7752  0.3528  4.2821
 8970SOL     OW38368   1.401   3.790   2.496  0.0730  0.0228  0.2094
 8970SOL    HW138369   1.343   3.733   2.446 -0.6455  0.0073  1.0779
 8970SOL    HW238370   1.480   3.787   2.442 -0.3228  1.0140 -0.4317
 8971SOL     OW38371   0.552   4.180   2.834 -0.9063  0.4702  0.6310
 8971SOL    HW138372   0.645   4.180   2.809 -1.2809 -1.6219 -0.7898
 8971SOL    HW238373   0.557   4.232   2.914 -1.7134  0.1125  0.9041
 8972SOL     OW38374   0.331   3.884  16.750  0.2634 -0.0969  0.0603
 8972SOL    HW138375   0.365   3.858  16.665 -1.7818 -0.4949 -0.6269
 8972SOL    HW238376   0.415   3.874  16.796 -0.3648 -3.9031  0.3714
 8973SOL     OW38377   3.737   3.245  16.678  0.4299  0.1226  0.3757
 8973SOL    HW138378   3.801   3.196  16.626 -1.0423 -1.3470 -0.0605
 8973SOL    HW238379   3.696   3.186  16.741 -0.4189  2.5741  2.1406
 8974SOL     OW38380   3.920   1.119   3.891 -0.7700 -0.2376 -0.3430
 8974SOL    HW138381   3.875   1.128   3.807 -0.2059  1.2156 -0.4903
 8974SOL    HW238382   4.001   1.168   3.878 -0.7091 -0.5782 -1.2142
 8975SOL     OW38383   2.121   4.057  15.368  0.4758 -0.0762  0.4836
 8975SOL    HW138384   2.155   4.119  15.433  1.7248 -1.5722  1.2501
 8975SOL    HW238385   2.200   4.014  15.334 -0.1245 -0.8252  0.0181
 8976SOL     OW38386   2.855   3.474   2.508  0.0616  0.1995 -0.1854
 8976SOL    HW138387   2.885   3.402   2.563 -2.7074 -0.7572  0.0874
 8976SOL    HW238388   2.793   3.422   2.456  0.4794 -0.2434 -0.2340
 8977SOL     OW38389   2.888   4.095   9.503  0.4562 -0.3331 -0.5105
 8977SOL    HW138390   2.954   4.091   9.435  0.6249 -1.0446 -0.3039
 8977SOL    HW238391   2.917   4.163   9.564  1.1121 -0.6793 -0.4378
 8978SOL     OW38392   1.819   2.175   1.385 -0.3158 -0.1751  0.0800
 8978SOL    HW138393   1.821   2.264   1.349 -2.8750  0.8054  2.3397
 8978SOL    HW238394   1.822   2.198   1.478  1.2330  5.2031 -1.3218
 8979SOL     OW38395   2.284   1.783   2.033  0.0035  0.1664  0.3025
 8979SOL    HW138396   2.198   1.781   2.073 -0.8753  1.0375 -1.5247
 8979SOL    HW238397   2.325   1.731   2.102 -0.4220 -0.5252  0.0333
 8980SOL     OW38398   2.037   1.017  14.619 -0.3237  0.1785  0.0978
 8980SOL    HW138399   2.065   1.100  14.581 -0.7379  0.9938  1.5506
 8980SOL    HW238400   2.055   1.038  14.711 -0.4649  0.9622 -0.0568
 8981SOL     OW38401   0.790   0.859   5.316  0.1434 -0.0078 -0.8987
 8981SOL    HW138402   0.847   0.873   5.240  1.9758  1.3463  0.7557
 8981SOL    HW238403   0.766   0.950   5.336  0.8588 -0.6156  2.7024
 8982SOL     OW38404   2.099   2.207   1.891  0.1604  0.1946 -0.1479
 8982SOL    HW138405   2.193   2.212   1.873  0.7728 -4.0448  1.8158
 8982SOL    HW238406   2.097   2.134   1.954 -1.0110 -0.7013 -1.2141
 8983SOL     OW38407   3.258   0.875   5.031  0.2179  0.6768 -0.1338
 8983SOL    HW138408   3.272   0.931   5.108  0.3664  0.5776 -0.0895
 8983SOL    HW238409   3.178   0.828   5.054  0.7879  1.0332  2.6822
 8984SOL     OW38410   2.731   0.212   1.831  0.6017 -0.2021 -0.8064
 8984SOL    HW138411   2.748   0.270   1.906  0.9046 -0.3154 -0.7907
 8984SOL    HW238412   2.642   0.182   1.849  0.5800  0.2404 -0.1364
 8985SOL     OW38413   2.696   0.058  11.203 -0.5385  1.2547 -0.2111
 8985SOL    HW138414   2.770   0.002  11.180  0.8696  3.0449 -0.0303
 8985SOL    HW238415   2.741   0.142  11.193  1.5124  0.3047  1.0091
 8986SOL     OW38416   4.332   0.556   1.357  0.3222  0.0734  0.4996
 8986SOL    HW138417   4.319   0.576   1.450 -1.0563  0.9240  0.1227
 8986SOL    HW238418   4.243   0.546   1.325  0.6161 -1.4962  0.1721
 8987SOL     OW38419   2.035   1.514   8.766 -0.4073  0.4220  0.3043
 8987SOL    HW138420   2.041   1.509   8.670 -0.4607  0.8265  0.2810
 8987SOL    HW238421   1.960   1.572   8.776 -1.4934 -1.1702  1.3241
 8988SOL     OW38422   1.205   0.034   8.917  0.4602 -0.2412 -0.3412
 8988SOL    HW138423   1.141   0.015   8.986  0.1256  0.0284 -0.5785
 8988SOL    HW238424   1.285   0.009   8.964 -0.8770 -0.9519  1.5901
 8989SOL     OW38425   0.390   1.293   3.911 -0.7550 -0.5107 -0.1634
 8989SOL    HW138426   0.486   1.294   3.906 -0.8909  1.0745 -2.3296
 8989SOL    HW238427   0.370   1.210   3.869 -0.4799 -1.1215  0.9141
 8990SOL     OW38428   1.226   1.355   4.477 -0.3417 -0.3253  0.2608
 8990SOL    HW138429   1.147   1.313   4.513  0.3249 -2.8947 -1.2006
 8990SOL    HW238430   1.206   1.373   4.385 -0.9095  2.2877  0.9071
 8991SOL     OW38431   2.077   2.526   6.243  0.4083 -0.0962  0.0745
 8991SOL    HW138432   2.144   2.496   6.181  2.6607  2.2773  1.3437
 8991SOL    HW238433   2.008   2.557   6.185 -0.7091  0.6204  1.8074
 8992SOL     OW38434   2.346   2.943   6.392 -0.3627 -0.1379  0.2712
 8992SOL    HW138435   2.254   2.966   6.379  0.0869  0.1259 -2.4797
 8992SOL    HW238436   2.382   3.024   6.357 -0.3348 -0.3324 -0.1547
 8993SOL     OW38437   2.521   4.016  13.789  0.0301 -0.0311  0.3075
 8993SOL    HW138438   2.546   4.061  13.708 -1.3801  1.6351  0.8071
 8993SOL    HW238439   2.428   4.000  13.775 -0.0628 -0.4489  1.4155
 8994SOL     OW38440   0.861   2.263   9.624  0.4590  0.0670  0.4637
 8994SOL    HW138441   0.801   2.257   9.698  0.0760  1.0985  0.2344
 8994SOL    HW238442   0.817   2.193   9.576  1.9530 -0.2822 -0.4196
 8995SOL     OW38443   4.547   0.344   1.615  0.4585 -0.0027  0.0327
 8995SOL    HW138444   4.603   0.421   1.604  1.9628 -1.4556 -2.4459
 8995SOL    HW238445   4.516   0.336   1.525  0.3206 -1.1428  0.1870
 8996SOL     OW38446   4.131   3.838  15.163 -0.6132  0.0485 -0.3050
 8996SOL    HW138447   4.219   3.866  15.186  0.0767 -0.9254 -1.7110
 8996SOL    HW238448   4.149   3.751  15.127 -0.2522 -0.0520  0.1188
 8997SOL     OW38449   1.746   3.652   3.516 -0.4006 -0.4468  0.1371
 8997SOL    HW138450   1.737   3.734   3.564  1.0362 -0.8022  1.0136
 8997SOL    HW238451   1.834   3.659   3.478 -1.0191  0.4930 -1.1394
 8998SOL     OW38452   0.042   0.128   8.565  0.0886  0.1248  0.0461
 8998SOL    HW138453   4.678   0.114   8.606  1.4183 -0.6491  2.5574
 8998SOL    HW238454   0.004   0.133   8.477 -0.2501 -0.5565  0.1619
 8999SOL     OW38455   2.334   3.548   1.950  0.4728  0.5004  0.5319
 8999SOL    HW138456   2.276   3.623   1.935  2.4176  1.7220 -0.8139
 8999SOL    HW238457   2.358   3.531   1.859  3.0773 -1.8358  1.6726
 9000SOL     OW38458   1.385   2.182   0.352 -0.0070 -0.0346  0.1433
 9000SOL    HW138459   1.360   2.092   0.334 -0.3928 -0.1351  1.1728
 9000SOL    HW238460   1.315   2.239   0.320  1.9905  1.9435 -0.6901
 9001SOL     OW38461   0.610   0.035   2.249  0.4755  0.2916 -0.3728
 9001SOL    HW138462   0.663   0.112   2.229  3.0698 -1.7632 -1.5711
 9001SOL    HW238463   0.665   4.685   2.216 -0.8599 -0.7025 -0.4585
 9002SOL     OW38464   3.015   3.022   0.216  0.2136  0.0717 -0.5533
 9002SOL    HW138465   3.016   2.936   0.258  0.3420  0.3315 -0.0334
 9002SOL    HW238466   2.936   3.054   0.258 -0.0122  2.7172 -3.0059
 9003SOL     OW38467   0.682   0.929   7.661  0.2616 -0.0609  0.0816
 9003SOL    HW138468   0.721   0.854   7.615 -1.8801 -0.7504 -0.6111
 9003SOL    HW238469   0.588   0.910   7.667  0.4504 -0.6379  1.2636
 9004SOL     OW38470   0.263   1.315  12.187 -0.0877  0.1557 -0.0742
 9004SOL    HW138471   0.315   1.293  12.110 -0.4483 -4.3033  0.9900
 9004SOL    HW238472   0.255   1.406  12.157 -0.8427  0.2679  0.4699
 9005SOL     OW38473   1.825   2.487   3.489  0.7833  0.1672 -0.2948
 9005SOL    HW138474   1.763   2.484   3.562  0.3379 -2.4596 -0.7622
 9005SOL    HW238475   1.766   2.515   3.419  0.4391  1.0994  0.3658
 9006SOL     OW38476   2.495   2.013   1.684 -0.1340 -0.7630  0.0454
 9006SOL    HW138477   2.560   1.983   1.621  0.2557 -0.2225  0.1934
 9006SOL    HW238478   2.463   1.929   1.717  1.1095 -1.1890  0.1778
 9007SOL     OW38479   1.536   3.468   0.005 -0.8999  0.3319 -0.0155
 9007SOL    HW138480   1.468   3.524   0.041  0.7169  1.9331  0.5350
 9007SOL    HW238481   1.611   3.527  17.686  0.4507 -1.2956  0.4951
 9008SOL     OW38482   4.370   3.943   9.870 -0.1988 -0.1103  0.5030
 9008SOL    HW138483   4.369   3.969   9.778 -1.6696  0.4781  0.6929
 9008SOL    HW238484   4.277   3.922   9.876 -0.8449  1.9734 -2.3941
 9009SOL     OW38485   0.093   1.795   2.772 -0.2813  0.1344 -0.1355
 9009SOL    HW138486   0.131   1.865   2.719  0.1159 -1.7257 -2.3273
 9009SOL    HW238487   0.178   1.756   2.793 -0.5958  0.7460  2.2310
 9010SOL     OW38488   3.287   0.659  15.703  0.1249  0.4055  0.0540
 9010SOL    HW138489   3.320   0.634  15.616  2.0451  0.3659  0.7828
 9010SOL    HW238490   3.353   0.614  15.756 -0.3254 -1.4368 -0.9544
 9011SOL     OW38491   0.005   3.230   6.947  0.0759  0.8101 -0.6025
 9011SOL    HW138492   4.639   3.204   6.918  0.9668 -0.6200 -1.9605
 9011SOL    HW238493   4.719   3.214   7.041  0.7855 -0.7275 -0.8082
 9012SOL     OW38494   4.214   4.252   3.823 -0.0474  0.5370 -0.0194
 9012SOL    HW138495   4.205   4.250   3.919  3.4914  0.5809  0.3200
 9012SOL    HW238496   4.281   4.317   3.803  0.9131  0.3581  2.5209
 9013SOL     OW38497   0.876   4.449   6.031  0.4935 -0.4410 -0.0124
 9013SOL    HW138498   0.884   4.363   5.990 -0.3975 -0.1450 -0.8322
 9013SOL    HW238499   0.891   4.502   5.952 -0.1678 -0.2517 -0.0150
 9014SOL     OW38500   0.041   2.220   6.118  0.1216  0.6575  0.2955
 9014SOL    HW138501   0.018   2.143   6.170  1.5266 -0.3519 -0.6081
 9014SOL    HW238502   4.686   2.230   6.060 -0.6122  4.4241  1.8772
 9015SOL     OW38503   4.200   4.411   2.475 -0.5596 -0.4093  0.5360
 9015SOL    HW138504   4.178   4.352   2.547  1.8336 -2.2339 -0.2196
 9015SOL    HW238505   4.208   4.342   2.410 -0.5295  0.3697 -0.2875
 9016SOL     OW38506   4.617   3.470  14.119 -0.1830  0.3974  0.4875
 9016SOL    HW138507   4.594   3.471  14.212 -0.1864 -0.9743  0.4918
 9016SOL    HW238508   4.672   3.392  14.120 -0.2319  0.3269 -2.3101
 9017SOL     OW38509   2.187   2.050   0.774  0.2467  0.3322 -0.0974
 9017SOL    HW138510   2.192   1.981   0.708 -1.3308 -0.7730  0.9521
 9017SOL    HW238511   2.136   2.113   0.723 -1.4004 -0.4169  0.6040
 9018SOL     OW38512   1.123   2.663   7.335 -0.2208  0.3807  0.6992
 9018SOL    HW138513   1.151   2.754   7.333  0.4712  0.1510  0.1501
 9018SOL    HW238514   1.206   2.623   7.361 -1.0704 -1.2542  0.9014
 9019SOL     OW38515   2.218   1.280   5.898 -0.3375 -0.4577 -0.0075
 9019SOL    HW138516   2.242   1.256   5.808  1.7645 -0.6362  0.6031
 9019SOL    HW238517   2.125   1.296   5.883  0.0156  0.1098 -1.6390
 9020SOL     OW38518   4.055   0.883  11.646 -0.1597  0.1607  0.1769
 9020SOL    HW138519   3.988   0.901  11.712  0.9813  1.8667  0.8502
 9020SOL    HW238520   4.133   0.891  11.701 -0.6443  0.8662  0.7574
 9021SOL     OW38521   4.631   1.661   3.747  0.3425 -0.7587  0.1043
 9021SOL    HW138522   4.686   1.603   3.695  0.2655  1.0934 -2.0197
 9021SOL    HW238523   4.552   1.663   3.695  1.4507  0.9732 -1.5091
 9022SOL     OW38524   3.648   3.175   2.553 -0.0340 -0.9990  0.0573
 9022SOL    HW138525   3.740   3.176   2.582  0.1510 -0.6795 -0.5262
 9022SOL    HW238526   3.611   3.139   2.633 -0.1406 -1.3975 -0.1692
 9023SOL     OW38527   2.369   0.910   2.876 -0.0061 -0.0885 -0.4886
 9023SOL    HW138528   2.332   0.829   2.843 -1.3298 -0.0337  0.8920
 9023SOL    HW238529   2.308   0.969   2.831 -0.9811  1.6404  3.1135
 9024SOL     OW38530   2.373   0.218   4.116 -0.3439  0.0441  0.2506
 9024SOL    HW138531   2.343   0.285   4.055  0.2327 -0.1115 -0.2021
 9024SOL    HW238532   2.292   0.168   4.120 -0.1556  0.0513  3.8542
 9025SOL     OW38533   4.126   0.368   6.837 -0.4844 -0.3747  0.0997
 9025SOL    HW138534   4.165   0.303   6.896  0.1352 -0.3698 -0.3120
 9025SOL    HW238535   4.111   0.443   6.894 -0.5107 -1.7083  1.8691
 9026SOL     OW38536   1.291   2.402   6.974 -0.0457 -0.3973  0.1393
 9026SOL    HW138537   1.343   2.454   6.912 -0.1270 -1.4627 -0.8181
 9026SOL    HW238538   1.215   2.384   6.919  0.8694  0.1023 -1.2993
 9027SOL     OW38539   4.649   2.490   3.556  0.5787  0.4294 -0.0951
 9027SOL    HW138540   4.645   2.536   3.472 -0.8279  2.7087  1.2098
 9027SOL    HW238541   0.019   2.463   3.556  0.6115  0.5445 -0.5241
 9028SOL     OW38542   2.279   0.307   7.307  0.4841  0.0066 -0.2811
 9028SOL    HW138543   2.298   0.387   7.356 -1.8510  0.7034 -0.5415
 9028SOL    HW238544   2.370   0.292   7.282  0.6887 -1.0847  1.1612
 9029SOL     OW38545   2.799   3.522   9.889 -0.4087  0.1886  0.1855
 9029SOL    HW138546   2.744   3.532   9.812  0.1809  0.7849 -0.1576
 9029SOL    HW238547   2.770   3.435   9.919  1.9509 -1.1462 -1.3832
 9030SOL     OW38548   3.736   0.950   4.492  0.4017 -0.2947 -0.7121
 9030SOL    HW138549   3.701   0.901   4.417 -3.8799  0.4831  0.8038
 9030SOL    HW238550   3.691   0.908   4.565 -0.0781  0.7805 -0.3879
 9031SOL     OW38551   1.385   2.250   7.690 -0.3365  0.8124  0.5704
 9031SOL    HW138552   1.369   2.301   7.610  0.2254 -0.4003 -0.3281
 9031SOL    HW238553   1.478   2.268   7.703  0.2133 -1.3318 -0.4043
 9032SOL     OW38554   1.949   3.443   7.706  0.0145 -0.0300 -0.5003
 9032SOL    HW138555   1.864   3.398   7.713 -0.9946  1.9357 -0.0755
 9032SOL    HW238556   1.950   3.512   7.773  1.3299  0.7521 -1.3307
 9033SOL     OW38557   1.142   3.741  13.653  0.0302 -0.2154 -0.2311
 9033SOL    HW138558   1.134   3.746  13.558  0.4262  1.6013 -0.1531
 9033SOL    HW238559   1.054   3.764  13.682  0.4124 -0.6016  1.2861
 9034SOL     OW38560   2.883   4.325   4.298 -0.3534  0.1570  0.1163
 9034SOL    HW138561   2.904   4.410   4.337 -2.6230  0.6325  0.2866
 9034SOL    HW238562   2.937   4.318   4.220 -1.7740 -1.5657 -0.6992
 9035SOL     OW38563   3.871   3.733  11.684 -0.0074 -0.1039 -0.1743
 9035SOL    HW138564   3.873   3.656  11.628  1.3520 -0.9730  1.0885
 9035SOL    HW238565   3.783   3.723  11.720 -0.5320 -3.0259 -2.2687
 9036SOL     OW38566   1.092   1.951   7.480  0.6967 -0.0709  0.5903
 9036SOL    HW138567   1.056   1.910   7.559 -1.0832 -0.5227 -0.4698
 9036SOL    HW238568   1.186   1.949   7.498  0.8185  2.3973  0.1807
 9037SOL     OW38569   0.976   2.696   4.192  0.5104  0.0992  0.2190
 9037SOL    HW138570   0.936   2.634   4.252  0.6681 -1.9135 -1.7543
 9037SOL    HW238571   1.067   2.665   4.182 -0.2189 -1.2523 -2.2206
 9038SOL     OW38572   4.057   0.550   1.291  0.6071  0.6631  0.3322
 9038SOL    HW138573   4.014   0.473   1.256 -2.7756  2.3059  0.8995
 9038SOL    HW238574   4.007   0.620   1.249 -1.1302 -0.6467  0.2488
 9039SOL     OW38575   2.908   4.623   8.295 -0.6158 -0.6862  0.5553
 9039SOL    HW138576   2.993   4.666   8.286 -0.5324 -0.7780  0.9136
 9039SOL    HW238577   2.933   4.545   8.344 -0.6108 -1.1164 -0.1315
 9040SOL     OW38578   2.473   2.530   1.742  0.4605 -0.0460 -0.0916
 9040SOL    HW138579   2.409   2.595   1.711 -0.8382 -0.7504  1.1180
 9040SOL    HW238580   2.427   2.448   1.723  0.2267 -0.0561  0.5178
 9041SOL     OW38581   3.098   1.598  17.181  0.0102  0.3579  0.2335
 9041SOL    HW138582   3.125   1.508  17.194  1.4689  0.7009 -0.3890
 9041SOL    HW238583   3.165   1.632  17.121 -0.5784  0.1110 -0.5705
 9042SOL     OW38584   4.528   2.225   6.388  0.1367  0.2544  0.1680
 9042SOL    HW138585   4.581   2.157   6.431 -2.3684 -1.2275  0.8690
 9042SOL    HW238586   4.530   2.290   6.459  1.3057 -0.8432  1.1513
 9043SOL     OW38587   0.900   1.750   6.935  0.0443  0.0482  0.1831
 9043SOL    HW138588   0.919   1.676   6.992 -1.1166  1.6243  2.6291
 9043SOL    HW238589   0.891   1.823   6.997 -1.0012 -1.8105  2.2178
 9044SOL     OW38590   0.401   1.634  10.753 -0.2709 -0.0837  0.0205
 9044SOL    HW138591   0.377   1.680  10.673  2.2681  0.1077 -0.6361
 9044SOL    HW238592   0.489   1.609  10.724  0.0954  0.5785  0.5823
 9045SOL     OW38593   2.291   2.302   9.071  0.1255 -0.6841 -0.5646
 9045SOL    HW138594   2.322   2.219   9.106 -0.7041 -0.7410  0.0448
 9045SOL    HW238595   2.214   2.275   9.021 -0.5350 -0.3003  0.2427
 9046SOL     OW38596   3.779   4.412  17.645 -0.3222 -0.0460 -0.2529
 9046SOL    HW138597   3.832   4.343  17.686 -0.6891 -0.4072 -0.3845
 9046SOL    HW238598   3.710   4.426   0.021  1.4822  0.1383  1.6528
 9047SOL     OW38599   2.118   1.471   2.759  0.2565 -0.1559  0.1957
 9047SOL    HW138600   2.043   1.465   2.700 -0.9384  0.6543  1.6053
 9047SOL    HW238601   2.111   1.565   2.775  0.7912  0.2952 -2.2310
 9048SOL     OW38602   1.340   2.681   4.871 -0.2162  0.0905  0.0549
 9048SOL    HW138603   1.364   2.612   4.934  2.4717  0.6746 -0.3271
 9048SOL    HW238604   1.391   2.652   4.796  0.4721 -1.3687  1.0872
 9049SOL     OW38605   3.990   3.230   8.928 -0.2522 -0.3072  0.2909
 9049SOL    HW138606   3.976   3.299   8.993  1.4420  1.3889 -1.1326
 9049SOL    HW238607   4.073   3.187   8.950  1.5594  2.6383 -0.8467
 9050SOL     OW38608   4.369   3.922  14.866  0.0719 -0.3341 -0.3883
 9050SOL    HW138609   4.351   3.987  14.798 -0.2556 -0.3809 -0.3423
 9050SOL    HW238610   4.382   3.844  14.811 -0.5864  0.1427 -1.2200
 9051SOL     OW38611   0.239   0.699   6.245 -0.1029 -0.1225  0.3887
 9051SOL    HW138612   0.182   0.744   6.307 -0.6797  0.0176 -0.2445
 9051SOL    HW238613   0.281   0.635   6.302  0.6570  3.2337  3.5534
 9052SOL     OW38614   1.613   3.147   3.954 -0.1905  0.2758  0.0676
 9052SOL    HW138615   1.706   3.167   3.965 -0.6498  2.8345 -0.6872
 9052SOL    HW238616   1.612   3.146   3.858  1.3760  0.1115  0.0598
 9053SOL     OW38617   3.608   4.545   5.248 -0.0009 -0.2045  0.3525
 9053SOL    HW138618   3.539   4.594   5.204  0.3498 -0.3823 -0.3947
 9053SOL    HW238619   3.565   4.462   5.269 -2.9983  0.4814 -3.0734
 9054SOL     OW38620   4.278   1.987   7.842 -0.0163 -0.3550 -0.1366
 9054SOL    HW138621   4.262   2.079   7.864 -0.5389 -0.6711  0.7859
 9054SOL    HW238622   4.274   1.989   7.746 -0.7081 -0.5197 -0.1090
 9055SOL     OW38623   1.496   2.630   1.218  0.8150  0.2705  0.1140
 9055SOL    HW138624   1.473   2.539   1.200 -0.1004  0.8145 -1.5220
 9055SOL    HW238625   1.411   2.673   1.205  0.4373 -0.3471  0.5178
 9056SOL     OW38626   3.585   0.104   2.948  0.4286 -0.6653  0.1615
 9056SOL    HW138627   3.662   0.141   2.991  0.8715 -1.9978  0.5325
 9056SOL    HW238628   3.562   0.175   2.888 -0.1468  0.2508  1.4692
 9057SOL     OW38629   1.764   2.187   8.578 -0.6778 -0.1239 -0.1481
 9057SOL    HW138630   1.832   2.248   8.549  1.5541 -2.0397  1.0738
 9057SOL    HW238631   1.747   2.223   8.666 -3.6658 -0.4060 -0.5944
 9058SOL     OW38632   0.315   2.315  16.799 -0.6391  0.2134 -0.3943
 9058SOL    HW138633   0.274   2.385  16.849 -0.9673 -0.9234  0.9255
 9058SOL    HW238634   0.397   2.297  16.844 -1.2225  0.4438  0.7481
 9059SOL     OW38635   4.614   1.099   3.474  0.2489 -0.3941  0.3398
 9059SOL    HW138636   4.536   1.152   3.455  1.1877  1.1824  0.8765
 9059SOL    HW238637   4.661   1.115   3.392  2.3097  3.0236  2.1910
 9060SOL     OW38638   1.134   1.197   2.267 -0.5185 -0.1592  0.0810
 9060SOL    HW138639   1.117   1.153   2.184  0.4117 -0.1261 -0.1198
 9060SOL    HW238640   1.088   1.152   2.338  1.4390  1.6390  2.4797
 9061SOL     OW38641   4.314   2.350   6.162 -0.1169 -0.1507 -0.0471
 9061SOL    HW138642   4.368   2.297   6.220  1.2479  0.4732 -0.7544
 9061SOL    HW238643   4.365   2.369   6.083  1.1728  0.8643  1.0439
 9062SOL     OW38644   1.876   3.945   2.228 -0.8411 -0.0301  0.6070
 9062SOL    HW138645   1.907   3.879   2.165  0.3469 -0.4978  1.6767
 9062SOL    HW238646   1.850   4.012   2.165  1.4734 -1.5280 -1.9316
 9063SOL     OW38647   0.932   1.179   7.885  0.7107 -0.1968  0.2266
 9063SOL    HW138648   0.958   1.205   7.973 -1.6591  1.7467  0.3301
 9063SOL    HW238649   1.018   1.177   7.843 -0.5885 -1.0799 -2.3837
 9064SOL     OW38650   4.169   2.189   7.977 -0.2198  0.7316 -0.3555
 9064SOL    HW138651   4.110   2.263   7.959  0.2181  0.7259 -1.8152
 9064SOL    HW238652   4.138   2.160   8.063  1.5616 -0.1362 -0.0060
 9065SOL     OW38653   3.975   3.828   5.635  0.7664  0.3605 -0.2958
 9065SOL    HW138654   4.005   3.809   5.546  1.2337 -0.5446  0.0622
 9065SOL    HW238655   4.043   3.772   5.673 -0.0290  0.4518  1.2530
 9066SOL     OW38656   2.125   2.086   4.166  0.2357 -0.0349  0.0127
 9066SOL    HW138657   2.176   2.166   4.176 -0.7451  0.8424 -2.3019
 9066SOL    HW238658   2.062   2.114   4.100 -0.4909 -1.4140  0.1157
 9067SOL     OW38659   1.317   0.539   5.033 -0.1627 -0.6333 -0.4907
 9067SOL    HW138660   1.270   0.620   5.012 -0.0453 -0.3647  0.3143
 9067SOL    HW238661   1.259   0.494   5.094 -0.2048 -1.6466 -1.2564
 9068SOL     OW38662   3.912   0.458   4.529  0.2108  0.2196  0.1817
 9068SOL    HW138663   3.834   0.475   4.581 -0.1580  1.9124 -0.9423
 9068SOL    HW238664   3.972   0.466   4.604 -1.4635  0.8714  1.4517
 9069SOL     OW38665   4.258   3.415  11.656 -0.2437  0.0617  0.1314
 9069SOL    HW138666   4.206   3.407  11.735 -1.4100 -2.0737 -0.8539
 9069SOL    HW238667   4.316   3.487  11.684 -0.5374  0.6277 -0.7134
 9070SOL     OW38668   3.728   0.534  17.654  0.0497  0.2963 -0.1481
 9070SOL    HW138669   3.814   0.561  17.685 -1.1100  0.6848  2.7534
 9070SOL    HW238670   3.677   0.519   0.046  3.1479 -0.5371  1.6644
 9071SOL     OW38671   0.210   3.848   9.093  0.7029  0.2117  0.0974
 9071SOL    HW138672   0.197   3.753   9.090  0.9781  0.1483  0.7660
 9071SOL    HW238673   0.299   3.851   9.057  1.0451 -0.3434  0.8812
 9072SOL     OW38674   1.031   4.002   5.356 -0.7626  0.0749  0.0898
 9072SOL    HW138675   1.052   4.090   5.324 -0.7069  0.6202  1.6219
 9072SOL    HW238676   0.995   4.025   5.442  3.7872 -1.0059  2.2476
 9073SOL     OW38677   0.120   1.056   4.578 -0.3615  0.1155  0.3617
 9073SOL    HW138678   0.155   0.983   4.527 -0.3813 -0.0167  0.5343
 9073SOL    HW238679   0.158   1.045   4.665  3.7721  1.7148 -1.2495
 9074SOL     OW38680   2.912   4.474  10.600  0.1514 -0.2764 -0.4427
 9074SOL    HW138681   2.867   4.548  10.642 -1.4069 -0.7190 -1.3208
 9074SOL    HW238682   2.930   4.515  10.515 -0.1966  0.2434 -0.2699
 9075SOL     OW38683   1.650   3.077   2.991  0.3834  0.3814  0.0580
 9075SOL    HW138684   1.677   3.067   2.899 -1.2514 -0.9668 -0.2687
 9075SOL    HW238685   1.696   3.153   3.028  0.3823 -0.2956  1.4153
 9076SOL     OW38686   4.256   0.244   7.074 -0.2064 -0.4791 -1.1979
 9076SOL    HW138687   4.230   0.308   7.141  1.3682 -0.6438 -0.4352
 9076SOL    HW238688   4.228   0.161   7.112 -0.3885  0.9914  1.8943
 9077SOL     OW38689   0.543   1.549   6.963  0.3511  0.2077  0.0411
 9077SOL    HW138690   0.517   1.461   6.990  0.7728  0.1478  0.2452
 9077SOL    HW238691   0.574   1.533   6.874 -3.0265 -0.6757 -0.9850
 9078SOL     OW38692   3.888   0.005  16.919  0.3360  0.2395 -0.3385
 9078SOL    HW138693   3.885   4.684  16.834  0.0345 -0.7942  0.1820
 9078SOL    HW238694   3.927   4.656  16.971  0.2372  0.0341 -0.5412
 9079SOL     OW38695   4.141   2.011   5.938  0.2370 -0.0796 -0.0779
 9079SOL    HW138696   4.056   1.982   5.905  0.3806 -0.9201  0.3008
 9079SOL    HW238697   4.163   1.942   6.000 -0.3635 -2.3762 -2.3986
 9080SOL     OW38698   1.283   1.436   8.415  0.3631 -0.2586 -0.4728
 9080SOL    HW138699   1.234   1.416   8.336  0.8862  1.2971 -1.1872
 9080SOL    HW238700   1.334   1.359   8.441 -2.4466 -1.8887  0.1467
 9081SOL     OW38701   4.435   3.717  11.711 -0.0741 -0.2187 -0.0011
 9081SOL    HW138702   4.464   3.658  11.781 -2.1365  0.0766  1.1147
 9081SOL    HW238703   4.343   3.725  11.739  0.6543  0.8180  2.1353
 9082SOL     OW38704   3.396   1.287   7.113 -0.0252  0.0696 -0.3847
 9082SOL    HW138705   3.320   1.251   7.158 -0.4144 -2.5381 -3.1110
 9082SOL    HW238706   3.448   1.210   7.091  0.7403  0.9947 -1.8206
 9083SOL     OW38707   3.538   0.259  10.060  1.1914 -0.3555  0.3806
 9083SOL    HW138708   3.501   0.346  10.079 -0.9357 -1.1295 -0.1866
 9083SOL    HW238709   3.497   0.214   9.987 -1.2133  2.9587 -0.3151
 9084SOL     OW38710   1.426   2.923   1.317 -0.0145 -0.8755 -0.2155
 9084SOL    HW138711   1.397   2.854   1.377 -0.4351 -1.1476 -0.7286
 9084SOL    HW238712   1.343   2.931   1.269 -0.4234  2.2053  0.9648
 9085SOL     OW38713   4.594   4.450  16.363 -0.1183 -0.2863  0.3817
 9085SOL    HW138714   4.591   4.535  16.408  0.1042 -0.8786  1.5198
 9085SOL    HW238715   4.679   4.457  16.320 -0.4557 -1.2761 -0.4410
 9086SOL     OW38716   1.979   0.385   7.548 -0.2921  0.3707 -0.0054
 9086SOL    HW138717   1.972   0.341   7.632  1.1976  1.4546  0.6874
 9086SOL    HW238718   1.889   0.418   7.540  0.5322  2.6480 -0.0137
 9087SOL     OW38719   0.901   4.363   9.301 -0.7548 -0.4139 -0.5338
 9087SOL    HW138720   0.997   4.361   9.297 -0.7007  1.1114  0.1757
 9087SOL    HW238721   0.882   4.276   9.335  2.1941 -0.5328  0.7574
 9088SOL     OW38722   2.182   3.422   7.151 -0.4454  0.3497 -0.1313
 9088SOL    HW138723   2.144   3.387   7.231  1.5009 -2.4360 -0.3853
 9088SOL    HW238724   2.158   3.351   7.091 -3.5719 -0.1607  1.7168
 9089SOL     OW38725   3.217   3.427   5.293 -0.4225 -0.2859 -0.1238
 9089SOL    HW138726   3.234   3.420   5.387 -0.6164  1.8291  0.0568
 9089SOL    HW238727   3.135   3.379   5.282  0.5084 -1.5545 -1.4776
 9090SOL     OW38728   3.167   1.501   2.399  0.1458  0.0806  0.1579
 9090SOL    HW138729   3.115   1.456   2.332  0.9595  3.5579 -2.8038
 9090SOL    HW238730   3.198   1.583   2.361  0.0984 -0.6389 -1.4756
 9091SOL     OW38731   3.733   2.403   7.755  0.3394 -0.5915  0.2973
 9091SOL    HW138732   3.665   2.412   7.688  2.3758  0.7979 -1.5776
 9091SOL    HW238733   3.671   2.412   7.827  1.1306 -0.6586  0.9890
 9092SOL     OW38734   4.075   2.044   5.410 -0.7035 -0.5069 -0.8737
 9092SOL    HW138735   4.021   2.123   5.405  1.9304  1.4049  0.5582
 9092SOL    HW238736   4.103   2.035   5.319  2.9364  0.7964  0.1035
 9093SOL     OW38737   3.305   3.327   6.174 -0.3703 -0.1955 -0.0161
 9093SOL    HW138738   3.247   3.320   6.250 -0.4899 -0.8756 -0.1758
 9093SOL    HW238739   3.392   3.336   6.213 -0.2224 -2.3774  0.1150
 9094SOL     OW38740   1.513   2.871   6.183 -0.0335 -0.1577 -0.2113
 9094SOL    HW138741   1.441   2.922   6.146 -1.0580 -0.5131  1.2790
 9094SOL    HW238742   1.549   2.937   6.243 -1.0726 -1.3478  1.7462
 9095SOL     OW38743   1.659   1.376   3.510 -0.4563  0.3521  0.3435
 9095SOL    HW138744   1.710   1.300   3.482  1.1477  2.3101 -2.0315
 9095SOL    HW238745   1.720   1.420   3.570  1.0563  0.3194 -1.1765
 9096SOL     OW38746   0.903   3.582   6.092 -0.1169  0.5898  0.2784
 9096SOL    HW138747   0.977   3.555   6.038  0.2978 -1.7985  2.0784
 9096SOL    HW238748   0.841   3.510   6.095  1.9729 -1.0992  2.6356
 9097SOL     OW38749   3.138   4.422  17.012 -0.4073  0.2141 -0.0140
 9097SOL    HW138750   3.165   4.505  16.973 -1.3625  0.7492  0.4590
 9097SOL    HW238751   3.219   4.376  17.035  0.7142  2.6204  0.7889
 9098SOL     OW38752   0.847   0.202   0.190  0.2430 -0.3301  0.1015
 9098SOL    HW138753   0.830   0.265   0.120 -1.6607 -0.2769  0.6218
 9098SOL    HW238754   0.940   0.212   0.213 -0.1250  0.1599  1.3353
 9099SOL     OW38755   2.250   0.231   5.905 -0.1859 -0.2946 -0.2230
 9099SOL    HW138756   2.309   0.273   5.968 -0.9099 -0.1175  0.3407
 9099SOL    HW238757   2.220   0.313   5.863  2.8861  1.9796  2.0652
 9100SOL     OW38758   3.043   0.664   3.903  0.3757 -0.1319  0.1382
 9100SOL    HW138759   3.092   0.610   3.964 -1.2825 -1.0176  0.6961
 9100SOL    HW238760   3.016   0.736   3.960  0.0137  1.2802 -1.8308
 9101SOL     OW38761   4.145   3.695   4.451 -0.2429  0.2199  0.4028
 9101SOL    HW138762   4.119   3.610   4.416  1.2139 -0.4356  0.9470
 9101SOL    HW238763   4.192   3.677   4.533  1.4044 -0.0024 -0.6087
 9102SOL     OW38764   0.649   4.663  16.065  0.6663  0.1431 -0.3038
 9102SOL    HW138765   0.679   4.591  16.010 -0.0146 -0.0261 -0.4535
 9102SOL    HW238766   0.582   4.625  16.121 -1.7887  2.1611 -1.9047
 9103SOL     OW38767   2.527   2.607   3.818 -0.3101 -0.9854 -0.2870
 9103SOL    HW138768   2.450   2.610   3.761  0.1020 -0.1128 -0.8055
 9103SOL    HW238769   2.544   2.514   3.832 -0.5124 -0.8255  1.1032
 9104SOL     OW38770   4.139   0.225   3.947 -0.4081  0.2939  0.2859
 9104SOL    HW138771   4.139   0.321   3.945  0.0860  0.3123  1.4258
 9104SOL    HW238772   4.100   0.196   3.864  1.8741 -0.5638 -0.4776
 9105SOL     OW38773   0.241   3.831   2.400 -0.0554  0.3270 -0.0215
 9105SOL    HW138774   0.276   3.868   2.319  0.6965  0.2084  0.2497
 9105SOL    HW238775   0.316   3.864   2.450  0.0082  0.4572 -0.2044
 9106SOL     OW38776   2.466   0.094   0.892  0.1438 -0.4798  0.0887
 9106SOL    HW138777   2.411   0.056   0.960  4.5746 -2.1260  2.7452
 9106SOL    HW238778   2.494   0.012   0.852 -1.7710 -1.9700  1.7933
 9107SOL     OW38779   4.443   4.035   4.377 -0.0763  0.0037  0.4476
 9107SOL    HW138780   4.419   4.017   4.286 -2.7533  2.1181  0.7425
 9107SOL    HW238781   4.513   4.099   4.363 -0.0501  0.1253  1.1121
 9108SOL     OW38782   0.419   1.636  11.240 -0.1159  0.2534 -0.1676
 9108SOL    HW138783   0.509   1.636  11.273  0.0995 -2.3986 -0.7285
 9108SOL    HW238784   0.432   1.670  11.151  1.2595 -1.2568 -0.5649
 9109SOL     OW38785   4.654   4.292   7.564 -0.4095 -0.1993  0.0977
 9109SOL    HW138786   0.006   4.339   7.523  0.3099 -2.9242 -1.7725
 9109SOL    HW238787   4.683   4.201   7.558  0.9147  0.2588 -0.5128
 9110SOL     OW38788   1.235   4.598   6.249 -0.1571  0.6464 -0.5921
 9110SOL    HW138789   1.237   4.607   6.344 -0.8514  1.2177 -0.6324
 9110SOL    HW238790   1.140   4.583   6.247 -0.3967  1.6811  2.2126
 9111SOL     OW38791   1.556   4.129   9.934  0.0797  0.4470 -0.4654
 9111SOL    HW138792   1.646   4.104   9.954 -0.2008 -1.1627 -1.2616
 9111SOL    HW238793   1.533   4.156  10.023 -1.5207  1.8343 -1.2995
 9112SOL     OW38794   1.754   2.380   9.675  0.5171 -0.2987 -0.3015
 9112SOL    HW138795   1.678   2.323   9.687  0.9383 -0.5155  1.4866
 9112SOL    HW238796   1.810   2.312   9.637  1.3132 -0.0411  0.3975
 9113SOL     OW38797   0.386   3.221   1.946 -1.0905  0.2630  0.1026
 9113SOL    HW138798   0.328   3.287   1.907 -2.1783 -0.7422  0.0130
 9113SOL    HW238799   0.383   3.154   1.878 -0.2837 -0.9144  1.2469
 9114SOL     OW38800   2.698   0.418   7.505  0.3484 -0.2652 -0.4241
 9114SOL    HW138801   2.607   0.440   7.485  0.5229  0.5919 -0.2959
 9114SOL    HW238802   2.682   0.364   7.582  3.1946  0.2403  0.5436
 9115SOL     OW38803   4.426   0.521  13.632  0.1567 -0.0026  0.3735
 9115SOL    HW138804   4.334   0.519  13.606  0.0533 -2.4544  0.9445
 9115SOL    HW238805   4.430   0.564  13.717 -0.1864 -0.5607  0.6778
 9116SOL     OW38806   4.122   1.388   4.649 -0.1189 -0.7486  0.2065
 9116SOL    HW138807   4.191   1.341   4.603  1.0334  0.5961  0.5472
 9116SOL    HW238808   4.143   1.369   4.741 -0.8967  2.0523  0.9628
 9117SOL     OW38809   1.866   3.832   0.967  0.1327 -0.2264  0.1335
 9117SOL    HW138810   1.858   3.899   1.035 -0.7432  0.0597 -0.2443
 9117SOL    HW238811   1.778   3.837   0.929 -0.9405 -0.0096  2.6409
 9118SOL     OW38812   1.630   1.785   7.836 -0.4841 -0.3333  0.1645
 9118SOL    HW138813   1.574   1.832   7.898 -0.5385  0.4647 -0.4909
 9118SOL    HW238814   1.679   1.863   7.810  0.2713 -0.6287  0.7281
 9119SOL     OW38815   0.117   1.076   2.433  0.1219 -0.1971  0.4691
 9119SOL    HW138816   0.054   1.144   2.458 -0.1609 -0.0976 -0.5353
 9119SOL    HW238817   0.176   1.081   2.508 -1.6694 -0.3845  1.9155
 9120SOL     OW38818   1.021   3.233   6.760 -0.1526 -0.0367 -0.3313
 9120SOL    HW138819   1.083   3.218   6.831  0.2287  0.8270 -0.4801
 9120SOL    HW238820   0.946   3.177   6.779 -0.7492  0.2656 -1.7856
 9121SOL     OW38821   0.476   0.605  15.745  0.3403  0.0058 -0.2376
 9121SOL    HW138822   0.489   0.521  15.790  0.4701 -0.3985 -1.0308
 9121SOL    HW238823   0.527   0.588  15.666  0.5949  0.5271 -0.1831
 9122SOL     OW38824   4.021   4.646  13.353  0.0399 -0.4839  0.6266
 9122SOL    HW138825   3.981   4.636  13.266  1.3151 -0.5119  0.0422
 9122SOL    HW238826   3.943   4.624  13.404 -2.3374 -0.4978 -2.9838
 9123SOL     OW38827   0.845   2.557   4.394 -0.2417  0.0752  0.0467
 9123SOL    HW138828   0.750   2.543   4.393 -0.3734  1.0272 -0.3111
 9123SOL    HW238829   0.855   2.616   4.468 -1.1033  1.2885 -0.8101
 9124SOL     OW38830   3.873   2.435   6.319 -0.2800 -0.1532 -0.0731
 9124SOL    HW138831   3.816   2.462   6.247 -0.0319  1.2642  0.2623
 9124SOL    HW238832   3.947   2.392   6.275 -0.7717 -3.1648  2.0023
 9125SOL     OW38833   4.053   4.329  14.751 -0.6596 -0.5054  0.5329
 9125SOL    HW138834   4.108   4.385  14.806  1.1843 -0.5023 -1.3322
 9125SOL    HW238835   3.967   4.335  14.791 -1.1651  2.8735 -1.0264
 9126SOL     OW38836   4.538   2.825  11.794 -0.4247  0.6388 -0.0081
 9126SOL    HW138837   4.491   2.895  11.840 -0.4422  0.3003  0.4879
 9126SOL    HW238838   4.574   2.787  11.875  0.1924  3.1011  0.8786
 9127SOL     OW38839   2.199   2.245   3.008  0.6363  0.1160 -0.3410
 9127SOL    HW138840   2.240   2.244   2.922  3.7863 -0.3530  1.1894
 9127SOL    HW238841   2.117   2.281   2.974  0.5720 -1.1345 -1.4859
 9128SOL     OW38842   1.762   1.312   0.948  0.3930  0.4397  0.5416
 9128SOL    HW138843   1.834   1.356   0.902  0.4741 -0.1843  0.0790
 9128SOL    HW238844   1.748   1.367   1.025 -1.3045 -0.7577  1.0744
 9129SOL     OW38845   2.133   0.894  10.346  0.2825  0.1884  0.0710
 9129SOL    HW138846   2.137   0.831  10.417 -0.7965  0.3951  0.3200
 9129SOL    HW238847   2.106   0.972  10.394  1.4271  1.3944 -1.2464
 9130SOL     OW38848   1.696   3.467  12.433  0.3103 -0.2413 -0.4997
 9130SOL    HW138849   1.758   3.530  12.469 -2.3262  1.8218  0.4278
 9130SOL    HW238850   1.618   3.522  12.428  0.5734  0.3247  1.8087
 9131SOL     OW38851   2.939   1.636  11.643  0.0241  0.0787 -0.2102
 9131SOL    HW138852   2.963   1.689  11.567 -0.4434  0.6256  0.0289
 9131SOL    HW238853   2.888   1.699  11.693  0.1878 -0.3236  0.4573
 9132SOL     OW38854   2.697   0.586   8.798 -0.2739  0.4708 -0.0268
 9132SOL    HW138855   2.778   0.624   8.832 -0.4243  3.0897 -2.5658
 9132SOL    HW238856   2.728   0.516   8.740  0.6082  0.2356  0.7240
 9133SOL     OW38857   4.502   3.628   6.029 -0.3995  0.0904  0.1141
 9133SOL    HW138858   4.541   3.710   6.059  0.7905  0.0564 -1.3328
 9133SOL    HW238859   4.450   3.590   6.099 -1.1536 -1.7099 -1.3958
 9134SOL     OW38860   0.661   1.068   6.014 -0.7622  0.0282  0.2227
 9134SOL    HW138861   0.733   1.107   5.964 -0.6387 -1.7321 -0.9661
 9134SOL    HW238862   0.591   1.133   6.021 -0.7847 -0.3174  3.0285
 9135SOL     OW38863   2.296   2.725  12.957 -0.0247 -0.4949  0.3978
 9135SOL    HW138864   2.202   2.724  12.976 -0.3303  0.7152 -1.0429
 9135SOL    HW238865   2.303   2.821  12.954  2.0426 -0.6912 -0.6178
 9136SOL     OW38866   0.760   3.480   5.265 -0.1444  0.2026 -0.2885
 9136SOL    HW138867   0.715   3.560   5.237 -1.4894 -0.8284 -1.0625
 9136SOL    HW238868   0.751   3.435   5.182 -0.9538 -1.7750  0.8698
 9137SOL     OW38869   4.369   3.449   3.667  0.0415  0.1457  0.6871
 9137SOL    HW138870   4.433   3.514   3.639 -1.4830  1.1920 -0.3146
 9137SOL    HW238871   4.364   3.390   3.592  1.2089  0.3304  0.4552
 9138SOL     OW38872   1.204   4.032   3.683  0.1582 -0.1618  0.1309
 9138SOL    HW138873   1.245   3.974   3.618  0.6575 -1.2634  1.4409
 9138SOL    HW238874   1.195   4.115   3.635 -1.2634 -1.2302 -1.4522
 9139SOL     OW38875   4.264   4.234  14.974 -0.5401  0.6157 -0.0548
 9139SOL    HW138876   4.305   4.152  14.947  2.1057  1.9379 -0.1271
 9139SOL    HW238877   4.329   4.304  14.963 -0.4032  0.8705  2.2074
 9140SOL     OW38878   2.587   1.082  11.821  0.2289  0.8053  0.1420
 9140SOL    HW138879   2.621   1.152  11.878 -0.9813  0.7251  0.9564
 9140SOL    HW238880   2.596   1.012  11.885  0.8214  0.2433 -0.5545
 9141SOL     OW38881   0.372   4.474   4.591  0.5775 -0.0092  0.0100
 9141SOL    HW138882   0.449   4.492   4.536  1.5286 -2.0052  0.6851
 9141SOL    HW238883   0.384   4.379   4.601 -0.8138 -0.1473  0.3628
 9142SOL     OW38884   1.089   3.687   5.089 -0.0624  0.1038 -0.2268
 9142SOL    HW138885   1.049   3.601   5.103 -3.3386  1.5818 -0.6280
 9142SOL    HW238886   1.166   3.669   5.143  0.7015 -1.6385 -1.8972
 9143SOL     OW38887   1.506   3.631   3.036 -0.0684  0.2373  0.2210
 9143SOL    HW138888   1.579   3.680   3.076 -1.6210  2.6030  0.1678
 9143SOL    HW238889   1.429   3.685   3.053 -2.6784 -2.6513 -2.4195
 9144SOL     OW38890   4.235   0.246  14.359 -0.1293 -0.2834  0.1862
 9144SOL    HW138891   4.264   0.304  14.288 -0.4763  0.1534  0.4021
 9144SOL    HW238892   4.250   0.157  14.325  1.0720  0.6120 -1.6317
 9145SOL     OW38893   2.096   3.308   0.793  0.4817 -0.2238 -0.0430
 9145SOL    HW138894   2.124   3.399   0.784  0.8778 -0.2069  1.3205
 9145SOL    HW238895   2.002   3.321   0.787  0.6998  0.4674 -1.8482
 9146SOL     OW38896   0.930   2.195   1.996  0.3177  0.3297  0.0654
 9146SOL    HW138897   0.871   2.162   1.929  0.4173  0.3353 -0.0257
 9146SOL    HW238898   0.888   2.170   2.078  0.6297 -2.3207 -0.5897
 9147SOL     OW38899   4.112   3.036   8.038 -0.3490  0.4593 -0.5118
 9147SOL    HW138900   4.146   2.946   8.037 -1.6128 -0.0360  1.5826
 9147SOL    HW238901   4.191   3.084   8.013  1.1753 -0.2674  2.8743
 9148SOL     OW38902   4.573   4.236   5.146  0.1960 -0.4393 -0.0647
 9148SOL    HW138903   4.562   4.297   5.219 -1.4194  0.2479 -0.8672
 9148SOL    HW238904   4.534   4.154   5.178  2.9924 -0.7914  2.4450
 9149SOL     OW38905   0.480   3.515   7.664  0.5366  0.1364  0.2533
 9149SOL    HW138906   0.557   3.571   7.654  0.0587  1.1014  2.0906
 9149SOL    HW238907   0.480   3.478   7.576  0.9916 -1.5519  0.9615
 9150SOL     OW38908   1.764   3.293  14.775  0.1035  0.0749  0.1557
 9150SOL    HW138909   1.759   3.197  14.777 -0.5196  0.1307  1.1906
 9150SOL    HW238910   1.678   3.298  14.816 -0.2331 -0.1470 -0.5160
 9151SOL     OW38911   3.490   4.671  12.046  0.2412  0.4390 -0.6189
 9151SOL    HW138912   3.582   4.646  12.056  0.4041  0.7994 -1.1949
 9151SOL    HW238913   3.494   0.045  12.035  0.0752  0.3644 -1.3559
 9152SOL     OW38914   1.141   1.641   9.012 -0.2901 -0.5006  0.4138
 9152SOL    HW138915   1.187   1.565   8.978  0.7699  1.5406 -2.6750
 9152SOL    HW238916   1.141   1.697   8.934  1.1190  1.6907  1.9764
 9153SOL     OW38917   3.316   3.530   7.481  0.0607  0.0660  0.5610
 9153SOL    HW138918   3.370   3.491   7.412  1.6036  0.1296  1.7274
 9153SOL    HW238919   3.379   3.572   7.539  1.5798  0.0767 -1.0924
 9154SOL     OW38920   0.081   3.758  12.451  0.3426 -0.5756 -0.1170
 9154SOL    HW138921   0.013   3.695  12.476  0.0952 -0.1859  0.2007
 9154SOL    HW238922   0.086   3.807  12.533 -2.2138  1.9304 -1.4467
 9155SOL     OW38923   0.313   2.951   1.197 -0.1357  0.1912  0.1913
 9155SOL    HW138924   0.249   2.886   1.226 -0.3181  0.6051  0.7147
 9155SOL    HW238925   0.387   2.939   1.256 -0.3526 -1.3757  0.1530
 9156SOL     OW38926   0.324   4.400   7.902 -0.7164 -0.0783 -0.2866
 9156SOL    HW138927   0.290   4.414   7.813 -0.9207 -0.4936 -0.2768
 9156SOL    HW238928   0.243   4.392   7.952 -1.1296 -0.2443 -0.9709
 9157SOL     OW38929   1.605   1.701  11.127 -1.0180  0.5676 -0.0408
 9157SOL    HW138930   1.548   1.773  11.103 -1.5810  0.1533  0.0550
 9157SOL    HW238931   1.563   1.619  11.100  1.1274 -0.3184 -0.6913
 9158SOL     OW38932   3.982   4.128   6.967 -0.1657  0.5305  0.6082
 9158SOL    HW138933   4.037   4.135   7.044 -0.1698 -2.0166  0.8476
 9158SOL    HW238934   3.900   4.113   7.014  0.5665 -0.8236  1.4318
 9159SOL     OW38935   1.614   4.100   3.595  0.4498 -0.1131 -0.0707
 9159SOL    HW138936   1.569   4.015   3.593  0.2602 -0.0876  2.7517
 9159SOL    HW238937   1.671   4.090   3.672 -1.5377  0.3746  1.4517
 9160SOL     OW38938   2.575   3.407  12.503  0.9394 -0.3650  0.2505
 9160SOL    HW138939   2.484   3.427  12.521  0.3941 -2.5529 -0.0693
 9160SOL    HW238940   2.600   3.419  12.595 -1.2856 -0.9466  0.9349
 9161SOL     OW38941   0.772   3.602  11.848 -0.2328  0.2961  0.0110
 9161SOL    HW138942   0.735   3.630  11.764 -1.4670  0.2491  0.5259
 9161SOL    HW238943   0.799   3.512  11.830  0.6613  0.6315 -0.3037
 9162SOL     OW38944   4.502   0.873   4.178  0.0793  0.0977 -0.4492
 9162SOL    HW138945   4.497   0.923   4.259 -3.8501 -1.6144  0.3689
 9162SOL    HW238946   4.522   0.787   4.214 -2.3043  0.5103  1.8577
 9163SOL     OW38947   2.797   3.164   9.024 -0.8126  0.5266 -0.0074
 9163SOL    HW138948   2.892   3.170   9.031 -1.0313  1.7617  1.9995
 9163SOL    HW238949   2.768   3.255   9.019 -0.2868  0.5042 -3.0617
 9164SOL     OW38950   2.551   4.712   0.529 -0.3947  0.2223 -0.3338
 9164SOL    HW138951   2.589   4.694   0.615 -0.4834  2.0090  0.0640
 9164SOL    HW238952   2.465   4.670   0.536 -0.6942  0.9118  0.0838
 9165SOL     OW38953   3.398   1.157  11.332  0.2489 -0.6625  0.7375
 9165SOL    HW138954   3.471   1.218  11.338 -1.1837  1.3740 -2.4592
 9165SOL    HW238955   3.408   1.123  11.421  2.3299 -2.3497 -0.1486
 9166SOL     OW38956   3.087   3.403   3.110 -0.0089 -0.1187  0.8332
 9166SOL    HW138957   3.074   3.496   3.091  1.0763 -0.2591 -0.5550
 9166SOL    HW238958   3.034   3.356   3.046  0.3157  2.1169 -1.0878
 9167SOL     OW38959   2.483   3.340  16.659 -0.3632 -0.1867 -0.0719
 9167SOL    HW138960   2.579   3.335  16.666 -0.2938 -0.5001 -1.1762
 9167SOL    HW238961   2.453   3.359  16.748 -1.8647 -0.9758 -0.4107
 9168SOL     OW38962   1.448   4.481   3.993 -0.8316 -0.6284 -0.3542
 9168SOL    HW138963   1.516   4.545   3.971  0.5867 -0.8689  3.4516
 9168SOL    HW238964   1.422   4.462   3.903  1.2314 -2.1910 -0.6065
 9169SOL     OW38965   1.678   1.263   6.607 -0.2873  0.6608 -0.8247
 9169SOL    HW138966   1.636   1.202   6.546  0.8322 -1.0427  0.0998
 9169SOL    HW238967   1.646   1.240   6.694  0.4683 -1.3260 -1.0774
 9170SOL     OW38968   4.535   1.785   3.257  0.1360  0.1773 -0.0206
 9170SOL    HW138969   4.481   1.714   3.292 -0.9690  1.0984  0.0919
 9170SOL    HW238970   4.614   1.762   3.306 -1.1485 -1.3816  1.3122
 9171SOL     OW38971   2.991   3.460   7.802  0.5097 -0.3170 -0.5729
 9171SOL    HW138972   2.920   3.397   7.805  0.8819 -0.6820  0.4283
 9171SOL    HW238973   3.035   3.430   7.881  0.7643 -1.1099 -1.0149
 9172SOL     OW38974   3.666   2.238   1.632 -0.0238 -0.4229  0.0206
 9172SOL    HW138975   3.615   2.163   1.663 -0.2968 -0.3720 -0.3111
 9172SOL    HW238976   3.749   2.203   1.663  0.7612 -0.1020 -1.7203
 9173SOL     OW38977   3.899   0.332  11.195  0.6943  0.3848 -0.0690
 9173SOL    HW138978   3.913   0.250  11.243 -2.5501  0.6524  1.3735
 9173SOL    HW238979   3.965   0.327  11.127  0.8420 -1.4363  0.2070
 9174SOL     OW38980   0.200   0.655   2.978 -0.2700  0.2514 -0.4916
 9174SOL    HW138981   0.144   0.592   2.933 -0.6292  1.3146 -1.5374
 9174SOL    HW238982   0.136   0.723   3.002 -0.2983  0.7099 -1.8521
 9175SOL     OW38983   1.903   0.005   2.075 -0.2463  1.1702 -0.2102
 9175SOL    HW138984   1.941   0.085   2.039  0.4706  0.1467 -1.7273
 9175SOL    HW238985   1.817   0.007   2.034  0.7524  2.1107 -2.2615
 9176SOL     OW38986   0.965   1.132   6.229  0.0707 -0.4375  0.7849
 9176SOL    HW138987   0.881   1.177   6.236  0.1001 -0.3477  0.5550
 9176SOL    HW238988   1.022   1.189   6.281  2.0369 -1.6017 -0.1156
 9177SOL     OW38989   4.581   0.175   4.902  0.5263  0.2324  0.2479
 9177SOL    HW138990   4.669   0.188   4.866 -0.9482  2.0843 -2.6374
 9177SOL    HW238991   4.551   0.099   4.852 -0.9225  0.9968 -0.0306
 9178SOL     OW38992   2.747   3.525   6.499  0.0820  0.1396  0.0083
 9178SOL    HW138993   2.697   3.484   6.429  2.7318  1.0049 -2.3706
 9178SOL    HW238994   2.807   3.575   6.445  0.4827 -0.2739  0.0705
 9179SOL     OW38995   4.564   4.547   7.266 -0.1131 -0.3281  0.2073
 9179SOL    HW138996   4.599   4.610   7.203 -2.9979  0.3283 -0.7171
 9179SOL    HW238997   4.605   4.467   7.233 -2.8115 -1.4795 -0.3141
 9180SOL     OW38998   0.795   2.629   6.487 -0.0840 -0.0214  0.3211
 9180SOL    HW138999   0.789   2.718   6.522  1.1577  0.6722 -1.2350
 9180SOL    HW239000   0.820   2.645   6.396 -4.6864  0.8557 -0.8031
 9181SOL     OW39001   0.007   3.247  14.110  0.4092  0.7644  0.3295
 9181SOL    HW139002   0.089   3.248  14.061  0.2609 -0.0374  0.0592
 9181SOL    HW239003   0.009   3.160  14.151 -0.0130  0.3445 -0.5239
 9182SOL     OW39004   0.438   1.286  13.099 -0.1820 -0.4408  0.4492
 9182SOL    HW139005   0.400   1.297  13.012 -1.4107  2.8675  1.3982
 9182SOL    HW239006   0.462   1.194  13.106  1.0180 -0.2219 -0.8462
 9183SOL     OW39007   0.682   4.232   6.836 -0.0279  0.7918  0.8228
 9183SOL    HW139008   0.736   4.155   6.858 -2.1481 -1.5010 -2.0266
 9183SOL    HW239009   0.613   4.226   6.902  0.5571 -0.9698  1.2925
 9184SOL     OW39010   3.874   0.389   3.454  0.0147 -0.5017  0.0601
 9184SOL    HW139011   3.834   0.345   3.529 -0.4751  1.0662  0.7273
 9184SOL    HW239012   3.966   0.378   3.477 -0.4782 -4.7228  0.0429
 9185SOL     OW39013   0.239   0.238   5.223 -0.3128  0.3224  0.0709
 9185SOL    HW139014   0.254   0.298   5.295 -1.6032 -1.1681  1.5692
 9185SOL    HW239015   0.266   0.295   5.151 -0.3224 -1.3665 -1.2924
 9186SOL     OW39016   4.351   0.434  16.910 -0.3199 -0.0499  0.1225
 9186SOL    HW139017   4.299   0.354  16.918 -1.6221  0.7378 -0.6014
 9186SOL    HW239018   4.341   0.447  16.816 -1.1352  0.0208  0.2188
 9187SOL     OW39019   4.707   3.379   2.487 -0.8140  0.0851  0.1811
 9187SOL    HW139020   0.028   3.463   2.471 -0.4986 -0.2770 -0.8892
 9187SOL    HW239021   4.671   3.357   2.401  0.4502  0.6758 -0.5050
 9188SOL     OW39022   1.060   2.241   5.881 -0.6502  0.0144 -0.4499
 9188SOL    HW139023   1.071   2.220   5.788  0.5260 -4.3659  0.6383
 9188SOL    HW239024   1.004   2.167   5.905 -0.8009  0.3783  0.2876
 9189SOL     OW39025   0.461   1.739  10.997 -0.2242  0.0787 -0.3600
 9189SOL    HW139026   0.470   1.716  10.904  2.7662  3.5144 -0.9426
 9189SOL    HW239027   0.487   1.831  10.991 -0.0396 -0.0069 -0.9188
 9190SOL     OW39028   3.430   3.628  15.623 -0.1038  0.3802 -0.2983
 9190SOL    HW139029   3.355   3.577  15.589 -2.5045  3.7756 -0.0338
 9190SOL    HW239030   3.509   3.576  15.605  0.2886  0.2675  1.7653
 9191SOL     OW39031   0.550   1.793   8.534 -0.3189 -0.6671 -0.5728
 9191SOL    HW139032   0.613   1.833   8.474  1.0643  1.6793  2.4081
 9191SOL    HW239033   0.474   1.764   8.485  0.0398 -2.9385  0.1924
 9192SOL     OW39034   3.856   2.570   8.172 -0.2713  0.1454 -0.3602
 9192SOL    HW139035   3.914   2.500   8.143 -0.4746 -0.1640 -0.0232
 9192SOL    HW239036   3.774   2.548   8.128 -1.0260 -0.2237  1.2318
 9193SOL     OW39037   4.027   2.344  12.233 -0.2504 -0.6764 -0.0739
 9193SOL    HW139038   4.077   2.397  12.172 -0.0744 -1.7190 -0.8354
 9193SOL    HW239039   3.952   2.315  12.181 -0.2691 -0.3118 -0.2475
 9194SOL     OW39040   3.184   1.113  14.455 -0.2413  0.4095  0.6382
 9194SOL    HW139041   3.107   1.065  14.485  0.2271  0.9317  2.6786
 9194SOL    HW239042   3.256   1.061  14.489 -1.8962 -1.5095  1.1992
 9195SOL     OW39043   2.675   0.219   8.042 -0.1250  0.1393  0.6990
 9195SOL    HW139044   2.666   0.167   7.962  0.1652 -0.8512  1.3008
 9195SOL    HW239045   2.764   0.251   8.028 -1.7346  2.7880 -3.1265
 9196SOL     OW39046   2.600   2.233   5.364  0.2690  0.1960  0.4808
 9196SOL    HW139047   2.533   2.180   5.407 -0.5204  0.8634  0.0792
 9196SOL    HW239048   2.590   2.310   5.420 -0.0664  0.9894 -0.6741
 9197SOL     OW39049   1.807   0.633   9.808 -0.3995  0.0208  0.4379
 9197SOL    HW139050   1.866   0.687   9.860 -1.5782  0.8449  0.9366
 9197SOL    HW239051   1.860   0.580   9.749  0.2504  0.3372  0.7333
 9198SOL     OW39052   0.551   4.347   3.067 -0.2996  0.4389 -0.3253
 9198SOL    HW139053   0.611   4.421   3.062 -2.1474  1.8199 -2.0984
 9198SOL    HW239054   0.494   4.375   3.139 -0.4869 -2.1828  0.5495
 9199SOL     OW39055   2.479   4.101   5.546 -0.1843 -0.2219 -0.2320
 9199SOL    HW139056   2.571   4.091   5.520  0.5975 -1.2636  2.9066
 9199SOL    HW239057   2.435   4.044   5.483  0.4550 -0.8410 -0.1166
 9200SOL     OW39058   2.943   2.129   6.862  0.1020  0.1730  0.6338
 9200SOL    HW139059   2.879   2.184   6.907  0.5665  1.1634  0.0667
 9200SOL    HW239060   2.959   2.063   6.930 -1.7478 -0.2370  0.6825
 9201SOL     OW39061   1.446   1.746   5.956 -0.3926  0.4102 -0.1820
 9201SOL    HW139062   1.448   1.711   5.868 -0.2139  0.2644 -0.1213
 9201SOL    HW239063   1.409   1.676   6.009  0.7483 -1.0938 -1.3684
 9202SOL     OW39064   2.117   0.651   9.843  0.4665 -0.1977  0.1697
 9202SOL    HW139065   2.127   0.730   9.895  0.9495 -0.5913  0.6773
 9202SOL    HW239066   2.189   0.652   9.780  0.0772 -1.2789 -0.2999
 9203SOL     OW39067   0.925   4.078  15.260  0.4215 -0.2716 -0.7919
 9203SOL    HW139068   0.999   4.018  15.249  0.6045 -0.2960  0.6064
 9203SOL    HW239069   0.931   4.124  15.176 -0.5261 -1.4678 -1.5314
 9204SOL     OW39070   1.369   3.903   7.942  0.1924 -0.5611 -0.2280
 9204SOL    HW139071   1.354   3.912   8.036 -2.2323  0.1788 -0.6751
 9204SOL    HW239072   1.455   3.861   7.945  0.1706 -0.6686 -0.9929
 9205SOL     OW39073   4.334   4.520  11.472 -0.3384 -0.1057 -0.5066
 9205SOL    HW139074   4.352   4.451  11.536 -0.7082 -0.0206 -0.3123
 9205SOL    HW239075   4.399   4.486  11.410 -0.1829 -0.3504 -0.2067
 9206SOL     OW39076   1.775   1.299   8.140  0.2466 -0.0001 -0.1340
 9206SOL    HW139077   1.768   1.395   8.140 -0.5451 -0.0569 -1.6899
 9206SOL    HW239078   1.688   1.276   8.171 -0.2184 -1.3854 -2.5113
 9207SOL     OW39079   1.576   0.815   4.640 -0.1557 -0.1444 -0.1746
 9207SOL    HW139080   1.556   0.731   4.681 -0.0707 -0.6977 -1.2566
 9207SOL    HW239081   1.497   0.823   4.586 -1.9915 -0.8483  2.4287
 9208SOL     OW39082   3.151   0.753  16.460 -0.0504 -0.3262 -0.0818
 9208SOL    HW139083   3.188   0.671  16.428 -1.8206 -1.4021  0.6159
 9208SOL    HW239084   3.182   0.822  16.401 -0.6023 -0.5175 -0.6050
 9209SOL     OW39085   4.626   1.477   8.193  1.2081  0.1445  0.4069
 9209SOL    HW139086   4.686   1.406   8.213 -0.1442 -1.9554 -2.9205
 9209SOL    HW239087   4.539   1.437   8.200  1.6607 -0.9868 -0.4497
 9210SOL     OW39088   0.065   1.431  11.011 -0.3028 -0.3134  0.4708
 9210SOL    HW139089   4.700   1.416  11.049 -1.6541 -1.6309 -3.0940
 9210SOL    HW239090   0.104   1.467  11.090  0.4044 -0.3377  0.1320
 9211SOL     OW39091   1.589   4.029  13.145 -0.0807  0.2603 -0.5837
 9211SOL    HW139092   1.648   4.102  13.166  1.1041 -1.6534  2.7358
 9211SOL    HW239093   1.640   3.952  13.168  1.2241  1.0699 -0.7269
 9212SOL     OW39094   1.806   0.806   8.244 -0.5809  0.1478 -0.1893
 9212SOL    HW139095   1.900   0.806   8.263 -0.7455 -0.4420  0.6289
 9212SOL    HW239096   1.803   0.897   8.214 -1.7032  0.7917  1.8972
 9213SOL     OW39097   3.888   3.912   2.476  0.1484  0.2455  0.3647
 9213SOL    HW139098   3.843   3.849   2.419 -2.6338  2.4863  0.0981
 9213SOL    HW239099   3.904   3.982   2.413  1.6485  0.1870  0.6792
 9214SOL     OW39100   1.213   3.525   5.583 -0.4485 -0.3458  0.5417
 9214SOL    HW139101   1.222   3.611   5.543 -0.2740  0.3711  2.1242
 9214SOL    HW239102   1.303   3.494   5.573 -0.0605  0.8980  0.2848
 9215SOL     OW39103   3.100   2.268  10.791 -0.2612 -0.8598 -0.2841
 9215SOL    HW139104   3.038   2.202  10.822 -0.8346 -0.4252 -0.4967
 9215SOL    HW239105   3.095   2.251  10.697  1.4868  1.1983 -0.7623
 9216SOL     OW39106   1.197   2.528   9.132  0.4426  0.6973 -0.1848
 9216SOL    HW139107   1.237   2.583   9.199  0.2372  0.6986 -0.0646
 9216SOL    HW239108   1.147   2.463   9.182 -2.0800  2.8093  0.0201
 9217SOL     OW39109   3.836   1.103  13.175  0.4285  0.5903 -0.5825
 9217SOL    HW139110   3.837   1.171  13.108 -0.3406  0.3267 -0.8602
 9217SOL    HW239111   3.858   1.161  13.247  0.9415 -0.4725  0.1068
 9218SOL     OW39112   0.042   3.072   4.939 -0.1399  0.0997  0.2181
 9218SOL    HW139113   0.127   3.079   4.896  1.2655 -0.7861  2.8467
 9218SOL    HW239114   0.061   3.130   5.014  0.5387  1.3224 -0.9037
 9219SOL     OW39115   3.942   0.309   8.977  0.3775  0.1813  0.5463
 9219SOL    HW139116   4.031   0.306   9.012  0.2117  1.5420  1.0896
 9219SOL    HW239117   3.894   0.368   9.035 -0.3947  0.9844 -0.9370
 9220SOL     OW39118   1.842   3.393   0.829 -0.4429  0.0162 -0.0903
 9220SOL    HW139119   1.837   3.383   0.734  1.6219 -1.1993 -0.0833
 9220SOL    HW239120   1.762   3.441   0.849 -0.3407  1.3007 -2.8307
 9221SOL     OW39121   2.630   1.587  13.734 -0.2451 -0.0650 -0.4638
 9221SOL    HW139122   2.602   1.495  13.736  0.8983 -0.4217 -1.0154
 9221SOL    HW239123   2.661   1.610  13.822  0.3162 -0.9036 -0.4407
 9222SOL     OW39124   3.259   4.221   0.080  0.5586 -0.1820 -0.2489
 9222SOL    HW139125   3.320   4.237   0.151 -0.8611 -0.0612  0.9582
 9222SOL    HW239126   3.297   4.147   0.033  1.0380  1.1474 -1.9714
 9223SOL     OW39127   4.050   1.083  13.965 -0.7653 -0.1899  0.1717
 9223SOL    HW139128   4.032   1.176  13.982 -0.4895 -0.0930 -0.0701
 9223SOL    HW239129   4.090   1.065  14.051 -0.5672  3.1582  0.8009
 9224SOL     OW39130   0.925   2.616   9.653  0.2386  0.2173  0.0142
 9224SOL    HW139131   0.835   2.598   9.628  0.2513 -0.3409  0.3746
 9224SOL    HW239132   0.927   2.708   9.680 -1.9642  0.3282 -0.2029
 9225SOL     OW39133   1.822   3.199   5.792 -0.2473 -0.0365 -0.0561
 9225SOL    HW139134   1.908   3.234   5.814  0.7035 -0.5036 -2.9894
 9225SOL    HW239135   1.768   3.208   5.871  1.1247  0.3949  0.8257
 9226SOL     OW39136   3.306   0.975  10.857  0.1761  0.1563  0.1005
 9226SOL    HW139137   3.270   1.015  10.778 -0.5635 -1.9347 -0.6322
 9226SOL    HW239138   3.400   0.990  10.850  0.4829 -2.2066 -0.7307
 9227SOL     OW39139   0.228   3.619   3.419 -0.0814  0.4070  0.1202
 9227SOL    HW139140   0.262   3.600   3.331 -0.9293 -0.6687  0.0187
 9227SOL    HW239141   0.201   3.532   3.447 -0.1853  0.4518  0.1588
 9228SOL     OW39142   1.565   2.216  11.891 -0.0643  0.8375  0.1852
 9228SOL    HW139143   1.500   2.171  11.837 -1.2991  1.0918  1.4524
 9228SOL    HW239144   1.628   2.250  11.827  0.1358  1.4032  0.6776
 9229SOL     OW39145   2.803   0.364   3.451  0.3596 -0.0057 -0.2555
 9229SOL    HW139146   2.827   0.284   3.405 -0.6864  0.0481 -0.9021
 9229SOL    HW239147   2.862   0.369   3.527 -0.5106  0.1764  0.4070
 9230SOL     OW39148   2.325   4.351   8.130 -0.3579 -0.5392  0.1021
 9230SOL    HW139149   2.335   4.277   8.190 -2.2572 -0.9749 -0.1285
 9230SOL    HW239150   2.416   4.379   8.125 -0.8717  1.3803  1.0947
 9231SOL     OW39151   4.002   2.722   4.086 -0.3283  0.2544  0.3753
 9231SOL    HW139152   4.041   2.785   4.025  0.0602  0.6870  1.0840
 9231SOL    HW239153   3.908   2.740   4.075 -0.2843  1.0556  1.3344
 9232SOL     OW39154   1.237   1.542  10.907 -0.5578 -0.2659  0.5535
 9232SOL    HW139155   1.310   1.482  10.918  2.5100  3.4787  0.6420
 9232SOL    HW239156   1.287   1.621  10.888  1.0988 -1.6532 -0.8145
 9233SOL     OW39157   1.798   3.289   3.111  0.4642  0.0633  0.2695
 9233SOL    HW139158   1.847   3.211   3.140  0.5373  0.3413  0.8998
 9233SOL    HW239159   1.871   3.347   3.089  1.1175 -1.3581 -1.3188
 9234SOL     OW39160   1.412   2.528   4.652  0.4981 -0.2589 -0.1575
 9234SOL    HW139161   1.354   2.453   4.641  1.7124 -1.5852  2.3821
 9234SOL    HW239162   1.417   2.557   4.561 -1.4045  0.1996 -0.1114
 9235SOL     OW39163   3.243   1.055   6.799  0.3010  0.1749 -0.0330
 9235SOL    HW139164   3.249   1.022   6.888 -1.0577  1.1553  0.4263
 9235SOL    HW239165   3.258   0.972   6.753  1.2460  0.4981 -0.3089
 9236SOL     OW39166   3.165   3.986   1.346  0.4329 -1.0068 -0.5408
 9236SOL    HW139167   3.093   3.930   1.316  0.2075 -1.3450  0.6261
 9236SOL    HW239168   3.138   4.027   1.428  1.7012  2.0626 -1.6739
 9237SOL     OW39169   2.358   3.969   4.298  0.1486 -0.0681  0.9663
 9237SOL    HW139170   2.324   3.928   4.378  1.0383  0.4821  1.6255
 9237SOL    HW239171   2.311   3.915   4.235  0.2660  0.3828  0.4971
 9238SOL     OW39172   2.052   2.119  11.274  0.4536  0.9242  0.1506
 9238SOL    HW139173   1.957   2.122  11.272  0.4168  1.6594  2.7746
 9238SOL    HW239174   2.073   2.155  11.188  0.2233  1.2174  0.2192
 9239SOL     OW39175   4.210   4.207   2.321 -0.0327  0.1147 -0.1643
 9239SOL    HW139176   4.286   4.242   2.274  0.1409 -1.0736 -0.7854
 9239SOL    HW239177   4.223   4.114   2.298  0.6640  0.5761 -1.6731
 9240SOL     OW39178   2.191   0.108   6.307  0.4695 -0.1791 -0.2811
 9240SOL    HW139179   2.126   0.146   6.248 -0.1302  0.4317  0.7662
 9240SOL    HW239180   2.137   0.073   6.378 -0.9828  1.8690 -0.3657
 9241SOL     OW39181   0.250   0.384  11.272 -0.0360 -0.0459  0.0711
 9241SOL    HW139182   0.156   0.393  11.288  0.4150  1.6286  1.7941
 9241SOL    HW239183   0.258   0.325  11.347 -1.8721  2.1666  2.0245
 9242SOL     OW39184   1.971   2.751   6.814 -0.2498 -0.5587 -0.0218
 9242SOL    HW139185   1.894   2.725   6.764  0.8973 -1.1447 -1.4637
 9242SOL    HW239186   1.938   2.745   6.903  0.1653  0.9045  0.2409
 9243SOL     OW39187   4.377   0.319   2.449  0.0007 -0.4346 -0.5501
 9243SOL    HW139188   4.344   0.408   2.445  0.3600 -0.2805  0.0330
 9243SOL    HW239189   4.342   0.272   2.373 -1.3547 -1.1527  0.5167
 9244SOL     OW39190   3.213   4.182   5.690 -0.3903 -0.1730  0.0651
 9244SOL    HW139191   3.304   4.180   5.660 -0.0328  1.4584  1.0283
 9244SOL    HW239192   3.217   4.112   5.755 -0.3577  1.0042  1.3353
 9245SOL     OW39193   3.370   2.783   2.556  0.1414 -0.6932 -0.0588
 9245SOL    HW139194   3.387   2.803   2.648 -0.1103 -0.0706 -0.1491
 9245SOL    HW239195   3.456   2.797   2.516 -0.3123 -1.2139 -1.2084
 9246SOL     OW39196   0.878   0.841   8.630  0.3648  0.4026  0.3293
 9246SOL    HW139197   0.849   0.903   8.563  1.5407 -0.7865 -1.2591
 9246SOL    HW239198   0.883   0.892   8.711  2.1006 -1.8613  1.6620
 9247SOL     OW39199   3.485   1.593   5.438  0.7685  0.1564  0.6304
 9247SOL    HW139200   3.442   1.677   5.451  2.3910  1.3791 -1.8860
 9247SOL    HW239201   3.517   1.590   5.347  0.7464  1.5535  0.5774
 9248SOL     OW39202   2.473   3.634   7.488 -0.1405 -0.3350 -0.2298
 9248SOL    HW139203   2.447   3.563   7.429 -1.2149 -0.8675  0.8868
 9248SOL    HW239204   2.474   3.717   7.439  2.3657 -0.8693 -1.0863
 9249SOL     OW39205   1.391   2.221   4.944  0.4573 -0.5879 -0.6350
 9249SOL    HW139206   1.346   2.278   4.882  0.2028  1.4913  1.4299
 9249SOL    HW239207   1.366   2.134   4.913 -1.9700  0.4329 -1.5187
 9250SOL     OW39208   3.066   3.481   9.149  0.0436 -0.9294 -1.1961
 9250SOL    HW139209   3.086   3.481   9.243  0.4961 -0.6126 -1.2953
 9250SOL    HW239210   2.972   3.498   9.155 -0.0171 -1.0135 -1.9755
 9251SOL     OW39211   1.685   3.224   1.529 -0.3051 -0.0268  0.1287
 9251SOL    HW139212   1.645   3.303   1.565  1.3445  1.0321 -0.3515
 9251SOL    HW239213   1.755   3.258   1.474 -0.4303 -0.2685 -0.1796
 9252SOL     OW39214   0.360   0.429   4.494  0.1560  0.2033 -0.0968
 9252SOL    HW139215   0.398   0.466   4.573 -1.1987 -0.8779  1.0684
 9252SOL    HW239216   0.269   0.418   4.518  0.5078 -0.7941  0.7945
 9253SOL     OW39217   4.302   2.770   7.646 -0.2296  0.4599  0.2743
 9253SOL    HW139218   4.293   2.675   7.642  0.4141  0.4511 -0.7949
 9253SOL    HW239219   4.249   2.798   7.572  0.8764 -0.2356 -0.7758
 9254SOL     OW39220   1.685   0.284   6.018 -0.0047 -0.1580 -0.8504
 9254SOL    HW139221   1.674   0.189   6.021 -1.4664  0.0296 -0.5112
 9254SOL    HW239222   1.619   0.316   6.079  0.3346 -1.9725  0.4536
 9255SOL     OW39223   1.226   0.560   6.140  0.0583  0.1717  0.4039
 9255SOL    HW139224   1.203   0.508   6.063  3.5303  0.1380 -0.6154
 9255SOL    HW239225   1.150   0.535   6.193  0.8945 -0.7602  1.1805
 9256SOL     OW39226   1.728   0.157  17.360 -0.0902  0.4085  0.9120
 9256SOL    HW139227   1.636   0.152  17.387 -0.2551 -1.5610  0.0042
 9256SOL    HW239228   1.711   0.120  17.273 -2.2240  1.6892  0.7974
 9257SOL     OW39229   1.473   1.915   4.485  0.1369 -0.1490  0.5286
 9257SOL    HW139230   1.452   1.971   4.560 -3.6981  1.6467 -1.8788
 9257SOL    HW239231   1.503   1.829   4.514 -0.9301 -0.9808 -0.8110
 9258SOL     OW39232   2.132   3.233   5.092  0.2857  0.4721  0.0071
 9258SOL    HW139233   2.038   3.232   5.074  0.0093 -0.5660  1.5098
 9258SOL    HW239234   2.177   3.182   5.025  0.5626 -0.0313  0.5793
 9259SOL     OW39235   1.350   1.322  13.962  0.5334 -0.4505  0.0676
 9259SOL    HW139236   1.352   1.416  13.980 -0.0529 -0.6992  1.4396
 9259SOL    HW239237   1.428   1.289  14.007 -0.1558  0.4288  1.9311
 9260SOL     OW39238   2.575   0.307   3.678  0.3889 -0.1733 -0.0239
 9260SOL    HW139239   2.610   0.361   3.607 -0.0298 -0.0388 -0.1262
 9260SOL    HW239240   2.555   0.223   3.636 -0.1574  0.9362 -1.9771
 9261SOL     OW39241   2.965   1.374   2.917 -0.2448 -1.1655 -0.1819
 9261SOL    HW139242   2.934   1.326   2.994 -0.5800 -0.1925  0.2913
 9261SOL    HW239243   2.901   1.444   2.905  1.5299  0.4025 -0.4921
 9262SOL     OW39244   1.221   0.433   8.486 -0.7232  0.5038 -0.4889
 9262SOL    HW139245   1.131   0.404   8.504 -0.9838  1.3086 -0.4907
 9262SOL    HW239246   1.198   0.524   8.470  1.2045  1.0070 -0.3084
 9263SOL     OW39247   4.603   3.524   3.139 -0.9844  0.4825  0.1707
 9263SOL    HW139248   4.527   3.544   3.084 -1.3804  0.3032  0.6576
 9263SOL    HW239249   4.622   3.432   3.125  1.0912  0.7642  1.0063
 9264SOL     OW39250   0.372   1.335   2.465  0.4979 -0.5888 -0.2162
 9264SOL    HW139251   0.367   1.414   2.519  2.2164 -0.6109 -0.0109
 9264SOL    HW239252   0.350   1.375   2.381  3.2853 -2.1207 -1.6945
 9265SOL     OW39253   3.173   4.674   0.163  0.0178  0.1835  0.1327
 9265SOL    HW139254   3.127   4.709   0.240  2.4005  0.6686  1.3618
 9265SOL    HW239255   3.168   0.020   0.095  2.1338  1.0694  0.8492
 9266SOL     OW39256   2.887   0.591   6.688  0.2757  0.4730 -0.5003
 9266SOL    HW139257   2.822   0.521   6.681 -0.6827  1.4729 -1.5451
 9266SOL    HW239258   2.840   0.645   6.752 -0.1436 -0.9223  0.3561
 9267SOL     OW39259   1.854   0.702   7.330  0.2101  0.2022  0.0937
 9267SOL    HW139260   1.937   0.661   7.357 -1.0634 -2.4477 -0.0230
 9267SOL    HW239261   1.881   0.773   7.272 -1.0830  1.8321  1.5083
 9268SOL     OW39262   1.554   2.351   0.767 -0.0932 -0.0626 -0.1118
 9268SOL    HW139263   1.597   2.301   0.697 -0.4829  1.8624 -1.7066
 9268SOL    HW239264   1.467   2.322   0.741  0.3157  2.5003 -4.2960
 9269SOL     OW39265   1.993   2.420   9.321 -0.2194  0.2467 -0.5329
 9269SOL    HW139266   2.028   2.408   9.410 -1.9231 -0.9170 -0.0171
 9269SOL    HW239267   2.069   2.467   9.288  0.1028 -0.7004 -1.1304
 9270SOL     OW39268   0.350   1.248   3.273 -0.2884 -0.0832 -0.3645
 9270SOL    HW139269   0.429   1.296   3.247 -0.6221  0.8127  0.2772
 9270SOL    HW239270   0.341   1.180   3.207  2.3262  0.3660 -1.1978
 9271SOL     OW39271   4.568   4.608   8.845 -0.0089  0.4466  0.0336
 9271SOL    HW139272   4.643   4.598   8.786 -1.0810  1.3428 -1.4713
 9271SOL    HW239273   4.605   4.660   8.916  1.2351 -1.6192  0.8892
 9272SOL     OW39274   2.728   0.268   0.627 -0.7229  0.4422  0.2883
 9272SOL    HW139275   2.774   0.188   0.602  1.2794  2.0892 -1.3824
 9272SOL    HW239276   2.749   0.340   0.567  0.1496 -0.0388  0.0070
 9273SOL     OW39277   1.145   0.564   1.701  0.0865  0.7043  0.6706
 9273SOL    HW139278   1.140   0.484   1.754  0.4969  0.8429  0.9241
 9273SOL    HW239279   1.213   0.612   1.749  0.5849  0.9052 -0.2346
 9274SOL     OW39280   4.582   0.689   1.288 -0.3229 -0.4259 -0.2739
 9274SOL    HW139281   4.500   0.643   1.305 -0.0838 -0.3278  1.0911
 9274SOL    HW239282   4.650   0.625   1.306  0.5905  0.0453 -2.0243
 9275SOL     OW39283   2.909   2.963   1.967  0.5201 -0.2463 -0.6508
 9275SOL    HW139284   3.000   2.955   1.939  0.4063 -0.2395 -1.0117
 9275SOL    HW239285   2.912   2.933   2.058 -0.4067 -2.1044 -1.2367
 9276SOL     OW39286   3.193   1.746  10.093 -0.4739 -0.4224  0.0331
 9276SOL    HW139287   3.250   1.734  10.017  1.0953 -0.3006  1.1935
 9276SOL    HW239288   3.110   1.756  10.045 -0.3655 -0.5705 -0.1858
 9277SOL     OW39289   2.374   4.137   7.253 -0.1688  0.5251  0.4068
 9277SOL    HW139290   2.410   4.208   7.307 -1.3279  1.2727  0.1974
 9277SOL    HW239291   2.325   4.183   7.185  0.7214  0.3788 -0.3364
 9278SOL     OW39292   1.267   4.691   5.917  0.0626 -0.6324  0.0076
 9278SOL    HW139293   1.344   4.637   5.897 -0.2320 -1.0488 -0.0047
 9278SOL    HW239294   1.255   4.684   6.011  0.4253 -0.9062  0.0358
 9279SOL     OW39295   3.536   0.184   8.302 -0.1462  0.4822  0.1920
 9279SOL    HW139296   3.508   0.098   8.271  0.2900  0.6558 -0.6955
 9279SOL    HW239297   3.464   0.233   8.262  0.7714  0.6288 -1.3038
 9280SOL     OW39298   0.253   2.319   5.805 -0.2531  0.1151 -0.2756
 9280SOL    HW139299   0.330   2.280   5.847 -0.3910  0.9715  0.7794
 9280SOL    HW239300   0.215   2.247   5.755  1.0577 -0.9531  0.2691
 9281SOL     OW39301   3.693   0.170   5.873 -0.3810  0.4339 -0.2347
 9281SOL    HW139302   3.665   0.124   5.794  2.4741 -0.5069 -0.6861
 9281SOL    HW239303   3.763   0.229   5.845 -0.4170 -0.2888 -1.8273
 9282SOL     OW39304   1.319   2.375   7.448  0.2442 -0.4303 -0.6712
 9282SOL    HW139305   1.391   2.435   7.469 -1.5656  1.1270  1.0228
 9282SOL    HW239306   1.375   2.332   7.383 -1.1453 -2.2943 -0.6206
 9283SOL     OW39307   1.386   3.726   6.277 -0.5815  0.3638  0.5493
 9283SOL    HW139308   1.335   3.647   6.292  1.9843 -1.2603  0.6611
 9283SOL    HW239309   1.363   3.774   6.356 -0.2311 -1.4399  1.7436
 9284SOL     OW39310   1.276   3.017  10.785 -0.2865  0.0273 -0.2979
 9284SOL    HW139311   1.323   3.093  10.750  1.5685 -1.8673 -1.8652
 9284SOL    HW239312   1.352   2.971  10.821  0.5337 -0.2718 -2.3744
 9285SOL     OW39313   2.495   2.095  13.607  0.1922  0.0325  0.0900
 9285SOL    HW139314   2.483   2.092  13.702 -0.0835 -0.8476  0.0246
 9285SOL    HW239315   2.514   2.004  13.585 -1.6697 -0.0927 -0.9604
 9286SOL     OW39316   4.612   2.871   2.661 -0.4852  0.1564 -0.0885
 9286SOL    HW139317   4.583   2.942   2.604 -2.0835  0.0399  0.5595
 9286SOL    HW239318   4.689   2.914   2.698 -2.7568  3.0585  1.3598
 9287SOL     OW39319   0.961   4.551   6.264 -0.0506 -0.0694 -0.4107
 9287SOL    HW139320   0.933   4.529   6.175  0.3248 -0.4150 -0.4447
 9287SOL    HW239321   0.946   4.646   6.266  2.1284  0.3063 -1.7868
 9288SOL     OW39322   1.594   2.101  12.274 -0.2220  0.1088  0.2058
 9288SOL    HW139323   1.671   2.049  12.253 -0.5996 -0.9820  1.5462
 9288SOL    HW239324   1.585   2.070  12.364 -2.7537 -1.3197 -0.5429
 9289SOL     OW39325   1.592   3.850   7.545 -0.4631 -0.4010 -0.1084
 9289SOL    HW139326   1.558   3.924   7.596 -2.1359 -1.0530 -0.2859
 9289SOL    HW239327   1.532   3.863   7.472  0.7664  2.4673 -0.6423
 9290SOL     OW39328   3.893   3.133  16.479  0.1377 -0.4091 -0.3160
 9290SOL    HW139329   3.942   3.054  16.504 -0.0567 -0.4548 -0.0754
 9290SOL    HW239330   3.957   3.191  16.438 -0.7426  1.3178  0.7521
 9291SOL     OW39331   4.659   1.544   2.465 -0.5979  0.0899 -0.0799
 9291SOL    HW139332   4.632   1.587   2.384  0.1019  1.1050  0.2315
 9291SOL    HW239333   0.032   1.560   2.466 -0.9577  2.1875  0.9615
 9292SOL     OW39334   1.684   4.179   1.777 -0.1339 -0.3785 -0.2833
 9292SOL    HW139335   1.707   4.156   1.868  2.0847 -0.4106 -0.8549
 9292SOL    HW239336   1.692   4.274   1.784 -1.0189 -0.3644  0.6798
 9293SOL     OW39337   0.160   4.688   5.265  0.1909  0.4906 -0.1581
 9293SOL    HW139338   0.065   4.702   5.270  0.2314  0.9916 -0.8595
 9293SOL    HW239339   0.190   0.048   5.224  1.0924  0.1505 -0.1748
 9294SOL     OW39340   3.269   4.621   5.418  0.0937 -0.0153  0.1600
 9294SOL    HW139341   3.263   4.546   5.359 -0.3770 -0.4103  0.7093
 9294SOL    HW239342   3.324   4.586   5.488  0.4331  0.8671  0.3371
 9295SOL     OW39343   2.005   2.336   9.852 -0.0119  0.3184  0.1021
 9295SOL    HW139344   2.001   2.369   9.942 -0.7540  1.2415 -0.2654
 9295SOL    HW239345   1.920   2.357   9.813 -1.8344 -2.4837  2.5572
 9296SOL     OW39346   1.694   1.797  17.660  0.0599  0.1750 -0.7741
 9296SOL    HW139347   1.737   1.864  17.606  0.6141  1.3970  1.1724
 9296SOL    HW239348   1.757   1.782   0.043  0.0469 -0.3870 -0.8873
 9297SOL     OW39349   0.117   0.127   4.790  0.8452 -0.2303  0.1480
 9297SOL    HW139350   0.199   0.122   4.741  0.8935  0.7219  0.1313
 9297SOL    HW239351   0.055   0.141   4.718  3.3176 -1.9280 -2.3302
 9298SOL     OW39352   4.481   0.666  13.288 -0.6979 -0.5526  0.5330
 9298SOL    HW139353   4.447   0.723  13.219  2.1650 -1.2305 -1.4111
 9298SOL    HW239354   4.407   0.613  13.318  0.0902 -1.4477  0.8781
 9299SOL     OW39355   4.406   1.235  16.791  0.0845 -0.2255  0.3044
 9299SOL    HW139356   4.491   1.208  16.825 -0.0571 -0.3975  0.5232
 9299SOL    HW239357   4.405   1.323  16.830 -0.1424 -0.1253  0.0729
 9300SOL     OW39358   0.170   0.262   0.121  0.4411  0.1882 -0.4839
 9300SOL    HW139359   0.104   0.272   0.053 -2.1658  0.6133  2.1216
 9300SOL    HW239360   0.154   0.170   0.141 -0.1385  0.2226 -0.7921
 9301SOL     OW39361   3.523   1.737  16.612 -0.2155 -0.4534 -0.0176
 9301SOL    HW139362   3.554   1.715  16.525  0.0886  2.9749 -0.7842
 9301SOL    HW239363   3.512   1.832  16.608  1.0526 -0.3262 -0.4428
 9302SOL     OW39364   1.434   2.688   7.015  0.3550  0.3616  0.0547
 9302SOL    HW139365   1.435   2.656   6.925 -2.5027 -0.8380  0.4575
 9302SOL    HW239366   1.340   2.697   7.027  0.2807 -1.8154  1.0428
 9303SOL     OW39367   4.578   1.976  14.635 -0.2860  0.0889  0.4920
 9303SOL    HW139368   4.505   2.008  14.582 -0.3143 -1.2342 -0.2567
 9303SOL    HW239369   4.592   2.060  14.680  0.9238  0.4342 -0.5069
 9304SOL     OW39370   0.542   3.819   5.000 -0.1174 -0.6985  0.5542
 9304SOL    HW139371   0.504   3.905   5.010  1.7180  0.0134  1.4708
 9304SOL    HW239372   0.616   3.822   5.061 -2.6401  4.5767  3.2442
 9305SOL     OW39373   3.922   3.260   8.410  0.2711 -0.6723  0.1000
 9305SOL    HW139374   3.985   3.288   8.477  0.9510 -0.0863 -0.7928
 9305SOL    HW239375   3.907   3.167   8.429 -1.8422 -0.6123 -1.3353
 9306SOL     OW39376   1.957   3.857  15.461 -0.1256  0.3290  0.0394
 9306SOL    HW139377   1.996   3.919  15.399  0.2208  0.0502 -0.0210
 9306SOL    HW239378   2.037   3.811  15.487 -1.8292 -1.6305  1.7801
 9307SOL     OW39379   0.294   0.248   6.618  0.1124  0.1150 -0.2366
 9307SOL    HW139380   0.322   0.329   6.661  0.0980 -1.1437  2.0894
 9307SOL    HW239381   0.246   0.287   6.544  0.2749 -0.0200 -0.4131
 9308SOL     OW39382   1.282   3.866  12.867 -0.3157 -0.2075  0.4840
 9308SOL    HW139383   1.232   3.946  12.849 -0.3755  0.0062  1.5856
 9308SOL    HW239384   1.267   3.832  12.956 -0.9816  0.0552  0.4720
 9309SOL     OW39385   1.796   1.928   8.880 -0.3276  0.6212 -0.1493
 9309SOL    HW139386   1.719   1.969   8.921 -1.1933  0.4786 -1.5951
 9309SOL    HW239387   1.833   1.889   8.959 -1.1596 -2.2081 -1.1732
 9310SOL     OW39388   1.325   1.982   2.486  0.1061 -0.1375  0.1038
 9310SOL    HW139389   1.315   2.041   2.561  0.6866 -0.5723  0.5281
 9310SOL    HW239390   1.316   2.055   2.425 -3.1619  0.4702  1.2864
 9311SOL     OW39391   4.430   4.159  16.691 -0.0887  0.1154 -0.3087
 9311SOL    HW139392   4.441   4.252  16.671 -0.8941  0.0888 -0.8722
 9311SOL    HW239393   4.420   4.127  16.601 -0.4521 -0.2271 -0.1451
 9312SOL     OW39394   0.645   1.693   2.257  0.4601  0.0735  0.2302
 9312SOL    HW139395   0.657   1.668   2.349 -2.1789 -0.1543  0.4891
 9312SOL    HW239396   0.739   1.688   2.236  0.7606  1.2192  1.3386
 9313SOL     OW39397   1.645   0.737   1.826 -0.0150  0.2482 -0.2459
 9313SOL    HW139398   1.724   0.778   1.862 -1.5949  1.5422  1.8009
 9313SOL    HW239399   1.579   0.746   1.895 -0.1219 -0.9621 -0.2000
 9314SOL     OW39400   4.709   3.337   0.581  0.2965 -0.1734 -0.5985
 9314SOL    HW139401   0.046   3.284   0.637  0.0634  0.6683  0.4483
 9314SOL    HW239402   4.623   3.303   0.605 -0.1880  1.9285  0.7634
 9315SOL     OW39403   1.866   3.129   4.311  0.3450  0.1695 -0.1360
 9315SOL    HW139404   1.774   3.103   4.298  0.4259  1.1847 -2.7355
 9315SOL    HW239405   1.915   3.076   4.247  0.4723 -0.1313  0.2117
 9316SOL     OW39406   0.859   0.222   5.780 -0.3846  0.0231  0.4382
 9316SOL    HW139407   0.878   0.131   5.802 -0.2721  0.1795  1.0015
 9316SOL    HW239408   0.785   0.244   5.837 -0.2356  0.5159  0.4437
 9317SOL     OW39409   0.691   0.474   3.083  0.4919 -0.0904 -0.3945
 9317SOL    HW139410   0.622   0.453   3.146 -0.5204 -1.9612 -2.1246
 9317SOL    HW239411   0.687   0.409   3.013  1.2328 -0.8558  0.2806
 9318SOL     OW39412   0.382   0.649   9.018  0.5805  0.2300  0.0476
 9318SOL    HW139413   0.287   0.652   9.010  0.3520 -2.0541  2.2378
 9318SOL    HW239414   0.402   0.555   9.015 -2.2781 -0.3610 -0.3260
 9319SOL     OW39415   4.590   0.295  13.171 -0.5861 -0.4687  0.7286
 9319SOL    HW139416   4.569   0.230  13.238 -1.2294  0.0674  1.0497
 9319SOL    HW239417   4.504   0.293  13.129 -0.3940  2.8392  0.1509
 9320SOL     OW39418   2.357   2.874  14.831 -0.4180 -0.2557 -0.1137
 9320SOL    HW139419   2.391   2.846  14.746 -0.1895  0.2321 -0.1838
 9320SOL    HW239420   2.413   2.823  14.889 -0.6548 -2.8505 -2.1628
 9321SOL     OW39421   4.231   3.857   1.819 -0.5079  0.1115 -0.4564
 9321SOL    HW139422   4.175   3.834   1.893 -2.1422 -2.9753 -2.6193
 9321SOL    HW239423   4.217   3.952   1.818  0.4347  0.2450 -0.5058
 9322SOL     OW39424   4.202   2.014   0.806  0.0501 -0.5275 -0.0947
 9322SOL    HW139425   4.109   2.008   0.830 -0.2637  0.0457 -1.1493
 9322SOL    HW239426   4.209   2.106   0.783 -0.5651  0.3517  3.1130
 9323SOL     OW39427   2.052   4.701   7.561 -0.3747  0.3501  0.0167
 9323SOL    HW139428   2.017   0.001   7.474  0.4559 -0.7062 -0.5859
 9323SOL    HW239429   1.979   0.004   7.618 -2.7098 -1.3623 -2.2137
 9324SOL     OW39430   3.910   0.545  17.408 -0.3757 -1.1961  0.4353
 9324SOL    HW139431   3.831   0.496  17.386 -1.1363  0.6323 -0.8252
 9324SOL    HW239432   3.903   0.623  17.354 -2.5352  0.5433  3.2935
 9325SOL     OW39433   1.932   1.080   4.812 -0.3781 -0.1555 -0.0267
 9325SOL    HW139434   1.871   1.007   4.807 -2.1649  1.3178  0.1819
 9325SOL    HW239435   1.875   1.150   4.780 -0.0246 -0.3173 -1.0084
 9326SOL     OW39436   0.346   2.804   8.520  0.2459  0.2662 -0.4425
 9326SOL    HW139437   0.352   2.725   8.466 -1.2817 -0.3743  0.3369
 9326SOL    HW239438   0.390   2.865   8.460 -2.6612  2.8029 -0.0197
 9327SOL     OW39439   4.308   4.484   8.371 -0.5353 -0.0463 -0.2793
 9327SOL    HW139440   4.325   4.412   8.432 -0.8340  0.6022  0.5704
 9327SOL    HW239441   4.352   4.442   8.297 -2.6830 -1.9356 -0.4706
 9328SOL     OW39442   2.031   2.698   7.655 -0.2474 -0.2046 -0.0672
 9328SOL    HW139443   2.048   2.758   7.727 -0.5768  1.5810 -1.4612
 9328SOL    HW239444   2.096   2.630   7.674 -1.9875 -2.1343 -1.0442
 9329SOL     OW39445   1.564   3.777   0.840  0.2964  0.5360 -0.0797
 9329SOL    HW139446   1.471   3.756   0.829  0.1455  0.7552  0.7901
 9329SOL    HW239447   1.598   3.807   0.756  1.5735  0.2428  0.3248
 9330SOL     OW39448   2.072   1.994  12.547  0.3070  0.2381 -0.1309
 9330SOL    HW139449   2.092   1.961  12.459 -0.7764  0.8011 -0.5936
 9330SOL    HW239450   2.063   2.089  12.539 -1.1604  0.1483  0.3872
 9331SOL     OW39451   3.078   3.175  17.134  0.0538  0.0111  0.3594
 9331SOL    HW139452   3.088   3.090  17.179  0.5854 -0.0614  0.1060
 9331SOL    HW239453   3.060   3.130  17.051 -0.0872 -1.9391  1.4282
 9332SOL     OW39454   1.467   3.916   2.020 -0.4913 -0.3086  0.0734
 9332SOL    HW139455   1.456   3.948   1.931 -0.8521  0.1631  0.2864
 9332SOL    HW239456   1.404   3.844   2.020 -1.0272  0.1650  1.2024
 9333SOL     OW39457   4.566   3.419  14.389  0.0762 -0.4481  0.2445
 9333SOL    HW139458   4.582   3.345  14.448 -0.4619 -1.2819 -0.6372
 9333SOL    HW239459   4.635   3.480  14.413 -1.4055  1.0928  0.5246
 9334SOL     OW39460   3.256   3.387   3.591  0.0682  1.1580 -0.1655
 9334SOL    HW139461   3.340   3.409   3.631 -0.3410  0.9705  0.7921
 9334SOL    HW239462   3.247   3.464   3.535 -0.1861  0.0756 -1.6397
 9335SOL     OW39463   4.408   1.247   3.368 -0.1687  0.3797 -0.5806
 9335SOL    HW139464   4.359   1.255   3.450 -3.1115 -1.5144 -2.1724
 9335SOL    HW239465   4.354   1.191   3.313  2.3953 -1.7245 -0.9303
 9336SOL     OW39466   0.579   3.670  13.085  0.4025 -0.7489 -0.2737
 9336SOL    HW139467   0.608   3.659  12.994 -1.3270 -0.1339 -0.9020
 9336SOL    HW239468   0.491   3.632  13.081 -0.2463  0.9163 -1.8270
 9337SOL     OW39469   0.454   0.813   6.975 -0.6766 -0.0937 -0.0712
 9337SOL    HW139470   0.488   0.800   6.887  4.0402  0.6345  1.6809
 9337SOL    HW239471   0.359   0.814   6.962 -0.6269 -2.3806 -0.5239
 9338SOL     OW39472   4.628   4.024   7.780  0.4326  0.3782 -0.1875
 9338SOL    HW139473   4.683   3.949   7.802 -0.5533 -0.0117  0.9057
 9338SOL    HW239474   4.660   4.083   7.847  1.1444 -1.4736  1.1106
 9339SOL     OW39475   1.768   3.677  11.907  0.2682  0.0420 -0.7089
 9339SOL    HW139476   1.780   3.745  11.973 -1.1204 -1.0633  0.6785
 9339SOL    HW239477   1.710   3.724  11.846 -0.3248 -0.5504 -0.6051
 9340SOL     OW39478   4.609   4.048   2.299 -0.0598 -0.1200  0.6291
 9340SOL    HW139479   4.661   4.082   2.227 -0.6043 -0.6015  0.0053
 9340SOL    HW239480   4.535   4.109   2.294  0.6893  0.8491  1.4657
 9341SOL     OW39481   0.530   3.962  12.794 -0.4026 -0.1132  0.5502
 9341SOL    HW139482   0.596   3.899  12.766 -0.8812  0.3313 -1.5973
 9341SOL    HW239483   0.454   3.911  12.822 -0.1177  0.0938  1.6863
 9342SOL     OW39484   1.547   4.146  15.151 -0.3539 -0.5993  0.4202
 9342SOL    HW139485   1.640   4.130  15.165 -0.3802 -1.5904 -0.5396
 9342SOL    HW239486   1.551   4.206  15.076  1.0586  0.8970  1.6806
 9343SOL     OW39487   2.202   0.675  12.250  0.3374 -0.0708  0.2337
 9343SOL    HW139488   2.276   0.655  12.307  1.0994 -0.7187 -0.9818
 9343SOL    HW239489   2.235   0.633  12.171  0.9256 -1.3519  1.1557
 9344SOL     OW39490   1.858   0.687   0.333 -0.4283 -0.4881 -0.4109
 9344SOL    HW139491   1.890   0.739   0.407  0.4681  0.1606 -1.2534
 9344SOL    HW239492   1.774   0.732   0.324  0.5392  1.8846  2.2049
 9345SOL     OW39493   4.198   2.224  17.361  0.1360 -0.2733 -0.0324
 9345SOL    HW139494   4.288   2.253  17.377  1.1922 -3.3335 -0.4300
 9345SOL    HW239495   4.212   2.173  17.281  0.0439 -0.2406 -0.0693
 9346SOL     OW39496   2.014   0.837  12.358  0.0959 -0.1371  0.1306
 9346SOL    HW139497   2.086   0.797  12.310  0.8380 -1.4238  2.3717
 9346SOL    HW239498   1.975   0.886  12.285  1.3039  2.1562  1.0351
 9347SOL     OW39499   0.872   0.699   8.034  0.0412 -0.0379  0.8398
 9347SOL    HW139500   0.956   0.653   8.037  0.7813  1.2858  0.2701
 9347SOL    HW239501   0.849   0.700   7.941 -0.9500 -1.2026  1.0671
 9348SOL     OW39502   3.125   0.658   2.560 -0.0376 -0.5508  0.2826
 9348SOL    HW139503   3.076   0.601   2.619 -0.7111  0.5993  0.8286
 9348SOL    HW239504   3.188   0.692   2.624 -1.2262 -3.0085  2.7943
 9349SOL     OW39505   4.543   0.925  13.838 -0.3915  0.0168  0.1309
 9349SOL    HW139506   4.634   0.928  13.866 -0.5935 -2.4169  1.0031
 9349SOL    HW239507   4.535   0.830  13.833  1.3621 -0.1713  1.2080
 9350SOL     OW39508   0.404   0.002   5.012  0.8337  0.3497  0.5501
 9350SOL    HW139509   0.368   4.652   5.064 -0.8877  0.9049  0.1220
 9350SOL    HW239510   0.425   4.677   4.931  1.5000 -1.4137  1.7325
 9351SOL     OW39511   4.118   2.951  12.308  0.2207  0.3418 -0.0325
 9351SOL    HW139512   4.126   2.952  12.213  0.6499  0.7433  0.0119
 9351SOL    HW239513   4.025   2.974  12.316  0.6941  1.9938  0.7622
 9352SOL     OW39514   4.636   2.938   7.025 -0.7393  0.1033 -0.0650
 9352SOL    HW139515   4.558   2.905   7.069 -0.7073  0.8645  0.5474
 9352SOL    HW239516   4.598   3.004   6.966  0.5880 -0.9491 -2.1029
 9353SOL     OW39517   4.248   0.655   3.400 -0.1004  0.3342  0.3286
 9353SOL    HW139518   4.253   0.745   3.368  2.2049 -0.6020 -1.9408
 9353SOL    HW239519   4.164   0.647   3.445 -0.2464 -0.4690 -0.0742
 9354SOL     OW39520   2.828   0.052   6.077  0.4793 -0.2215 -0.2282
 9354SOL    HW139521   2.752   0.019   6.030  1.3251  0.2278 -1.9181
 9354SOL    HW239522   2.901   0.039   6.016 -0.9578 -1.6435 -1.6620
 9355SOL     OW39523   1.708   4.507   6.739 -0.0988 -0.8668  0.4576
 9355SOL    HW139524   1.679   4.565   6.668  0.9189 -2.4121 -1.2325
 9355SOL    HW239525   1.660   4.553   6.807  1.2682 -0.8463  1.4070
 9356SOL     OW39526   2.182   1.560  10.147 -0.9782  0.0924  0.3033
 9356SOL    HW139527   2.242   1.634  10.135  0.4463 -0.9306  1.0429
 9356SOL    HW239528   2.172   1.567  10.242 -2.2288 -0.4687  0.2129
 9357SOL     OW39529   2.546   1.240   5.762 -0.0934 -0.0690  0.0948
 9357SOL    HW139530   2.469   1.186   5.782  1.0588 -1.3168  1.1087
 9357SOL    HW239531   2.616   1.183   5.792 -0.2151  0.8777  2.2072
 9358SOL     OW39532   2.323   3.906   2.107  0.1186  0.3096  0.1495
 9358SOL    HW139533   2.359   3.848   2.174 -0.4528  0.1906  0.3579
 9358SOL    HW239534   2.399   3.923   2.052  0.8296  0.4086  1.1597
 9359SOL     OW39535   3.041   0.720   5.136 -0.5056  0.3600  0.4742
 9359SOL    HW139536   3.018   0.759   5.220 -3.3774 -0.6010  0.1388
 9359SOL    HW239537   3.102   0.652   5.165  0.5983  1.3856  0.5125
 9360SOL     OW39538   2.079   1.727  17.107 -0.1610 -0.1494 -0.1148
 9360SOL    HW139539   2.151   1.664  17.116 -0.1278 -0.1808 -0.6193
 9360SOL    HW239540   2.093   1.748  17.015 -0.1546 -2.0638 -0.5478
 9361SOL     OW39541   0.826   0.312   5.038  0.5443  0.3244 -0.0527
 9361SOL    HW139542   0.866   0.289   5.122 -0.9177 -1.7788  0.0856
 9361SOL    HW239543   0.818   0.232   4.986 -0.5981  0.4190 -0.0187
 9362SOL     OW39544   3.717   2.046  15.159 -0.1291 -0.2835  0.3178
 9362SOL    HW139545   3.642   2.067  15.214 -0.8400 -2.4312  0.1597
 9362SOL    HW239546   3.739   1.954  15.174 -0.4549 -0.4752 -0.3834
 9363SOL     OW39547   1.220   1.428  15.155 -0.5278  0.2778  0.5005
 9363SOL    HW139548   1.183   1.351  15.197  0.3173 -1.3031 -1.6139
 9363SOL    HW239549   1.312   1.400  15.146 -1.2391 -0.6720 -3.7850
 9364SOL     OW39550   0.555   3.479  17.256 -0.1740  0.3371 -0.0209
 9364SOL    HW139551   0.629   3.445  17.206 -0.7370  0.9534 -1.2861
 9364SOL    HW239552   0.496   3.505  17.185  0.8365  1.8883 -0.3144
 9365SOL     OW39553   4.461   3.425   0.168  0.4743  0.0699  0.0600
 9365SOL    HW139554   4.534   3.418   0.230  1.4156 -1.8097 -1.2792
 9365SOL    HW239555   4.491   3.371   0.095 -0.0310  0.1736 -0.2213
 9366SOL     OW39556   1.402   0.872   4.182 -0.2640 -0.1264 -0.3583
 9366SOL    HW139557   1.340   0.825   4.127  0.8142 -1.2641 -0.6036
 9366SOL    HW239558   1.369   0.962   4.189 -0.4125 -0.3536  1.9431
 9367SOL     OW39559   3.919   0.026   8.946 -0.4667  0.5065  0.2855
 9367SOL    HW139560   3.932   0.088   9.018  1.0014  0.5480 -0.0116
 9367SOL    HW239561   3.990   0.049   8.887  0.8296 -0.7048  1.3618
 9368SOL     OW39562   2.338   3.740   3.184 -0.5275 -0.8064  0.3727
 9368SOL    HW139563   2.254   3.754   3.228  1.5542  3.0933  3.0287
 9368SOL    HW239564   2.390   3.708   3.258  0.5575  0.7089  0.2593
 9369SOL     OW39565   0.701   0.677   9.513  0.5341  0.1631 -0.0535
 9369SOL    HW139566   0.613   0.665   9.477  0.1657  1.0232  0.5756
 9369SOL    HW239567   0.727   0.755   9.463 -2.2661  0.2127 -1.4555
 9370SOL     OW39568   3.001   2.552   3.868  0.1553 -0.5021 -0.4213
 9370SOL    HW139569   3.037   2.463   3.868 -0.1988 -0.6413  1.2178
 9370SOL    HW239570   2.964   2.548   3.956 -2.1887 -1.1675 -1.4286
 9371SOL     OW39571   0.646   4.428   6.377  0.2057  0.0477  0.2265
 9371SOL    HW139572   0.645   4.375   6.456 -1.2285 -2.3108 -1.3895
 9371SOL    HW239573   0.738   4.455   6.388 -0.1943  1.6395 -0.3686
 9372SOL     OW39574   1.795   0.676   8.487 -0.4128  0.4832  0.2743
 9372SOL    HW139575   1.888   0.655   8.490 -0.9981 -1.7254  2.4047
 9372SOL    HW239576   1.795   0.747   8.422 -0.4735 -0.9467 -1.2756
 9373SOL     OW39577   3.757   4.387   8.442  0.4067  0.3756 -0.7300
 9373SOL    HW139578   3.769   4.407   8.349 -0.4075 -3.6285 -1.6939
 9373SOL    HW239579   3.848   4.387   8.470  0.2965 -0.2233 -0.3828
 9374SOL     OW39580   1.894   0.413  15.905 -0.6055  0.2749 -0.1496
 9374SOL    HW139581   1.920   0.355  15.833 -0.4879  1.6304 -1.1920
 9374SOL    HW239582   1.957   0.483  15.920 -2.1623  1.8340 -0.7602
 9375SOL     OW39583   1.996   0.901  11.008  0.0401 -0.1250 -0.2170
 9375SOL    HW139584   1.962   0.966  10.946  0.0719 -0.8908 -1.0340
 9375SOL    HW239585   1.914   0.858  11.033 -0.0408  0.1311 -0.0464
 9376SOL     OW39586   4.364   3.539   5.263  0.0099  0.0717 -0.0459
 9376SOL    HW139587   4.271   3.550   5.282 -0.3007  0.1997 -1.6401
 9376SOL    HW239588   4.360   3.446   5.244 -2.9490  0.1763  0.1258
 9377SOL     OW39589   0.555   3.074   9.977 -0.2325 -0.7619 -0.1532
 9377SOL    HW139590   0.603   2.991   9.980  2.8746  0.9015 -3.6451
 9377SOL    HW239591   0.560   3.109  10.066  0.3758 -1.6464  0.1572
 9378SOL     OW39592   4.579   3.966   3.287 -0.3657 -0.1849  0.0371
 9378SOL    HW139593   4.631   3.975   3.208 -1.5671  0.6632 -0.6470
 9378SOL    HW239594   4.587   3.872   3.300  0.1515 -0.5999 -3.3160
 9379SOL     OW39595   2.879   4.211   6.425  0.5575  0.0393 -0.0173
 9379SOL    HW139596   2.973   4.230   6.432  0.3529  1.4653 -1.1374
 9379SOL    HW239597   2.840   4.297   6.409  0.3812 -0.1670 -0.7009
 9380SOL     OW39598   0.456   2.461  12.013 -0.6281 -0.2634  0.9255
 9380SOL    HW139599   0.544   2.423  12.012 -0.6696 -0.3389 -1.4907
 9380SOL    HW239600   0.425   2.427  12.097 -0.3783  0.0313  1.1348
 9381SOL     OW39601   3.428   4.527  16.685 -0.1345  0.1985 -0.3145
 9381SOL    HW139602   3.481   4.489  16.615  0.6077  1.3764 -0.3885
 9381SOL    HW239603   3.445   4.460  16.751  0.0377  0.7908  0.2414
 9382SOL     OW39604   1.974   1.563   9.609 -0.2517  0.0902 -0.1940
 9382SOL    HW139605   1.953   1.472   9.633 -1.0904  0.6301  1.1175
 9382SOL    HW239606   1.885   1.597   9.599 -0.4543 -0.2210  0.5669
 9383SOL     OW39607   3.028   3.724   6.680  0.0775  0.1877  0.2937
 9383SOL    HW139608   3.029   3.660   6.751  0.8797 -0.6881 -0.5018
 9383SOL    HW239609   3.121   3.736   6.659  0.8578 -1.3830  2.8261
 9384SOL     OW39610   0.753   4.096   0.751 -0.7444  0.7836  0.1537
 9384SOL    HW139611   0.765   4.020   0.808  0.0694  0.5292 -0.3509
 9384SOL    HW239612   0.822   4.063   0.693  0.7443 -2.1170  3.5527
 9385SOL     OW39613   0.779   3.132   4.357 -0.2294 -0.4657 -0.0079
 9385SOL    HW139614   0.749   3.065   4.419 -0.1768 -1.5563 -1.1847
 9385SOL    HW239615   0.777   3.089   4.272 -1.1869  0.5551 -0.5091
 9386SOL     OW39616   3.560   3.035   7.949  0.2471  0.4210  0.8018
 9386SOL    HW139617   3.598   3.079   8.025  1.7700 -0.3794  0.5152
 9386SOL    HW239618   3.637   3.035   7.892 -0.4682  0.2862 -0.1588
 9387SOL     OW39619   1.791   3.328   1.133  0.0455 -0.3330 -0.0522
 9387SOL    HW139620   1.696   3.318   1.123  0.4042 -1.8291 -1.8707
 9387SOL    HW239621   1.805   3.363   1.046  1.4407  0.4620  0.4939
 9388SOL     OW39622   3.585   2.926   6.335  0.2208  0.1609 -0.3607
 9388SOL    HW139623   3.491   2.911   6.326 -0.0985  2.1747 -0.2922
 9388SOL    HW239624   3.592   3.007   6.385  0.6236 -1.1587  1.7013
 9389SOL     OW39625   0.706   1.544  10.990 -0.9693  0.3681  0.1706
 9389SOL    HW139626   0.749   1.625  11.018 -0.2141 -0.1631  0.5344
 9389SOL    HW239627   0.669   1.577  10.908  1.7724  2.5850 -0.1817
 9390SOL     OW39628   0.330   0.339   2.945  0.1551 -0.3528 -0.4437
 9390SOL    HW139629   0.299   0.294   2.867  0.6638 -0.9437 -0.3066
 9390SOL    HW239630   0.367   0.419   2.909 -0.0783 -1.2215 -2.6378
 9391SOL     OW39631   1.601   1.538   2.330 -0.5866 -0.1430 -0.4356
 9391SOL    HW139632   1.693   1.564   2.318 -0.8151  0.2611 -1.2742
 9391SOL    HW239633   1.559   1.583   2.403  0.3129 -2.0303  1.2647
 9392SOL     OW39634   0.515   4.177   0.488 -0.3080 -0.1618  0.4288
 9392SOL    HW139635   0.426   4.207   0.473  0.5304  2.5765  1.0501
 9392SOL    HW239636   0.537   4.147   0.400 -0.4220  2.1301 -0.3836
 9393SOL     OW39637   0.304   3.776  12.846  0.0381  0.3900 -0.8500
 9393SOL    HW139638   0.337   3.700  12.798 -0.8027 -0.1305 -0.5982
 9393SOL    HW239639   0.297   3.748  12.937 -1.0376  1.0777 -0.7265
 9394SOL     OW39640   0.164   2.986   9.646 -0.4537  0.3703  0.5992
 9394SOL    HW139641   0.132   2.896   9.657 -0.7783  0.4783  0.5448
 9394SOL    HW239642   0.239   2.978   9.704 -0.3271  0.4310  0.4423
 9395SOL     OW39643   3.068   3.658   3.014 -0.1303 -0.2239 -0.5661
 9395SOL    HW139644   3.046   3.726   3.078  1.1943  1.6352 -2.1104
 9395SOL    HW239645   2.994   3.660   2.952 -0.5494  1.1363 -0.0374
 9396SOL     OW39646   1.166   0.144  16.063 -0.0773 -0.2868  0.1802
 9396SOL    HW139647   1.079   0.116  16.091  0.1399 -0.0565  1.1000
 9396SOL    HW239648   1.205   0.125  16.148  2.2080 -0.7879 -0.9817
 9397SOL     OW39649   1.870   4.180  15.259  0.4286  0.1160  0.1877
 9397SOL    HW139650   1.958   4.144  15.276  0.3739  0.0305  0.2918
 9397SOL    HW239651   1.839   4.182  15.350  0.4782  2.3449  0.1511
 9398SOL     OW39652   4.258   1.754   6.813 -0.3363  0.1678  0.0192
 9398SOL    HW139653   4.294   1.722   6.895 -2.9140  0.7824  1.4186
 9398SOL    HW239654   4.235   1.841   6.847 -1.4082  0.2909 -1.0045
 9399SOL     OW39655   4.425   1.127   7.421 -0.0600 -0.4641  0.3540
 9399SOL    HW139656   4.364   1.195   7.450  0.9116  0.4110  0.3454
 9399SOL    HW239657   4.424   1.062   7.491  1.7081  0.1684  0.9977
 9400SOL     OW39658   4.610   1.630  11.714  0.7907 -0.1755 -0.5119
 9400SOL    HW139659   4.586   1.602  11.626 -0.7946 -0.9463  0.1619
 9400SOL    HW239660   4.642   1.720  11.705  1.0695 -0.3616 -1.3591
 9401SOL     OW39661   1.521   2.387   8.954 -0.6770  0.1651 -0.1454
 9401SOL    HW139662   1.470   2.465   8.974 -1.4059 -0.6295  1.0818
 9401SOL    HW239663   1.462   2.312   8.966 -0.3415 -0.4406 -2.1717
 9402SOL     OW39664   3.660   4.605   7.835 -0.1586 -0.2716  0.5640
 9402SOL    HW139665   3.609   4.550   7.895 -0.0318 -0.1351  0.7968
 9402SOL    HW239666   3.699   4.662   7.901  0.9172 -0.2493 -0.0916
 9403SOL     OW39667   3.961   3.572   4.713  0.4914 -0.7851  0.9399
 9403SOL    HW139668   4.018   3.496   4.696 -0.3003 -1.4767  1.3805
 9403SOL    HW239669   3.877   3.526   4.709  1.9305 -3.2333 -1.0095
 9404SOL     OW39670   3.297   0.476   8.607  0.2808 -0.5276  0.7363
 9404SOL    HW139671   3.382   0.520   8.608  0.2847 -0.5506  1.3094
 9404SOL    HW239672   3.258   0.518   8.530 -1.5062 -0.6956  1.5474
 9405SOL     OW39673   4.065   2.349   2.516  0.2972  0.0605 -0.2532
 9405SOL    HW139674   4.003   2.276   2.511 -1.4976  1.4856  0.8705
 9405SOL    HW239675   4.022   2.409   2.578 -0.3802 -0.5388 -0.1383
 9406SOL     OW39676   0.292   0.087   3.414 -0.2879  0.6742  0.3368
 9406SOL    HW139677   0.290   0.146   3.339  0.7636 -2.9178 -2.5617
 9406SOL    HW239678   0.207   0.042   3.411  0.1562 -0.1479 -0.1235
 9407SOL     OW39679   4.448   4.533   6.383 -0.0366 -0.0524  0.8558
 9407SOL    HW139680   4.462   4.548   6.476 -1.3966 -3.8116  1.6188
 9407SOL    HW239681   4.495   4.450   6.377 -1.1712 -0.6518  0.1288
 9408SOL     OW39682   4.147   1.791   1.979  0.4890 -0.4460  0.1036
 9408SOL    HW139683   4.118   1.873   2.019  0.8004 -0.2143 -0.1484
 9408SOL    HW239684   4.082   1.739   2.026  2.4790 -1.5673  1.5998
 9409SOL     OW39685   0.194   4.313   4.739  0.8328  0.2180 -0.0027
 9409SOL    HW139686   0.184   4.408   4.751 -0.1428  0.2778 -1.2469
 9409SOL    HW239687   0.289   4.299   4.740  1.2944  3.3571 -0.1214
 9410SOL     OW39688   2.832   2.200   4.887 -0.1993  0.7050 -0.4950
 9410SOL    HW139689   2.835   2.105   4.889  0.4019  0.7167 -0.8205
 9410SOL    HW239690   2.845   2.219   4.980 -3.0006 -2.0199  0.4661
 9411SOL     OW39691   1.844   0.736   2.269 -0.5287  0.3854 -0.0679
 9411SOL    HW139692   1.837   0.668   2.336  0.9280 -1.4203 -1.7753
 9411SOL    HW239693   1.912   0.798   2.295 -0.5557 -0.3285  1.7217
 9412SOL     OW39694   4.104   4.416   7.348 -0.5037 -0.2551  0.1759
 9412SOL    HW139695   4.171   4.484   7.340 -1.3503  0.8025  2.1625
 9412SOL    HW239696   4.138   4.361   7.417  1.1497  1.7830  0.9966
 9413SOL     OW39697   0.110   1.713   4.094  0.2526 -0.1288 -0.2495
 9413SOL    HW139698   0.122   1.668   4.010  1.7086 -0.6852  0.2468
 9413SOL    HW239699   0.021   1.691   4.120 -0.4641  1.4059 -1.3706
 9414SOL     OW39700   2.180   4.477  11.401 -0.1991 -0.3853  0.4527
 9414SOL    HW139701   2.200   4.459  11.310  1.4533 -1.9369  1.1146
 9414SOL    HW239702   2.226   4.404  11.442 -0.3183 -0.4343  0.4994
 9415SOL     OW39703   0.291   3.800   6.951 -0.0861  0.2147  0.1308
 9415SOL    HW139704   0.196   3.807   6.961 -0.1103  0.9221 -0.5978
 9415SOL    HW239705   0.325   3.747   7.023 -2.4682 -0.7280  0.5607
 9416SOL     OW39706   1.295   2.666   9.983 -0.0358 -0.2265 -0.1832
 9416SOL    HW139707   1.245   2.598   9.938 -1.0679 -1.0135  2.1581
 9416SOL    HW239708   1.325   2.718   9.907  0.3951  0.2950  0.3423
 9417SOL     OW39709   1.072   3.404   7.517  0.4489  0.2510 -0.2111
 9417SOL    HW139710   1.029   3.489   7.525  1.1971  0.7586 -1.5878
 9417SOL    HW239711   1.134   3.413   7.590 -0.9904  2.9577  0.6587
 9418SOL     OW39712   0.418   4.371   2.694 -0.0714 -0.4327  0.7259
 9418SOL    HW139713   0.378   4.321   2.624  1.7987 -0.1050 -0.5822
 9418SOL    HW239714   0.455   4.301   2.748  1.2749 -1.6811 -1.8172
 9419SOL     OW39715   3.839   1.515   6.512 -0.2057 -0.2112 -0.1892
 9419SOL    HW139716   3.840   1.423   6.488 -1.2554 -0.5897  1.2337
 9419SOL    HW239717   3.829   1.552   6.424 -2.2632 -1.1585 -0.3499
 9420SOL     OW39718   1.800   1.789  11.355 -0.0329  0.3678 -0.5506
 9420SOL    HW139719   1.715   1.833  11.362 -0.7489 -0.8357 -1.7160
 9420SOL    HW239720   1.772   1.709  11.311 -0.1799  0.0854  0.0527
 9421SOL     OW39721   2.318   4.554   0.562 -0.1985  0.9086  0.3828
 9421SOL    HW139722   2.251   4.560   0.494  2.6822 -0.6853 -2.5757
 9421SOL    HW239723   2.267   4.595   0.632 -1.7185 -0.0718 -0.1528
 9422SOL     OW39724   0.491   4.197  12.487  0.2902 -0.8592 -0.1472
 9422SOL    HW139725   0.510   4.200  12.580  1.1323  1.9376 -0.4204
 9422SOL    HW239726   0.401   4.164  12.483 -0.6848  2.0795 -2.4013
 9423SOL     OW39727   0.352   1.042  15.993  0.6154 -0.0065  0.0439
 9423SOL    HW139728   0.348   0.956  16.036  0.7342 -0.6150 -1.1677
 9423SOL    HW239729   0.271   1.039  15.941 -0.1360 -3.7399  1.4205
 9424SOL     OW39730   3.872   4.721   4.094  0.1775 -0.8140  0.0114
 9424SOL    HW139731   3.892   0.045   4.176 -0.0298  1.7530 -1.3488
 9424SOL    HW239732   3.939   4.653   4.088 -0.0837 -1.1142  0.5373
 9425SOL     OW39733   2.082   0.340  14.170  0.1047  0.2438 -0.5287
 9425SOL    HW139734   2.005   0.349  14.113 -0.5368 -1.4821  0.0702
 9425SOL    HW239735   2.096   0.429  14.202  1.7455 -0.4659  0.7125
 9426SOL     OW39736   0.392   2.328  16.522 -0.5609  0.3067 -0.3462
 9426SOL    HW139737   0.369   2.334  16.615 -4.0713  0.1840 -1.1892
 9426SOL    HW239738   0.487   2.333  16.513 -0.3555 -2.7363  0.1555
 9427SOL     OW39739   0.150   3.130   3.776  0.0249  0.0152 -0.7298
 9427SOL    HW139740   0.063   3.138   3.737 -1.4453 -0.2325  2.5518
 9427SOL    HW239741   0.144   3.074   3.853  2.4450  1.4675  0.5385
 9428SOL     OW39742   2.351   4.353  15.268  0.0609 -0.0948  0.3424
 9428SOL    HW139743   2.279   4.353  15.331 -0.5770  1.2702 -0.3830
 9428SOL    HW239744   2.423   4.313  15.316  0.7649  0.8828  0.1045
 9429SOL     OW39745   0.034   2.564  15.156 -0.1336 -0.2452 -0.4669
 9429SOL    HW139746   0.075   2.522  15.232 -0.5199 -0.7367 -0.5270
 9429SOL    HW239747   0.100   2.544  15.091  0.2630  0.3506 -0.2389
 9430SOL     OW39748   0.938   0.391   6.080 -0.1522 -0.6069 -0.4085
 9430SOL    HW139749   0.863   0.354   6.033 -1.6590  0.5213  1.1064
 9430SOL    HW239750   0.896   0.460   6.131  1.5053 -0.5992  0.9426
 9431SOL     OW39751   1.987   0.948   2.342  0.0526  0.1060  0.2366
 9431SOL    HW139752   2.017   1.024   2.392 -1.2472  0.1867  0.8887
 9431SOL    HW239753   2.058   0.921   2.283  1.1821  0.3903  1.4679
 9432SOL     OW39754   1.069   1.660   4.676  0.2802 -0.2560 -0.2992
 9432SOL    HW139755   1.149   1.671   4.727  0.4687  1.6043 -1.0134
 9432SOL    HW239756   1.019   1.590   4.719 -0.2605  0.6558  0.5499
 9433SOL     OW39757   2.886   3.925   0.575  0.0987 -0.8341 -0.2499
 9433SOL    HW139758   2.949   3.937   0.504 -0.7382  0.4444 -0.7675
 9433SOL    HW239759   2.941   3.879   0.638 -1.5907 -1.7068  0.6026
 9434SOL     OW39760   1.478   1.900  17.229 -0.1582 -0.9288 -0.3105
 9434SOL    HW139761   1.385   1.884  17.246 -0.6049 -0.0986 -2.0334
 9434SOL    HW239762   1.520   1.831  17.281 -3.2924 -1.1141  1.9477
 9435SOL     OW39763   0.006   2.447   5.853  0.6255 -0.4185 -0.5085
 9435SOL    HW139764   0.003   2.423   5.760  0.5097 -0.7268 -0.4249
 9435SOL    HW239765   0.094   2.418   5.878  0.7935 -0.4183 -1.1002
 9436SOL     OW39766   2.693   0.145   9.866 -0.2116 -0.2200  0.0752
 9436SOL    HW139767   2.714   0.124   9.775  2.5249 -0.0741  0.6588
 9436SOL    HW239768   2.680   0.239   9.853 -0.6956 -0.2894  0.0423
 9437SOL     OW39769   3.236   3.863   1.034  0.0913 -0.1803  0.1174
 9437SOL    HW139770   3.281   3.786   1.069 -0.3094 -0.9040 -0.9407
 9437SOL    HW239771   3.181   3.883   1.110  1.8708 -0.3194  1.4423
 9438SOL     OW39772   0.814   2.175  16.098 -0.4306  0.2052 -0.7690
 9438SOL    HW139773   0.820   2.220  16.182  1.3747 -1.1920 -0.1384
 9438SOL    HW239774   0.729   2.135  16.118 -0.7024  1.0551 -0.2020
 9439SOL     OW39775   2.289   1.782  15.345  0.3364  0.0568 -0.3888
 9439SOL    HW139776   2.347   1.847  15.385  0.6576 -0.6279  0.2407
 9439SOL    HW239777   2.270   1.729  15.422 -1.2100  0.6582 -0.3433
 9440SOL     OW39778   1.104   3.856   7.377  0.7227  0.0802  0.3271
 9440SOL    HW139779   1.056   3.938   7.374 -0.0515 -0.3287  1.6775
 9440SOL    HW239780   1.123   3.834   7.285  1.2545  2.0015 -0.0258
 9441SOL     OW39781   0.360   1.930   4.505  0.4159  0.3156  0.0435
 9441SOL    HW139782   0.319   1.882   4.433  0.3757  1.0324 -0.4097
 9441SOL    HW239783   0.439   1.877   4.516  0.3021  0.3155  0.8656
 9442SOL     OW39784   3.367   4.075   8.892  0.5000 -0.4715  0.4557
 9442SOL    HW139785   3.462   4.078   8.886  0.4210 -1.3640 -1.1210
 9442SOL    HW239786   3.352   4.159   8.849 -0.9077 -0.0513  1.7693
 9443SOL     OW39787   4.246   1.550   7.293  0.0919 -0.6498 -0.2280
 9443SOL    HW139788   4.156   1.516   7.291  0.1170 -0.8906  1.9580
 9443SOL    HW239789   4.238   1.634   7.249  0.0487  0.3503  1.6659
 9444SOL     OW39790   3.655   0.599  10.276 -0.4847 -0.3047 -0.5281
 9444SOL    HW139791   3.700   0.669  10.229 -2.0299  0.5445 -0.7278
 9444SOL    HW239792   3.585   0.579  10.214 -1.6400  0.1356  0.6583
 9445SOL     OW39793   3.281   1.723   2.269 -0.4323 -0.0384 -0.1749
 9445SOL    HW139794   3.241   1.767   2.195 -1.9531 -2.0427 -0.5501
 9445SOL    HW239795   3.374   1.732   2.249 -0.1174 -0.2830  1.1890
 9446SOL     OW39796   1.186   0.544   2.391  0.7554  0.5746 -0.3486
 9446SOL    HW139797   1.132   0.468   2.370 -1.6610  2.3328 -0.5146
 9446SOL    HW239798   1.221   0.522   2.478  0.1819  1.0287 -0.0067
 9447SOL     OW39799   1.051   1.125   8.397  0.1681 -0.5840  0.0375
 9447SOL    HW139800   1.117   1.085   8.453 -1.9262 -1.6940  1.7306
 9447SOL    HW239801   0.992   1.163   8.462  0.1476  0.0658 -0.3527
 9448SOL     OW39802   2.700   4.630  16.732 -0.7955 -0.1879  0.1937
 9448SOL    HW139803   2.787   4.589  16.737 -1.1448 -1.0024 -0.5633
 9448SOL    HW239804   2.734   4.716  16.760 -0.2973  0.1879 -1.5830
 9449SOL     OW39805   3.582   3.473   8.132 -0.5332  0.2228 -0.2466
 9449SOL    HW139806   3.675   3.473   8.110 -0.5963  0.8457 -0.5165
 9449SOL    HW239807   3.563   3.379   8.132  3.1896 -0.5435 -0.8380
 9450SOL     OW39808   0.692   4.033  16.769  0.4715 -0.0325  0.1693
 9450SOL    HW139809   0.781   4.005  16.789  0.4761  0.0793  0.3106
 9450SOL    HW239810   0.709   4.086  16.691  0.5225 -1.5464 -0.8423
 9451SOL     OW39811   3.327   3.286   6.931  0.1146 -0.1164  0.2396
 9451SOL    HW139812   3.406   3.330   6.963 -0.7816  1.6508 -0.0295
 9451SOL    HW239813   3.338   3.198   6.967 -1.5966 -0.4897 -0.1439
 9452SOL     OW39814   2.090   4.433  10.774 -0.6243  0.4381  0.5278
 9452SOL    HW139815   2.040   4.469  10.701  2.3056 -0.8268 -2.1078
 9452SOL    HW239816   2.047   4.475  10.849  1.6392  0.4013  1.8493
 9453SOL     OW39817   0.752   2.604   3.042 -0.1236  0.8966  0.3219
 9453SOL    HW139818   0.678   2.649   3.002  0.0033 -1.0569 -2.1549
 9453SOL    HW239819   0.824   2.666   3.032 -0.3730  0.7020 -2.7877
 9454SOL     OW39820   0.437   1.353   8.867  0.1752  0.2221  0.3068
 9454SOL    HW139821   0.422   1.398   8.785  4.0450 -1.2178 -1.1792
 9454SOL    HW239822   0.351   1.362   8.910  0.2540  3.6760 -0.2477
 9455SOL     OW39823   0.754   1.236   6.394 -0.1581 -0.1984  0.1483
 9455SOL    HW139824   0.825   1.266   6.451 -2.0597 -0.0478  2.4474
 9455SOL    HW239825   0.711   1.183   6.461  0.5691 -0.4572  0.4101
 9456SOL     OW39826   2.781   3.626   9.596 -0.1528  0.1305  0.0766
 9456SOL    HW139827   2.698   3.616   9.549  0.2357  0.7685 -0.7462
 9456SOL    HW239828   2.837   3.556   9.563  0.3025  0.5562 -0.0576
 9457SOL     OW39829   2.451   4.358   8.469  0.1487 -0.1632  0.0904
 9457SOL    HW139830   2.515   4.321   8.409 -0.7771  0.3733 -1.2381
 9457SOL    HW239831   2.432   4.283   8.525  1.7447 -1.8046 -1.5710
 9458SOL     OW39832   2.290   1.527   7.606 -0.4079  0.5274 -0.1503
 9458SOL    HW139833   2.349   1.567   7.542 -1.1899 -2.9161 -2.9737
 9458SOL    HW239834   2.348   1.455   7.631 -0.6013  0.9446  1.5246
 9459SOL     OW39835   1.133   2.319   2.245  0.3486 -0.1602 -0.2220
 9459SOL    HW139836   1.083   2.238   2.256  0.5394 -0.3738 -0.9149
 9459SOL    HW239837   1.214   2.269   2.239  0.2398 -0.4223  0.4870
 9460SOL     OW39838   3.315   0.051   6.821  0.1918  0.0767  0.4959
 9460SOL    HW139839   3.393   0.076   6.771 -1.7574  1.9200 -1.6016
 9460SOL    HW239840   3.268   0.132   6.802 -2.3953 -1.3173  0.8952
 9461SOL     OW39841   0.131   1.524   8.578 -0.1398  0.4100  0.2334
 9461SOL    HW139842   0.193   1.465   8.535 -1.3857 -0.1625 -0.7624
 9461SOL    HW239843   0.083   1.456   8.624  1.8005  0.4980  2.3836
 9462SOL     OW39844   2.594   1.261   5.483 -0.0657 -0.0546 -0.2433
 9462SOL    HW139845   2.577   1.269   5.577 -0.3802 -0.8981 -0.2286
 9462SOL    HW239846   2.653   1.186   5.470 -1.3237 -1.1710  0.4470
 9463SOL     OW39847   2.555   0.204  14.661  0.3003 -0.2427  1.0394
 9463SOL    HW139848   2.501   0.144  14.712 -0.5496  0.1880  0.6404
 9463SOL    HW239849   2.563   0.148  14.583 -1.1959  0.6295  0.2541
 9464SOL     OW39850   1.875   3.789  16.706 -0.1589 -0.0631 -0.6572
 9464SOL    HW139851   1.909   3.871  16.670 -2.3345  0.7052 -0.9630
 9464SOL    HW239852   1.928   3.781  16.786 -0.9184 -1.6852 -0.3117
 9465SOL     OW39853   3.270   1.575  12.451  0.6828 -0.4201 -0.2094
 9465SOL    HW139854   3.349   1.624  12.429  0.9154 -1.2058 -1.1137
 9465SOL    HW239855   3.275   1.523  12.371  0.2898  1.1733 -1.2718
 9466SOL     OW39856   1.994   3.639   8.833  0.2495  0.0139  0.1642
 9466SOL    HW139857   2.051   3.595   8.771 -0.6717 -1.7786  0.5922
 9466SOL    HW239858   1.963   3.717   8.787 -2.0395 -1.3917 -0.6651
 9467SOL     OW39859   4.220   4.297  15.401 -0.2359  0.7099 -0.2488
 9467SOL    HW139860   4.165   4.242  15.345  2.0144 -1.5219 -0.2919
 9467SOL    HW239861   4.306   4.269  15.371 -0.6424  1.2149 -1.8649
 9468SOL     OW39862   2.505   1.691  13.024  0.2003 -0.5330 -0.3705
 9468SOL    HW139863   2.450   1.759  13.064 -0.7096 -3.0634  2.7106
 9468SOL    HW239864   2.578   1.693  13.086 -0.5606  0.0370  0.5062
 9469SOL     OW39865   0.278   0.495   6.936  0.5053 -0.1079  0.1024
 9469SOL    HW139866   0.210   0.430   6.921  0.1070  0.0313  1.2609
 9469SOL    HW239867   0.245   0.528   7.020  3.6415  1.0367  0.8976
 9470SOL     OW39868   3.756   3.801  17.570  0.4645  0.3180 -0.1219
 9470SOL    HW139869   3.676   3.822  17.522  0.3399  1.3048  0.5157
 9470SOL    HW239870   3.736   3.819  17.662  0.9852  1.5644 -0.2509
 9471SOL     OW39871   0.768   4.693   4.219 -0.0584 -0.2267  0.0924
 9471SOL    HW139872   0.698   4.703   4.155  0.7109 -1.3946 -0.9337
 9471SOL    HW239873   0.832   0.039   4.199 -2.0724  1.4700 -0.5821
 9472SOL     OW39874   1.044   0.600   4.158 -0.3696  0.6957  0.3824
 9472SOL    HW139875   1.002   0.535   4.101  2.2649 -0.1177 -0.6312
 9472SOL    HW239876   1.104   0.644   4.098 -0.9397 -0.7437 -1.2778
 9473SOL     OW39877   1.444   4.422   1.131 -0.1743  0.1205  0.0104
 9473SOL    HW139878   1.382   4.379   1.191 -0.6491  0.1394 -0.4631
 9473SOL    HW239879   1.510   4.466   1.184 -1.4440  0.8019  1.0453
 9474SOL     OW39880   0.986   1.338   1.901  0.2926  0.0581  0.5327
 9474SOL    HW139881   1.066   1.390   1.908  1.6339 -2.0446  0.8222
 9474SOL    HW239882   0.931   1.412   1.873  0.3027 -1.2436 -2.8903
 9475SOL     OW39883   0.557   3.613   9.236 -0.3101  0.2885  0.2591
 9475SOL    HW139884   0.544   3.612   9.331 -2.4074  2.3354 -0.0028
 9475SOL    HW239885   0.571   3.522   9.211 -0.8132  0.7791 -1.7621
 9476SOL     OW39886   1.454   3.606  12.462 -0.0658  0.2387 -0.6133
 9476SOL    HW139887   1.374   3.616  12.514  0.7888 -2.0003  1.1738
 9476SOL    HW239888   1.406   3.577  12.384  1.2635  2.0712 -2.0964
 9477SOL     OW39889   3.160   1.025   4.285  0.6015  0.8678 -0.1921
 9477SOL    HW139890   3.248   1.022   4.323 -0.1319  1.5148  1.5533
 9477SOL    HW239891   3.118   0.964   4.346  0.2304  2.7809  1.4524
 9478SOL     OW39892   0.349   0.169  16.137  0.1700  0.4377 -0.3912
 9478SOL    HW139893   0.441   0.148  16.124  0.5414  1.1819  1.0341
 9478SOL    HW239894   0.308   0.109  16.075  2.5223 -0.9316 -0.6136
 9479SOL     OW39895   2.003   4.608   8.220 -0.2882  0.5332  0.1701
 9479SOL    HW139896   1.950   4.676   8.262 -0.3656  0.5763  0.0025
 9479SOL    HW239897   2.082   4.622   8.272  0.6772 -0.4456 -1.0384
 9480SOL     OW39898   0.318   4.543   2.001 -0.2832  0.2665 -0.5407
 9480SOL    HW139899   0.289   4.534   2.091 -0.2656  1.0161 -0.4551
 9480SOL    HW239900   0.378   4.617   2.009 -1.5444  1.3991 -1.6111
 9481SOL     OW39901   0.877   1.365   1.163  0.0749  0.6589 -1.1157
 9481SOL    HW139902   0.921   1.287   1.128 -2.1683 -1.3211  0.4723
 9481SOL    HW239903   0.951   1.415   1.198  0.1790 -1.1650  1.3101
 9482SOL     OW39904   0.916   3.429   8.529 -0.1247  0.2614 -0.2944
 9482SOL    HW139905   0.997   3.478   8.511 -0.8993  1.8038  0.4155
 9482SOL    HW239906   0.913   3.360   8.463  0.2641  0.6713 -0.7465
 9483SOL     OW39907   4.537   3.688  13.688  0.6033 -0.6115 -0.3744
 9483SOL    HW139908   4.597   3.711  13.760  2.2459 -2.4597 -1.1516
 9483SOL    HW239909   4.482   3.622  13.730 -0.2389 -0.2666 -0.9386
 9484SOL     OW39910   1.094   2.455   7.634  0.3938 -0.5541  0.2874
 9484SOL    HW139911   1.167   2.498   7.681 -0.5442  2.1150 -0.7024
 9484SOL    HW239912   1.145   2.427   7.558 -0.4674  2.7597 -1.5060
 9485SOL     OW39913   4.312   3.998   6.537  0.3377 -0.3899  0.4873
 9485SOL    HW139914   4.298   3.959   6.624  0.9246 -0.0669  0.7281
 9485SOL    HW239915   4.245   3.969   6.476  0.4822 -0.4135  0.3393
 9486SOL     OW39916   4.085   3.155  15.188 -0.3977 -0.8734  0.2133
 9486SOL    HW139917   4.123   3.225  15.135 -3.9224  1.2704  0.5772
 9486SOL    HW239918   4.094   3.190  15.277 -3.9207  1.0802 -0.2435
 9487SOL     OW39919   1.770   0.498  10.121 -0.3756  0.2504 -0.2183
 9487SOL    HW139920   1.839   0.561  10.146 -0.1223  0.5757 -1.7407
 9487SOL    HW239921   1.714   0.566  10.084 -0.6504  1.3804  2.2376
 9488SOL     OW39922   3.552   2.558  14.860  0.4856  0.0159 -0.1349
 9488SOL    HW139923   3.643   2.564  14.833  0.0349  0.0711 -1.6260
 9488SOL    HW239924   3.507   2.539  14.778 -0.0096  1.5587 -0.2297
 9489SOL     OW39925   2.613   1.720   9.937 -0.0913 -0.2533 -0.4317
 9489SOL    HW139926   2.588   1.670   9.859  1.6621 -1.8277  0.0265
 9489SOL    HW239927   2.675   1.659   9.976  0.2273 -0.2333 -0.8989
 9490SOL     OW39928   3.531   1.373  10.531  0.1157 -0.2016  0.0986
 9490SOL    HW139929   3.558   1.432  10.601 -0.5750  0.3245 -0.0720
 9490SOL    HW239930   3.443   1.409  10.516  1.2327  3.0251  1.4498
 9491SOL     OW39931   0.198   3.298   9.004  0.0594  0.3708 -0.4256
 9491SOL    HW139932   0.183   3.308   9.098  1.4171 -0.4819 -0.1187
 9491SOL    HW239933   0.290   3.321   8.991  0.4039 -0.2120  0.9979
 9492SOL     OW39934   0.774   2.797   9.005  0.1603  0.5202 -1.0230
 9492SOL    HW139935   0.719   2.766   9.077 -0.4366  0.6929 -1.4050
 9492SOL    HW239936   0.867   2.792   9.030 -0.5428  1.3454  1.7461
 9493SOL     OW39937   3.845   3.455  16.801  0.2573 -0.1984 -0.1281
 9493SOL    HW139938   3.782   3.406  16.748  0.1078  2.5872 -2.5414
 9493SOL    HW239939   3.823   3.423  16.889  0.0880 -1.6017 -0.6764
 9494SOL     OW39940   1.066   3.107   8.950  0.1113 -0.3311 -0.5838
 9494SOL    HW139941   1.109   3.070   9.027 -1.2004 -1.0778 -0.2089
 9494SOL    HW239942   1.054   3.202   8.962 -1.4520 -0.5127 -0.7289
 9495SOL     OW39943   1.685   2.146   9.072  0.6930  0.3633  0.1033
 9495SOL    HW139944   1.604   2.194   9.055  0.0492 -0.9898 -0.6500
 9495SOL    HW239945   1.649   2.057   9.078 -2.5855  1.9063  3.2720
 9496SOL     OW39946   0.162   4.718   0.146 -0.2549  0.1772 -0.6005
 9496SOL    HW139947   0.255   4.703   0.132 -0.0288  1.2667 -0.3046
 9496SOL    HW239948   0.132   4.646   0.200 -1.5125  0.6244 -0.7041
 9497SOL     OW39949   1.247   1.925   9.093 -0.8381 -0.0206  0.0363
 9497SOL    HW139950   1.234   1.972   9.010 -0.6093 -1.0327 -0.5687
 9497SOL    HW239951   1.200   1.844   9.074 -3.2561  1.0674  1.4100
 9498SOL     OW39952   4.062   0.408   7.275  0.2039  0.4229  0.3823
 9498SOL    HW139953   4.013   0.440   7.351  0.4264  1.0344  0.2678
 9498SOL    HW239954   3.991   0.362   7.232  0.8173 -1.6602  1.5701
 9499SOL     OW39955   3.662   1.804   7.947 -0.0760 -0.0566  0.7253
 9499SOL    HW139956   3.593   1.755   7.904 -0.3309 -0.4558  1.6059
 9499SOL    HW239957   3.649   1.887   7.900  0.0003 -0.5003 -0.0679
 9500SOL     OW39958   4.346   0.610   1.888  0.0463  0.2140 -0.2657
 9500SOL    HW139959   4.260   0.568   1.896 -1.3267  2.8689 -1.0643
 9500SOL    HW239960   4.393   0.533   1.856 -1.5671  0.4440 -3.2553
 9501SOL     OW39961   2.791   4.217   3.510 -0.4835  0.1227  0.1525
 9501SOL    HW139962   2.867   4.194   3.563 -1.6534  0.2096  1.8605
 9501SOL    HW239963   2.755   4.289   3.561  2.5631  0.8516  1.2747
 9502SOL     OW39964   3.398   4.363  14.547  0.0731 -0.5486 -0.2033
 9502SOL    HW139965   3.404   4.275  14.509  0.7281 -0.8373  0.5815
 9502SOL    HW239966   3.391   4.416  14.467 -1.5551  1.1725  1.0676
 9503SOL     OW39967   1.788   2.589   9.999  0.4965 -0.5722 -0.3200
 9503SOL    HW139968   1.705   2.554  10.033 -1.8861  2.0895 -3.4234
 9503SOL    HW239969   1.756   2.606   9.910 -2.8034 -1.1990  0.7399
 9504SOL     OW39970   4.146   0.037   7.228 -0.3408 -0.4762 -0.0414
 9504SOL    HW139971   4.065   0.055   7.276 -0.7756 -2.3806 -0.0638
 9504SOL    HW239972   4.193   4.701   7.288 -1.3019 -0.9198  0.2945
 9505SOL     OW39973   3.526   4.342   0.020  0.3626  0.4065  0.0494
 9505SOL    HW139974   3.515   4.330   0.114  1.3344  0.2430  0.1373
 9505SOL    HW239975   3.450   4.387  17.672  0.5748 -0.8404 -1.9987
 9506SOL     OW39976   2.025   3.047   1.793 -0.3340  0.2905  0.0795
 9506SOL    HW139977   2.027   3.101   1.714  2.9405  1.9743  1.3434
 9506SOL    HW239978   2.004   3.117   1.855 -1.8287  0.4970 -0.6510
 9507SOL     OW39979   3.970   0.053   0.094 -0.1920  0.3747 -0.2262
 9507SOL    HW139980   3.896   0.108   0.118  0.5362  0.8615  0.9277
 9507SOL    HW239981   4.035   0.123   0.099 -0.9699  1.2894 -3.3350
 9508SOL     OW39982   2.161   3.220  13.490  0.5075 -0.0036  0.4261
 9508SOL    HW139983   2.098   3.149  13.478 -0.1022  0.3536  1.4786
 9508SOL    HW239984   2.164   3.248  13.398 -2.0254  1.7677  0.8817
 9509SOL     OW39985   4.182   2.721   8.279 -0.3301 -0.5522 -0.0396
 9509SOL    HW139986   4.164   2.631   8.253  1.6454 -0.4626 -1.7126
 9509SOL    HW239987   4.208   2.754   8.194 -0.3866 -1.2259 -0.3189
 9510SOL     OW39988   4.150   0.453   2.650 -0.5287  0.7627  0.0354
 9510SOL    HW139989   4.117   0.403   2.575  1.2564  0.8247 -0.8164
 9510SOL    HW239990   4.143   0.384   2.715  0.2147 -0.2841 -1.0114
 9511SOL     OW39991   2.433   3.336   0.746  0.0675  0.0379 -0.1264
 9511SOL    HW139992   2.363   3.399   0.762 -0.2173 -0.3612  0.1997
 9511SOL    HW239993   2.421   3.274   0.818 -0.2029 -0.9230 -1.0078
 9512SOL     OW39994   1.138   4.403   3.699 -0.0295 -0.3382 -0.1551
 9512SOL    HW139995   1.162   4.366   3.613 -0.0866 -2.7342  0.8556
 9512SOL    HW239996   1.200   4.358   3.756 -1.3917 -0.3049  1.3367
 9513SOL     OW39997   3.768   0.233   9.430  0.1621 -0.1815 -0.9553
 9513SOL    HW139998   3.744   0.153   9.477 -2.6147  1.0391 -0.2732
 9513SOL    HW239999   3.702   0.291   9.467 -0.0091 -0.3735 -0.9582
 9514SOL     OW40000   2.415   2.860   3.364 -0.7505 -0.0833  0.0204
 9514SOL    HW140001   2.342   2.808   3.399  1.1316 -1.4874  1.9045
 9514SOL    HW240002   2.486   2.804   3.397 -0.5671 -0.2613 -0.6757
 9515SOL     OW40003   1.390   1.027   2.122  0.0875 -0.0072  0.2133
 9515SOL    HW140004   1.342   1.042   2.040 -0.3988  2.7642  0.9890
 9515SOL    HW240005   1.405   1.118   2.148 -1.1097 -0.1618  1.4771
 9516SOL     OW40006   3.671   3.569   9.500 -0.4793 -0.0148  0.1403
 9516SOL    HW140007   3.612   3.581   9.575  0.4978 -3.0859  1.3984
 9516SOL    HW240008   3.677   3.474   9.497 -1.8405 -0.0472 -1.6900
 9517SOL     OW40009   0.365   4.609   3.229  0.1000 -0.1072  0.3603
 9517SOL    HW140010   0.360   4.704   3.226 -1.9753 -0.1934  0.9788
 9517SOL    HW240011   0.328   4.586   3.143 -0.6417 -1.1917  0.9594
 9518SOL     OW40012   0.550   2.588   7.146 -0.0645 -0.2331  0.4492
 9518SOL    HW140013   0.519   2.642   7.073  1.1934  0.9305  0.7849
 9518SOL    HW240014   0.612   2.542   7.089 -1.6325 -1.2749 -0.4307
 9519SOL     OW40015   3.839   0.098   6.305  0.0322  0.1546 -0.3632
 9519SOL    HW140016   3.793   0.039   6.245 -1.2226  0.2027  0.5597
 9519SOL    HW240017   3.924   0.108   6.261  0.1056 -0.4951 -0.3798
 9520SOL     OW40018   0.258   2.311   5.297  0.3518  0.2730  0.5117
 9520SOL    HW140019   0.318   2.301   5.224 -1.7708  1.6021 -1.4236
 9520SOL    HW240020   0.190   2.371   5.266  0.7538  2.1544  3.2514
 9521SOL     OW40021   1.899   4.184   1.369  0.2426  0.1219  0.5260
 9521SOL    HW140022   1.874   4.245   1.439  1.4373  0.7712  0.4000
 9521SOL    HW240023   1.898   4.245   1.295 -1.3926  1.4166  1.6139
 9522SOL     OW40024   1.375   4.538  16.401 -0.4316 -0.0759  0.0851
 9522SOL    HW140025   1.319   4.476  16.355  0.2174  0.4254 -1.3599
 9522SOL    HW240026   1.429   4.471  16.443 -0.6392 -0.2298  0.1110
 9523SOL     OW40027   2.560   2.300   6.976  0.1273 -0.5137  0.2044
 9523SOL    HW140028   2.507   2.378   6.960  0.0976 -0.7637 -0.9040
 9523SOL    HW240029   2.495   2.232   6.959  0.6763 -1.4216  1.7127
 9524SOL     OW40030   1.531   2.674   3.751 -0.4329  0.3198  0.2062
 9524SOL    HW140031   1.521   2.637   3.839 -1.1694  0.6256  0.2505
 9524SOL    HW240032   1.526   2.593   3.701 -0.9086 -0.9395  2.2963
 9525SOL     OW40033   2.551   2.523   9.338 -0.8292  0.1960  1.0370
 9525SOL    HW140034   2.481   2.534   9.402 -2.1140 -0.1944 -0.2899
 9525SOL    HW240035   2.511   2.548   9.254 -1.6186  2.3119  2.0259
 9526SOL     OW40036   1.359   2.015   7.812  0.1231  0.1699  0.1677
 9526SOL    HW140037   1.361   2.100   7.766 -1.7906  0.0156 -0.2197
 9526SOL    HW240038   1.341   1.957   7.738 -0.1055  0.3964  0.0434
 9527SOL     OW40039   1.244   1.842  17.334  0.0663  0.2992  0.1510
 9527SOL    HW140040   1.227   1.853  17.428  0.0620 -0.7282  0.2724
 9527SOL    HW240041   1.231   1.747  17.324  0.7793  0.4012 -1.7546
 9528SOL     OW40042   2.100   1.238   9.261 -0.2458  0.3206 -0.3072
 9528SOL    HW140043   2.037   1.239   9.334  0.5128 -2.4506  0.3667
 9528SOL    HW240044   2.098   1.332   9.242 -3.4345 -0.1042 -2.0994
 9529SOL     OW40045   4.577   1.609   4.068 -0.1511 -0.5758 -0.1762
 9529SOL    HW140046   4.563   1.575   3.979 -1.9855 -0.5204  0.1087
 9529SOL    HW240047   4.506   1.673   4.071 -1.1173 -1.6639 -0.0232
 9530SOL     OW40048   3.558   1.999   6.134 -0.0195  0.1464 -0.6564
 9530SOL    HW140049   3.541   1.983   6.227 -0.6445 -1.5134 -1.0582
 9530SOL    HW240050   3.490   1.939   6.104  1.0874 -0.9420 -0.9640
 9531SOL     OW40051   1.021   3.949  14.919  0.1270  0.0257 -0.1929
 9531SOL    HW140052   0.958   4.018  14.899 -2.0019 -1.4611  1.3228
 9531SOL    HW240053   1.092   3.969  14.858 -0.3962  2.2796 -0.0653
 9532SOL     OW40054   2.184   0.575   7.955 -0.0388 -0.8320  0.6933
 9532SOL    HW140055   2.265   0.626   7.960  0.2473 -1.3801  1.5820
 9532SOL    HW240056   2.207   0.522   7.878  2.7625  1.2047  0.1520
 9533SOL     OW40057   0.292   1.200   5.496  0.6471 -0.6376  0.0101
 9533SOL    HW140058   0.251   1.248   5.568  2.6303  0.1664  0.6143
 9533SOL    HW240059   0.275   1.261   5.424  0.6036 -0.0881  0.4804
 9534SOL     OW40060   2.401   1.648   7.413 -0.1963  0.6040 -0.4396
 9534SOL    HW140061   2.486   1.642   7.369  0.0297 -0.5791  0.1587
 9534SOL    HW240062   2.392   1.743   7.415 -0.0536  0.5823  0.9591
 9535SOL     OW40063   2.332   1.788  10.135  0.3797  0.1308  0.3779
 9535SOL    HW140064   2.287   1.808  10.217 -0.0766 -1.9686  0.6359
 9535SOL    HW240065   2.422   1.764  10.155 -0.7981 -2.5041  2.6452
 9536SOL     OW40066   2.479   1.483   8.868  0.1917 -0.0998 -0.2070
 9536SOL    HW140067   2.550   1.427   8.839  0.3824  0.0420 -0.0091
 9536SOL    HW240068   2.514   1.505   8.954 -2.7597  1.2473  0.6540
 9537SOL     OW40069   2.342   1.803   8.966  0.2964  0.0451 -0.1084
 9537SOL    HW140070   2.294   1.721   8.958 -0.2216  0.4573 -1.2361
 9537SOL    HW240071   2.386   1.815   8.882  1.1801  0.2648  0.3768
 9538SOL     OW40072   3.648   2.672   5.245 -0.2653  0.0427  0.1936
 9538SOL    HW140073   3.603   2.746   5.204 -1.9904 -0.7794  0.6385
 9538SOL    HW240074   3.729   2.717   5.272  0.0081  0.4096 -1.2587
 9539SOL     OW40075   2.568   4.043  11.722  0.1738  0.2316 -0.6013
 9539SOL    HW140076   2.515   3.966  11.703 -0.0462  0.2529 -0.0454
 9539SOL    HW240077   2.531   4.066  11.807 -0.4642 -0.1347 -0.7797
 9540SOL     OW40078   1.876   2.119   5.907  0.3003 -0.1990  0.0358
 9540SOL    HW140079   1.947   2.080   5.856 -0.7313 -1.2767 -0.5755
 9540SOL    HW240080   1.924   2.194   5.942 -0.1207 -1.5411  3.4602
 9541SOL     OW40081   3.392   4.430   7.246  0.4352 -0.1318 -0.0885
 9541SOL    HW140082   3.482   4.437   7.277 -0.0774  1.2460  1.0511
 9541SOL    HW240083   3.388   4.338   7.220 -1.5609 -0.1134  0.1970
 9542SOL     OW40084   1.691   3.461   8.883  0.2067  0.4871  0.7282
 9542SOL    HW140085   1.662   3.421   8.965  1.0464  0.6263  1.0866
 9542SOL    HW240086   1.662   3.552   8.894  1.4720  1.1234 -1.2532
 9543SOL     OW40087   2.928   0.307  16.690  0.6925  0.0581 -0.6461
 9543SOL    HW140088   2.869   0.377  16.718  1.5732  0.8504 -0.7751
 9543SOL    HW240089   2.914   0.308  16.595 -2.6788 -0.1477 -0.1450
 9544SOL     OW40090   4.707   2.223  15.480 -0.0034 -0.0204  0.0351
 9544SOL    HW140091   0.053   2.156  15.492 -0.7810 -1.4060 -3.1022
 9544SOL    HW240092   4.639   2.180  15.429  0.4635  0.3210 -0.8798
 9545SOL     OW40093   2.820   0.723   4.529  0.4284 -0.4617  0.2135
 9545SOL    HW140094   2.864   0.805   4.508 -2.5317  0.8805 -0.7362
 9545SOL    HW240095   2.867   0.697   4.609 -0.1468  2.3394  1.4521
 9546SOL     OW40096   1.813   1.171   2.626  0.0809 -0.4830 -0.2740
 9546SOL    HW140097   1.742   1.180   2.563 -0.4711 -3.0866 -0.0457
 9546SOL    HW240098   1.883   1.173   2.561  0.3401 -2.7896 -0.0465
 9547SOL     OW40099   3.666   3.497  17.505  0.2768 -0.0881  0.3959
 9547SOL    HW140100   3.728   3.570  17.494  0.9960 -0.8119 -0.3610
 9547SOL    HW240101   3.689   3.461  17.591 -1.7263 -0.9263  0.5802
 9548SOL     OW40102   4.426   0.471   5.346 -0.7243  0.5801  0.3482
 9548SOL    HW140103   4.472   0.421   5.278  0.0160  2.7814 -0.7775
 9548SOL    HW240104   4.376   0.537   5.299 -0.5400  1.1477  0.9463
 9549SOL     OW40105   0.304   2.779  15.954 -0.5823 -0.2633 -0.1572
 9549SOL    HW140106   0.234   2.723  15.921 -0.2009 -0.1357 -1.1618
 9549SOL    HW240107   0.380   2.738  15.912  0.4656 -0.0850  1.5699
 9550SOL     OW40108   4.661   4.122   1.543  0.2796  0.1859  0.1386
 9550SOL    HW140109   4.654   4.029   1.562  3.0746 -0.2781 -1.2073
 9550SOL    HW240110   4.608   4.114   1.463  1.0848 -3.0316 -0.0544
 9551SOL     OW40111   1.892   1.541  17.126  0.2236  0.6556  0.1635
 9551SOL    HW140112   1.815   1.594  17.146 -0.0016  1.6306 -3.2533
 9551SOL    HW240113   1.957   1.609  17.110  0.3694  1.0383  2.4573
 9552SOL     OW40114   2.995   2.386   7.650  0.5017 -0.2256 -0.3516
 9552SOL    HW140115   3.021   2.338   7.729  0.4189 -0.4664 -0.4726
 9552SOL    HW240116   2.968   2.310   7.598 -2.3740  0.2834  0.4099
 9553SOL     OW40117   1.067   1.820  17.560  0.6189 -0.5323  0.5475
 9553SOL    HW140118   0.987   1.794  17.513  1.2435  1.4168 -1.6004
 9553SOL    HW240119   1.036   1.899  17.604  0.1491  0.4707 -1.5831
 9554SOL     OW40120   0.438   2.691   4.846 -0.2206  0.1186  0.1607
 9554SOL    HW140121   0.474   2.604   4.834  0.7915  0.7470 -1.4252
 9554SOL    HW240122   0.343   2.684   4.844 -0.2977  1.2445 -0.4666
 9555SOL     OW40123   4.312   0.018  15.349 -0.1790  0.4614  0.2528
 9555SOL    HW140124   4.315   0.108  15.316  0.1532  0.5078  0.4125
 9555SOL    HW240125   4.362   4.682  15.292  2.1169  0.5065  2.2190
 9556SOL     OW40126   2.150   3.471   5.599 -0.2302 -0.2342  0.3991
 9556SOL    HW140127   2.140   3.394   5.654 -1.2081  0.4933  1.2568
 9556SOL    HW240128   2.060   3.492   5.575 -0.0764  0.5102  0.4602
 9557SOL     OW40129   2.654   1.040   4.397  0.2835  0.3323 -0.1743
 9557SOL    HW140130   2.727   0.995   4.354  0.2450  0.1448 -0.0436
 9557SOL    HW240131   2.581   1.013   4.341 -0.8238  2.0624  0.4380
 9558SOL     OW40132   2.464   0.846  16.186 -0.3918  0.3108 -0.3820
 9558SOL    HW140133   2.454   0.863  16.093 -0.7576 -1.8215 -0.7303
 9558SOL    HW240134   2.384   0.891  16.215 -0.3182  0.2383 -0.0644
 9559SOL     OW40135   3.546   2.560   7.267  1.0338 -0.3780  0.3022
 9559SOL    HW140136   3.559   2.619   7.192  1.1186  1.5225  1.8149
 9559SOL    HW240137   3.557   2.478   7.218 -1.6933 -0.8263  0.4278
 9560SOL     OW40138   2.213   2.055  15.571 -0.5626  0.1042 -0.4889
 9560SOL    HW140139   2.155   2.018  15.504 -0.9681  2.1747 -1.2953
 9560SOL    HW240140   2.260   2.122  15.522  2.9818 -0.4318  2.1867
 9561SOL     OW40141   0.671   2.837  16.560  0.0632  0.1450  0.2777
 9561SOL    HW140142   0.680   2.916  16.506 -1.7713 -1.6974 -2.6935
 9561SOL    HW240143   0.624   2.774  16.506  1.2481 -0.5869  0.0896
 9562SOL     OW40144   2.810   3.344   0.182 -0.4987 -0.2973  0.2330
 9562SOL    HW140145   2.902   3.365   0.195  0.1883 -1.4170 -2.6022
 9562SOL    HW240146   2.806   3.289   0.103  0.6402  1.5838 -1.1442
 9563SOL     OW40147   1.848   0.182   9.630  0.0520  0.0218 -0.8622
 9563SOL    HW140148   1.937   0.215   9.637 -0.8219  2.0642  0.5872
 9563SOL    HW240149   1.789   0.230   9.687  0.0583  0.6427 -1.3854
 9564SOL     OW40150   2.066   0.729  16.558 -0.0611  0.2736 -0.3123
 9564SOL    HW140151   2.109   0.715  16.474  2.1786  2.1957  0.5199
 9564SOL    HW240152   2.072   0.824  16.570 -2.2616  0.2919  0.7865
 9565SOL     OW40153   1.906   3.144   9.660 -0.5125  0.1202  0.0668
 9565SOL    HW140154   1.867   3.156   9.573 -1.1593 -1.9665  0.0820
 9565SOL    HW240155   1.990   3.190   9.648  0.6530 -2.4891 -1.7525
   4.72138   4.72138  17.68784
