Membrane in water
40155
    1TCq1    O1    1   0.236   4.004  11.003 -0.5426 -0.1401  0.1276
    1TCq1    C1    2   0.225   3.872  11.031  0.7936  0.5523 -0.4589
    1TCq1    O2    3   0.309   3.789  11.000  0.1422 -0.5732 -0.1578
    1TCq1    C2    4   0.125   3.851  11.137 -0.0078  0.8850  0.5353
    1TCq1    C3    5   0.014   3.923  11.124 -0.0301  0.7535  0.6992
    1TCq1    C4    6   4.645   3.928  11.226  0.3268  0.2661  0.9681
    1TCq1    C5    7   4.672   3.873  11.346  0.4500 -0.0798  0.2050
    1TCq1    C6    8   0.068   3.802  11.352 -0.0644  1.1030 -0.0894
    1TCq1    C7    9   0.160   3.798  11.251  0.7102 -0.0307  0.5145
    1TCq1    C8   10   0.070   3.712  11.474  0.6350 -0.2921  0.3049
    1TCq1    O4   11   0.003   3.741  11.572  0.1463  0.2397 -0.2992
    1TCq1    C9   12   4.519   3.989  11.205  0.0892 -0.5876  0.6056
    1TCq1    O5   13   4.448   4.009  11.309  0.3356  0.5900  0.2335
    1TCq1    O6   14   4.485   4.021  11.084  0.5461 -0.5148 -0.0611
    1TCq1    H1   15   0.179   4.058  11.062 -0.5019  0.2114 -0.1503
    1TCq1    H2   16   4.706   3.967  11.029 -0.4194  1.9653  1.3745
    1TCq1    H3   17   4.599   3.881  11.426 -2.0885 -1.5593 -1.9558
    1TCq1    H4   18   0.264   3.772  11.268  0.3645 -0.6927  1.5765
    2MPD2     C   19   0.149   3.268  11.705  0.0658  0.3176  0.5808
    2MPD2    C1   20   0.126   3.388  11.763 -0.1576  0.5341  0.0201
    2MPD2    C2   21   0.133   3.499  11.681  0.5043 -0.2377  0.2014
    2MPD2    C3   22   0.162   3.487  11.545  0.2414 -0.0608 -0.6766
    2MPD2    C4   23   0.209   3.369  11.499 -0.1193 -0.1271  0.0545
    2MPD2    C5   24   0.192   3.258  11.576  0.1151  0.1886  0.3185
    2MPD2     H   25   0.121   3.597  11.726 -0.3055 -0.5263  0.6192
    2MPD2    H1   26   0.240   3.361  11.395 -0.3959  1.9056 -0.1732
    2MPD2    H2   27   0.134   3.178  11.763 -0.1830 -0.5540 -0.8377
    2MPD2    H3   28   0.212   3.160  11.533 -2.4354 -0.4656  0.6125
    2MPD2     N   29   0.136   3.593  11.455  0.5083  0.4135 -0.1822
    2MPD2    H5   30   0.161   3.572  11.358 -1.7888 -0.3740 -0.6075
    2MPD2    N1   31   0.079   3.414  11.893 -0.1247 -0.5086  0.2995
    2MPD2    H7   32   0.041   3.504  11.918 -3.2021 -1.3774 -1.3456
    3TCq1    O1   33   3.252   4.540  10.804  0.4352  0.6504  0.1643
    3TCq1    C1   34   3.346   4.548  10.708 -0.2288  0.3075 -0.2088
    3TCq1    O2   35   3.465   4.571  10.715 -0.2209 -0.3180  0.0813
    3TCq1    C2   36   3.276   4.547  10.581  0.3774  0.1188 -0.0451
    3TCq1    C3   37   3.156   4.482  10.569 -0.3364  0.8956 -0.3065
    3TCq1    C4   38   3.070   4.507  10.466 -0.4800  0.6135 -0.2802
    3TCq1    C5   39   3.122   4.582  10.361  0.0848 -0.2621 -0.3916
    3TCq1    C6   40   3.249   4.640  10.367 -0.2367  0.3242 -0.5176
    3TCq1    C7   41   3.328   4.623  10.476 -0.0215 -0.1795 -0.8902
    3TCq1    C8   42   3.291   4.703  10.244  0.9221 -0.4752  0.2299
    3TCq1    O4   43   3.228   4.690  10.139 -0.0493  0.3424  0.1641
    3TCq1    C9   44   2.946   4.433  10.462 -0.1835  0.5935  0.2530
    3TCq1    O5   45   2.871   4.449  10.364 -1.2319 -0.3010  0.3983
    3TCq1    O6   46   2.900   4.405  10.582 -0.3417  0.0470 -0.2813
    3TCq1    H1   47   3.162   4.528  10.767 -0.9047  1.8802  3.0274
    3TCq1    H2   48   3.132   4.412  10.648 -0.6394 -0.0342 -1.2377
    3TCq1    H3   49   3.062   4.582  10.271 -2.0357 -0.7349  1.0120
    3TCq1    H4   50   3.430   4.661  10.478 -0.3378  0.6287  0.0862
    4MPD2     C   51   3.704   0.146   9.968  0.0738  0.4340 -0.5916
    4MPD2    C1   52   3.719   0.181  10.095 -0.0861  0.3678  0.3793
    4MPD2    C2   53   3.625   0.144  10.194  0.0912 -0.2150  0.0338
    4MPD2    C3   54   3.512   0.071  10.164  0.6444 -0.4013  0.5686
    4MPD2    C4   55   3.490   0.039  10.032 -0.0270 -0.3165 -0.0795
    4MPD2    C5   56   3.588   0.073   9.940  0.1593  0.3859  0.0610
    4MPD2     H   57   3.648   0.170  10.297 -0.2756  1.6752 -0.3637
    4MPD2    H1   58   3.408   4.697   9.996  0.6500 -0.6090 -1.1217
    4MPD2    H2   59   3.771   0.193   9.897  2.0331 -1.1348  0.2222
    4MPD2    H3   60   3.562   0.035   9.842 -1.8538 -2.8876  1.9136
    4MPD2     N   61   3.417   0.043  10.267  0.0691  0.4227  0.1280
    4MPD2    H5   62   3.442   0.062  10.364 -1.4121  1.9312  0.2299
    4MPD2    N1   63   3.832   0.259  10.148  0.1045  0.8420  0.0801
    4MPD2    H7   64   3.836   0.267  10.249 -0.0110 -1.1887  0.2525
    5TCq1    O1   65   0.796   1.334  11.777 -0.0528  0.3670 -0.3199
    5TCq1    C1   66   0.771   1.292  11.648  0.1908  0.8506  0.1541
    5TCq1    O2   67   0.852   1.246  11.565  0.3870  0.8277 -0.0051
    5TCq1    C2   68   0.628   1.312  11.613  0.2773 -0.8097  0.3365
    5TCq1    C3   69   0.573   1.434  11.656 -0.6158 -0.3585 -1.2367
    5TCq1    C4   70   0.446   1.472  11.601  0.3299  0.5294  0.1321
    5TCq1    C5   71   0.386   1.394  11.506  0.3154  0.4104  0.0682
    5TCq1    C6   72   0.450   1.287  11.455  0.0486  0.6872 -0.4315
    5TCq1    C7   73   0.570   1.245  11.508  0.5043 -0.0878  0.3425
    5TCq1    C8   74   0.380   1.203  11.353 -0.0263  0.0717  0.1307
    5TCq1    O4   75   0.452   1.124  11.285 -0.0673  0.1699  0.5984
    5TCq1    C9   76   0.395   1.601  11.629  0.1024  0.6993 -0.1172
    5TCq1    O5   77   0.462   1.653  11.718  0.8400  0.1043 -0.1144
    5TCq1    O6   78   0.299   1.655  11.561  0.2528 -0.0425  0.2068
    5TCq1    H1   79   0.709   1.344  11.820  0.0411 -0.0199 -0.0409
    5TCq1    H2   80   0.618   1.501  11.729 -1.7739  0.7131 -1.4959
    5TCq1    H3   81   0.306   1.444  11.452  0.1874  1.2284  1.0256
    5TCq1    H4   82   0.628   1.159  11.477 -0.7277 -0.9430  0.4289
    6MPD2     C   83   0.027   1.219  11.254  0.4750 -0.6849 -0.3332
    6MPD2    C1   84   0.162   1.193  11.242 -0.1760  0.0320  0.3861
    6MPD2    C2   85   0.208   1.105  11.146  0.1299  1.0130 -0.4430
    6MPD2    C3   86   0.119   1.035  11.062 -0.2585  0.0052  0.2711
    6MPD2    C4   87   4.704   1.065  11.078  0.4623 -0.0600 -0.7431
    6MPD2    C5   88   4.655   1.159  11.167 -0.6245 -0.0646 -1.2775
    6MPD2     H   89   0.313   1.088  11.125  0.6376  1.2940  1.8238
    6MPD2    H1   90   4.626   1.038  11.008 -0.1447  0.3189 -0.2150
    6MPD2    H2   91   4.705   1.294  11.321  4.1089 -0.2129  1.3489
    6MPD2    H3   92   4.547   1.170  11.169 -0.1972  3.8427 -0.0433
    6MPD2     N   93   0.171   0.959  10.956 -0.9819 -0.0314  0.5390
    6MPD2    H5   94   0.271   0.954  10.939 -0.9549 -0.4967  0.8512
    6MPD2    N1   95   0.250   1.238  11.345 -0.0086 -0.5103 -0.0971
    6MPD2    H7   96   0.211   1.306  11.409 -2.5729 -1.7746 -0.2820
    7TCq1    O1   97   1.841   0.933  12.677  0.2852  0.3343 -0.1059
    7TCq1    C1   98   1.772   0.991  12.776 -0.1241  1.2392 -0.1023
    7TCq1    O2   99   1.651   0.978  12.792 -0.0891  0.7212 -0.0080
    7TCq1    C2  100   1.856   1.096  12.829  0.4612  0.4992 -0.2651
    7TCq1    C3  101   1.801   1.211  12.869  0.0550  0.3581 -0.2908
    7TCq1    C4  102   1.860   1.280  12.966  0.0170  0.2866 -0.2014
    7TCq1    C5  103   1.975   1.233  13.024 -0.2038 -0.2509  0.2743
    7TCq1    C6  104   2.031   1.115  12.984  0.0492 -0.6358 -0.1141
    7TCq1    C7  105   1.970   1.041  12.886 -0.1073  0.5288 -0.3162
    7TCq1    C8  106   2.154   1.048  13.035  0.0337 -0.6753 -0.1944
    7TCq1    O4  107   2.176   0.935  12.998 -0.5462 -0.3259  0.7706
    7TCq1    C9  108   1.790   1.389  13.017 -0.3594 -0.1424 -0.2084
    7TCq1    O5  109   1.848   1.476  13.092  0.2500  0.3693  0.4420
    7TCq1    O6  110   1.670   1.403  12.993  0.3868 -0.2457  0.3891
    7TCq1    H1  111   1.933   0.967  12.675 -0.0126  1.0993 -0.5662
    7TCq1    H2  112   1.720   1.263  12.820 -0.8146 -1.0932 -0.3860
    7TCq1    H3  113   2.021   1.287  13.105 -1.4284  1.2455 -0.0219
    7TCq1    H4  114   1.989   0.936  12.868 -2.0326 -0.2379  1.9740
    8MPD2     C  115   2.595   1.031  13.292  0.2715  0.0556  0.0894
    8MPD2    C1  116   2.527   0.925  13.220 -0.2143 -0.4505 -0.2814
    8MPD2    C2  117   2.418   0.968  13.155  0.1866 -0.2932 -0.0959
    8MPD2    C3  118   2.366   1.098  13.155  0.3251 -0.1231 -0.6322
    8MPD2    C4  119   2.439   1.196  13.217  0.2536 -0.2499 -0.5209
    8MPD2    C5  120   2.553   1.158  13.276 -0.3101 -0.1211 -0.0530
    8MPD2     H  121   2.355   0.888  13.117 -0.2670  0.0560 -0.0816
    8MPD2    H1  122   2.406   1.299  13.218  2.7612  0.5336  1.0746
    8MPD2    H2  123   2.682   1.021  13.356 -1.3151 -3.1422  1.7943
    8MPD2    H3  124   2.608   1.239  13.323 -1.7646  1.0944 -0.4445
    8MPD2     N  125   2.242   1.135  13.096  0.1084  0.0833 -0.5962
    8MPD2    H5  126   2.222   1.234  13.110  1.2550  0.1158  0.7821
    8MPD2    N1  127   2.571   0.793  13.239 -0.1484  0.0723 -0.6033
    8MPD2    H7  128   2.668   0.784  13.269  0.0235  2.0498 -0.6138
    9TCq1    O1  129   1.084   4.054  10.678 -0.2182  0.2704 -0.0937
    9TCq1    C1  130   1.059   4.055  10.809  0.3291 -0.6583 -0.0858
    9TCq1    O2  131   1.148   4.023  10.889  0.1274  0.1782  0.4341
    9TCq1    C2  132   0.917   4.011  10.817  0.2056  0.0313 -0.4629
    9TCq1    C3  133   0.818   4.068  10.737  0.4099 -0.0541  0.1090
    9TCq1    C4  134   0.688   4.065  10.780 -0.6033  0.3122  0.6418
    9TCq1    C5  135   0.647   4.000  10.889  0.3308 -0.6519 -0.5290
    9TCq1    C6  136   0.738   3.941  10.967 -0.3909  0.0682 -0.3034
    9TCq1    C7  137   0.878   3.945  10.933  0.1218  0.3989  0.2946
    9TCq1    C8  138   0.701   3.862  11.086  0.0277 -1.2729  0.0927
    9TCq1    O4  139   0.779   3.774  11.125 -0.0430 -0.6350 -0.4504
    9TCq1    C9  140   0.584   4.126  10.700  0.1560  0.4961 -0.3724
    9TCq1    O5  141   0.617   4.172  10.589 -0.2292  0.0732 -0.2231
    9TCq1    O6  142   0.466   4.095  10.720  0.3028  0.0984 -0.3004
    9TCq1    H1  143   1.006   4.029  10.624 -0.4276 -3.3678  1.8731
    9TCq1    H2  144   0.835   4.127  10.649  2.3878  0.6390  0.9501
    9TCq1    H3  145   0.547   4.004  10.932  0.9418 -2.1136  1.0241
    9TCq1    H4  146   0.953   3.898  10.995 -0.0101  1.6983  1.4605
   10MPD2     C  147   0.591   3.786  11.355 -0.4042 -0.0643  0.4099
   10MPD2    C1  148   0.570   3.911  11.290  0.3390 -0.1013  0.2175
   10MPD2    C2  149   0.479   4.003  11.341  0.7384  0.2714  1.0481
   10MPD2    C3  150   0.404   3.968  11.449  0.2853  0.1648  0.2468
   10MPD2    C4  151   0.412   3.839  11.505 -0.7674  0.2679  0.4127
   10MPD2    C5  152   0.511   3.751  11.460  0.6448  0.2126  0.0626
   10MPD2     H  153   0.447   4.088  11.283 -3.1258 -1.1136  1.1301
   10MPD2    H1  154   0.363   3.812  11.598  0.1534  1.6085  1.2921
   10MPD2    H2  155   0.666   3.710  11.333  0.0859 -0.4206  3.2207
   10MPD2    H3  156   0.518   3.650  11.499 -1.1505 -0.7429 -2.1189
   10MPD2     N  157   0.296   4.048  11.497  0.3378  0.1423  0.0446
   10MPD2    H5  158   0.238   4.019  11.576 -0.0653  1.2405  0.1558
   10MPD2    N1  159   0.605   3.929  11.153 -0.5479  0.6221  0.4517
   10MPD2    H7  160   0.575   4.010  11.100  1.1516 -0.5068 -2.2593
   11TCq1    O1  161   1.153   0.170  13.975 -0.1562 -0.2592  0.1174
   11TCq1    C1  162   1.016   0.176  13.970  0.3607  0.0963 -0.2195
   11TCq1    O2  163   0.958   0.278  13.948 -0.0128 -0.1575 -0.5056
   11TCq1    C2  164   0.967   0.057  14.034 -0.0182 -0.2201 -0.3994
   11TCq1    C3  165   1.003   4.654  13.975  0.1503  0.0165  0.1520
   11TCq1    C4  166   0.917   4.547  13.987  0.3800  0.2128 -0.2735
   11TCq1    C5  167   0.798   4.570  14.055 -0.1610  0.2762 -0.1990
   11TCq1    C6  168   0.771   4.684  14.122  0.1369  0.1194  0.2315
   11TCq1    C7  169   0.858   0.074  14.116 -0.7878 -0.2868  0.7915
   11TCq1    C8  170   0.639   4.708  14.174  0.4426 -0.1925 -0.3681
   11TCq1    O4  171   0.616   0.098  14.221 -0.5010  0.1588  0.6309
   11TCq1    C9  172   0.935   4.433  13.901 -1.0713 -0.5823  0.0541
   11TCq1    O5  173   0.834   4.367  13.853 -0.0097  0.0507 -0.3075
   11TCq1    O6  174   1.049   4.422  13.853  0.5074 -0.4505 -0.0990
   11TCq1    H1  175   1.174   0.093  14.031  0.6643 -1.2077 -1.4959
   11TCq1    H2  176   1.087   4.652  13.906 -1.0422  0.4010 -1.3199
   11TCq1    H3  177   0.734   4.482  14.061 -0.5262  0.6161  0.8996
   11TCq1    H4  178   0.833   0.165  14.169  1.7547 -0.8177  2.8754
   12MPD2     C  179   0.340   4.695  14.238 -0.5214 -0.0276 -0.2934
   12MPD2    C1  180   0.409   4.598  14.177 -0.4227  0.0005 -0.5936
   12MPD2    C2  181   0.343   4.484  14.136  0.1911 -0.5841  0.2716
   12MPD2    C3  182   0.205   4.482  14.137 -0.2057  0.4904  0.6759
   12MPD2    C4  183   0.138   4.585  14.179 -0.0033  0.4787 -0.1265
   12MPD2    C5  184   0.201   4.693  14.226  0.1287  0.3443  0.1227
   12MPD2     H  185   0.407   4.405  14.097  1.4041  0.7633 -0.5048
   12MPD2    H1  186   0.029   4.584  14.185  0.0523  0.2806  0.9019
   12MPD2    H2  187   0.382   0.070  14.274 -0.0410  0.3460 -1.8154
   12MPD2    H3  188   0.149   0.062  14.260  0.0866  0.7719 -1.0908
   12MPD2     N  189   0.133   4.364  14.105 -0.5702  0.1917  0.6004
   12MPD2    H5  190   0.032   4.358  14.095 -0.2482 -2.7508 -0.7682
   12MPD2    N1  191   0.550   4.603  14.150  0.2388 -0.3372 -0.2060
   12MPD2    H7  192   0.587   4.530  14.090  1.7847  0.3336 -0.0798
   13TCq1    O1  193   0.185   3.576  10.553 -0.4707 -0.3343 -0.1229
   13TCq1    C1  194   0.069   3.603  10.614  0.4759 -0.0696  0.0663
   13TCq1    O2  195   4.705   3.689  10.586 -0.4094  0.6076 -0.2710
   13TCq1    C2  196   0.059   3.517  10.732  0.6203 -0.2117  0.0989
   13TCq1    C3  197   0.114   3.392  10.725  0.5874  0.0942 -0.0491
   13TCq1    C4  198   0.101   3.308  10.831 -0.3952 -0.6657  0.0136
   13TCq1    C5  199   0.039   3.351  10.949 -0.2932 -0.4685  0.0920
   13TCq1    C6  200   4.709   3.478  10.951  0.4133  0.5649 -0.0197
   13TCq1    C7  201   4.709   3.560  10.839 -0.2132  0.2811 -0.0674
   13TCq1    C8  202   4.639   3.528  11.070  0.2548 -0.4908  0.3144
   13TCq1    O4  203   4.574   3.628  11.062 -0.9600  0.3598  0.7464
   13TCq1    C9  204   0.160   3.179  10.811 -0.1081 -0.3416  0.1438
   13TCq1    O5  205   0.239   3.164  10.712  0.1584  0.9094  0.3472
   13TCq1    O6  206   0.134   3.098  10.901  0.5234 -0.0003  0.3458
   13TCq1    H1  207   0.254   3.531  10.606 -1.1919 -2.1671 -0.7443
   13TCq1    H2  208   0.155   3.358  10.630 -0.1281 -1.8770  0.3532
   13TCq1    H3  209   0.044   3.281  11.031 -0.0274 -0.6255 -0.0595
   13TCq1    H4  210   4.659   3.655  10.844  1.8493  1.3769 -0.2844
   14MPD2     C  211   4.587   3.367  11.404  0.3220 -0.1659  0.2638
   14MPD2    C1  212   4.570   3.457  11.303 -0.1738 -0.3152  0.2822
   14MPD2    C2  213   4.501   3.570  11.341 -0.2480  0.0723  0.2803
   14MPD2    C3  214   4.449   3.595  11.468  0.0682 -0.3555  0.3015
   14MPD2    C4  215   4.478   3.502  11.564 -0.0383  0.0136  0.5462
   14MPD2    C5  216   4.546   3.389  11.532  0.0132  0.1891  0.3588
   14MPD2     H  217   4.467   3.647  11.272 -0.3252 -0.9939 -0.8830
   14MPD2    H1  218   4.458   3.505  11.670 -0.8409  0.4805  0.3771
   14MPD2    H2  219   4.646   3.277  11.394 -0.4171 -0.8433  2.0482
   14MPD2    H3  220   4.572   3.323  11.615 -1.1014 -2.3853 -1.3400
   14MPD2     N  221   4.381   3.718  11.501 -0.0524 -0.2043 -0.7728
   14MPD2    H5  222   4.389   3.803  11.446 -1.3100 -0.5652 -1.5263
   14MPD2    N1  223   4.626   3.430  11.172  0.7375 -0.1207 -0.0849
   14MPD2    H7  224   4.683   3.346  11.168  2.6845  1.1988  0.0483
   15TCq1    O1  225   1.481   3.522   2.258  0.9895  0.3669 -0.1879
   15TCq1    C1  226   1.420   3.509   2.138 -0.8481  0.3435 -0.4237
   15TCq1    O2  227   1.357   3.412   2.106 -0.2366  0.4983 -0.1762
   15TCq1    C2  228   1.535   3.562   2.057 -0.4659 -0.9937 -0.1572
   15TCq1    C3  229   1.582   3.685   2.095  0.0137  0.3723  0.0883
   15TCq1    C4  230   1.701   3.732   2.044 -0.2403  0.3017  0.3226
   15TCq1    C5  231   1.772   3.654   1.963  0.5277 -0.3311  0.6607
   15TCq1    C6  232   1.726   3.530   1.927 -0.7921 -0.2445 -0.6361
   15TCq1    C7  233   1.605   3.478   1.972 -0.1799 -0.2403 -0.1023
   15TCq1    C8  234   1.794   3.453   1.824 -0.3874 -0.4680  0.4537
   15TCq1    O4  235   1.913   3.460   1.817  0.1925  0.0168  0.2385
   15TCq1    C9  236   1.744   3.869   2.059 -0.3397  0.0725 -0.1902
   15TCq1    O5  237   1.859   3.890   2.025 -0.1942 -0.1327 -0.3842
   15TCq1    O6  238   1.664   3.954   2.106  0.1953  0.1246  0.3595
   15TCq1    H1  239   1.555   3.586   2.254  0.4190  1.0761  0.8367
   15TCq1    H2  240   1.515   3.754   2.143 -0.2409  0.3557 -0.2454
   15TCq1    H3  241   1.863   3.692   1.917  0.2545 -1.6259 -0.9520
   15TCq1    H4  242   1.579   3.374   1.958  0.7080 -0.5281  0.4146
   16MPD2     C  243   1.652   3.333   1.518  0.1313  0.3256 -0.0229
   16MPD2    C1  244   1.739   3.336   1.624  0.3387 -0.0476  0.1794
   16MPD2    C2  245   1.870   3.292   1.607  0.3445  0.1408 -0.0076
   16MPD2    C3  246   1.917   3.254   1.482  0.6088  0.2842 -0.3034
   16MPD2    C4  247   1.831   3.269   1.372  0.2126  0.9079 -0.3222
   16MPD2    C5  248   1.701   3.298   1.396  0.1387 -0.6651 -0.0573
   16MPD2     H  249   1.941   3.283   1.688 -0.7121 -1.5916  0.7200
   16MPD2    H1  250   1.868   3.257   1.270  2.7235  1.1024  0.5719
   16MPD2    H2  251   1.548   3.365   1.520 -0.5372 -1.7392 -2.0885
   16MPD2    H3  252   1.626   3.306   1.317 -0.2728  0.6811  0.4620
   16MPD2     N  253   2.053   3.215   1.468 -0.0900  0.7426  0.1707
   16MPD2    H5  254   2.105   3.210   1.555  0.0396  2.0569  0.1779
   16MPD2    N1  255   1.698   3.404   1.736  0.1887  0.1280 -0.1080
   16MPD2    H7  256   1.600   3.429   1.747  0.2801  1.7767 -3.0462
   17TCq1    O1  257   4.376   2.506   9.890 -0.0853 -0.3289 -0.4967
   17TCq1    C1  258   4.464   2.427   9.955  0.4124  0.4657  0.1307
   17TCq1    O2  259   4.470   2.303   9.950  0.2563  0.2499 -0.1350
   17TCq1    C2  260   4.575   2.506  10.015  0.1416 -0.9677 -0.2573
   17TCq1    C3  261   4.592   2.635   9.982  0.0007  0.9401  0.4561
   17TCq1    C4  262   4.708   2.700  10.020 -0.9010 -0.1567 -0.3530
   17TCq1    C5  263   0.080   2.641  10.096  0.7390  0.5556  0.3516
   17TCq1    C6  264   0.065   2.507  10.123 -0.0536  0.3311 -0.1281
   17TCq1    C7  265   4.674   2.442  10.081 -0.4109  0.2785 -0.2920
   17TCq1    C8  266   0.169   2.423  10.173 -0.2878 -0.0589  0.1695
   17TCq1    O4  267   0.156   2.306  10.155  0.7770  0.7837  0.3080
   17TCq1    C9  268   0.006   2.840   9.985 -0.1463  0.2094  0.4644
   17TCq1    O5  269   4.626   2.898   9.923 -0.2264 -0.5421  0.2430
   17TCq1    O6  270   0.103   2.901  10.036 -0.0647  0.1431 -0.3648
   17TCq1    H1  271   4.380   2.598   9.924  2.4159 -0.4189 -0.5710
   17TCq1    H2  272   4.519   2.683   9.917 -0.2680  1.1587  0.9204
   17TCq1    H3  273   0.177   2.687  10.111  0.0745  1.9773  0.2837
   17TCq1    H4  274   4.663   2.335  10.099  0.0569  0.0146 -1.5861
   18MPD2     C  275   0.435   2.305  10.265  0.2906 -0.4236 -0.5683
   18MPD2    C1  276   0.395   2.440  10.270 -0.0426  0.2933 -0.6044
   18MPD2    C2  277   0.490   2.529  10.325 -0.2147 -0.0725  0.2934
   18MPD2    C3  278   0.619   2.492  10.365 -0.1868 -0.4096 -0.0713
   18MPD2    C4  279   0.650   2.358  10.350  0.6750 -0.9052  0.0026
   18MPD2    C5  280   0.562   2.270  10.309  0.1132 -0.3246 -0.5060
   18MPD2     H  281   0.455   2.632  10.331  0.8749  0.3029  0.2759
   18MPD2    H1  282   0.753   2.325  10.352  1.3059  1.0352 -0.5193
   18MPD2    H2  283   0.366   2.229  10.231  0.3434 -1.3184  1.2860
   18MPD2    H3  284   0.588   2.165  10.307  1.8661  0.1232 -1.3033
   18MPD2     N  285   0.712   2.582  10.420 -0.1338  0.1237  0.1035
   18MPD2    H5  286   0.810   2.560  10.435  0.1329  0.9420 -0.4690
   18MPD2    N1  287   0.273   2.489  10.233  0.4287  0.0464  0.5303
   18MPD2    H7  288   0.265   2.590  10.243 -2.7426 -0.3828  2.3235
   19TMC2    C1  289   1.118   4.185  14.608  0.3808  0.1509  0.2134
   19TMC2    C2  290   0.996   4.213  14.659 -0.0743  0.0424 -0.1130
   19TMC2    C3  291   0.893   4.125  14.638  0.0490 -0.6364  0.2165
   19TMC2    C4  292   1.137   4.087  14.514  0.4013 -0.3457  0.6479
   19TMC2    C5  293   1.031   4.003  14.495  0.0324 -0.2495  0.2532
   19TMC2    C6  294   0.906   4.027  14.543  0.2580 -0.6709  0.2739
   19TMC2     C  295   1.225   4.274  14.647 -0.0153 -0.2676 -0.9640
   19TMC2     O  296   1.192   4.386  14.677 -0.1845  0.4071  0.0533
   19TMC2     H  297   0.973   4.310  14.702  2.0473  1.1219 -1.4009
   19TMC2    H1  298   1.225   4.077  14.451 -0.4642  3.0147 -1.1139
   19TMC2    H2  299   0.825   3.959  14.519  0.7936 -0.2513 -2.7261
   19TMC2    C7  300   1.049   3.885  14.407 -0.0295  0.6797 -0.3829
   19TMC2    C8  301   0.767   4.194  14.656  0.2853  0.2859  0.2563
   19TMC2    O1  302   0.952   3.826  14.360 -1.0528 -0.0403 -0.1305
   19TMC2    O2  303   0.746   4.314  14.677  0.6078 -0.4002  0.7059
   19TMC2    O5  304   0.671   4.099  14.661  0.0683 -0.8320  0.2164
   19TMC2    H5  305   0.705   4.008  14.675 -0.6227 -1.0625  0.3851
   20MPD2     C  306   1.496   4.406  14.665  0.3687  1.0531 -0.0706
   20MPD2    C1  307   1.471   4.268  14.688 -0.3346  0.6167  0.7042
   20MPD2    C2  308   1.575   4.188  14.726  0.8828  0.1103 -1.0507
   20MPD2    C3  309   1.694   4.237  14.750 -0.0035 -0.8468 -0.4211
   20MPD2    C4  310   1.719   4.368  14.725 -0.3235  0.2701 -0.3712
   20MPD2    C5  311   1.622   4.455  14.681  0.2619  0.9735  0.2415
   20MPD2     H  312   1.546   4.086  14.747  1.5364 -0.2594 -1.9463
   20MPD2    H1  313   1.811   4.402  14.770 -0.1972 -0.5733  0.0081
   20MPD2    H2  314   1.416   4.474  14.639  0.4301  0.7013 -1.1907
   20MPD2    H3  315   1.637   4.562  14.673 -0.7315  1.1541  0.7551
   20MPD2     N  316   1.798   4.160  14.805 -0.1087  0.2413  0.0177
   20MPD2    H5  317   1.883   4.205  14.836  0.3752 -0.8178  0.2306
   20MPD2    N1  318   1.344   4.207  14.674  0.2929  0.8877  0.0345
   20MPD2    H7  319   1.340   4.106  14.666  0.2203  0.7427  1.9889
   21MPD2     C  320   3.606   4.588  14.704 -0.1015  0.2614 -0.0848
   21MPD2    C1  321   3.619   4.457  14.661  0.5770 -0.2159 -0.3157
   21MPD2    C2  322   3.512   4.366  14.682 -0.3660  0.6849 -0.4539
   21MPD2    C3  323   3.389   4.411  14.732  0.4660  0.5806 -0.0029
   21MPD2    C4  324   3.374   4.545  14.766 -0.1974 -0.0759 -0.0514
   21MPD2    C5  325   3.482   4.629  14.756  0.2223 -0.7606 -0.0017
   21MPD2     H  326   3.520   4.260  14.663  0.0973  0.9345 -1.6302
   21MPD2    H1  327   3.285   4.589  14.810 -1.3067 -1.4004 -0.9761
   21MPD2    H2  328   3.685   4.661  14.691  0.0856  0.5402  2.7234
   21MPD2    H3  329   3.460   0.012  14.783 -4.2218 -1.5228 -0.8319
   21MPD2     N  330   3.269   4.330  14.744 -0.3997 -0.2875 -0.1163
   21MPD2    H5  331   3.180   4.379  14.749  0.0090  0.3086  1.2956
   21MPD2    N1  332   3.738   4.401  14.602  0.2353  0.0557 -0.4881
   21MPD2    H7  333   3.729   4.311  14.557  1.6471 -0.7392  0.8176
   22TCq2    C1  334   3.273   4.198  14.725 -0.1598  0.4709 -0.4129
   22TCq2    O2  335   3.361   4.116  14.748  0.3410 -0.5482  0.0625
   22TCq2    C2  336   3.141   4.147  14.689 -0.5826  0.4502 -0.4381
   22TCq2    C3  337   3.096   4.024  14.744  0.9382  0.4226  0.0603
   22TCq2    C4  338   2.966   3.983  14.716  0.2007 -0.0378 -0.6092
   22TCq2    C5  339   2.881   4.062  14.644  0.3125  0.1046 -0.6733
   22TCq2    C6  340   2.926   4.181  14.601  0.1501 -0.3429  0.0220
   22TCq2    C7  341   3.051   4.223  14.624  0.2584  0.5220  0.1436
   22TCq2    C8  342   2.847   4.246  14.506 -0.5836  0.0968  0.5818
   22TCq2    O4  343   2.748   4.188  14.470  0.3553 -0.3840  0.5591
   22TCq2    C9  344   2.931   3.843  14.763  0.7371  0.7351  0.9303
   22TCq2    O5  345   2.989   3.806  14.866  0.3671  0.3785  0.3527
   22TCq2    O6  346   2.818   3.796  14.728 -0.4425 -0.1491 -0.3230
   22TCq2    H2  347   3.160   3.955  14.798  1.3578  0.9398  0.2275
   22TCq2    H3  348   2.779   4.028  14.625  0.8139 -1.9628  0.3085
   22TCq2    H4  349   3.093   4.309  14.573 -0.9388  0.0555 -1.6302
   23MPD2     C  350   0.655   0.683  14.629  0.1208 -0.8584 -1.2578
   23MPD2    C1  351   0.587   0.671  14.748 -0.9683  1.2849  0.5325
   23MPD2    C2  352   0.448   0.684  14.743  0.1733 -0.4015  0.4026
   23MPD2    C3  353   0.379   0.694  14.625 -0.1722  0.4040 -0.5903
   23MPD2    C4  354   0.450   0.690  14.509 -0.1993 -0.0417  0.0945
   23MPD2    C5  355   0.588   0.692  14.508 -0.4446  0.6004  0.1812
   23MPD2     H  356   0.394   0.683  14.838 -1.0563  1.4055 -0.2835
   23MPD2    H1  357   0.404   0.690  14.411  0.5225 -0.1131 -0.2498
   23MPD2    H2  358   0.763   0.687  14.622  0.2093  1.7385  2.1172
   23MPD2    H3  359   0.640   0.694  14.413 -0.6740  0.2983  0.0460
   23MPD2     N  360   0.239   0.729  14.610 -1.2655  0.0479  0.0893
   23MPD2    H5  361   0.208   0.763  14.520 -0.0771 -0.6375 -0.5764
   23MPD2    N1  362   0.646   0.663  14.876 -0.4997  0.9287  0.3423
   23MPD2    H7  363   0.586   0.669  14.958  0.3997 -0.3521  1.1004
   24TCq2    C1  364   0.145   0.738  14.703 -0.3031 -0.4252 -0.3780
   24TCq2    O2  365   0.157   0.730  14.823 -0.3313  0.1690 -0.2986
   24TCq2    C2  366   0.028   0.779  14.648 -0.2669 -0.0294  0.1087
   24TCq2    C3  367   4.690   0.875  14.721 -0.9257 -0.0049  0.0379
   24TCq2    C4  368   4.604   0.960  14.666 -0.2668  0.1041  0.2727
   24TCq2    C5  369   4.599   0.968  14.526 -0.5550  0.1992  0.2087
   24TCq2    C6  370   4.654   0.868  14.457 -0.7781  0.1968 -0.1103
   24TCq2    C7  371   0.009   0.771  14.515 -0.1754 -0.4593 -0.5128
   24TCq2    C8  372   4.629   0.867  14.313  1.0155  0.0874 -1.5364
   24TCq2    O4  373   4.713   0.818  14.234  0.6113  0.5670 -0.1228
   24TCq2    C9  374   4.561   1.065  14.752  0.4538  0.4088 -0.0260
   24TCq2    O5  375   4.513   1.168  14.702  0.0862  0.0791  0.3810
   24TCq2    O6  376   4.578   1.065  14.878  0.0212 -0.3918  0.3547
   24TCq2    H2  377   4.700   0.879  14.829 -0.7740 -0.6241  0.0495
   24TCq2    H3  378   4.545   1.050  14.481 -0.1150  0.7960  0.7667
   24TCq2    H4  379   0.047   0.686  14.459  0.7791  0.9729 -2.0265
   25TMC2    C1  380   0.176   2.773  11.641 -0.1398 -0.4626 -0.0669
   25TMC2    C2  381   0.298   2.762  11.704  0.0060 -0.3225 -0.1890
   25TMC2    C3  382   0.283   2.726  11.838  0.4419 -0.1539  0.3898
   25TMC2    C4  383   0.046   2.768  11.697 -0.1089  0.2606 -0.2219
   25TMC2    C5  384   0.047   2.727  11.827  1.0692  0.2339  0.6541
   25TMC2    C6  385   0.162   2.705  11.891  0.5736  0.0052 -0.1869
   25TMC2     C  386   0.191   2.800  11.499  0.5667  0.1545 -1.1221
   25TMC2     O  387   0.298   2.849  11.471 -0.2042  0.4505  0.9836
   25TMC2     H  388   0.392   2.767  11.651 -1.1177 -2.1209 -2.3386
   25TMC2    H1  389   4.680   2.786  11.632 -0.4927  0.6095  0.3721
   25TMC2    H2  390   0.153   2.679  11.996  1.6978  3.4901  0.7775
   25TMC2    C7  391   4.637   2.734  11.905 -0.2477  0.5313 -0.0103
   25TMC2    C8  392   0.392   2.714  11.931 -0.2448  0.4435 -0.5142
   25TMC2    O1  393   4.637   2.755  12.026 -0.0634 -0.4901  0.0571
   25TMC2    O2  394   0.404   2.652  12.032 -0.5356  0.2572 -0.8181
   25TMC2    O5  395   0.462   2.825  11.897  0.0852 -0.1446 -0.2866
   25TMC2    H5  396   0.457   2.852  11.803 -1.4057 -1.4070 -0.5664
   26MPD2     C  397   0.138   2.673  10.994  0.0249  0.4345  0.3909
   26MPD2    C1  398   0.029   2.626  11.058 -0.2088 -0.4512 -0.3084
   26MPD2    C2  399   0.012   2.658  11.193  0.4376  0.6013 -0.1805
   26MPD2    C3  400   0.112   2.727  11.267 -0.8137 -0.1746  0.2369
   26MPD2    C4  401   0.220   2.771  11.198  0.1966  0.7517 -0.2241
   26MPD2    C5  402   0.233   2.742  11.068  0.4365 -0.2440  1.2423
   26MPD2     H  403   4.650   2.611  11.247  2.2864  0.7673  2.7618
   26MPD2    H1  404   0.296   2.831  11.246  1.0331  0.0297 -0.6436
   26MPD2    H2  405   0.154   2.655  10.888  1.6967  0.2781  0.6646
   26MPD2    H3  406   0.314   2.792  11.017 -2.2608  2.0995 -0.7829
   26MPD2     N  407   0.097   2.750  11.406 -0.0190 -0.3751  0.2367
   26MPD2    H5  408   0.019   2.700  11.447  1.9135 -2.3295  1.5374
   26MPD2    N1  409   4.667   2.541  10.983 -0.0511  0.5305  0.3120
   26MPD2    H7  410   4.697   2.519  10.889  3.3808 -2.5760  2.1657
   27TMC2    C1  411   3.349   0.334  11.557 -0.0463 -0.2152  0.2378
   27TMC2    C2  412   3.419   0.317  11.441  0.2080  0.3112 -0.1617
   27TMC2    C3  413   3.428   0.425  11.360 -0.0998 -0.6823 -0.2296
   27TMC2    C4  414   3.302   0.455  11.599  0.2666 -0.3009 -0.4778
   27TMC2    C5  415   3.323   0.569  11.516 -0.2016 -0.7476  0.1259
   27TMC2    C6  416   3.383   0.550  11.392 -0.3862 -1.0927 -0.0132
   27TMC2     C  417   3.345   0.232  11.662  0.1448  0.4266  1.0879
   27TMC2     O  418   3.392   0.125  11.626  0.2798 -0.1318  0.1852
   27TMC2     H  419   3.452   0.224  11.397 -1.3175 -0.1981 -0.2046
   27TMC2    H1  420   3.253   0.469  11.695  0.4407  0.0327 -0.4383
   27TMC2    H2  421   3.386   0.624  11.313  0.6417  0.5059  1.5222
   27TMC2    C7  422   3.267   0.701  11.546  0.7305  0.6274  0.3515
   27TMC2    C8  423   3.456   0.406  11.219 -0.0443  0.9586  0.3147
   27TMC2    O1  424   3.282   0.787  11.458  0.1451  0.5599 -0.2937
   27TMC2    O2  425   3.440   0.298  11.165  0.0758 -0.0786 -0.1942
   27TMC2    O5  426   3.527   0.515  11.175 -0.7475  0.2552 -0.2140
   27TMC2    H5  427   3.549   0.565  11.256  2.3371  2.0955 -2.1834
   28MPD2     C  428   3.206   0.014  12.093  0.2925  0.3874  0.5066
   28MPD2    C1  429   3.137   0.131  12.082 -0.6944  0.1972 -0.3200
   28MPD2    C2  430   3.145   0.204  11.970 -0.4870  1.0117  0.1065
   28MPD2    C3  431   3.236   0.168  11.872 -0.4365 -0.6504  0.2162
   28MPD2    C4  432   3.316   0.059  11.893 -0.6671  0.6387  0.2666
   28MPD2    C5  433   3.299   4.698  12.005  0.0429  0.1968  0.6054
   28MPD2     H  434   3.084   0.289  11.943 -0.6074  1.1380  0.7902
   28MPD2    H1  435   3.386   0.020  11.820  0.2743  0.7508  1.1084
   28MPD2    H2  436   3.190   4.671  12.181  0.9757 -1.6967 -0.8458
   28MPD2    H3  437   3.360   4.610  12.021  0.1358  0.3615  1.1644
   28MPD2     N  438   3.252   0.253  11.761  0.1171 -0.0548  0.0177
   28MPD2    H5  439   3.193   0.336  11.753 -0.4744 -0.3247  1.6049
   28MPD2    N1  440   3.042   0.157  12.184 -0.3714  0.4605 -0.0928
   28MPD2    H7  441   3.038   0.093  12.263  0.8656  2.5892  1.6668
   29MPD2     C  442   2.185   2.666  14.044  0.2791 -0.0450  0.3093
   29MPD2    C1  443   2.310   2.644  14.007 -0.1197 -0.4566  0.2505
   29MPD2    C2  444   2.410   2.730  14.036  0.1424 -0.2908  0.3209
   29MPD2    C3  445   2.388   2.861  14.081 -0.2054  0.1771  0.2609
   29MPD2    C4  446   2.255   2.887  14.099 -0.2818 -0.3115 -0.7037
   29MPD2    C5  447   2.160   2.792  14.098 -0.0787  0.1245 -0.0723
   29MPD2     H  448   2.510   2.696  14.011 -0.5756 -1.5365 -0.8933
   29MPD2    H1  449   2.215   2.986  14.115  1.3022  0.1497  0.4116
   29MPD2    H2  450   2.105   2.593  14.043 -0.7160  1.0411  0.5309
   29MPD2    H3  451   2.053   2.806  14.110 -0.0255 -1.4463  2.1894
   29MPD2     N  452   2.470   2.965  14.096  0.0278 -0.1486 -0.3599
   29MPD2    H5  453   2.429   3.055  14.121 -0.5426 -0.7979  1.0105
   29MPD2    N1  454   2.339   2.520  13.945 -0.2104 -0.5773  0.5015
   29MPD2    H7  455   2.439   2.502  13.939 -0.2772 -0.0534 -2.0127
   30TCq2    C1  456   2.604   2.962  14.068 -0.4326  0.0840  0.4801
   30TCq2    O2  457   2.676   2.862  14.070  0.4997 -0.4172  0.5949
   30TCq2    C2  458   2.664   3.091  14.049 -0.5806 -0.4323 -0.1010
   30TCq2    C3  459   2.586   3.201  14.056  0.0738  0.8863  0.5170
   30TCq2    C4  460   2.633   3.326  14.036  0.5978 -0.0473  0.4572
   30TCq2    C5  461   2.754   3.342  13.981  0.5637  0.2146 -0.2885
   30TCq2    C6  462   2.838   3.234  13.975  0.2549  0.0457  0.7995
   30TCq2    C7  463   2.797   3.107  14.010 -0.1391 -0.3056 -0.0368
   30TCq2    C8  464   2.953   3.244  13.894 -0.6461 -0.6600  0.2733
   30TCq2    O4  465   2.953   3.178  13.792  0.1860  0.1147 -0.2176
   30TCq2    C9  466   2.550   3.435  14.039 -0.5581 -0.6167 -1.1116
   30TCq2    O5  467   2.433   3.414  14.080 -0.2611  0.4242 -0.4582
   30TCq2    O6  468   2.600   3.550  14.017  0.6784  0.1619  0.6681
   30TCq2    H2  469   2.479   3.191  14.071 -0.0144  2.2537  0.8274
   30TCq2    H3  470   2.782   3.437  13.937  0.1872 -0.1535 -1.3323
   30TCq2    H4  471   2.865   3.022  14.010 -1.0824 -1.0725  3.0823
   31MPD2     C  472   0.643   1.835  15.155  0.4107  1.2450  1.1256
   31MPD2    C1  473   0.540   1.806  15.068  0.0569  0.7518 -0.3655
   31MPD2    C2  474   0.464   1.690  15.093 -0.7144  0.6457  0.5640
   31MPD2    C3  475   0.488   1.607  15.202  0.6445 -0.2175  0.5528
   31MPD2    C4  476   0.597   1.640  15.285  0.4146 -0.5915 -0.2575
   31MPD2    C5  477   0.669   1.752  15.259 -0.7994 -0.1690  0.9067
   31MPD2     H  478   0.383   1.664  15.026 -1.3657  0.8559  1.2741
   31MPD2    H1  479   0.625   1.569  15.362  2.0157 -0.8036 -1.0526
   31MPD2    H2  480   0.710   1.919  15.139  0.4423  0.7439 -1.3959
   31MPD2    H3  481   0.756   1.780  15.318  0.2958  0.9160 -1.2535
   31MPD2     N  482   0.410   1.498  15.231  0.2056  0.0338 -0.1624
   31MPD2    H5  483   0.446   1.450  15.312 -0.1005  0.9407  0.5173
   31MPD2    N1  484   0.517   1.905  14.968  0.0832  0.4277 -0.2164
   31MPD2    H7  485   0.582   1.982  14.961  0.1208  0.3912 -0.2695
   32TCq2    C1  486   0.283   1.467  15.179 -0.4605 -0.2513 -0.3423
   32TCq2    O2  487   0.208   1.531  15.110 -0.1760  0.2675  0.0136
   32TCq2    C2  488   0.228   1.354  15.251  0.4347 -0.3262 -0.1464
   32TCq2    C3  489   0.112   1.306  15.201  0.3596 -0.2331 -0.6645
   32TCq2    C4  490   0.061   1.190  15.256  0.2991 -0.0859  0.1338
   32TCq2    C5  491   0.126   1.116  15.357  0.0242 -0.3866 -0.4218
   32TCq2    C6  492   0.242   1.165  15.400  0.2656  0.2456  0.0032
   32TCq2    C7  493   0.293   1.283  15.350  0.3161 -0.5282 -0.3829
   32TCq2    C8  494   0.287   1.118  15.534  0.5924 -0.6129 -0.3484
   32TCq2    O4  495   0.282   0.998  15.557  0.4460 -0.0036  0.2582
   32TCq2    C9  496   4.646   1.149  15.213 -0.0497  0.0178 -0.2551
   32TCq2    O5  497   4.595   1.215  15.117  0.4442  0.4780 -0.4665
   32TCq2    O6  498   4.614   1.028  15.238 -0.1791  0.1668 -0.7783
   32TCq2    H2  499   0.064   1.354  15.116 -2.1892  1.7002  1.8678
   32TCq2    H3  500   0.088   1.022  15.394 -0.0419 -0.5020 -0.7817
   32TCq2    H4  501   0.400   1.297  15.362  0.4463 -1.2886 -0.6309
   33MPD2     C  502   0.848   3.462  10.747 -0.4419 -0.1093 -0.8102
   33MPD2    C1  503   0.793   3.380  10.657 -0.3374  0.3306 -0.2816
   33MPD2    C2  504   0.706   3.426  10.563 -0.7085  0.2581 -0.6866
   33MPD2    C3  505   0.699   3.561  10.542  0.1326  0.2261 -0.7274
   33MPD2    C4  506   0.755   3.646  10.628 -0.0122  0.4830 -0.3186
   33MPD2    C5  507   0.836   3.598  10.728 -0.5850  0.5095  0.6937
   33MPD2     H  508   0.674   3.355  10.487  1.9528 -0.0764 -1.4878
   33MPD2    H1  509   0.754   3.754  10.618 -0.9159  0.6845  1.9470
   33MPD2    H2  510   0.909   3.430  10.831 -0.2693  3.2181  0.3467
   33MPD2    H3  511   0.890   3.674  10.782 -1.1937  0.0466  1.9685
   33MPD2     N  512   0.626   3.616  10.431  0.6980  0.7471  0.3284
   33MPD2    H5  513   0.620   3.716  10.411 -0.2405  0.7147  0.4221
   33MPD2    N1  514   0.828   3.240  10.665  0.0969 -0.0753 -0.1693
   33MPD2    H7  515   0.891   3.218  10.741 -1.4845 -0.4936  1.0343
   34TCq2    C1  516   0.535   3.539  10.349  0.2239  0.0577 -0.2062
   34TCq2    O2  517   0.492   3.429  10.381  0.5817 -0.4917  0.2660
   34TCq2    C2  518   0.478   3.608  10.235 -0.4355 -0.5164 -0.6573
   34TCq2    C3  519   0.391   3.539  10.156  0.0072  0.1877  0.3954
   34TCq2    C4  520   0.367   3.571  10.027 -0.2759 -0.6423 -0.1644
   34TCq2    C5  521   0.439   3.668   9.963 -0.6527 -0.6028 -0.3387
   34TCq2    C6  522   0.525   3.746  10.041  0.3858  0.3646 -0.1059
   34TCq2    C7  523   0.545   3.718  10.174  0.3748 -0.7510 -0.6621
   34TCq2    C8  524   0.616   3.845   9.981 -1.0915  0.1957  0.0597
   34TCq2    O4  525   0.731   3.864  10.022  0.6553  0.3590 -0.4982
   34TCq2    C9  526   0.259   3.511   9.961 -0.1199  0.1302  0.3251
   34TCq2    O5  527   0.192   3.582   9.878  0.6297  0.5694 -0.5955
   34TCq2    O6  528   0.212   3.403  10.006  0.4295 -0.7708 -0.0218
   34TCq2    H2  529   0.327   3.461  10.198 -0.4385  0.4694  0.2416
   34TCq2    H3  530   0.413   3.681   9.859 -1.2672 -0.4039 -0.1553
   34TCq2    H4  531   0.620   3.779  10.224  0.0483 -0.7880 -0.1347
   35MPD2     C  532   2.343   0.407  11.375 -0.3138  0.0555 -0.2212
   35MPD2    C1  533   2.338   0.318  11.468 -0.8700  0.2853 -0.5337
   35MPD2    C2  534   2.217   0.298  11.531 -1.0632  0.2573 -0.1465
   35MPD2    C3  535   2.103   0.368  11.496  0.1538  0.3883  0.5781
   35MPD2    C4  536   2.119   0.472  11.414  0.0609  0.2109  0.0479
   35MPD2    C5  537   2.238   0.492  11.355 -0.7601 -0.8487 -0.2280
   35MPD2     H  538   2.205   0.218  11.603  2.2478  1.4212  1.7053
   35MPD2    H1  539   2.035   0.533  11.383 -1.4204 -2.2250 -0.7974
   35MPD2    H2  540   2.433   0.433  11.319 -0.5000 -0.5342 -0.7958
   35MPD2    H3  541   2.255   0.575  11.287 -1.2732 -0.3048  0.3110
   35MPD2     N  542   1.977   0.336  11.557 -0.2883 -0.3270  0.0587
   35MPD2    H5  543   1.982   0.267  11.631  1.1324 -2.0031 -1.5756
   35MPD2    N1  544   2.460   0.247  11.495  0.2089  0.0236 -0.5723
   35MPD2    H7  545   2.551   0.276  11.461 -0.0877  0.1907 -1.2179
   36TCq2    C1  546   1.854   0.407  11.542 -0.7073  0.0248  0.1823
   36TCq2    O2  547   1.826   0.487  11.456 -0.1675 -0.1062  0.0062
   36TCq2    C2  548   1.758   0.350  11.635 -0.6275 -0.5197  0.2075
   36TCq2    C3  549   1.632   0.343  11.587  0.3817 -0.6834  0.3166
   36TCq2    C4  550   1.542   0.259  11.650  0.3235  0.3615  0.1461
   36TCq2    C5  551   1.590   0.175  11.741  0.0183 -0.4194  0.1826
   36TCq2    C6  552   1.717   0.190  11.792  0.2419 -0.0448 -0.3291
   36TCq2    C7  553   1.803   0.282  11.742  0.3160 -0.3088 -0.6053
   36TCq2    C8  554   1.765   0.062  11.844  0.2444  0.0124  0.3843
   36TCq2    O4  555   1.687   4.692  11.863 -0.4139 -0.3241 -0.2193
   36TCq2    C9  556   1.410   0.260  11.610 -0.2150  0.8270 -0.1077
   36TCq2    O5  557   1.388   0.330  11.509 -0.6116 -0.4772 -0.5540
   36TCq2    O6  558   1.320   0.209  11.676  0.3695 -0.6689  0.2823
   36TCq2    H2  559   1.596   0.414  11.513  1.7722 -0.1099  0.1796
   36TCq2    H3  560   1.521   0.097  11.770  0.3553 -1.1004 -0.8537
   36TCq2    H4  561   1.896   0.311  11.790  1.4548 -1.3820 -2.1499
   37TMC2    C1  562   4.217   1.055  11.649 -0.0031 -0.0035 -0.5449
   37TMC2    C2  563   4.203   1.147  11.547 -0.7446  0.5555 -0.4150
   37TMC2    C3  564   4.315   1.173  11.476  0.5869  1.0775  0.1701
   37TMC2    C4  565   4.345   1.018  11.689 -0.8554  0.4597 -0.4296
   37TMC2    C5  566   4.458   1.048  11.614  0.0735 -0.0861  0.2848
   37TMC2    C6  567   4.440   1.124  11.500  0.1612 -0.8594  0.3997
   37TMC2     C  568   4.110   1.039  11.747  0.4445 -0.1484  0.5616
   37TMC2     O  569   4.014   1.117  11.734 -0.4483  0.2514  0.0199
   37TMC2     H  570   4.102   1.173  11.517 -0.6566 -1.6280 -2.5491
   37TMC2    H1  571   4.359   0.945  11.767 -0.1460 -0.9691 -1.9053
   37TMC2    H2  572   4.518   1.154  11.431 -0.0055  1.2946  1.1587
   37TMC2    C7  573   4.582   0.994  11.669  0.2826 -1.0345 -0.0417
   37TMC2    C8  574   4.309   1.284  11.380 -0.2102 -0.3808 -0.4580
   37TMC2    O1  575   4.584   0.948  11.781 -0.2298 -0.1796  0.7382
   37TMC2    O2  576   4.377   1.282  11.275  0.2271 -0.1647 -0.0548
   37TMC2    O5  577   4.199   1.352  11.404 -0.1850  0.2068  0.1810
   37TMC2    H5  578   4.169   1.340  11.496 -1.3613  0.0416 -0.2156
   38MPD2     C  579   3.922   0.839  12.197  0.2463 -0.6229  0.0776
   38MPD2    C1  580   4.048   0.785  12.167 -0.1652  0.3122  0.6275
   38MPD2    C2  581   4.107   0.810  12.041  0.0427 -0.3274 -0.3757
   38MPD2    C3  582   4.060   0.912  11.962  0.5210  0.5420 -0.0850
   38MPD2    C4  583   3.940   0.975  12.000  0.3660  0.5578 -0.1462
   38MPD2    C5  584   3.879   0.937  12.116 -0.1083 -0.1962  0.2854
   38MPD2     H  585   4.201   0.762  12.019  0.1973  0.8862 -2.4506
   38MPD2    H1  586   3.894   1.047  11.934  0.7297 -0.8298 -1.9447
   38MPD2    H2  587   3.875   0.827  12.293 -1.5094 -1.7120 -0.9210
   38MPD2    H3  588   3.777   0.968  12.140 -0.6629 -1.9678  0.2239
   38MPD2     N  589   4.132   0.938  11.840  0.1275  0.3518  0.5438
   38MPD2    H5  590   4.202   0.868  11.816 -0.3172  1.0792 -2.7462
   38MPD2    N1  591   4.119   0.697  12.250  0.1960  0.1772  0.6600
   38MPD2    H7  592   4.213   0.671  12.222 -1.4854 -2.1163 -2.8150
   39MPD2     C  593   2.948   2.948   1.720  0.6734 -0.3116  0.6548
   39MPD2    C1  594   2.851   2.950   1.822  0.3830 -1.0183  0.1150
   39MPD2    C2  595   2.718   2.913   1.790 -0.2513 -0.3228 -0.4394
   39MPD2    C3  596   2.689   2.864   1.660  0.1213 -0.6866 -0.1229
   39MPD2    C4  597   2.795   2.859   1.573 -0.4608 -0.7151 -0.2471
   39MPD2    C5  598   2.915   2.912   1.595  0.1879 -0.0096  0.2170
   39MPD2     H  599   2.640   2.929   1.864  1.4238  1.1200  1.0357
   39MPD2    H1  600   2.767   2.839   1.470  3.5492  0.5298 -1.5899
   39MPD2    H2  601   3.052   2.975   1.738  0.4416  1.2060 -0.3311
   39MPD2    H3  602   2.987   2.923   1.515 -0.4643  0.4085 -0.3061
   39MPD2     N  603   2.564   2.820   1.617 -0.0901  0.2113 -0.8468
   39MPD2    H5  604   2.558   2.781   1.524  0.1790 -0.3975 -0.6108
   39MPD2    N1  605   2.891   2.993   1.949 -0.2668  0.7584 -0.7639
   39MPD2    H7  606   2.983   3.035   1.956  0.3482 -1.0655  2.6033
   40TCq2    C1  607   2.818   2.974   2.062 -0.1246 -0.2254 -1.0783
   40TCq2    O2  608   2.704   2.927   2.078  0.1786  0.4504 -0.0053
   40TCq2    C2  609   2.888   3.011   2.183  0.2223 -0.1916 -0.1295
   40TCq2    C3  610   2.850   2.951   2.298  0.2926  1.1422  0.3099
   40TCq2    C4  611   2.935   2.960   2.412 -0.7990  0.3401  0.1363
   40TCq2    C5  612   3.051   3.035   2.406 -0.9890  0.3714  0.8019
   40TCq2    C6  613   3.074   3.103   2.292 -0.0482  0.1800  0.1743
   40TCq2    C7  614   2.996   3.093   2.182 -0.3299  0.1490  0.5369
   40TCq2    C8  615   3.208   3.162   2.289 -0.3685 -0.6272  0.7088
   40TCq2    O4  616   3.291   3.117   2.368  0.0375  0.0936  0.0854
   40TCq2    C9  617   2.914   2.866   2.524  0.0178 -0.2640  0.7043
   40TCq2    O5  618   2.855   2.762   2.494 -0.3714 -0.1580 -0.1154
   40TCq2    O6  619   2.956   2.894   2.643  0.0031  0.7078 -0.4175
   40TCq2    H2  620   2.773   2.875   2.300  1.3408  0.1072  1.1643
   40TCq2    H3  621   3.117   3.041   2.492 -0.4618  0.6918  0.3727
   40TCq2    H4  622   3.014   3.145   2.089 -0.2219  0.3430  0.6665
   41TMC2    C1  623   1.568   0.523  13.942 -0.5395  0.0207  0.2141
   41TMC2    C2  624   1.707   0.529  13.969  0.0549 -0.7671 -0.8323
   41TMC2    C3  625   1.791   0.540  13.864  0.1006  0.0161 -0.1832
   41TMC2    C4  626   1.525   0.523  13.811  0.4862  0.8984 -0.0673
   41TMC2    C5  627   1.613   0.508  13.713 -0.4405  0.1822  0.3553
   41TMC2    C6  628   1.746   0.524  13.738  0.3204  0.2145  0.0996
   41TMC2     C  629   1.478   0.454  14.035 -0.1188 -0.8383 -0.5727
   41TMC2     O  630   1.380   0.405  13.974  0.5121 -0.7501 -0.4684
   41TMC2     H  631   1.749   0.520  14.068  0.3058 -0.3832 -0.9021
   41TMC2    H1  632   1.420   0.510  13.787  0.5649 -2.5023  1.5688
   41TMC2    H2  633   1.825   0.508  13.666  0.2846  0.0724  0.0915
   41TMC2    C7  634   1.559   0.471  13.582  0.3076 -0.4899  0.4008
   41TMC2    C8  635   1.937   0.530  13.885 -0.3610 -0.2029  0.4047
   41TMC2    O1  636   1.458   0.405  13.582 -0.6842 -0.0146 -0.2844
   41TMC2    O2  637   2.014   0.488  13.799 -0.0709  0.6654 -0.2578
   41TMC2    O5  638   1.973   0.542  14.012  0.0274 -0.0978 -0.2456
   41TMC2    H5  639   1.910   0.594  14.067 -0.8525 -2.2352  0.7907
   42MPD2     C  640   1.321   0.346  14.260 -0.1029 -0.6391  0.6209
   42MPD2    C1  641   1.415   0.435  14.278 -0.3450  0.8795  0.1841
   42MPD2    C2  642   1.433   0.495  14.403  0.0561 -0.1491  0.1509
   42MPD2    C3  643   1.360   0.443  14.514  0.0906 -0.2283  0.0083
   42MPD2    C4  644   1.262   0.351  14.488 -0.0427  0.1877 -0.6543
   42MPD2    C5  645   1.241   0.298  14.362 -0.0943  0.2354 -0.1708
   42MPD2     H  646   1.516   0.564  14.408 -0.5509  0.3127  4.0145
   42MPD2    H1  647   1.204   0.309  14.569  2.5649  1.3503  1.8283
   42MPD2    H2  648   1.302   0.298  14.165  0.0464  0.3136  0.1098
   42MPD2    H3  649   1.165   0.224  14.343 -0.5533  0.9428 -1.0543
   42MPD2     N  650   1.379   0.488  14.642 -0.1495  0.2232 -0.0379
   42MPD2    H5  651   1.301   0.474  14.705  1.1410 -0.5655  1.3882
   42MPD2    N1  652   1.493   0.484  14.169  0.7539  0.2757  0.2067
   42MPD2    H7  653   1.562   0.554  14.193 -1.0274  2.2837 -0.5196
   43MPD2     C  654   2.827   3.991   0.677  0.0219  0.0041  0.1381
   43MPD2    C1  655   2.797   3.890   0.759 -0.6032  0.3348  0.0264
   43MPD2    C2  656   2.775   3.916   0.897 -0.5151  0.0769  0.4957
   43MPD2    C3  657   2.775   4.049   0.944 -0.3255 -0.5182  0.4021
   43MPD2    C4  658   2.814   4.150   0.858  0.3893 -0.4508  1.0887
   43MPD2    C5  659   2.839   4.117   0.725 -0.0991 -0.4407 -0.3046
   43MPD2     H  660   2.739   3.842   0.968 -1.7319 -1.3090 -1.5323
   43MPD2    H1  661   2.815   4.253   0.894 -2.0423 -0.2193  0.4542
   43MPD2    H2  662   2.847   3.980   0.571 -1.9669 -0.3245 -0.1994
   43MPD2    H3  663   2.879   4.196   0.663  2.1014 -0.5582  0.9852
   43MPD2     N  664   2.740   4.092   1.078 -0.2821 -0.1064  0.4669
   43MPD2    H5  665   2.748   4.190   1.101 -0.3975 -0.3718  1.6460
   43MPD2    N1  666   2.786   3.751   0.723  0.5832  0.3843  0.1135
   43MPD2    H7  667   2.770   3.682   0.796 -1.5446  1.5107  0.7232
   44TCq2    C1  668   2.587   4.427   1.418  0.4603  0.2995  0.5167
   44TCq2    O2  669   2.662   4.493   1.349  0.1849  0.3222 -0.2153
   44TCq2    C2  670   2.587   4.280   1.404 -0.1502  0.1891 -0.1284
   44TCq2    C3  671   2.523   4.207   1.503 -0.0551  0.2550  0.2165
   44TCq2    C4  672   2.554   4.071   1.504  0.3075 -0.6740  0.0928
   44TCq2    C5  673   2.634   4.012   1.409  0.2451  0.1790 -0.1883
   44TCq2    C6  674   2.695   4.087   1.309 -0.1947 -0.1809  0.3002
   44TCq2    C7  675   2.677   4.222   1.314 -0.3955  0.2284 -0.3162
   44TCq2    C8  676   2.710   4.012   1.185  0.1170 -0.0629  0.1572
   44TCq2    O4  677   2.682   3.894   1.183 -0.1332 -0.1030 -0.5585
   44TCq2    C9  678   2.497   3.986   1.601  0.6236 -0.0350 -0.3068
   44TCq2    O5  679   2.541   3.872   1.609  0.6731 -0.3480  0.0495
   44TCq2    O6  680   2.405   4.030   1.673 -0.4739  0.0014  0.1730
   44TCq2    H2  681   2.473   4.247   1.590 -2.2776 -0.5251 -0.7059
   44TCq2    H3  682   2.644   3.904   1.412 -0.7646  0.0864  0.0772
   44TCq2    H4  683   2.743   4.288   1.259 -0.7257  0.1130 -0.8486
   45TMC2    C1  684   3.925   0.401   9.562  0.3011  0.5310 -0.3282
   45TMC2    C2  685   4.023   0.355   9.643  0.4784 -0.2392 -0.7233
   45TMC2    C3  686   4.113   0.441   9.700 -0.3434 -0.4523 -0.1391
   45TMC2    C4  687   3.886   0.531   9.558 -0.1605  0.0895 -0.1534
   45TMC2    C5  688   3.970   0.618   9.625 -0.2242  0.1598  0.2146
   45TMC2    C6  689   4.092   0.578   9.674  0.2711  0.2162 -0.0575
   45TMC2     C  690   3.866   0.306   9.464 -0.5387 -0.1072 -0.2169
   45TMC2     O  691   3.898   0.191   9.480 -0.0748  0.4694 -0.1238
   45TMC2     H  692   4.058   0.253   9.632  0.3285 -0.3462 -0.1872
   45TMC2    H1  693   3.787   0.563   9.528 -0.9975 -2.5799 -0.2071
   45TMC2    H2  694   4.156   0.659   9.707  0.2774  0.5768 -0.9648
   45TMC2    C7  695   3.945   0.761   9.600  0.2577  0.1341  0.5921
   45TMC2    C8  696   4.247   0.389   9.734 -0.0215 -0.0962  0.6877
   45TMC2    O1  697   3.857   0.792   9.522 -0.2374 -0.2730 -0.1683
   45TMC2    O2  698   4.276   0.271   9.739  0.5039 -0.3837  0.2660
   45TMC2    O5  699   4.298   0.462   9.837 -0.7826  0.5028  0.3618
   45TMC2    H5  700   4.264   0.553   9.850 -1.9634 -0.1221  1.6881
   46MPD2     C  701   3.702   0.163   9.261 -0.1075  0.3660 -0.7743
   46MPD2    C1  702   3.724   0.299   9.254  0.4302 -0.0964  0.0188
   46MPD2    C2  703   3.662   0.374   9.155  0.1520  0.3771 -0.6454
   46MPD2    C3  704   3.582   0.311   9.059 -0.9555 -0.3573 -0.1512
   46MPD2    C4  705   3.568   0.175   9.067  0.4319  0.7234  0.4613
   46MPD2    C5  706   3.632   0.101   9.165  0.6082  0.2149 -0.0384
   46MPD2     H  707   3.672   0.481   9.150 -0.2356  0.3335 -2.6047
   46MPD2    H1  708   3.510   0.110   9.001  0.0656  1.4196  0.1027
   46MPD2    H2  709   3.741   0.106   9.345 -1.1358 -0.5330 -0.9101
   46MPD2    H3  710   3.615   4.714   9.180  0.3272  0.5064  1.7075
   46MPD2     N  711   3.511   0.398   8.976 -0.6977  0.1168  0.1619
   46MPD2    H5  712   3.517   0.499   8.980 -0.4326  0.0730  0.8749
   46MPD2    N1  713   3.789   0.367   9.360 -0.1267  0.2977  0.4135
   46MPD2    H7  714   3.797   0.468   9.352 -1.8284  0.3071 -0.9414
   47TMC2    C1  715   0.622   1.350   9.392  0.0316 -0.0253  0.3430
   47TMC2    C2  716   0.560   1.456   9.326  0.6391 -0.5507 -0.4489
   47TMC2    C3  717   0.459   1.434   9.237  0.4704  0.0446 -0.0927
   47TMC2    C4  718   0.562   1.230   9.386 -0.3706 -0.5986  1.1456
   47TMC2    C5  719   0.454   1.214   9.306  0.0400 -0.4917  0.3640
   47TMC2    C6  720   0.407   1.311   9.218  0.2470  0.3396 -0.7540
   47TMC2     C  721   0.744   1.371   9.466  0.3043 -0.2100 -1.3686
   47TMC2     O  722   0.760   1.493   9.486  0.5242 -0.0345 -0.1607
   47TMC2     H  723   0.607   1.554   9.332 -1.6145  0.5444 -0.9703
   47TMC2    H1  724   0.589   1.147   9.451  1.8111 -0.3704  0.5348
   47TMC2    H2  725   0.323   1.300   9.151  0.2834 -0.2703 -0.7064
   47TMC2    C7  726   0.385   1.087   9.294 -0.1394 -0.0205  0.1862
   47TMC2    C8  727   0.406   1.534   9.146 -1.2925 -0.0651 -0.2089
   47TMC2    O1  728   0.302   1.078   9.206 -0.2174 -0.3763 -0.6538
   47TMC2    O2  729   0.347   1.513   9.041 -0.1792  0.1701  0.3540
   47TMC2    O5  730   0.410   1.650   9.222  0.5621  0.0814 -0.6557
   47TMC2    H5  731   0.438   1.637   9.315 -0.9198 -2.0531 -0.4950
   48MPD2     C  732   0.983   1.372   9.636 -0.2608 -0.1278  0.1488
   48MPD2    C1  733   0.942   1.260   9.565 -0.6101  0.6300 -0.3391
   48MPD2    C2  734   1.021   1.146   9.564  0.5519 -0.2847  0.4542
   48MPD2    C3  735   1.138   1.142   9.637  0.4538  0.4564 -0.6187
   48MPD2    C4  736   1.175   1.257   9.703  0.1112  0.3751 -0.1302
   48MPD2    C5  737   1.100   1.371   9.702 -0.7816 -0.4526  0.5312
   48MPD2     H  738   0.982   1.059   9.512 -0.2690 -0.0547  0.6871
   48MPD2    H1  739   1.268   1.267   9.758  0.1253  1.1607 -0.2866
   48MPD2    H2  740   0.929   1.465   9.630  1.8326  0.9553 -2.0473
   48MPD2    H3  741   1.123   1.466   9.749  0.5884  0.6823 -2.4533
   48MPD2     N  742   1.214   1.025   9.634 -0.3082 -0.2984 -0.1456
   48MPD2    H5  743   1.178   0.947   9.580  3.1155 -1.5374 -0.6443
   48MPD2    N1  744   0.820   1.255   9.489 -0.6002  0.1192  0.0060
   48MPD2    H7  745   0.795   1.167   9.446  1.1582 -1.1035  1.4574
   49MPD2     C  746   4.175   2.388  10.154  0.5873  0.2773 -0.2652
   49MPD2    C1  747   4.203   2.522  10.152  0.2394  0.6636 -0.1683
   49MPD2    C2  748   4.299   2.569  10.235  0.2367 -0.0096 -0.5007
   49MPD2    C3  749   4.373   2.480  10.309 -0.6119  1.2092  0.8161
   49MPD2    C4  750   4.353   2.348  10.296  0.8548 -0.2354  0.4094
   49MPD2    C5  751   4.255   2.299  10.213 -0.3960  0.0518  0.7939
   49MPD2     H  752   4.325   2.674  10.242  0.3661 -0.0738  0.0041
   49MPD2    H1  753   4.412   2.278  10.355 -0.2167  0.1810  1.9603
   49MPD2    H2  754   4.092   2.352  10.094  0.4601 -0.9957  0.6855
   49MPD2    H3  755   4.231   2.193  10.218  1.5155 -0.4813 -1.4198
   49MPD2     N  756   4.469   2.516  10.405  0.0330  0.5317 -0.3902
   49MPD2    H5  757   4.518   2.446  10.460  0.9069 -1.1088 -3.2473
   49MPD2    N1  758   4.126   2.609  10.064 -0.6077 -0.3828 -0.2662
   49MPD2    H7  759   4.041   2.570  10.024  1.0579 -1.4836 -2.7371
   50TCq2    C1  760   4.176   2.721  10.017 -0.1807 -0.4522 -0.2544
   50TCq2    O2  761   4.294   2.757  10.019  0.3437  0.1107 -0.0500
   50TCq2    C2  762   4.084   2.779   9.914  0.3511 -0.0262  0.0421
   50TCq2    C3  763   4.138   2.836   9.813 -0.5418  0.2461 -0.3140
   50TCq2    C4  764   4.074   2.866   9.698  0.1984  0.2467 -0.2240
   50TCq2    C5  765   3.946   2.846   9.680 -0.4378  0.3282 -0.5771
   50TCq2    C6  766   3.885   2.794   9.798 -0.0627 -1.2076 -0.2407
   50TCq2    C7  767   3.950   2.756   9.909  0.5900  0.4977 -0.1916
   50TCq2    C8  768   3.754   2.735   9.783  0.5126  0.2622 -0.8310
   50TCq2    O4  769   3.716   2.636   9.842  0.5309  0.1071  0.1425
   50TCq2    C9  770   4.154   2.920   9.589 -0.0694  0.0701 -0.1563
   50TCq2    O5  771   4.267   2.969   9.617  0.1762  0.2582 -0.1593
   50TCq2    O6  772   4.118   2.874   9.474 -0.6463  0.1804 -0.3655
   50TCq2    H2  773   4.245   2.856   9.815 -0.2327 -1.4278 -0.6340
   50TCq2    H3  774   3.902   2.857   9.582 -1.1546 -2.6621 -0.5756
   50TCq2    H4  775   3.896   2.711   9.992  0.8630  0.8125  0.1593
   51MPD2     C  776   0.249   2.370   1.589  0.6466 -0.7339 -0.0173
   51MPD2    C1  777   0.144   2.276   1.590  0.3148  0.0222 -0.6918
   51MPD2    C2  778   0.066   2.259   1.704 -0.5723  0.2361  0.0486
   51MPD2    C3  779   0.097   2.327   1.822  0.2235 -0.1043  0.3523
   51MPD2    C4  780   0.205   2.418   1.822 -0.0604 -0.2982 -0.2570
   51MPD2    C5  781   0.269   2.438   1.702 -0.7767 -0.1829  0.5369
   51MPD2     H  782   4.702   2.190   1.692 -0.8707  0.5016  0.6191
   51MPD2    H1  783   0.239   2.479   1.905  2.9630 -1.3870 -0.7175
   51MPD2    H2  784   0.323   2.388   1.511  0.6985 -0.2093  0.1553
   51MPD2    H3  785   0.348   2.513   1.703 -0.8875 -0.0764  1.3868
   51MPD2     N  786   0.034   2.299   1.945 -0.6013 -0.1818  0.6970
   51MPD2    H5  787   0.067   2.348   2.028 -0.1619  0.4823  0.1339
   51MPD2    N1  788   0.115   2.199   1.476 -0.3756 -0.0026  0.4724
   51MPD2    H7  789   0.019   2.165   1.481 -0.4412 -0.1877 -1.8279
   52TCq2    C1  790   4.651   2.212   1.964 -0.3481 -0.0153  0.7163
   52TCq2    O2  791   4.600   2.129   1.889 -0.1282 -0.0601 -0.4081
   52TCq2    C2  792   4.594   2.221   2.099  0.3141  0.2695 -0.4540
   52TCq2    C3  793   4.540   2.109   2.153 -0.5120  0.3496  0.3678
   52TCq2    C4  794   4.519   2.096   2.286  0.6690 -0.4627  0.0732
   52TCq2    C5  795   4.566   2.191   2.374 -0.2998  0.1819  0.1090
   52TCq2    C6  796   4.628   2.298   2.316  0.3752  0.7024 -0.3948
   52TCq2    C7  797   4.646   2.318   2.181 -0.4189 -0.1537 -0.8063
   52TCq2    C8  798   4.717   2.374   2.400  0.2150 -0.9838  0.5853
   52TCq2    O4  799   0.030   2.480   2.353 -0.4961 -0.6710 -0.3332
   52TCq2    C9  800   4.446   1.976   2.334 -1.4440 -1.1837 -0.2457
   52TCq2    O5  801   4.374   1.919   2.252  0.4409 -0.6733  0.4810
   52TCq2    O6  802   4.469   1.955   2.456  0.0995 -0.2804 -0.2070
   52TCq2    H2  803   4.505   2.028   2.090  1.3998 -1.6189  1.8428
   52TCq2    H3  804   4.536   2.187   2.478 -0.2157 -1.6995  0.0651
   52TCq2    H4  805   4.687   2.413   2.147 -0.9402 -0.5528 -2.5367
   53TMC2    C1  806   0.465   0.752  12.003 -0.2072 -0.3990 -0.4973
   53TMC2    C2  807   0.536   0.652  12.072  0.0436  0.5069  0.4153
   53TMC2    C3  808   0.515   0.641  12.212 -0.1437  0.3440  0.3229
   53TMC2    C4  809   0.377   0.828  12.074 -0.2597 -0.4978 -0.1500
   53TMC2    C5  810   0.359   0.813  12.206  0.0946  0.2169 -0.5712
   53TMC2    C6  811   0.432   0.721  12.283  0.1543 -0.7139  0.6525
   53TMC2     C  812   0.442   0.746  11.859  0.1785 -0.4767  0.7345
   53TMC2     O  813   0.512   0.687  11.777 -0.7809 -0.6439  1.2205
   53TMC2     H  814   0.603   0.581  12.024 -0.6357 -0.4913  0.9373
   53TMC2    H1  815   0.341   0.921  12.032  1.0911  0.3334  0.5292
   53TMC2    H2  816   0.414   0.705  12.389  1.1424  0.2159  0.9646
   53TMC2    C7  817   0.231   0.856  12.248 -0.3775  0.6089 -0.0167
   53TMC2    C8  818   0.600   0.547  12.289 -0.7528  0.4115  0.0149
   53TMC2    O1  819   0.162   0.908  12.162 -0.3086 -0.3120 -0.0793
   53TMC2    O2  820   0.617   0.558  12.413  0.0148 -0.2353 -0.1341
   53TMC2    O5  821   0.600   0.436  12.211 -0.1389 -0.2715 -0.0841
   53TMC2    H5  822   0.541   0.450  12.135 -0.5503  0.4378  0.3716
   54MPD2     C  823   0.342   0.828  11.592  0.2325 -0.3183 -0.5045
   54MPD2    C1  824   0.272   0.839  11.704 -0.4094 -0.1976  0.0731
   54MPD2    C2  825   0.143   0.893  11.717  0.4153  0.1548 -0.2618
   54MPD2    C3  826   0.087   0.932  11.588 -0.3464 -0.2995 -0.4486
   54MPD2    C4  827   0.161   0.931  11.475 -0.3903  0.3057  0.3337
   54MPD2    C5  828   0.288   0.885  11.478  0.7812 -0.1971 -0.5156
   54MPD2     H  829   0.081   0.880  11.805 -0.5502  2.0841 -0.6593
   54MPD2    H1  830   0.127   0.965  11.378  1.1080 -1.1272 -0.6986
   54MPD2    H2  831   0.442   0.787  11.591  0.5248  0.3253  2.3305
   54MPD2    H3  832   0.352   0.886  11.391  1.1280  1.6407 -0.2267
   54MPD2     N  833   4.674   0.986  11.570 -0.1596 -0.9024 -0.2964
   54MPD2    H5  834   4.649   0.998  11.473  1.5022 -0.3120 -0.6505
   54MPD2    N1  835   0.321   0.798  11.829 -0.5362  0.3766  0.1564
   54MPD2    H7  836   0.269   0.819  11.913  0.1228  0.3724  0.5609
   55MPD2     C  837   4.573   2.829   1.263  1.1028 -0.1503  0.0252
   55MPD2    C1  838   4.515   2.935   1.316 -0.2931  0.3392 -0.5994
   55MPD2    C2  839   4.512   3.054   1.246 -1.2590 -0.0888  0.2165
   55MPD2    C3  840   4.569   3.056   1.121  0.8435  0.3549  0.3196
   55MPD2    C4  841   4.623   2.946   1.063 -0.7415  0.5358  0.6461
   55MPD2    C5  842   4.619   2.835   1.139 -0.2200 -0.3746  0.4869
   55MPD2     H  843   4.460   3.143   1.278  0.9387 -0.0774  3.7742
   55MPD2    H1  844   4.667   2.951   0.964  0.6605  2.3015  1.3653
   55MPD2    H2  845   4.576   2.736   1.318  2.0417 -0.6872 -0.9168
   55MPD2    H3  846   4.672   2.748   1.102  0.6821  1.1932 -1.9393
   55MPD2     N  847   4.574   3.186   1.048  0.3172 -0.4222  0.4620
   55MPD2    H5  848   4.538   3.265   1.101 -0.6674  0.0148 -0.8556
   55MPD2    N1  849   4.456   2.925   1.444 -0.0540 -0.6139 -0.6347
   55MPD2    H7  850   4.458   2.830   1.481  0.5009  0.5796  2.3760
   56TCq2    C1  851   4.381   3.019   1.509  0.2935  0.0701 -0.2613
   56TCq2    O2  852   4.364   3.136   1.478  0.3194 -0.4848  0.1329
   56TCq2    C2  853   4.301   2.966   1.625  0.0471  0.3679  0.1609
   56TCq2    C3  854   4.349   2.850   1.689  0.2899  0.3635  0.9563
   56TCq2    C4  855   4.290   2.820   1.808 -0.3697 -0.0618 -0.2548
   56TCq2    C5  856   4.180   2.888   1.850  0.6667 -0.1837  0.6160
   56TCq2    C6  857   4.141   3.009   1.791 -0.3227  0.0010 -0.0162
   56TCq2    C7  858   4.206   3.052   1.679 -0.2628  0.0484 -0.2007
   56TCq2    C8  859   4.015   3.056   1.824  0.0223 -0.2679 -0.3947
   56TCq2    O4  860   3.950   2.981   1.895  0.0260 -0.3495 -0.1901
   56TCq2    C9  861   4.329   2.689   1.864 -0.0768 -0.2044  0.3949
   56TCq2    O5  862   4.252   2.647   1.956 -0.0166 -1.2458 -0.0915
   56TCq2    O6  863   4.410   2.615   1.803 -0.2707  0.2909 -0.5690
   56TCq2    H2  864   4.429   2.787   1.652 -1.6607 -1.8524  0.5165
   56TCq2    H3  865   4.136   2.863   1.946 -0.2247  2.4764  0.9079
   56TCq2    H4  866   4.183   3.142   1.624  1.4106  1.2432  1.0625
   57TMC2    C1  867   0.200   4.716  13.707 -0.6021 -0.0165 -0.6098
   57TMC2    C2  868   0.201   4.586  13.764 -0.4581  0.7198 -0.1241
   57TMC2    C3  869   0.272   4.490  13.706  1.0702  0.8417  0.2757
   57TMC2    C4  870   0.282   0.033  13.607  0.0929  0.4549 -0.6238
   57TMC2    C5  871   0.366   4.661  13.562  0.2346  0.2999 -0.0436
   57TMC2    C6  872   0.356   4.526  13.599  0.2047 -0.5389  0.1455
   57TMC2     C  873   0.083   0.071  13.752  0.8382 -0.7873  0.0137
   57TMC2     O  874   0.049   0.042  13.866 -0.0377  0.0675 -0.3238
   57TMC2     H  875   0.159   4.565  13.862  0.6610 -1.5935 -0.1176
   57TMC2    H1  876   0.280   0.137  13.578 -2.5575  0.9033  1.1476
   57TMC2    H2  877   0.424   4.445  13.574  0.4015  0.2300 -1.8486
   57TMC2    C7  878   0.467   4.700  13.461  0.8972  0.2332 -0.5464
   57TMC2    C8  879   0.264   4.348  13.742  0.4238 -0.7955 -0.1478
   57TMC2    O1  880   0.506   0.101  13.455 -0.0194  0.5252  0.1769
   57TMC2    O2  881   0.352   4.264  13.732  0.0690 -0.4998  0.0336
   57TMC2    O5  882   0.132   4.322  13.768  0.1635  0.0390 -0.5814
   57TMC2    H5  883   0.069   4.391  13.740 -0.6720 -0.4639  0.0765
   58MPD2     C  884   4.356   0.317  13.663 -0.4810 -0.5664  0.0098
   58MPD2    C1  885   4.403   0.238  13.762 -0.2188  0.1013  0.8855
   58MPD2    C2  886   4.535   0.191  13.763 -0.0212  0.0258  0.1987
   58MPD2    C3  887   4.626   0.216  13.662  0.5992  0.5436 -0.2438
   58MPD2    C4  888   4.574   0.283  13.555  0.2051 -0.5807 -0.7006
   58MPD2    C5  889   4.441   0.335  13.556  0.6016 -0.2000 -0.3386
   58MPD2     H  890   4.560   0.135  13.852 -0.8642 -0.2764  0.2458
   58MPD2    H1  891   4.638   0.298  13.469  0.7610 -0.1644 -0.2157
   58MPD2    H2  892   4.260   0.366  13.676 -0.4429 -0.9830  1.8646
   58MPD2    H3  893   4.398   0.379  13.466  2.3910 -0.9401 -1.5561
   58MPD2     N  894   0.037   0.161  13.655 -0.5277 -0.0847  0.3408
   58MPD2    H5  895   0.095   0.172  13.572  1.6278 -3.4815  1.3740
   58MPD2    N1  896   4.324   0.208  13.878 -0.8616 -0.2818 -0.8708
   58MPD2    H7  897   4.375   0.160  13.951 -0.7919 -0.2975 -0.9296
   59MPD2     C  898   2.435   4.454  13.138  0.0276 -0.1867 -0.0301
   59MPD2    C1  899   2.511   4.492  13.025 -0.1660 -0.3133 -0.7353
   59MPD2    C2  900   2.608   4.585  13.040 -0.7591 -0.2572  0.6478
   59MPD2    C3  901   2.636   4.649  13.165  0.0960 -0.2221  0.5002
   59MPD2    C4  902   2.563   4.604  13.273 -0.7857  0.6154  0.3062
   59MPD2    C5  903   2.462   4.514  13.262 -0.3513 -0.1991 -0.1270
   59MPD2     H  904   2.656   4.615  12.948  1.5945  1.4965  2.4302
   59MPD2    H1  905   2.583   4.643  13.372 -2.6732 -0.0855  0.9670
   59MPD2    H2  906   2.376   4.363  13.137  2.5058 -1.7816  0.7104
   59MPD2    H3  907   2.404   4.495  13.351  1.2471 -2.6590  0.3852
   59MPD2     N  908   2.738   0.023  13.185  0.0244  0.6817  0.5475
   59MPD2    H5  909   2.745   0.059  13.280 -0.6617  0.4564  0.6832
   59MPD2    N1  910   2.503   4.424  12.906  0.2916 -0.0462  0.2036
   59MPD2    H7  911   2.572   4.452  12.837 -0.8459 -0.2809 -1.0269
   60TCq2    C1  912   2.412   4.326  12.869 -0.3877 -0.4882 -0.0781
   60TCq2    O2  913   2.332   4.272  12.941  0.2044 -0.2481  0.2652
   60TCq2    C2  914   2.439   4.266  12.741  0.1628  0.3929  0.3589
   60TCq2    C3  915   2.362   4.158  12.700  0.0142  0.4093 -0.2902
   60TCq2    C4  916   2.393   4.090  12.589 -0.5119 -0.4464  0.3016
   60TCq2    C5  917   2.498   4.126  12.512  0.1743  0.1862 -0.2487
   60TCq2    C6  918   2.565   4.238  12.552 -0.0226 -0.2218  0.2756
   60TCq2    C7  919   2.544   4.311  12.666 -0.4647  0.7388 -0.1091
   60TCq2    C8  920   2.697   4.265  12.481 -0.5815 -0.7263 -0.3306
   60TCq2    O4  921   2.786   4.320  12.547 -0.0189 -0.5565 -0.1853
   60TCq2    C9  922   2.323   3.966  12.561 -0.1792  0.2319  0.2011
   60TCq2    O5  923   2.372   3.878  12.481 -0.1035 -0.0164  0.1781
   60TCq2    O6  924   2.221   3.942  12.627 -0.2716 -0.2852 -0.0772
   60TCq2    H2  925   2.269   4.130  12.749  1.8112 -0.6648  2.5135
   60TCq2    H3  926   2.522   4.074  12.420 -0.8462 -0.2042 -0.3075
   60TCq2    H4  927   2.602   4.399  12.692 -1.8521  2.0254 -1.3703
   61MPD2     C  928   1.849   1.143  15.467  0.9496 -0.0229 -0.0147
   61MPD2    C1  929   1.853   1.279  15.459  0.4024 -0.3448 -0.5875
   61MPD2    C2  930   1.914   1.346  15.356  1.0399 -0.2386 -0.2858
   61MPD2    C3  931   1.970   1.273  15.250 -0.2366  0.0824 -0.6046
   61MPD2    C4  932   1.956   1.133  15.255  0.2867  0.0807 -0.1349
   61MPD2    C5  933   1.904   1.078  15.363 -0.3407 -0.5620 -0.8670
   61MPD2     H  934   1.916   1.455  15.357  3.7489 -0.2848 -1.4583
   61MPD2    H1  935   1.991   1.070  15.174 -0.9338  0.1697 -0.7455
   61MPD2    H2  936   1.802   1.090  15.549 -2.1016 -0.0121 -1.7348
   61MPD2    H3  937   1.909   0.969  15.362 -0.2794 -0.5556 -1.3290
   61MPD2     N  938   2.041   1.331  15.148 -0.0189  0.6408 -0.2582
   61MPD2    H5  939   2.080   1.268  15.078  1.2693  0.6766  0.4166
   61MPD2    N1  940   1.816   1.369  15.563  0.6567  0.4393  0.5246
   61MPD2    H7  941   1.816   1.468  15.541  0.6000  0.3436  0.0970
   62TCq2    C1  942   1.765   1.327  15.680  0.7227 -0.2886 -0.0532
   62TCq2    O2  943   1.774   1.221  15.742 -0.1778 -0.4066  0.7136
   62TCq2    C2  944   1.707   1.433  15.753  0.1515 -0.2012 -0.3322
   62TCq2    C3  945   1.652   1.404  15.875 -0.0100  0.0553 -0.3130
   62TCq2    C4  946   1.576   1.497  15.943 -0.5937  0.1463 -1.3953
   62TCq2    C5  947   1.554   1.619  15.887  0.1012  0.3234  0.4771
   62TCq2    C6  948   1.599   1.644  15.758  0.6115 -0.3597  0.3913
   62TCq2    C7  949   1.683   1.552  15.690  0.4454  0.4535 -0.6134
   62TCq2    C8  950   1.557   1.770  15.695 -0.8249 -0.1404 -0.0440
   62TCq2    O4  951   1.626   1.802  15.597  0.0308  0.0751  0.3022
   62TCq2    C9  952   1.520   1.453  16.070  0.3184 -0.2142  0.2602
   62TCq2    O5  953   1.445   1.545  16.126  0.4195  0.0023 -0.1394
   62TCq2    O6  954   1.567   1.347  16.121 -0.2213  0.4357  0.2674
   62TCq2    H2  955   1.672   1.308  15.921 -2.7530 -1.1741 -1.6733
   62TCq2    H3  956   1.508   1.697  15.947  0.2952  0.5995  0.2675
   62TCq2    H4  957   1.691   1.569  15.584  2.0812  2.5098 -0.1551
   63TMC2    C1  958   1.382   0.783  11.045 -0.1751  0.6983 -0.6109
   63TMC2    C2  959   1.451   0.783  11.163 -0.2864  0.0716  0.6902
   63TMC2    C3  960   1.557   0.871  11.166  0.4854  0.8594  0.2161
   63TMC2    C4  961   1.419   0.841  10.930  0.7062  0.0872 -0.6320
   63TMC2    C5  962   1.540   0.904  10.936  0.7465 -0.4389  0.0345
   63TMC2    C6  963   1.607   0.922  11.055  0.2803  0.2600 -0.0267
   63TMC2     C  964   1.265   0.700  11.042  0.0724 -0.0409  0.4972
   63TMC2     O  965   1.198   0.684  11.145 -0.4830 -0.2521  0.0202
   63TMC2     H  966   1.408   0.734  11.250  4.0624 -1.6712  1.8742
   63TMC2    H1  967   1.361   0.834  10.839  0.0166 -1.4866 -0.0663
   63TMC2    H2  968   1.699   0.976  11.073  0.0257  0.6574  0.0935
   63TMC2    C7  969   1.561   1.002  10.835 -0.0547 -0.6235  0.3278
   63TMC2    C8  970   1.622   0.905  11.284  0.6228  0.1335 -0.2478
   63TMC2    O1  971   1.464   1.031  10.759 -0.1375 -0.0687 -0.0079
   63TMC2    O2  972   1.693   1.000  11.297  0.1312  0.3044  0.1543
   63TMC2    O5  973   1.621   0.788  11.352 -0.2252 -0.3425 -0.0961
   63TMC2    H5  974   1.544   0.727  11.346 -1.3182  0.9720  0.4148
   64MPD2     C  975   1.018   0.313  10.808 -0.6793  0.3126 -0.5947
   64MPD2    C1  976   1.132   0.338  10.740  0.4428 -0.6496 -0.1708
   64MPD2    C2  977   1.214   0.437  10.785 -0.0195  0.3873  0.3198
   64MPD2    C3  978   1.189   0.511  10.901 -0.5994  0.6544 -0.7347
   64MPD2    C4  979   1.073   0.484  10.972  0.6811  0.9779 -0.1439
   64MPD2    C5  980   0.988   0.381  10.923 -0.6579  0.0038 -0.1021
   64MPD2     H  981   1.303   0.465  10.729 -2.2463 -1.7031 -4.2513
   64MPD2    H1  982   1.053   0.535  11.066  1.5016  1.4449 -0.2302
   64MPD2    H2  983   0.944   0.238  10.782  1.7765 -2.3126 -0.0163
   64MPD2    H3  984   0.894   0.366  10.976 -0.9168 -2.3929 -1.2308
   64MPD2     N  985   1.276   0.617  10.932 -0.7757 -0.1775 -0.2162
   64MPD2    H5  986   1.355   0.637  10.872 -0.6991 -0.3525 -0.1750
   64MPD2    N1  987   1.182   0.253  10.641  0.2698  0.1715  0.0644
   64MPD2    H7  988   1.280   0.257  10.614  0.2848 -1.1818 -0.0966
   65MPD2     C  989   2.118   0.651  15.857 -0.1664 -1.2186  0.8695
   65MPD2    C1  990   2.156   0.618  15.728 -0.6686 -0.9261 -0.0265
   65MPD2    C2  991   2.136   0.493  15.680  0.8576 -0.0784  0.8386
   65MPD2    C3  992   2.067   0.402  15.754 -0.0995 -0.0433 -0.0251
   65MPD2    C4  993   2.007   0.438  15.870 -0.1794 -0.0683  0.5644
   65MPD2    C5  994   2.044   0.561  15.924  0.7446  0.0778  0.3427
   65MPD2     H  995   2.182   0.476  15.584 -1.6134 -0.2276 -0.2991
   65MPD2    H1  996   1.941   0.371  15.924  1.0306  0.1883  2.3466
   65MPD2    H2  997   2.149   0.740  15.911 -0.6593 -0.9102  0.6467
   65MPD2    H3  998   2.018   0.579  16.028 -1.7106  0.2514 -0.3010
   65MPD2     N  999   2.033   0.270  15.706  0.4146  0.6071  0.3160
   65MPD2    H5 1000   1.961   0.218  15.756 -0.4714 -0.0311 -1.6300
   65MPD2    N1 1001   2.245   0.699  15.649  0.8732  0.1030 -0.1261
   65MPD2    H7 1002   2.294   0.654  15.573 -1.2237 -0.5711 -1.0936
   66TCq2    C1 1003   2.230   0.836  15.656  0.6401 -0.4009 -0.0299
   66TCq2    O2 1004   2.171   0.901  15.745 -0.1575  0.3585  0.3526
   66TCq2    C2 1005   2.272   0.894  15.535 -0.1357  0.0823 -0.0420
   66TCq2    C3 1006   2.257   0.822  15.417 -0.0951 -0.0598  0.0811
   66TCq2    C4 1007   2.253   0.891  15.299  0.4242 -0.1563 -0.8808
   66TCq2    C5 1008   2.259   1.028  15.300  0.3141  0.6001  0.1706
   66TCq2    C6 1009   2.274   1.091  15.419  0.5797 -0.5348 -0.2524
   66TCq2    C7 1010   2.268   1.028  15.541 -0.4785  0.1032  0.1025
   66TCq2    C8 1011   2.274   1.235  15.412  0.1993  0.1436  0.1477
   66TCq2    O4 1012   2.330   1.290  15.317 -0.4538 -0.0128  0.2276
   66TCq2    C9 1013   2.229   0.826  15.170 -0.7102 -0.8010  0.2760
   66TCq2    O5 1014   2.151   0.877  15.087 -0.4252 -0.4728 -0.3439
   66TCq2    O6 1015   2.248   0.701  15.169  0.1209 -0.4756  0.0722
   66TCq2    H2 1016   2.229   0.718  15.416 -1.9015  0.4094  1.5539
   66TCq2    H3 1017   2.265   1.088  15.209  0.8145  1.7801  0.9734
   66TCq2    H4 1018   2.309   1.080  15.627  1.1526 -1.5522  0.3268
   67MPD2     C 1019   2.394   4.658  14.410 -0.5429 -0.3776  0.8660
   67MPD2    C1 1020   2.380   0.067  14.375  0.3270 -0.4442  0.3880
   67MPD2    C2 1021   2.290   0.097  14.273 -0.3515  0.5203 -0.3742
   67MPD2    C3 1022   2.213   4.714  14.213 -0.0088 -0.1660 -0.1597
   67MPD2    C4 1023   2.232   4.582  14.250  0.5410  0.6428 -0.3759
   67MPD2    C5 1024   2.323   4.557  14.346  0.7904 -1.0727 -0.3833
   67MPD2     H 1025   2.266   0.198  14.241 -0.9693  0.1177 -1.1836
   67MPD2    H1 1026   2.175   4.497  14.212 -0.7141  0.3692  2.1087
   67MPD2    H2 1027   2.465   4.625  14.484  0.0398  0.0175  0.4824
   67MPD2    H3 1028   2.325   4.453  14.379 -0.4334 -0.5785  1.2638
   67MPD2     N 1029   2.102   0.025  14.132 -0.2477 -0.1969 -0.1302
   67MPD2    H5 1030   2.024   4.682  14.112 -0.5384  0.0831  0.1268
   67MPD2    N1 1031   2.449   0.171  14.435 -0.0802  0.5645  0.0930
   67MPD2    H7 1032   2.405   0.261  14.417 -1.0467  0.4525  1.8232
   68TCq2    C1 1033   2.549   0.161  14.528  0.1046 -0.4276  0.0108
   68TCq2    O2 1034   2.625   0.067  14.542  0.3677 -0.6936 -0.2017
   68TCq2    C2 1035   2.576   0.292  14.589  0.0349 -0.1069 -0.3563
   68TCq2    C3 1036   2.474   0.382  14.619  0.1651  0.1177 -0.6907
   68TCq2    C4 1037   2.486   0.472  14.725  0.5651  0.0664  0.1102
   68TCq2    C5 1038   2.600   0.476  14.792 -0.4725 -0.6349  0.5683
   68TCq2    C6 1039   2.696   0.379  14.770 -0.0985  0.0674  0.2346
   68TCq2    C7 1040   2.690   0.290  14.661  0.4324  0.2549  0.6025
   68TCq2    C8 1041   2.799   0.364  14.878 -0.2022  0.0920  0.6967
   68TCq2    O4 1042   2.877   0.278  14.861  0.6245 -0.0647 -0.3680
   68TCq2    C9 1043   2.376   0.559  14.749  0.0582  0.0558  1.0090
   68TCq2    O5 1044   2.375   0.616  14.862  0.1990  0.7108  0.4321
   68TCq2    O6 1045   2.273   0.557  14.669 -0.4069 -0.0912 -0.6097
   68TCq2    H2 1046   2.380   0.377  14.567 -0.6878  0.3794  0.8044
   68TCq2    H3 1047   2.616   0.563  14.854  0.2986  0.9618 -1.8864
   68TCq2    H4 1048   2.776   0.227  14.639  0.0917  0.4683 -1.3280
   69TMC2    C1 1049   0.200   1.396  12.151  0.4426  0.1616  0.0286
   69TMC2    C2 1050   0.206   1.522  12.104 -0.4828  0.2008 -0.2009
   69TMC2    C3 1051   0.295   1.552  12.009  0.3622 -0.1325 -0.0090
   69TMC2    C4 1052   0.285   1.302  12.098 -0.4581 -0.0971  0.0046
   69TMC2    C5 1053   0.381   1.341  12.009 -0.4109 -0.2148  0.6328
   69TMC2    C6 1054   0.385   1.465  11.960  0.2366  0.4582  0.3224
   69TMC2     C 1055   0.145   1.379  12.281 -0.5581  0.7785 -0.0044
   69TMC2     O 1056   0.100   1.270  12.318 -0.0417 -0.6932 -0.1013
   69TMC2     H 1057   0.136   1.594  12.145  1.0251  0.7103  1.4675
   69TMC2    H1 1058   0.291   1.211  12.156 -2.0929 -2.8419 -4.1214
   69TMC2    H2 1059   0.448   1.491  11.876  0.9869 -2.6806 -0.0725
   69TMC2    C7 1060   0.508   1.277  12.001 -0.5750  0.5991 -0.8571
   69TMC2    C8 1061   0.355   1.674  12.048 -0.1269  0.1865 -0.1490
   69TMC2    O1 1062   0.591   1.329  11.925  0.1093  0.2464 -0.1071
   69TMC2    O2 1063   0.355   1.713  12.165 -0.0706 -0.7408  0.9211
   69TMC2    O5 1064   0.445   1.713  11.956 -0.5509  0.4700  0.9841
   69TMC2    H5 1065   0.452   1.666  11.871 -0.4354  1.9017  0.2002
   70MPD2     C 1066   0.270   1.560  12.569 -0.0492  0.1480  0.5670
   70MPD2    C1 1067   0.176   1.488  12.506  0.2052  0.0250 -0.4918
   70MPD2    C2 1068   0.083   1.414  12.575  0.2292  0.2020 -0.6239
   70MPD2    C3 1069   0.098   1.401  12.711 -0.3599 -0.4174 -0.0941
   70MPD2    C4 1070   0.195   1.475  12.777 -0.9550  0.1665 -0.5777
   70MPD2    C5 1071   0.281   1.561  12.706  0.3041  0.4734 -0.3218
   70MPD2     H 1072   0.016   1.343  12.528  0.5522  0.1498 -1.0061
   70MPD2    H1 1073   0.202   1.472  12.886 -1.8835 -0.4213 -0.5377
   70MPD2    H2 1074   0.342   1.617  12.510  1.2201 -0.4552  1.5285
   70MPD2    H3 1075   0.345   1.630  12.760 -0.8717  1.1504  0.2177
   70MPD2     N 1076   0.014   1.312  12.780  0.1591  0.1979 -0.6965
   70MPD2    H5 1077   0.045   1.279  12.871  1.1748  1.6457 -0.5133
   70MPD2    N1 1078   0.189   1.481  12.366  0.0493 -0.0555  0.1982
   70MPD2    H7 1079   0.248   1.555  12.329 -1.6529  0.7645 -0.9172
   71TMC2    C1 1080   2.456   2.255   2.045  0.8094  0.2178 -0.2129
   71TMC2    C2 1081   2.521   2.313   2.147  0.0963 -0.0954 -0.0442
   71TMC2    C3 1082   2.451   2.378   2.236 -0.4453  0.3696  0.6842
   71TMC2    C4 1083   2.319   2.278   2.029  0.0559 -0.6271  0.1059
   71TMC2    C5 1084   2.246   2.323   2.139  0.0670  0.6278  0.5296
   71TMC2    C6 1085   2.318   2.383   2.241  0.3888  0.3364 -0.6639
   71TMC2     C 1086   2.540   2.227   1.931 -0.5993  0.2112  0.1013
   71TMC2     O 1087   2.489   2.210   1.823  0.1133 -0.4724  1.0852
   71TMC2     H 1088   2.627   2.305   2.168  0.5352  0.2741 -2.1469
   71TMC2    H1 1089   2.267   2.227   1.949  1.6156 -0.2699 -1.1474
   71TMC2    H2 1090   2.259   2.424   2.322 -1.3473  1.1667 -2.3331
   71TMC2    C7 1091   2.117   2.277   2.182  0.7101  0.7601 -0.6641
   71TMC2    C8 1092   2.514   2.387   2.361  0.1886 -0.1855 -0.2086
   71TMC2    O1 1093   2.103   2.261   2.303  0.6718 -0.1296 -0.4020
   71TMC2    O2 1094   2.458   2.364   2.466  0.2237  0.1583  0.3228
   71TMC2    O5 1095   2.621   2.464   2.352  1.0138 -0.2101  0.0026
   71TMC2    H5 1096   2.630   2.493   2.258 -2.1313  1.9549  0.3782
   72MPD2     C 1097   3.016   2.135   1.767  0.2051 -0.2390 -0.6602
   72MPD2    C1 1098   2.909   2.185   1.700 -0.2565 -0.3377 -1.0823
   72MPD2    C2 1099   2.787   2.199   1.765  0.1181 -0.4307  0.3382
   72MPD2    C3 1100   2.777   2.172   1.899  0.5318  0.4667  0.7948
   72MPD2    C4 1101   2.891   2.146   1.969  0.1995 -0.4831 -0.2753
   72MPD2    C5 1102   3.003   2.111   1.900  0.9825  0.0634  0.8937
   72MPD2     H 1103   2.700   2.235   1.710  1.5793  1.5070 -0.7010
   72MPD2    H1 1104   2.902   2.127   2.076 -2.5690 -1.9524 -0.2256
   72MPD2    H2 1105   3.115   2.117   1.727 -0.5311  1.3873 -3.2243
   72MPD2    H3 1106   3.084   2.069   1.959 -0.1079 -0.7715  1.7979
   72MPD2     N 1107   2.662   2.188   1.979  0.2376  0.5486 -0.5753
   72MPD2    H5 1108   2.668   2.171   2.079 -4.3686  0.2794 -0.3451
   72MPD2    N1 1109   2.919   2.214   1.561  0.0278 -0.2048  0.1459
   72MPD2    H7 1110   2.837   2.267   1.534 -0.6166 -1.3495 -0.1526
   73TMC2    C1 1111   1.510   3.243  13.409 -0.2494 -0.2886  0.2749
   73TMC2    C2 1112   1.490   3.226  13.539 -0.3041  1.0712  0.4400
   73TMC2    C3 1113   1.495   3.105  13.599  0.1871 -0.6200 -0.2568
   73TMC2    C4 1114   1.573   3.145  13.341 -0.3043  0.1363 -0.0882
   73TMC2    C5 1115   1.601   3.023  13.399  0.5587 -0.2243 -0.0233
   73TMC2    C6 1116   1.561   3.004  13.532 -0.5975  0.4444 -0.1588
   73TMC2     C 1117   1.554   3.366  13.357 -0.4398  0.4950  0.0700
   73TMC2     O 1118   1.629   3.365  13.260 -0.2096 -0.5680 -0.7902
   73TMC2     H 1119   1.446   3.310  13.591  2.1363  1.3905  1.9644
   73TMC2    H1 1120   1.581   3.148  13.232 -0.1249 -0.9637 -0.1051
   73TMC2    H2 1121   1.569   2.906  13.577 -0.3896 -0.1569 -1.4927
   73TMC2    C7 1122   1.738   2.970  13.384  0.2749  0.8301 -0.2168
   73TMC2    C8 1123   1.511   3.120  13.741 -0.2202 -0.0481  0.6948
   73TMC2    O1 1124   1.766   2.878  13.459  0.2011  0.6410  0.4835
   73TMC2    O2 1125   1.596   3.061  13.807 -0.5263  0.0749 -0.1928
   73TMC2    O5 1126   1.391   3.167  13.783 -0.1814 -0.0007 -0.1982
   73TMC2    H5 1127   1.329   3.182  13.708  0.7498  0.3183 -0.9151
   74MPD2     C 1128   1.656   3.871  13.401 -0.2576 -0.0796  0.4327
   74MPD2    C1 1129   1.721   3.770  13.331 -0.2996 -0.9192  0.6550
   74MPD2    C2 1130   1.663   3.648  13.331  0.4890  0.6829  0.2767
   74MPD2    C3 1131   1.560   3.615  13.413  0.7815 -0.2974  0.0230
   74MPD2    C4 1132   1.498   3.714  13.478 -0.4788  0.3569  0.2022
   74MPD2    C5 1133   1.543   3.843  13.471 -0.5991  0.3351 -0.2677
   74MPD2     H 1134   1.713   3.570  13.274  0.4045  0.3145  0.6999
   74MPD2    H1 1135   1.412   3.690  13.539  0.0581 -2.7997 -0.3199
   74MPD2    H2 1136   1.697   3.970  13.419 -1.6494  1.0523 -2.7263
   74MPD2    H3 1137   1.496   3.926  13.522 -1.4440 -0.6916  0.6233
   74MPD2     N 1138   1.521   3.478  13.434 -0.2358 -0.1032  0.3187
   74MPD2    H5 1139   1.453   3.462  13.508 -0.0424 -0.0512  0.5070
   74MPD2    N1 1140   1.857   3.769  13.304 -0.6120  0.1056  0.2515
   74MPD2    H7 1141   1.897   3.683  13.267 -0.4193  0.3250 -0.0429
   75TCq2    C1 1142   2.098   0.143  14.061  0.0594 -0.2067 -0.0034
   75TCq2    O2 1143   2.195   0.205  14.012 -0.4861  0.1508  0.0499
   75TCq2    C2 1144   1.970   0.156  13.991  0.0776 -0.2990  0.1603
   75TCq2    C3 1145   1.856   0.133  14.059  0.2625 -0.5592 -0.0592
   75TCq2    C4 1146   1.739   0.139  13.988  0.0428  0.3148 -0.5330
   75TCq2    C5 1147   1.735   0.141  13.849 -0.1895 -0.5679  0.4883
   75TCq2    C6 1148   1.851   0.165  13.786 -0.4876  0.2887  0.7185
   75TCq2    C7 1149   1.965   0.179  13.857  0.4059 -0.2191  0.2847
   75TCq2    C8 1150   1.853   0.175  13.640 -0.7009  0.5525  0.7497
   75TCq2    O4 1151   1.753   0.134  13.586 -0.3334  0.5692  0.5740
   75TCq2    C9 1152   1.618   0.120  14.060  0.6704  0.2182  0.3266
   75TCq2    O5 1153   1.619   0.155  14.184 -0.1400 -0.4191  0.7753
   75TCq2    O6 1154   1.518   0.089  13.989  1.0717  0.3625  0.7214
   75TCq2    H2 1155   1.861   0.125  14.167 -1.2770 -2.1532 -0.0943
   75TCq2    H3 1156   1.639   0.117  13.807 -0.7937  1.1338  0.9130
   75TCq2    H4 1157   2.061   0.196  13.810 -0.7413 -0.6865 -2.2207
   76MPD2     C 1158   1.499   0.742  11.660  0.3518 -0.2635 -0.6156
   76MPD2    C1 1159   1.365   0.699  11.695 -0.4618 -0.3009 -0.2054
   76MPD2    C2 1160   1.367   0.603  11.793  0.4910 -0.3389  0.3800
   76MPD2    C3 1161   1.477   0.544  11.855 -0.3560 -0.0946 -0.1343
   76MPD2    C4 1162   1.600   0.586  11.811 -0.3562 -0.0511 -0.5807
   76MPD2    C5 1163   1.610   0.684  11.717  0.1512  0.7825 -0.1325
   76MPD2     H 1164   1.265   0.581  11.823 -0.6855  2.4031 -1.5098
   76MPD2    H1 1165   1.696   0.549  11.844 -0.0361  0.3825 -1.0324
   76MPD2    H2 1166   1.515   0.808  11.575 -1.4619  2.0808  0.8579
   76MPD2    H3 1167   1.710   0.711  11.684  0.4655  1.0186  1.0239
   76MPD2     N 1168   1.469   0.429  11.938  0.0770  0.4095  0.5936
   76MPD2    H5 1169   1.557   0.387  11.963 -1.3831 -2.9782  0.0771
   76MPD2    N1 1170   1.245   0.752  11.639 -0.1038  0.0541  0.0237
   76MPD2    H7 1171   1.161   0.719  11.684 -0.0317 -3.1094 -2.1574
   77TCq2    C1 1172   1.353   0.358  11.963  0.3504  0.1673  0.0636
   77TCq2    O2 1173   1.238   0.386  11.933  0.0059 -0.1583 -0.4487
   77TCq2    C2 1174   1.372   0.225  12.022  0.0919  0.1082  0.0033
   77TCq2    C3 1175   1.301   0.123  11.963 -0.2430 -0.1574  0.4927
   77TCq2    C4 1176   1.331   4.713  11.993 -0.6365  0.3573  0.5554
   77TCq2    C5 1177   1.443   4.675  12.065  0.8172 -0.0221 -0.1507
   77TCq2    C6 1178   1.520   0.062  12.111 -0.1478  0.5163  0.1512
   77TCq2    C7 1179   1.484   0.193  12.094 -0.7691 -0.8210 -0.2424
   77TCq2    C8 1180   1.642   0.035  12.189 -0.4309 -1.1056  1.0495
   77TCq2    O4 1181   1.704   4.648  12.178  0.2317 -0.0866  0.5381
   77TCq2    C9 1182   1.256   4.614  11.925  0.1189 -0.2468 -0.5048
   77TCq2    O5 1183   1.320   4.510  11.896 -0.2742 -0.1209 -0.3489
   77TCq2    O6 1184   1.133   4.635  11.891 -0.1265 -0.2319 -0.1554
   77TCq2    H2 1185   1.218   0.152  11.900  2.4141  0.4771 -2.7671
   77TCq2    H3 1186   1.464   4.571  12.087 -0.5604 -0.7836 -2.4681
   77TCq2    H4 1187   1.545   0.273  12.133 -1.7015 -0.8591  1.3242
   78MPD1     C 1188   1.027   2.097   2.279 -0.3901 -0.3125  0.0152
   78MPD1    C1 1189   1.069   2.027   2.168  0.0920  0.2808 -0.1132
   78MPD1    C2 1190   1.198   1.975   2.171 -0.2753 -0.2578  0.5667
   78MPD1    C3 1191   1.283   2.005   2.281  0.2983  0.3295  0.9172
   78MPD1    C4 1192   1.245   2.096   2.380  0.8143 -0.7275  0.0656
   78MPD1    C5 1193   1.114   2.138   2.374  0.2546 -0.2025 -0.2523
   78MPD1     H 1194   1.226   1.909   2.091  0.9080  0.6925  0.1986
   78MPD1    H1 1195   1.305   2.141   2.458  1.6095 -1.6903  0.0193
   78MPD1    H2 1196   0.930   2.141   2.297  0.4926  1.0686  1.3854
   78MPD1    H3 1197   1.076   2.214   2.442 -1.0637  0.4299 -1.7022
   78MPD1     N 1198   1.417   1.957   2.287  0.3080 -0.9726 -0.3854
   78MPD1    H5 1199   1.473   1.982   2.368 -1.7387 -0.6517  0.9393
   78MPD1    N1 1200   0.983   1.975   2.070 -0.5552 -0.1871 -0.4142
   78MPD1    H6 1201   1.016   1.971   1.974 -2.0097 -2.6799 -0.8057
   78MPD1    H7 1202   0.898   2.031   2.072 -1.1249 -1.0515 -0.4736
   79TCq2    C1 1203   1.489   1.883   2.191  0.3196  1.0792  0.3502
   79TCq2    O2 1204   1.470   1.844   2.078  0.3866 -0.3388 -0.1434
   79TCq2    C2 1205   1.617   1.849   2.241  0.3379 -0.4022 -0.5654
   79TCq2    C3 1206   1.643   1.837   2.372 -0.1508  0.2008  0.3700
   79TCq2    C4 1207   1.772   1.839   2.413  0.1855 -0.7880 -0.2039
   79TCq2    C5 1208   1.880   1.863   2.329 -0.4118 -0.1164  0.3776
   79TCq2    C6 1209   1.848   1.883   2.199 -0.2822  0.4267  0.1169
   79TCq2    C7 1210   1.719   1.870   2.152 -0.5906  0.4320 -0.4760
   79TCq2    C8 1211   1.966   1.895   2.111  0.3696 -0.5064 -0.5462
   79TCq2    O4 1212   2.078   1.866   2.148  0.2328 -0.5345 -0.1082
   79TCq2    C9 1213   1.795   1.823   2.559  0.0073  0.9585  0.5057
   79TCq2    O5 1214   1.914   1.799   2.589 -0.0878 -0.2837 -0.3007
   79TCq2    O6 1215   1.693   1.769   2.608 -0.6978 -0.0907  0.0701
   79TCq2    H2 1216   1.565   1.835   2.447 -1.0463  0.2532 -0.5583
   79TCq2    H3 1217   1.981   1.857   2.367  0.5266 -2.7319 -2.4868
   79TCq2    H4 1218   1.691   1.872   2.047 -0.7700 -2.8837 -0.5116
   80MPD2     C 1219   0.273   0.409  12.300  0.3940 -0.7892 -0.4412
   80MPD2    C1 1220   0.170   0.431  12.214  0.6278  0.3016  0.2985
   80MPD2    C2 1221   0.052   0.475  12.269 -0.3754 -0.3752 -0.1139
   80MPD2    C3 1222   0.041   0.493  12.406 -0.5868  0.1172 -0.2562
   80MPD2    C4 1223   0.153   0.480  12.488 -0.1633 -0.4266  0.3666
   80MPD2    C5 1224   0.267   0.434  12.433  0.1356 -0.1012 -0.0139
   80MPD2     H 1225   4.689   0.505  12.205 -0.4278 -0.2306  0.0189
   80MPD2    H1 1226   0.147   0.494  12.595  3.0171 -2.2176  0.7669
   80MPD2    H2 1227   0.372   0.385  12.263  0.7823  0.5906 -0.2826
   80MPD2    H3 1228   0.359   0.430  12.489  0.0864  1.5920  0.2016
   80MPD2     N 1229   4.640   0.540  12.471 -0.4092 -0.0924  0.4645
   80MPD2    H5 1230   4.627   0.533  12.572 -1.3316  3.1344  0.5705
   80MPD2    N1 1231   0.176   0.407  12.076 -0.5599 -0.5584 -0.0817
   80MPD2    H7 1232   0.092   0.428  12.023 -0.4365 -1.3581 -0.5981
   81TCq2    C1 1233   0.290   0.378  12.002 -0.2129 -0.3615 -0.6698
   81TCq2    O2 1234   0.409   0.401  12.024  0.0065 -0.1729 -0.2705
   81TCq2    C2 1235   0.254   0.343  11.873 -0.2424  0.1784 -0.7608
   81TCq2    C3 1236   0.336   0.389  11.772  0.4023  0.0493 -0.2552
   81TCq2    C4 1237   0.290   0.386  11.644 -1.0373  0.1565  0.1854
   81TCq2    C5 1238   0.174   0.316  11.619 -0.8124  0.7360 -0.3328
   81TCq2    C6 1239   0.107   0.247  11.717  0.2473 -0.1008  0.2169
   81TCq2    C7 1240   0.148   0.261  11.853 -0.2243 -0.0780  0.1088
   81TCq2    C8 1241   4.698   0.185  11.685  0.3331  0.6110  0.0360
   81TCq2    O4 1242   4.658   0.188  11.571 -0.3849  0.4795  0.2348
   81TCq2    C9 1243   0.365   0.436  11.529 -0.3598  0.4178  0.0478
   81TCq2    O5 1244   0.289   0.460  11.429  0.7473 -0.1346  0.0077
   81TCq2    O6 1245   0.483   0.465  11.551  0.2687 -0.6425 -1.0200
   81TCq2    H2 1246   0.427   0.439  11.803 -0.6453  2.2511 -0.7235
   81TCq2    H3 1247   0.149   0.287  11.517  1.5025  0.2405 -0.7558
   81TCq2    H4 1248   0.105   0.210  11.938  0.0814 -0.6952 -0.1081
   82MPD2     C 1249   3.462   4.415  10.138 -0.0236  0.1102 -0.2172
   82MPD2    C1 1250   3.346   4.353  10.173  0.9116 -0.3770 -0.0522
   82MPD2    C2 1251   3.337   4.278  10.284 -0.4286  0.7193 -0.4011
   82MPD2    C3 1252   3.444   4.280  10.370 -1.0018 -0.0550  0.9274
   82MPD2    C4 1253   3.550   4.356  10.345 -0.0099  0.3392  0.1764
   82MPD2    C5 1254   3.564   4.410  10.227  0.2350  0.0965  0.1611
   82MPD2     H 1255   3.247   4.220  10.306 -1.0084  0.7426 -2.7785
   82MPD2    H1 1256   3.614   4.379  10.430 -1.3859 -0.5920  1.4766
   82MPD2    H2 1257   3.474   4.484  10.056  0.9151  1.2712  0.8915
   82MPD2    H3 1258   3.655   4.467  10.215 -0.7394  1.8352  1.0631
   82MPD2     N 1259   3.448   4.219  10.496  0.0881 -0.2731  0.0247
   82MPD2    H5 1260   3.525   4.224  10.562  0.3329 -1.6506 -0.1629
   82MPD2    N1 1261   3.252   4.365  10.073  0.1209 -0.2682  0.2496
   82MPD2    H7 1262   3.275   4.429   9.997  0.6365  0.3838  0.9585
   83TCq2    C1 1263   3.341   4.157  10.558  0.4512  0.3994 -0.6982
   83TCq2    O2 1264   3.244   4.103  10.502 -0.0001  0.5142  0.6687
   83TCq2    C2 1265   3.392   4.094  10.684 -0.1142 -0.2609 -0.9102
   83TCq2    C3 1266   3.511   4.142  10.738  0.3422  0.5217  0.7134
   83TCq2    C4 1267   3.561   4.068  10.838  0.3097  0.2517  0.7630
   83TCq2    C5 1268   3.492   3.953  10.889 -0.0609 -0.8267 -0.0091
   83TCq2    C6 1269   3.376   3.916  10.834  0.3151  0.4994  0.2170
   83TCq2    C7 1270   3.325   3.993  10.737  0.1209 -0.0977  0.4412
   83TCq2    C8 1271   3.295   3.822  10.909  0.3472 -0.7054 -0.5223
   83TCq2    O4 1272   3.179   3.854  10.915  1.2087  0.2847  0.1516
   83TCq2    C9 1273   3.676   4.124  10.913  0.9562 -0.6638  0.3950
   83TCq2    O5 1274   3.684   4.086  11.032  0.0148  0.3862  0.3264
   83TCq2    O6 1275   3.741   4.216  10.858 -0.1171  0.1562  0.9193
   83TCq2    H2 1276   3.560   4.235  10.710  3.2903 -1.2703 -0.0644
   83TCq2    H3 1277   3.536   3.902  10.974  3.0141  3.1660  0.7668
   83TCq2    H4 1278   3.226   3.973  10.698  0.8175 -2.6719 -0.0254
   84TCq2    C1 1279   4.469   2.641  10.462 -0.2053  0.1321  0.0755
   84TCq2    O2 1280   4.391   2.736  10.455  0.1200 -0.9259 -0.2604
   84TCq2    C2 1281   4.562   2.649  10.575  0.2263 -0.0446  0.1125
   84TCq2    C3 1282   4.689   2.653  10.534  0.2541  0.3890  0.9061
   84TCq2    C4 1283   0.062   2.744  10.589 -0.6189 -0.1096 -0.3562
   84TCq2    C5 1284   0.012   2.844  10.672 -0.2567 -0.1104  0.4799
   84TCq2    C6 1285   4.598   2.834  10.713  0.2510 -0.2879 -0.0904
   84TCq2    C7 1286   4.517   2.738  10.672 -0.1071  0.6339  0.3250
   84TCq2    C8 1287   4.532   2.948  10.776  0.3689 -0.5682 -0.4087
   84TCq2    O4 1288   4.450   2.909  10.861 -0.2676 -0.5140  0.0553
   84TCq2    C9 1289   0.201   2.758  10.548  0.1638 -0.6379  1.0065
   84TCq2    O5 1290   0.217   2.689  10.443  0.4637 -0.5653 -0.3724
   84TCq2    O6 1291   0.260   2.868  10.568 -0.2940 -0.0186  0.3053
   84TCq2    H2 1292   0.001   2.592  10.450 -0.2130 -0.6797  1.5151
   84TCq2    H3 1293   0.070   2.933  10.693  1.3863 -1.2360  0.6377
   84TCq2    H4 1294   4.410   2.751  10.684 -0.0468  0.3301  1.2408
   85MPD2     C 1295   4.351   1.537  15.819 -0.8219 -0.7125 -0.3656
   85MPD2    C1 1296   4.283   1.557  15.944 -0.5421  0.1957  0.5514
   85MPD2    C2 1297   4.245   1.692  15.967 -0.0223 -0.7103 -0.5770
   85MPD2    C3 1298   4.264   1.798  15.883 -0.6878 -0.4196 -0.6680
   85MPD2    C4 1299   4.339   1.770  15.767  0.6094 -0.0309 -0.7710
   85MPD2    C5 1300   4.385   1.640  15.730 -0.7785 -0.3203 -1.0383
   85MPD2     H 1301   4.191   1.708  16.060 -2.0903 -3.5487 -1.2992
   85MPD2    H1 1302   4.363   1.840  15.688  1.3464  2.0406  1.2790
   85MPD2    H2 1303   4.392   1.442  15.787  2.4792  1.2265 -1.8304
   85MPD2    H3 1304   4.448   1.618  15.645  1.2928  1.0669  0.1313
   85MPD2     N 1305   4.198   1.923  15.916  0.3505 -0.2182 -0.0937
   85MPD2    H5 1306   4.169   1.933  16.013  0.7010 -0.6840  0.0627
   85MPD2    N1 1307   4.250   1.444  16.029  0.1175 -0.0543  0.0708
   85MPD2    H7 1308   4.184   1.466  16.103  2.0901 -4.4697  3.1499
   86TCq2    C1 1309   4.201   2.032  15.831 -0.4899 -0.0110 -0.4679
   86TCq2    O2 1310   4.245   2.040  15.717  0.1475  0.0017 -0.1906
   86TCq2    C2 1311   4.159   2.149  15.900  0.7895  0.7797 -0.0826
   86TCq2    C3 1312   4.233   2.265  15.877  0.1383 -0.3853 -0.4383
   86TCq2    C4 1313   4.251   2.344  15.988  0.2313  0.0663 -0.0578
   86TCq2    C5 1314   4.199   2.311  16.110 -0.4635 -0.0680  0.0650
   86TCq2    C6 1315   4.126   2.198  16.128 -0.1201 -0.5719  0.1677
   86TCq2    C7 1316   4.105   2.119  16.019 -0.2942  0.2666  0.4726
   86TCq2    C8 1317   4.185   2.119  16.236 -0.0732  0.3757  0.1198
   86TCq2    O4 1318   4.191   1.997  16.218 -0.2218  0.0019 -0.5222
   86TCq2    C9 1319   4.320   2.469  15.972 -0.4195  0.1363 -0.5309
   86TCq2    O5 1320   4.340   2.541  16.075 -0.6810 -0.2371  0.0304
   86TCq2    O6 1321   4.365   2.496  15.862 -0.3217  0.0968  0.2191
   86TCq2    H2 1322   4.279   2.299  15.785  0.9050 -0.9951 -0.2781
   86TCq2    H3 1323   4.214   2.382  16.190 -1.9511  1.2305 -0.8119
   86TCq2    H4 1324   4.017   2.056  16.028 -0.9477  1.3110  1.4584
   87MPD2     C 1325   1.773   0.433   1.241 -0.7208 -1.0750  0.1569
   87MPD2    C1 1326   1.678   0.353   1.300  0.4845  0.2169  0.3775
   87MPD2    C2 1327   1.561   0.410   1.339 -0.0698 -0.1414 -0.2066
   87MPD2    C3 1328   1.539   0.548   1.316  0.4547  0.0971 -0.5670
   87MPD2    C4 1329   1.637   0.628   1.269  0.4551 -0.1864 -0.8649
   87MPD2    C5 1330   1.755   0.572   1.225 -0.2170 -0.4869 -0.3359
   87MPD2     H 1331   1.480   0.350   1.378 -1.3806 -0.2203 -3.0504
   87MPD2    H1 1332   1.612   0.731   1.250  0.0525  0.2626  2.1145
   87MPD2    H2 1333   1.867   0.407   1.194  0.2773  1.2097  0.8643
   87MPD2    H3 1334   1.830   0.632   1.177 -0.2367 -0.2630 -0.0896
   87MPD2     N 1335   1.407   0.602   1.320  0.0434 -0.1186 -0.4722
   87MPD2    H5 1336   1.388   0.689   1.271 -1.8296 -1.6459 -2.4562
   87MPD2    N1 1337   1.694   0.218   1.274 -0.4149  0.5808 -0.1578
   87MPD2    H7 1338   1.775   0.197   1.216 -1.4568 -0.7366 -1.1465
   88TCq2    C1 1339   1.618   0.113   1.319 -0.1456 -0.0329 -0.1441
   88TCq2    O2 1340   1.508   0.113   1.379  0.1468 -0.4820  0.4525
   88TCq2    C2 1341   1.654   0.000   1.241  0.7197 -0.0559 -0.4082
   88TCq2    C3 1342   1.553   4.644   1.196 -0.5039  0.0759  0.6925
   88TCq2    C4 1343   1.581   4.543   1.112  0.3066 -0.4858  0.5135
   88TCq2    C5 1344   1.710   4.496   1.104  0.0318 -0.6780 -0.1021
   88TCq2    C6 1345   1.813   4.565   1.165 -0.1813 -0.0322 -0.5473
   88TCq2    C7 1346   1.785   4.682   1.231  0.8867  0.1670 -0.8559
   88TCq2    C8 1347   1.947   4.538   1.114 -0.1855  0.7410 -0.3118
   88TCq2    O4 1348   1.954   4.476   1.007  0.3793 -0.0479  0.1705
   88TCq2    C9 1349   1.476   4.473   1.040  0.2719  0.2406 -0.5779
   88TCq2    O5 1350   1.502   4.367   0.978 -0.9347  0.2570 -0.0853
   88TCq2    O6 1351   1.364   4.534   1.028 -0.1362  0.5841 -0.2723
   88TCq2    H2 1352   1.451   4.657   1.231 -0.0869 -0.1137  1.9797
   88TCq2    H3 1353   1.724   4.404   1.049  2.1666  1.1671 -2.6473
   88TCq2    H4 1354   1.860   0.033   1.266  1.0340 -0.3934 -0.0626
   89MPD2     C 1355   3.440   3.340   2.243 -0.2031 -0.0674  0.4827
   89MPD2    C1 1356   3.317   3.354   2.186  0.6261  0.2044  0.2452
   89MPD2    C2 1357   3.296   3.460   2.101 -0.2123 -0.1076 -0.3798
   89MPD2    C3 1358   3.397   3.557   2.081  0.5629 -0.0803 -0.2341
   89MPD2    C4 1359   3.524   3.536   2.137 -0.0611  0.2341  0.0660
   89MPD2    C5 1360   3.540   3.430   2.217  0.7840 -0.4966 -0.2342
   89MPD2     H 1361   3.194   3.488   2.079 -0.3541  1.0567  1.8155
   89MPD2    H1 1362   3.603   3.610   2.127  1.0283 -0.8751  0.3758
   89MPD2    H2 1363   3.468   3.254   2.302  0.2694 -0.3721 -0.1852
   89MPD2    H3 1364   3.638   3.417   2.261  0.3263 -0.5078  0.7713
   89MPD2     N 1365   3.365   3.672   2.000  0.2231 -0.7269  0.3624
   89MPD2    H5 1366   3.268   3.690   1.976  0.6843  1.3179  0.0416
   89MPD2    N1 1367   3.209   3.271   2.207  0.2243 -0.2607 -0.4319
   89MPD2    H7 1368   3.131   3.295   2.147  1.4444  2.1379 -1.0537
   90TCq2    C1 1369   3.458   3.765   1.950 -0.2846 -0.3894  0.5230
   90TCq2    O2 1370   3.584   3.772   1.934 -0.0076  0.2402  0.0245
   90TCq2    C2 1371   3.387   3.882   1.896  0.8151  0.2034 -0.5049
   90TCq2    C3 1372   3.271   3.908   1.959  0.4692  0.6137 -0.4743
   90TCq2    C4 1373   3.178   3.994   1.900  0.0354 -0.1107  0.6187
   90TCq2    C5 1374   3.213   4.049   1.777  0.3921  0.4796 -0.2848
   90TCq2    C6 1375   3.338   4.026   1.715  0.6696 -0.1082  0.2426
   90TCq2    C7 1376   3.421   3.931   1.775  0.0845 -0.6366  0.0883
   90TCq2    C8 1377   3.341   4.037   1.572 -0.1814 -0.0043  0.4828
   90TCq2    O4 1378   3.233   4.038   1.517 -0.1092 -0.0209  0.3829
   90TCq2    C9 1379   3.058   4.025   1.965  1.0554 -0.0877  0.4966
   90TCq2    O5 1380   2.988   4.112   1.908  0.2993  0.6883 -0.0730
   90TCq2    O6 1381   3.015   3.938   2.043  0.0306  0.1912  0.1929
   90TCq2    H2 1382   3.242   3.858   2.051 -2.1585  0.9513 -1.1404
   90TCq2    H3 1383   3.138   4.116   1.736 -0.3971 -0.9696 -1.1948
   90TCq2    H4 1384   3.491   3.878   1.711  1.2510 -0.2629  1.0644
   91TMC2    C1 1385   4.512   2.848  16.445 -0.0016  0.0154 -0.4952
   91TMC2    C2 1386   4.556   2.905  16.335  0.6531  0.4462  0.0410
   91TMC2    C3 1387   4.473   2.946  16.231 -0.6329 -0.2567  0.2134
   91TMC2    C4 1388   4.379   2.830  16.461  0.2076 -0.2672 -1.0298
   91TMC2    C5 1389   4.300   2.858  16.347 -0.4532 -0.4792 -0.9092
   91TMC2    C6 1390   4.339   2.923  16.235  0.2097 -1.0334  0.0718
   91TMC2     C 1391   4.598   2.781  16.536 -0.5390 -0.3854  1.2177
   91TMC2     O 1392   4.558   2.686  16.601  0.2183 -0.3598  0.1897
   91TMC2     H 1393   4.659   2.936  16.323  1.1922 -0.8380  1.3985
   91TMC2    H1 1394   4.348   2.766  16.543 -0.1161  1.3102  0.0804
   91TMC2    H2 1395   4.258   2.965  16.177  0.8932  0.2829  0.0636
   91TMC2    C7 1396   4.167   2.805  16.358  0.4096  0.4050 -0.1793
   91TMC2    C8 1397   4.530   3.030  16.127 -0.1923  0.2728 -0.1783
   91TMC2    O1 1398   4.121   2.793  16.469 -0.1237  0.4315  0.3592
   91TMC2    O2 1399   4.640   3.081  16.148 -0.4702  0.3175 -0.9492
   91TMC2    O5 1400   4.480   2.996  16.012 -0.5559 -0.0237  1.0056
   91TMC2    H5 1401   4.398   2.942  16.010 -0.1508 -0.6459  0.9938
   92MPD2     C 1402   0.095   2.693  16.732 -0.4882  0.0328 -0.0433
   92MPD2    C1 1403   0.103   2.809  16.657  0.3911  0.3138  0.0685
   92MPD2    C2 1404   0.210   2.892  16.678 -0.0462 -0.1251 -0.5165
   92MPD2    C3 1405   0.315   2.869  16.766  0.5118  0.2990  0.0016
   92MPD2    C4 1406   0.295   2.764  16.851 -0.0655 -0.7531 -0.1903
   92MPD2    C5 1407   0.199   2.673  16.828 -0.4694 -0.0413  0.3071
   92MPD2     H 1408   0.226   2.981  16.618 -1.1973  0.0865 -0.5017
   92MPD2    H1 1409   0.362   2.749  16.935  0.1793 -1.3587 -0.4950
   92MPD2    H2 1410   0.017   2.618  16.725  0.6738 -1.2137  0.4611
   92MPD2    H3 1411   0.196   2.585  16.891  2.8742 -0.7589 -0.5138
   92MPD2     N 1412   0.439   2.950  16.758  0.6245  0.0477 -0.3772
   92MPD2    H5 1413   0.448   3.025  16.691 -0.3187  0.1384 -0.4099
   92MPD2    N1 1414   4.716   2.847  16.559  0.4989 -0.2072  0.1268
   92MPD2    H7 1415   4.716   2.940  16.518 -1.2353 -0.6310 -0.8367
   93MPD2     C 1416   2.099   2.611  13.622  0.2072  0.7984  0.3833
   93MPD2    C1 1417   2.090   2.719  13.702 -0.5713 -0.6810  0.1674
   93MPD2    C2 1418   1.963   2.751  13.760 -0.1695  0.0220  0.3337
   93MPD2    C3 1419   1.856   2.672  13.730  0.5042 -0.8160 -0.0882
   93MPD2    C4 1420   1.869   2.564  13.645  0.0603  0.5804  0.0868
   93MPD2    C5 1421   1.990   2.534  13.600  0.2407  1.1159  0.2682
   93MPD2     H 1422   1.956   2.836  13.828 -1.2773  0.8360 -0.8082
   93MPD2    H1 1423   1.791   2.492  13.623  1.5340 -1.0673  0.2640
   93MPD2    H2 1424   2.191   2.573  13.580  0.8105  1.6801  0.9191
   93MPD2    H3 1425   2.012   2.452  13.533 -1.1459  1.4193 -0.5535
   93MPD2     N 1426   1.731   2.712  13.777  0.8480  0.0072 -0.1732
   93MPD2    H5 1427   1.744   2.800  13.826  0.8597  1.0883 -2.1024
   93MPD2    N1 1428   2.201   2.811  13.726  0.2187  0.0279  0.0530
   93MPD2    H7 1429   2.180   2.901  13.767  0.9603  1.4840 -2.7720
   94TCq2    C1 1430   2.334   2.779  13.696 -0.1762 -0.3753  0.7149
   94TCq2    O2 1431   2.383   2.675  13.662  0.8630  0.4376  0.1694
   94TCq2    C2 1432   2.428   2.882  13.737  0.3375  0.0628  0.9265
   94TCq2    C3 1433   2.390   3.013  13.729  0.9841  0.8163  0.2830
   94TCq2    C4 1434   2.488   3.107  13.714 -0.6971 -0.7610  0.3597
   94TCq2    C5 1435   2.616   3.078  13.701 -0.2850  0.8478 -0.3035
   94TCq2    C6 1436   2.649   2.951  13.717 -0.0881 -0.3684  0.2112
   94TCq2    C7 1437   2.556   2.848  13.722 -0.0812 -0.7109  0.1456
   94TCq2    C8 1438   2.784   2.915  13.716  0.2951  0.0437 -0.2712
   94TCq2    O4 1439   2.855   2.957  13.627 -0.1302  0.1867  0.1882
   94TCq2    C9 1440   2.450   3.243  13.682  0.4618 -0.7592 -0.6429
   94TCq2    O5 1441   2.529   3.306  13.613  0.0018 -0.1962 -0.3101
   94TCq2    O6 1442   2.337   3.283  13.716 -0.1878 -0.1222  0.1895
   94TCq2    H2 1443   2.285   3.042  13.731  0.5712 -0.7527  1.1702
   94TCq2    H3 1444   2.695   3.150  13.690 -0.5905  1.8243  4.0430
   94TCq2    H4 1445   2.598   2.749  13.709 -0.3674 -0.7841 -0.2316
   95TMC2    C1 1446   1.289   4.630  16.201 -0.0473  0.4964 -0.5577
   95TMC2    C2 1447   1.200   4.532  16.231 -0.0970 -0.3018  0.1210
   95TMC2    C3 1448   1.124   4.555  16.349  0.0253 -0.2370 -0.2888
   95TMC2    C4 1449   1.302   0.027  16.280  0.3516 -0.4334 -0.8451
   95TMC2    C5 1450   1.220   0.043  16.389 -0.8178  0.4584  0.5784
   95TMC2    C6 1451   1.136   4.664  16.432 -0.8431  0.3640 -0.3493
   95TMC2     C 1452   1.367   4.627  16.077 -0.1953 -0.3118 -0.3632
   95TMC2     O 1453   1.470   4.691  16.071 -0.0421  0.4590  0.1415
   95TMC2     H 1454   1.205   4.433  16.186  2.9198 -0.4797  0.8564
   95TMC2    H1 1455   1.375   0.101  16.250  0.6801 -1.3805 -2.4143
   95TMC2    H2 1456   1.064   4.662  16.513  0.0837  0.0816  0.4661
   95TMC2    C7 1457   1.223   0.169  16.452 -0.1401 -0.3989  0.1431
   95TMC2    C8 1458   1.053   4.440  16.393 -0.3145  0.3394 -0.2964
   95TMC2    O1 1459   1.158   0.167  16.557  0.1076 -0.2014  0.5256
   95TMC2    O2 1460   1.064   4.382  16.501  0.5520 -0.7702 -0.1787
   95TMC2    O5 1461   0.994   4.395  16.280  0.3029  0.4851  0.3266
   95TMC2    H5 1462   0.995   4.462  16.208  0.8629  1.7109  1.4776
   96MPD2     C 1463   1.408   4.490  15.580  1.0271  0.0121  0.3252
   96MPD2    C1 1464   1.500   4.549  15.658 -0.0410 -0.4197  0.6622
   96MPD2    C2 1465   1.470   4.570  15.793 -0.4251 -0.2447 -0.4745
   96MPD2    C3 1466   1.348   4.525  15.850 -0.7641 -0.2009  0.4314
   96MPD2    C4 1467   1.263   4.462  15.765  0.0042 -0.0006 -0.4909
   96MPD2    C5 1468   1.294   4.453  15.632  0.1357 -0.2147 -0.3108
   96MPD2     H 1469   1.549   4.598  15.862  0.2384  0.0223 -1.3495
   96MPD2    H1 1470   1.170   4.420  15.800 -0.4301  0.7586 -0.7386
   96MPD2    H2 1471   1.431   4.476  15.475 -1.3184  0.8499 -0.3003
   96MPD2    H3 1472   1.229   4.403  15.562 -1.1571 -1.2884  1.6605
   96MPD2     N 1473   1.304   4.545  15.984 -0.0952  0.1538  0.1121
   96MPD2    H5 1474   1.212   4.506  16.002  1.1248 -2.7965  0.0850
   96MPD2    N1 1475   1.618   4.589  15.598  0.3836 -0.1318  0.1283
   96MPD2    H7 1476   1.634   4.565  15.501 -0.1223  1.2908 -0.3083
   97MPD2     C 1477   4.672   2.574   1.563 -0.7429 -0.2102 -0.2263
   97MPD2    C1 1478   4.583   2.485   1.507 -0.4665 -0.8247  0.1315
   97MPD2    C2 1479   4.605   2.438   1.376 -0.3871  0.0058  0.5972
   97MPD2    C3 1480   4.715   2.479   1.301  0.0433  0.1178  0.2637
   97MPD2    C4 1481   0.097   2.559   1.367  0.4669  0.4704  0.3162
   97MPD2    C5 1482   0.068   2.611   1.493 -0.5433  0.6030 -0.1576
   97MPD2     H 1483   4.525   2.379   1.333 -0.0826  0.3107 -0.3956
   97MPD2    H1 1484   0.188   2.595   1.320  0.1216 -1.7165 -2.0174
   97MPD2    H2 1485   4.653   2.623   1.657 -0.2363  1.8866 -1.2124
   97MPD2    H3 1486   0.144   2.673   1.540  0.7188 -0.9352 -0.1261
   97MPD2     N 1487   0.018   2.463   1.165  0.3167  0.4864  0.7978
   97MPD2    H5 1488   0.097   2.511   1.124  0.3430 -1.0617 -0.9823
   97MPD2    N1 1489   4.460   2.467   1.572  0.2322  0.2975 -0.5584
   97MPD2    H7 1490   4.447   2.515   1.660  0.5290  1.1905 -1.0046
   98TCq2    C1 1491   4.651   2.397   1.073  0.1664  0.0920 -0.7591
   98TCq2    O2 1492   4.542   2.342   1.091 -0.5204  0.3450  0.0754
   98TCq2    C2 1493   4.696   2.413   0.944 -0.4182 -0.1065 -0.0618
   98TCq2    C3 1494   0.117   2.406   0.918 -0.0131 -0.1719  0.3216
   98TCq2    C4 1495   0.147   2.416   0.782  0.5863  0.3005  0.3342
   98TCq2    C5 1496   0.063   2.420   0.683 -0.0471  0.2270 -0.7795
   98TCq2    C6 1497   4.647   2.428   0.715 -0.0223 -0.1537  0.4262
   98TCq2    C7 1498   4.608   2.427   0.846 -0.3922  0.4741  0.0423
   98TCq2    C8 1499   4.554   2.476   0.611 -0.0366  0.1890  0.8180
   98TCq2    O4 1500   4.443   2.510   0.657 -0.1255 -0.2348 -0.1719
   98TCq2    C9 1501   0.284   2.443   0.751 -0.7841 -0.5063 -0.0326
   98TCq2    O5 1502   0.356   2.480   0.849  0.0497  0.0458  0.3695
   98TCq2    O6 1503   0.322   2.411   0.639  0.4883  0.8816 -0.5256
   98TCq2    H2 1504   0.190   2.408   0.998 -0.8250  0.8000  1.0326
   98TCq2    H3 1505   0.100   2.458   0.588 -0.4841  0.1335 -0.9889
   98TCq2    H4 1506   4.503   2.434   0.871 -0.5227 -1.8238  0.1390
   99MPD2     C 1507   2.455   0.161   1.625 -0.5840  0.0198  0.5398
   99MPD2    C1 1508   2.351   0.068   1.661 -0.0037 -0.0909 -0.3065
   99MPD2    C2 1509   2.369   4.650   1.625  0.4547  0.0886 -0.1185
   99MPD2    C3 1510   2.480   4.611   1.554 -0.2321 -0.1876 -0.6373
   99MPD2    C4 1511   2.583   4.704   1.520 -0.9486 -0.1125  0.1406
   99MPD2    C5 1512   2.562   0.119   1.555 -0.3042 -0.4657 -0.7112
   99MPD2     H 1513   2.288   4.581   1.645 -0.2474  0.7980 -0.5336
   99MPD2    H1 1514   2.681   4.674   1.486 -0.6336  0.5935  0.4187
   99MPD2    H2 1515   2.448   0.268   1.636  2.3980 -0.2753  5.4683
   99MPD2    H3 1516   2.640   0.190   1.529  0.9837 -0.9104  1.8902
   99MPD2     N 1517   2.499   4.474   1.513 -0.4166  0.4070  0.4008
   99MPD2    H5 1518   2.429   4.412   1.551 -0.1392  0.2021  0.5838
   99MPD2    N1 1519   2.233   0.108   1.740  0.6993 -0.3270  0.3428
   99MPD2    H7 1520   2.171   0.033   1.767 -0.2188  0.6866  1.0390
  100TCq2    C1 1521   2.222   0.230   1.799 -0.3394 -0.1684 -0.1114
  100TCq2    O2 1522   2.296   0.322   1.781  0.4010  0.8101  0.2259
  100TCq2    C2 1523   2.103   0.251   1.881  0.6776  0.0766 -0.5700
  100TCq2    C3 1524   2.081   0.375   1.927  0.1413 -0.1357  0.3999
  100TCq2    C4 1525   1.974   0.410   2.002  0.2866  0.0991  0.5949
  100TCq2    C5 1526   1.904   0.304   2.051 -0.2132 -0.5056  0.1989
  100TCq2    C6 1527   1.927   0.183   2.006  0.0079  0.0510  0.1453
  100TCq2    C7 1528   2.035   0.146   1.929 -0.1819  0.4501 -0.2409
  100TCq2    C8 1529   1.857   0.071   2.073  0.5860 -0.1878  0.2187
  100TCq2    O4 1530   1.802   0.090   2.181  0.0530 -0.4898 -0.5830
  100TCq2    C9 1531   1.961   0.546   2.056 -0.0941 -0.1881  0.5913
  100TCq2    O5 1532   2.058   0.628   2.037  0.2612  0.2177  0.3030
  100TCq2    O6 1533   1.855   0.563   2.119 -0.4542 -0.4294  0.2380
  100TCq2    H2 1534   2.149   0.456   1.902 -0.0459 -1.0622 -3.0946
  100TCq2    H3 1535   1.822   0.315   2.120  0.9113 -0.9098  1.6008
  100TCq2    H4 1536   2.073   0.045   1.939 -0.4231  0.4063  0.2369
  101MPD2     C 1537   3.390   0.700  12.673  0.9104 -0.0199  0.3798
  101MPD2    C1 1538   3.281   0.773  12.714 -0.1939  0.7070  0.6518
  101MPD2    C2 1539   3.204   0.713  12.813  0.0371 -0.0652  0.3354
  101MPD2    C3 1540   3.238   0.593  12.870  0.2589  0.1922  0.2448
  101MPD2    C4 1541   3.353   0.527  12.835 -0.7122 -0.3741 -0.3974
  101MPD2    C5 1542   3.430   0.591  12.745 -0.1124 -0.5127 -0.5764
  101MPD2     H 1543   3.119   0.772  12.847 -0.7465 -0.9044 -0.1621
  101MPD2    H1 1544   3.382   0.442  12.896  0.9831  1.7708  1.7920
  101MPD2    H2 1545   3.464   0.728  12.599  0.1217 -1.2718 -0.8907
  101MPD2    H3 1546   3.530   0.554  12.725  0.1865 -0.6929  1.2147
  101MPD2     N 1547   3.148   0.541  12.964  0.2617  0.5169 -0.3129
  101MPD2    H5 1548   3.071   0.602  12.991  0.6651  0.6501  0.5326
  101MPD2    N1 1549   3.248   0.900  12.651  0.7551  0.1955  0.3908
  101MPD2    H7 1550   3.310   0.919  12.572 -0.8489  0.4551 -0.7920
  102TCq2    C1 1551   3.425   1.297  12.428 -0.3445  0.0865 -0.6484
  102TCq2    O2 1552   3.519   1.238  12.472  0.6363 -0.0614 -0.3203
  102TCq2    C2 1553   3.300   1.278  12.499  0.1916 -0.6448 -0.0498
  102TCq2    C3 1554   3.190   1.353  12.469 -0.1290 -0.2017  0.3455
  102TCq2    C4 1555   3.073   1.304  12.517 -0.2391  0.0710 -0.0509
  102TCq2    C5 1556   3.066   1.193  12.608 -0.3239 -0.5601 -0.1626
  102TCq2    C6 1557   3.177   1.126  12.629 -0.5351  0.3482 -0.4839
  102TCq2    C7 1558   3.297   1.162  12.576 -0.0056  0.0034 -0.3997
  102TCq2    C8 1559   3.149   0.992  12.682 -0.0718 -0.5892  0.1956
  102TCq2    O4 1560   3.051   0.975  12.749  0.0923  0.1036 -0.3109
  102TCq2    C9 1561   2.950   1.373  12.496  0.8328 -0.3188 -0.0671
  102TCq2    O5 1562   2.957   1.497  12.462 -0.2111 -0.1481  0.5392
  102TCq2    O6 1563   2.848   1.302  12.498 -0.0405 -0.4186  0.5119
  102TCq2    H2 1564   3.186   1.448  12.417  0.2230 -0.0369  0.6207
  102TCq2    H3 1565   2.968   1.151  12.632 -0.7224 -0.4411 -1.5904
  102TCq2    H4 1566   3.387   1.105  12.597  0.4664  1.5908  1.8056
  103TMC2    C1 1567   2.006   0.552  12.707 -0.1291 -0.0168  1.0901
  103TMC2    C2 1568   2.141   0.548  12.724 -0.3222 -0.1370  0.6032
  103TMC2    C3 1569   2.191   0.596  12.840  0.2948 -0.0403 -0.6261
  103TMC2    C4 1570   1.924   0.610  12.799  0.0388 -0.4487  0.0336
  103TMC2    C5 1571   1.979   0.659  12.915  0.3207  0.1528  0.0754
  103TMC2    C6 1572   2.116   0.657  12.936 -0.2318 -0.2525 -0.3249
  103TMC2     C 1573   1.934   0.449  12.633  0.1904 -0.7377 -0.3117
  103TMC2     O 1574   1.814   0.440  12.642  0.0875 -0.0192 -0.1970
  103TMC2     H 1575   2.207   0.507  12.649  0.7949  0.2642  1.3737
  103TMC2    H1 1576   1.821   0.629  12.770 -0.3517 -2.1942  0.2983
  103TMC2    H2 1577   2.162   0.683  13.030 -0.0140 -0.0983 -0.4740
  103TMC2    C7 1578   1.905   0.650  13.042 -0.4374 -0.5040 -0.3631
  103TMC2    C8 1579   2.339   0.613  12.844  0.1871 -0.0955 -0.6925
  103TMC2    O1 1580   1.966   0.696  13.137 -0.2167  0.3672 -0.2163
  103TMC2    O2 1581   2.410   0.550  12.769 -0.2106 -0.0077 -0.3437
  103TMC2    O5 1582   2.365   0.738  12.881 -0.7768  0.0687 -0.5426
  103TMC2    H5 1583   2.288   0.789  12.915  0.4130  1.1694  0.5154
  104MPD2     C 1584   2.083   0.209  12.398  0.2702 -0.3748 -0.4231
  104MPD2    C1 1585   1.978   0.276  12.456  0.0385  0.4492  0.1385
  104MPD2    C2 1586   1.850   0.250  12.410 -0.2410  0.2187 -0.2893
  104MPD2    C3 1587   1.823   0.149  12.321 -0.0766 -0.1810  0.2442
  104MPD2    C4 1588   1.925   0.073  12.271 -0.0188 -0.2201  0.7700
  104MPD2    C5 1589   2.051   0.107  12.314  0.0011  0.0737 -0.1852
  104MPD2     H 1590   1.770   0.306  12.456 -1.3617 -0.8996 -0.8909
  104MPD2    H1 1591   1.915   0.003  12.189  2.2490 -1.2385  1.3558
  104MPD2    H2 1592   2.188   0.218  12.423  0.0101  0.2340  0.4857
  104MPD2    H3 1593   2.135   0.056  12.269  1.0670  1.5315  0.1753
  104MPD2     N 1594   1.689   0.135  12.265  0.2464  0.2989  0.6625
  104MPD2    H5 1595   1.629   0.215  12.282 -1.2511 -0.6033 -0.4353
  104MPD2    N1 1596   2.015   0.373  12.556  0.1429  0.0609 -0.2801
  104MPD2    H7 1597   2.116   0.385  12.564  0.1980 -0.1609 -0.6360
  105MPD2     C 1598   3.121   0.033   0.028 -0.0371 -0.9471  0.2293
  105MPD2    C1 1599   2.996   0.090   0.005  0.0399  0.1793 -0.1187
  105MPD2    C2 1600   2.896   0.074   0.099 -0.4402  0.5509  0.2378
  105MPD2    C3 1601   2.922   4.715   0.212  0.0252  0.2561  0.4833
  105MPD2    C4 1602   3.047   4.660   0.236  0.3830 -0.2941 -0.6030
  105MPD2    C5 1603   3.144   4.676   0.142  0.2014  1.2718  0.2463
  105MPD2     H 1604   2.798   0.113   0.075 -0.3919  0.8506  0.5348
  105MPD2    H1 1605   3.074   4.596   0.319  0.8760 -1.9663 -2.0541
  105MPD2    H2 1606   3.198   0.036  17.630  1.3356 -1.2709  1.6011
  105MPD2    H3 1607   3.238   4.626   0.162 -0.5909  0.7871  2.8467
  105MPD2     N 1608   2.809   4.696   0.294 -0.3831  0.3032  0.2589
  105MPD2    H5 1609   2.719   0.022   0.280 -0.3540  0.0207 -0.8265
  105MPD2    N1 1610   2.953   0.156  17.569  0.4995  0.0740 -0.9075
  105MPD2    H7 1611   2.860   0.195  17.570  0.0872 -0.9464  1.9194
  106TCq2    C1 1612   2.805   4.612   0.404  0.3559  0.6336  0.1029
  106TCq2    O2 1613   2.901   4.572   0.474 -0.0143 -0.1747  0.2981
  106TCq2    C2 1614   2.676   4.608   0.464  0.0365 -0.3784 -0.4892
  106TCq2    C3 1615   2.567   4.601   0.387 -0.2833  0.0063 -0.8239
  106TCq2    C4 1616   2.454   4.584   0.449  0.1801  0.5773 -0.1724
  106TCq2    C5 1617   2.431   4.601   0.578  0.3278 -0.6128  0.2689
  106TCq2    C6 1618   2.541   4.617   0.657  0.0033 -0.3506 -0.9402
  106TCq2    C7 1619   2.662   4.622   0.601 -0.4005 -0.5651 -0.8371
  106TCq2    C8 1620   2.534   4.601   0.803  0.0313  0.5530  0.1378
  106TCq2    O4 1621   2.629   4.621   0.872  0.1500 -0.4024  0.1969
  106TCq2    C9 1622   2.346   4.545   0.360 -0.7352  0.5207 -0.6378
  106TCq2    O5 1623   2.243   4.503   0.419 -0.2304  0.4678 -0.2917
  106TCq2    O6 1624   2.356   4.563   0.234 -0.4345 -0.8715  0.2815
  106TCq2    H2 1625   2.577   4.584   0.281 -1.0095 -2.0937 -0.5626
  106TCq2    H3 1626   2.329   4.609   0.615  0.2449  0.0068 -0.1027
  106TCq2    H4 1627   2.749   4.628   0.665 -0.7357  3.7571 -0.8222
  107TMC2    C1 1628   4.114   3.489  11.414 -0.5741  0.2856  0.0361
  107TMC2    C2 1629   4.139   3.374  11.485 -0.2483 -0.4815  0.0237
  107TMC2    C3 1630   4.220   3.281  11.422  0.1958  0.0876  0.2517
  107TMC2    C4 1631   4.150   3.509  11.284 -0.6044 -0.8060 -0.3315
  107TMC2    C5 1632   4.239   3.416  11.231 -0.3224 -0.4134 -0.0605
  107TMC2    C6 1633   4.271   3.301  11.300  0.2274  0.6047  0.5687
  107TMC2     C 1634   4.029   3.584  11.487  1.4526 -0.4911 -0.3230
  107TMC2     O 1635   3.969   3.536  11.584 -0.2958  0.2085 -0.8013
  107TMC2     H 1636   4.106   3.350  11.585  2.1871 -0.0836  0.9346
  107TMC2    H1 1637   4.111   3.589  11.221 -1.3059  1.1097  2.5488
  107TMC2    H2 1638   4.346   3.242  11.248 -1.6042 -0.3879 -0.9298
  107TMC2    C7 1639   4.266   3.436  11.092 -0.8718  0.2856 -0.0857
  107TMC2    C8 1640   4.282   3.177  11.504  0.3707 -0.0183  0.0507
  107TMC2    O1 1641   4.217   3.536  11.048 -0.1163  0.3200  0.3677
  107TMC2    O2 1642   4.280   3.159  11.626 -0.0823 -0.0959  0.1002
  107TMC2    O5 1643   4.334   3.077  11.422 -0.0756  0.0536  0.5921
  107TMC2    H5 1644   4.338   3.080  11.324  2.2113 -0.9754  0.6488
  108MPD2     C 1645   3.983   3.936  11.402 -0.0657  0.4119  0.1621
  108MPD2    C1 1646   3.960   3.819  11.472 -0.6771 -0.1452 -0.1279
  108MPD2    C2 1647   3.874   3.827  11.575  0.4034  0.6433 -0.7902
  108MPD2    C3 1648   3.803   3.936  11.607 -0.4577 -0.2283 -0.4216
  108MPD2    C4 1649   3.827   4.049  11.534  0.1007 -0.3581 -0.8760
  108MPD2    C5 1650   3.912   4.043  11.428 -0.4964 -0.3539  0.6434
  108MPD2     H 1651   3.848   3.732  11.620  1.4645  1.3930  1.4381
  108MPD2    H1 1652   3.776   4.143  11.549  0.1693 -1.1582  4.7314
  108MPD2    H2 1653   4.053   3.947  11.319  0.1327 -0.4390  0.2156
  108MPD2    H3 1654   3.943   4.139  11.387 -2.0995  1.3143  3.2782
  108MPD2     N 1655   3.708   3.953  11.713 -0.1569 -0.2619  0.6041
  108MPD2    H5 1656   3.670   4.046  11.728 -1.6012 -0.6495 -0.7088
  108MPD2    N1 1657   4.036   3.709  11.430 -0.7066  0.2829 -0.1321
  108MPD2    H7 1658   4.102   3.723  11.355  3.0602 -0.1708  3.1106
  109MPD2     C 1659   2.887   1.514   2.166  0.4272 -0.2575  0.0534
  109MPD2    C1 1660   2.934   1.572   2.053  0.3773  0.5196  0.1496
  109MPD2    C2 1661   3.070   1.576   2.040 -0.1178  0.3697  0.6115
  109MPD2    C3 1662   3.161   1.498   2.119  0.0676  0.2074 -0.5219
  109MPD2    C4 1663   3.108   1.428   2.222  0.6451  0.6206  0.5344
  109MPD2    C5 1664   2.974   1.444   2.246  0.3163  0.2617  0.0487
  109MPD2     H 1665   3.117   1.614   1.950  4.3069 -2.6702  1.6328
  109MPD2    H1 1666   3.163   1.364   2.291 -0.8747 -1.1442  0.1101
  109MPD2    H2 1667   2.782   1.511   2.193  0.6476 -1.4776  0.7190
  109MPD2    H3 1668   2.935   1.399   2.337 -1.1589  1.6302  0.0935
  109MPD2     N 1669   3.299   1.504   2.086  0.4654 -0.5306  0.2865
  109MPD2    H5 1670   3.324   1.554   2.001  1.0179  1.1831  1.4511
  109MPD2    N1 1671   2.842   1.649   1.974 -0.3476 -0.1447  0.4087
  109MPD2    H7 1672   2.744   1.635   1.995 -1.0886  0.9163 -2.3179
  110TCq2    C1 1673   3.402   1.441   2.160  0.5777 -0.3286 -0.6436
  110TCq2    O2 1674   3.393   1.371   2.259  0.1381 -0.3376  0.2117
  110TCq2    C2 1675   3.534   1.465   2.112  0.4769 -0.4215 -0.1344
  110TCq2    C3 1676   3.626   1.380   2.155 -0.7776  0.3387  0.2435
  110TCq2    C4 1677   3.760   1.415   2.135  0.9153  0.8264 -0.4478
  110TCq2    C5 1678   3.792   1.537   2.085  0.9393  0.1322 -0.0713
  110TCq2    C6 1679   3.691   1.620   2.035  0.1236  0.1838 -0.0005
  110TCq2    C7 1680   3.560   1.590   2.050  0.4763 -0.3907  0.4330
  110TCq2    C8 1681   3.726   1.737   1.959  0.2808  0.3932  0.4397
  110TCq2    O4 1682   3.834   1.791   1.971  0.4616  0.1775  0.2175
  110TCq2    C9 1683   3.855   1.319   2.186 -0.5593 -0.7156 -0.3968
  110TCq2    O5 1684   3.979   1.342   2.166 -1.1431  0.5939 -0.2363
  110TCq2    O6 1685   3.815   1.255   2.287  0.3438  0.2450 -0.1205
  110TCq2    H2 1686   3.593   1.289   2.203 -0.8536  0.7087  0.9013
  110TCq2    H3 1687   3.891   1.561   2.048  1.1441 -0.9981 -0.2390
  110TCq2    H4 1688   3.480   1.653   2.014  0.8848 -0.8426 -1.2523
  111TMC2    C1 1689   4.235   1.673  11.239 -0.1067 -0.1534 -0.1478
  111TMC2    C2 1690   4.331   1.709  11.149 -0.0275  0.1442  0.8930
  111TMC2    C3 1691   4.458   1.725  11.198  0.8859  0.1623  0.4714
  111TMC2    C4 1692   4.268   1.644  11.375 -0.0245 -0.6407  0.5168
  111TMC2    C5 1693   4.400   1.643  11.410 -0.4469  0.2524 -0.5949
  111TMC2    C6 1694   4.495   1.688  11.322 -0.9480  0.1469 -0.2102
  111TMC2     C 1695   4.104   1.642  11.189  0.4050 -0.1638  0.1143
  111TMC2     O 1696   4.084   1.641  11.067  0.0014  0.1037 -0.1101
  111TMC2     H 1697   4.315   1.697  11.043  2.1973  3.8410  0.1277
  111TMC2    H1 1698   4.197   1.617  11.453 -0.4868 -1.2720 -0.1301
  111TMC2    H2 1699   4.596   1.711  11.355 -0.8297  0.5964 -0.8670
  111TMC2    C7 1700   4.426   1.602  11.547  0.1627 -0.5168  0.4330
  111TMC2    C8 1701   4.565   1.736  11.105 -0.3946 -0.4268  0.2977
  111TMC2    O1 1702   4.329   1.605  11.623 -0.2819 -0.1829 -0.1480
  111TMC2    O2 1703   4.679   1.700  11.119  0.7051  0.2858  0.0066
  111TMC2    O5 1704   4.524   1.834  11.024 -0.5804 -0.2549  0.2033
  111TMC2    H5 1705   4.435   1.866  11.050 -1.6651 -1.7419 -1.6753
  112MPD2     C 1706   3.652   1.395  11.283 -0.0997 -0.6213  0.1881
  112MPD2    C1 1707   3.727   1.401  11.173 -0.7674 -0.2834 -0.4154
  112MPD2    C2 1708   3.851   1.472  11.168  0.6352 -0.0483 -0.2023
  112MPD2    C3 1709   3.894   1.541  11.282 -0.5146 -0.0653  0.1288
  112MPD2    C4 1710   3.816   1.530  11.394  0.0677 -0.1564  0.0901
  112MPD2    C5 1711   3.704   1.442  11.402  0.4852  0.4382  0.0674
  112MPD2     H 1712   3.907   1.478  11.076  1.1800  2.0008  0.2569
  112MPD2    H1 1713   3.850   1.582  11.483 -0.0581  2.1708 -1.2416
  112MPD2    H2 1714   3.564   1.334  11.299 -0.3062 -0.2669  0.4022
  112MPD2    H3 1715   3.642   1.445  11.491  1.0198  0.5212  0.4336
  112MPD2     N 1716   4.018   1.612  11.294  0.0275 -0.0290 -0.0761
  112MPD2    H5 1717   4.052   1.645  11.384  1.1020  1.0290 -0.8754
  112MPD2    N1 1718   3.679   1.342  11.056 -0.0892 -0.7744 -0.5541
  112MPD2    H7 1719   3.733   1.357  10.971 -0.1769  0.0805 -0.4538
  113MPD2     C 1720   1.954   4.166   1.166  0.6382  0.7971 -0.5563
  113MPD2    C1 1721   1.825   4.113   1.193 -0.0888  1.1227 -0.7356
  113MPD2    C2 1722   1.773   4.013   1.111 -0.2471  0.5891 -0.1343
  113MPD2    C3 1723   1.843   3.942   1.016  0.5631  0.0334 -0.0385
  113MPD2    C4 1724   1.965   3.994   0.990 -1.1097 -0.1968  0.3268
  113MPD2    C5 1725   2.015   4.103   1.059  0.4924 -0.2154 -0.0234
  113MPD2     H 1726   1.677   3.973   1.142 -1.5534  1.1142 -3.5425
  113MPD2    H1 1727   2.031   3.940   0.924  2.1407  2.0528  1.6905
  113MPD2    H2 1728   2.012   4.238   1.223  1.3384 -1.4462  1.5572
  113MPD2    H3 1729   2.117   4.126   1.030 -0.5344  1.5176 -2.2689
  113MPD2     N 1730   1.791   3.837   0.936 -0.1254 -0.5167 -0.0659
  113MPD2    H5 1731   1.849   3.800   0.860 -0.5489 -0.5836 -0.3584
  113MPD2    N1 1732   1.745   4.178   1.280 -0.2381 -0.7089 -0.2924
  113MPD2    H7 1733   1.645   4.160   1.268 -0.1526 -1.0774 -0.4359
  114TCq2    C1 1734   1.681   3.761   0.977 -0.1046  0.4544 -0.2533
  114TCq2    O2 1735   1.621   3.744   1.082  0.2053  0.5565  0.1807
  114TCq2    C2 1736   1.627   3.685   0.863 -0.5833 -0.3858 -0.0160
  114TCq2    C3 1737   1.608   3.759   0.744 -0.5870  0.5338  0.1132
  114TCq2    C4 1738   1.513   3.726   0.652 -0.2450 -0.2573  0.3055
  114TCq2    C5 1739   1.429   3.622   0.674 -0.1128  0.3038  0.1144
  114TCq2    C6 1740   1.442   3.553   0.798 -0.3859  0.5181  0.0001
  114TCq2    C7 1741   1.536   3.587   0.892 -0.1439 -0.3409  0.1261
  114TCq2    C8 1742   1.336   3.464   0.822  0.3266  0.2561 -0.8536
  114TCq2    O4 1743   1.291   3.413   0.720 -0.5604  0.2031  0.0528
  114TCq2    C9 1744   1.495   3.798   0.527  0.9535 -0.3834 -0.6529
  114TCq2    O5 1745   1.586   3.881   0.510 -0.5266  0.1846 -0.2876
  114TCq2    O6 1746   1.401   3.769   0.445  0.2678 -0.0215  0.1103
  114TCq2    H2 1747   1.671   3.846   0.734  0.5330 -0.4233 -1.1305
  114TCq2    H3 1748   1.348   3.601   0.606 -1.2160  0.5360  1.3488
  114TCq2    H4 1749   1.563   3.510   0.964  0.7195 -0.2896 -0.1381
  115TMC2    C1 1750   2.260   2.417  17.265  0.3516 -0.5251  0.2391
  115TMC2    C2 1751   2.200   2.471  17.156  0.0975 -0.9475  0.4184
  115TMC2    C3 1752   2.249   2.587  17.100  0.4035  1.0788  0.0175
  115TMC2    C4 1753   2.376   2.477  17.320  0.4979  0.8325 -0.5788
  115TMC2    C5 1754   2.426   2.586  17.256 -0.3128 -0.0169 -0.2189
  115TMC2    C6 1755   2.363   2.638  17.149  0.2939  0.0243 -0.1363
  115TMC2     C 1756   2.206   2.296  17.320 -0.0192 -0.2274  0.5183
  115TMC2     O 1757   2.149   2.217  17.242 -0.1050 -0.0678  0.1203
  115TMC2     H 1758   2.112   2.420  17.119 -0.2504  0.0403 -0.0957
  115TMC2    H1 1759   2.435   2.432  17.399 -1.2831 -0.0514  0.2402
  115TMC2    H2 1760   2.417   2.714  17.094  0.8954  0.8105  1.5505
  115TMC2    C7 1761   2.493   2.680  17.344  0.0893 -0.6122  0.5308
  115TMC2    C8 1762   2.187   2.647  16.981 -0.2328 -0.2000  0.1426
  115TMC2    O1 1763   2.497   2.650  17.463  0.6278 -0.0422  0.2507
  115TMC2    O2 1764   2.255   2.710  16.900 -0.7153  0.0295 -0.1118
  115TMC2    O5 1765   2.061   2.595  16.958  0.0105  0.0322  0.0169
  115TMC2    H5 1766   2.024   2.558  17.041  1.0674  1.6015  1.1920
  116MPD2     C 1767   2.059   2.020   0.042 -0.3384  0.6154 -0.1276
  116MPD2    C1 1768   2.032   2.003  17.587 -0.3288  0.2365  0.6123
  116MPD2    C2 1769   2.087   2.094  17.500  0.4238 -0.4985 -0.7136
  116MPD2    C3 1770   2.162   2.199  17.544 -0.8810  0.5888 -0.4502
  116MPD2    C4 1771   2.196   2.208  17.673  0.1849  0.3225  0.6925
  116MPD2    C5 1772   2.146   2.118   0.085  0.2885  0.1437 -0.0798
  116MPD2     H 1773   2.069   2.077  17.394  1.3145 -0.0363 -0.9418
  116MPD2    H1 1774   2.263   2.285   0.032 -0.2946 -0.1203  2.4844
  116MPD2    H2 1775   2.016   1.959   0.122  0.8031 -1.2998 -0.9714
  116MPD2    H3 1776   2.158   2.140   0.190 -2.9215  0.2630  0.2673
  116MPD2     N 1777   2.219   2.290  17.455  0.1854 -0.4400  0.1454
  116MPD2    H5 1778   2.263   2.367  17.505 -1.0544 -0.3557  1.0972
  116MPD2    N1 1779   1.944   1.908  17.527  0.3587  0.6235  0.5159
  116MPD2    H7 1780   1.924   1.920  17.429 -0.4581  0.7866  0.7040
  117TMC2    C1 1781   0.797   3.430  13.757  0.1618 -0.3642 -0.3082
  117TMC2    C2 1782   0.875   3.347  13.685 -0.4848  0.0419  0.1328
  117TMC2    C3 1783   1.009   3.373  13.683  0.3297 -0.3343 -0.2611
  117TMC2    C4 1784   0.845   3.533  13.833  0.6825  0.0065 -0.3474
  117TMC2    C5 1785   0.981   3.550  13.827 -0.5391  0.7489  0.8609
  117TMC2    C6 1786   1.067   3.469  13.760  0.0768 -0.1652  0.6320
  117TMC2     C 1787   0.655   3.425  13.723  0.4146  0.5462  0.0112
  117TMC2     O 1788   0.641   3.377  13.611  0.3421  0.2511 -0.0336
  117TMC2     H 1789   0.831   3.259  13.639  0.1937 -0.1324 -0.1745
  117TMC2    H1 1790   0.784   3.607  13.883  0.0775 -2.5386  2.6520
  117TMC2    H2 1791   1.175   3.464  13.765  0.0128 -0.0765  1.9212
  117TMC2    C7 1792   1.034   3.625  13.940  0.8136  0.1756  0.2915
  117TMC2    C8 1793   1.090   3.287  13.602  0.6919  0.3905 -0.1594
  117TMC2    O1 1794   0.953   3.700  13.989 -0.2258 -0.3983 -0.5206
  117TMC2    O2 1795   1.203   3.247  13.631 -0.0750 -0.0243  0.2774
  117TMC2    O5 1796   1.037   3.300  13.476  0.3507 -0.2290  0.4211
  117TMC2    H5 1797   0.942   3.324  13.485  0.7500  1.4939 -0.0069
  118MPD2     C 1798   1.367   3.595  14.110 -0.1658 -0.6657 -0.4249
  118MPD2    C1 1799   1.232   3.637  14.093  0.2836 -0.3881 -0.2403
  118MPD2    C2 1800   1.175   3.727  14.181  0.7263 -1.0092  0.0385
  118MPD2    C3 1801   1.245   3.772  14.287  0.3418  0.4355 -0.1508
  118MPD2    C4 1802   1.375   3.732  14.305 -0.3827  0.6586 -0.1783
  118MPD2    C5 1803   1.437   3.643  14.210  0.0699  0.4422  0.2426
  118MPD2     H 1804   1.072   3.760  14.172  0.7436 -1.8560 -3.1718
  118MPD2    H1 1805   1.437   3.769  14.385  1.2317 -1.5269 -0.4198
  118MPD2    H2 1806   1.415   3.526  14.041  0.0784  0.1725 -1.0982
  118MPD2    H3 1807   1.544   3.629  14.219  0.1802  0.3294 -1.2397
  118MPD2     N 1808   1.183   3.858  14.383  0.0143 -0.5164  0.6706
  118MPD2    H5 1809   1.246   3.887  14.456  1.9992 -1.3923 -0.6753
  118MPD2    N1 1810   1.162   3.593  13.977 -1.1781  1.2355  0.3764
  118MPD2    H7 1811   1.214   3.538  13.909 -1.4916 -0.9260  1.8901
  119MPD2     C 1812   4.555   0.385  14.296  0.6513 -0.0587 -0.2385
  119MPD2    C1 1813   4.418   0.367  14.295  0.2291  0.3584  0.0863
  119MPD2    C2 1814   4.342   0.446  14.208  0.3236  0.6582  0.4394
  119MPD2    C3 1815   4.406   0.535  14.119  1.1114 -0.3106 -0.2184
  119MPD2    C4 1816   4.542   0.546  14.124 -0.1508  0.0121  0.3018
  119MPD2    C5 1817   4.612   0.475  14.213 -0.0171 -0.2897 -0.1568
  119MPD2     H 1818   4.234   0.454  14.211  0.1890 -0.5622 -1.0204
  119MPD2    H1 1819   4.599   0.606  14.054  0.9758  0.8118  1.9064
  119MPD2    H2 1820   4.619   0.351  14.377  1.2836  1.6233 -0.0318
  119MPD2    H3 1821   4.719   0.493  14.216  0.3938 -2.4971 -1.3085
  119MPD2     N 1822   4.339   0.591  14.010  0.4902  0.0150 -0.0962
  119MPD2    H5 1823   4.394   0.644  13.944  1.8235 -2.8010 -1.2468
  119MPD2    N1 1824   4.360   0.273  14.380  0.5880  0.0638 -0.4731
  119MPD2    H7 1825   4.424   0.227  14.445 -1.7495 -1.3089  0.8958
  120TCq2    C1 1826   4.213   0.567  13.964  0.4405 -0.2380  0.3621
  120TCq2    O2 1827   4.124   0.505  14.028  0.4867  0.2019 -0.4861
  120TCq2    C2 1828   4.188   0.605  13.825 -0.1712  0.2304  0.2458
  120TCq2    C3 1829   4.287   0.662  13.748 -0.5601  0.4196 -0.7430
  120TCq2    C4 1830   4.274   0.668  13.616  0.7405  0.7187 -0.1537
  120TCq2    C5 1831   4.162   0.615  13.558 -0.2607 -0.0493  0.9078
  120TCq2    C6 1832   4.059   0.572  13.636 -0.2074 -0.0698 -0.9429
  120TCq2    C7 1833   4.065   0.576  13.771 -0.1183  0.1673 -0.0207
  120TCq2    C8 1834   3.953   0.508  13.571  0.2998 -0.1545  0.3738
  120TCq2    O4 1835   3.941   0.520  13.451 -0.4244 -0.6562 -0.2670
  120TCq2    C9 1836   4.366   0.732  13.525  1.3168 -0.2696  0.0474
  120TCq2    O5 1837   4.479   0.766  13.580  0.2598  0.0493  0.3777
  120TCq2    O6 1838   4.344   0.735  13.399 -0.4210  0.3229 -0.0909
  120TCq2    H2 1839   4.378   0.702  13.790 -1.3382  0.4323  0.9231
  120TCq2    H3 1840   4.154   0.615  13.450 -0.9695  0.2706  0.9630
  120TCq2    H4 1841   3.980   0.550  13.833  0.7421  1.5412  1.7516
  121TMC2    C1 1842   0.549   1.769  14.514 -1.0301  0.3120  0.3319
  121TMC2    C2 1843   0.505   1.706  14.630 -0.0852 -0.1438  0.2279
  121TMC2    C3 1844   0.385   1.644  14.631  0.2160  0.3248  0.2440
  121TMC2    C4 1845   0.471   1.766  14.392 -0.5546 -0.4382  0.4824
  121TMC2    C5 1846   0.346   1.714  14.408 -0.3212 -0.4630 -0.4724
  121TMC2    C6 1847   0.298   1.655  14.522 -0.2794  0.1716  0.1351
  121TMC2     C 1848   0.686   1.817  14.511  0.5098  0.2631 -0.3881
  121TMC2     O 1849   0.731   1.845  14.619 -0.1165  0.1585  0.2634
  121TMC2     H 1850   0.580   1.675  14.702  0.0421  1.5287  0.7938
  121TMC2    H1 1851   0.496   1.823  14.303  2.5733  1.1163  2.3610
  121TMC2    H2 1852   0.205   1.599  14.519 -0.0207 -0.2372 -0.4134
  121TMC2    C7 1853   0.273   1.691  14.277 -0.4106 -0.3655 -0.4580
  121TMC2    C8 1854   0.343   1.539  14.732 -0.8653  0.7293  0.5552
  121TMC2    O1 1855   0.342   1.693  14.178 -0.3782  0.3886  0.2344
  121TMC2    O2 1856   0.255   1.459  14.709  0.0102  0.2648  0.5469
  121TMC2    O5 1857   0.455   1.498  14.798 -0.2699  0.0929  0.0897
  121TMC2    H5 1858   0.525   1.567  14.807 -2.3267  1.9282  1.9362
  122MPD2     C 1859   0.948   1.918  14.453 -0.2627 -0.0987 -0.4094
  122MPD2    C1 1860   0.863   1.872  14.353 -0.1992  0.1052 -0.5825
  122MPD2    C2 1861   0.919   1.871  14.221 -0.3672 -0.3184  0.1483
  122MPD2    C3 1862   1.045   1.907  14.185 -0.5030  0.5734  0.6310
  122MPD2    C4 1863   1.126   1.957  14.289 -0.8112  0.2944 -0.7883
  122MPD2    C5 1864   1.075   1.966  14.419 -0.1923 -0.1173 -0.3295
  122MPD2     H 1865   0.859   1.831  14.141  0.8459 -3.5938  0.8622
  122MPD2    H1 1866   1.231   1.981  14.284 -0.8117 -0.1820 -2.9393
  122MPD2    H2 1867   0.930   1.938  14.558 -0.7672 -0.4412 -0.4301
  122MPD2    H3 1868   1.133   2.005  14.501  2.1012 -2.1387 -0.9793
  122MPD2     N 1869   1.099   1.900  14.056 -0.3398  0.2205 -0.6217
  122MPD2    H5 1870   1.201   1.895  14.053 -0.4219 -2.2756  1.2885
  122MPD2    N1 1871   0.733   1.829  14.380  1.0695 -0.5207 -0.4906
  122MPD2    H7 1872   0.678   1.800  14.299  0.6162 -1.3385  0.1086
  123MPD2     C 1873   4.582   4.301   9.424  0.0879 -0.0093 -0.5404
  123MPD2    C1 1874   4.498   4.195   9.380 -0.7254 -0.5624  0.8758
  123MPD2    C2 1875   4.489   4.163   9.245 -0.0456 -1.1265  0.3787
  123MPD2    C3 1876   4.573   4.233   9.159 -0.2461  0.6071 -0.4914
  123MPD2    C4 1877   4.658   4.333   9.206  1.0769 -0.1466  0.1520
  123MPD2    C5 1878   4.660   4.375   9.337 -0.0406  0.1442 -0.4842
  123MPD2     H 1879   4.437   4.080   9.197  0.6455 -1.9701  1.0855
  123MPD2    H1 1880   0.009   4.387   9.143  1.2503 -0.7437 -0.1616
  123MPD2    H2 1881   4.597   4.329   9.528  1.5523 -2.1987 -0.1578
  123MPD2    H3 1882   0.006   4.451   9.379 -0.8349 -0.3010  1.5399
  123MPD2     N 1883   4.554   4.202   9.024 -0.0042 -0.4715  0.2060
  123MPD2    H5 1884   4.498   4.119   9.011  0.0519 -0.5209  0.2804
  123MPD2    N1 1885   4.423   4.121   9.478 -0.4789  0.2372 -0.1843
  123MPD2    H7 1886   4.427   4.159   9.572  1.9538  2.3252 -1.1133
  124TCq2    C1 1887   4.611   4.265   8.919  0.2221  0.3485 -0.1090
  124TCq2    O2 1888   4.691   4.359   8.911 -0.2343 -0.7760  0.7282
  124TCq2    C2 1889   4.581   4.202   8.790 -0.5538  0.0871  0.3161
  124TCq2    C3 1890   4.676   4.171   8.706  0.8472 -0.4257 -0.2778
  124TCq2    C4 1891   4.655   4.078   8.610 -0.4472  0.3097 -0.3951
  124TCq2    C5 1892   4.530   4.018   8.594  0.2573 -0.1923 -0.3884
  124TCq2    C6 1893   4.444   4.045   8.691  0.3164  0.0338 -0.0014
  124TCq2    C7 1894   4.470   4.132   8.792  0.7148 -0.4438  0.3418
  124TCq2    C8 1895   4.322   3.972   8.704  0.0475  0.3802 -0.3693
  124TCq2    O4 1896   4.255   3.976   8.803 -0.0175  0.5071 -0.6404
  124TCq2    C9 1897   0.053   4.030   8.542 -0.3102  0.1923  0.5411
  124TCq2    O5 1898   0.165   4.089   8.564 -0.3657 -0.7533  0.1549
  124TCq2    O6 1899   0.042   3.925   8.482 -0.1435  0.2115  0.3174
  124TCq2    H2 1900   0.053   4.220   8.719  1.3997 -1.1310 -1.7319
  124TCq2    H3 1901   4.523   3.927   8.535  2.2582 -1.3190  1.1399
  124TCq2    H4 1902   4.394   4.171   8.859  1.5173  1.3662  0.2013
  125TMC2    C1 1903   4.476   0.653   9.056 -0.4686  0.1790  0.3212
  125TMC2    C2 1904   4.435   0.542   8.985  0.2499 -0.1740 -0.2852
  125TMC2    C3 1905   4.505   0.429   9.011  0.0779  0.0771 -0.6265
  125TMC2    C4 1906   4.580   0.656   9.138 -0.2085  0.1670  0.5125
  125TMC2    C5 1907   4.653   0.538   9.155 -1.2231  0.1359  0.1032
  125TMC2    C6 1908   4.614   0.426   9.096  0.1908  0.8354 -1.0898
  125TMC2     C 1909   4.387   0.763   9.065  0.7300 -0.2955  0.4802
  125TMC2     O 1910   4.449   0.868   9.082  0.1630 -0.6148 -0.0695
  125TMC2     H 1911   4.357   0.546   8.910 -0.4906  1.1039  0.5741
  125TMC2    H1 1912   4.611   0.753   9.174  1.6863 -0.7787  1.4794
  125TMC2    H2 1913   4.672   0.334   9.094 -2.0613 -0.5740 -1.7878
  125TMC2    C7 1914   0.055   0.532   9.244 -0.2504  0.1005  0.3769
  125TMC2    C8 1915   4.465   0.302   8.957 -0.2139  0.2856 -0.3346
  125TMC2    O1 1916   0.086   0.423   9.295 -0.3579  0.5620  0.0459
  125TMC2    O2 1917   4.545   0.215   8.959 -0.3224 -0.3436  0.1627
  125TMC2    O5 1918   4.366   0.321   8.865 -0.1207  0.4720  0.3285
  125TMC2    H5 1919   4.300   0.394   8.873 -1.9072 -1.1412  0.2453
  126MPD1     C 1920   3.934   1.001   9.091  0.0479 -0.6782  0.2412
  126MPD1    C1 1921   3.911   0.875   9.048  0.1449  0.0203 -0.2154
  126MPD1    C2 1922   4.020   0.790   9.021 -0.3106 -0.2255 -0.0034
  126MPD1    C3 1923   4.150   0.826   9.046  0.3130 -0.4298 -0.5059
  126MPD1    C4 1924   4.163   0.956   9.095 -0.1371 -0.1498 -0.0094
  126MPD1    C5 1925   4.054   1.032   9.133 -0.7672 -0.1380 -0.6061
  126MPD1     H 1926   4.005   0.688   8.987  1.6822 -0.8286  0.8811
  126MPD1    H1 1927   4.257   0.989   9.136 -0.1591  0.5884 -0.5579
  126MPD1    H2 1928   3.856   1.068   9.125 -0.7196 -0.4116 -2.0313
  126MPD1    H3 1929   4.072   1.135   9.161 -1.8704  0.6019 -2.5448
  126MPD1     N 1930   4.258   0.732   9.040  0.6743  0.3689  0.0398
  126MPD1    H5 1931   4.236   0.636   9.015 -0.1616  0.1176  1.6912
  126MPD1    N1 1932   3.780   0.820   9.051  0.3916 -0.4678 -0.8926
  126MPD1    H6 1933   3.703   0.885   9.036  1.2496  0.9386  0.6719
  126MPD1    H7 1934   3.766   0.738   8.992 -2.5883 -0.9181  0.4604
  127MPD2     C 1935   1.238   0.110   9.327 -0.0529 -0.3237 -0.3250
  127MPD2    C1 1936   1.262   0.093   9.459  0.3398  0.2570  0.3996
  127MPD2    C2 1937   1.315   0.203   9.531  0.5236  0.1739 -0.3021
  127MPD2    C3 1938   1.332   0.326   9.469 -0.0176  0.2084 -0.2996
  127MPD2    C4 1939   1.319   0.333   9.327  0.4684 -0.5293  0.5966
  127MPD2    C5 1940   1.270   0.224   9.260  0.1693  0.6683  0.4490
  127MPD2     H 1941   1.343   0.198   9.636  1.5615  0.0710 -0.5851
  127MPD2    H1 1942   1.340   0.426   9.275 -0.5878 -1.0553 -0.7553
  127MPD2    H2 1943   1.195   0.028   9.271  0.2804  1.1760 -2.7664
  127MPD2    H3 1944   1.270   0.230   9.152  1.0216  0.0931  0.4176
  127MPD2     N 1945   1.363   0.433   9.549  0.2060 -0.8525 -0.7479
  127MPD2    H5 1946   1.402   0.411   9.640  0.3261 -1.8128 -1.0319
  127MPD2    N1 1947   1.236   4.686   9.526  0.2250  0.4059  0.4594
  127MPD2    H7 1948   1.181   4.618   9.474 -0.6003  0.6153  1.0742
  128TCq2    C1 1949   1.290   4.641   9.647 -0.1748 -0.2328 -0.3129
  128TCq2    O2 1950   1.392   4.687   9.703 -0.1954 -0.4317  0.8717
  128TCq2    C2 1951   1.224   4.530   9.715  0.7718 -0.4564  0.3389
  128TCq2    C3 1952   1.290   4.480   9.829 -0.5617 -0.5695  0.2180
  128TCq2    C4 1953   1.243   4.362   9.875 -0.5439 -0.2057 -0.2313
  128TCq2    C5 1954   1.138   4.297   9.816 -0.4707 -0.1760 -0.5290
  128TCq2    C6 1955   1.070   4.362   9.716  0.4855  0.1073  0.0314
  128TCq2    C7 1956   1.114   4.481   9.659  0.3074  0.1636 -0.4218
  128TCq2    C8 1957   0.954   4.298   9.649  0.3814 -0.2817 -0.1174
  128TCq2    O4 1958   0.896   4.361   9.562 -0.1429  0.0580 -0.8668
  128TCq2    C9 1959   1.318   4.301   9.983  0.7770 -0.2344  0.2268
  128TCq2    O5 1960   1.389   4.380  10.054 -0.3261 -0.1100  0.0843
  128TCq2    O6 1961   1.288   4.184  10.011  0.2039  0.7990  0.3354
  128TCq2    H2 1962   1.376   4.523   9.878  0.2613  0.0957 -1.8142
  128TCq2    H3 1963   1.140   4.189   9.828  2.0821 -0.1160 -0.4871
  128TCq2    H4 1964   1.070   4.524   9.570  0.2697  1.5868  0.2771
  129MPD2     C 1965   4.044   1.994   1.200 -0.1788 -0.5319 -0.2311
  129MPD2    C1 1966   4.126   1.968   1.310 -0.0042 -0.4660  0.0202
  129MPD2    C2 1967   4.261   1.989   1.296  0.3175 -0.1246 -0.2290
  129MPD2    C3 1968   4.321   2.024   1.176  0.1258  0.1736  0.1138
  129MPD2    C4 1969   4.243   2.045   1.066 -0.2300 -0.8874  0.6588
  129MPD2    C5 1970   4.111   2.033   1.087  0.1648  0.3069 -0.1910
  129MPD2     H 1971   4.329   1.974   1.379 -1.3312  3.3740  1.7539
  129MPD2    H1 1972   4.291   2.071   0.973 -0.8495 -1.0935  0.2804
  129MPD2    H2 1973   3.936   1.982   1.202 -0.0132 -1.8511  0.5664
  129MPD2    H3 1974   4.053   2.048   0.997 -0.4487  0.6616  0.2650
  129MPD2     N 1975   4.456   2.049   1.190 -0.4930 -0.8570  0.1940
  129MPD2    H5 1976   4.494   2.045   1.284  2.4809  1.8423 -0.8853
  129MPD2    N1 1977   4.085   1.906   1.429 -0.0161  0.0674 -0.5787
  129MPD2    H7 1978   4.160   1.877   1.491  1.5863  1.1386 -2.0272
  130TCq2    C1 1979   3.955   1.873   1.465 -0.2418 -0.3462 -0.0314
  130TCq2    O2 1980   3.852   1.893   1.400 -0.0758  0.4241 -0.2435
  130TCq2    C2 1981   3.955   1.776   1.567 -0.0782  0.3606  0.0542
  130TCq2    C3 1982   4.073   1.743   1.625 -0.3412  0.5125  0.0438
  130TCq2    C4 1983   4.068   1.638   1.707  0.7555  0.4441 -0.3252
  130TCq2    C5 1984   3.960   1.554   1.727 -0.2577  0.2568 -0.0759
  130TCq2    C6 1985   3.845   1.587   1.657  0.0115  0.3855 -0.2858
  130TCq2    C7 1986   3.840   1.707   1.587 -0.3059  0.2091  0.4484
  130TCq2    C8 1987   3.718   1.512   1.671 -0.1481  0.0562  0.8430
  130TCq2    O4 1988   3.622   1.546   1.606  0.6213  0.3996  0.7590
  130TCq2    C9 1989   4.179   1.627   1.801 -0.0970  0.4202  0.7520
  130TCq2    O5 1990   4.279   1.698   1.776  0.0147 -0.5984  0.1159
  130TCq2    O6 1991   4.168   1.524   1.869  0.0497  0.7200 -0.0822
  130TCq2    H2 1992   4.152   1.818   1.632  1.4731 -1.2347 -1.6972
  130TCq2    H3 1993   3.955   1.481   1.807  2.0225 -0.1321 -0.2742
  130TCq2    H4 1994   3.753   1.744   1.535 -1.9087 -1.2416  2.0538
  131MPD2     C 1995   3.606   3.754   9.173 -0.0263  0.1442  0.8256
  131MPD2    C1 1996   3.716   3.822   9.128 -0.3593 -0.4918 -0.0674
  131MPD2    C2 1997   3.822   3.832   9.223  0.1009 -0.2869  0.3200
  131MPD2    C3 1998   3.818   3.777   9.351 -0.3921 -0.0970  0.7041
  131MPD2    C4 1999   3.708   3.710   9.391  0.9020 -0.0853  0.0802
  131MPD2    C5 2000   3.599   3.697   9.303 -0.2027 -0.2375 -0.0418
  131MPD2     H 2001   3.913   3.878   9.184 -0.2818 -0.0949 -0.3490
  131MPD2    H1 2002   3.687   3.661   9.485 -0.2580 -0.7207 -0.5050
  131MPD2    H2 2003   3.521   3.742   9.108 -0.7140  0.1685  1.7127
  131MPD2    H3 2004   3.515   3.632   9.326 -0.8855  0.4578 -0.5743
  131MPD2     N 2005   3.941   3.792   9.430  0.0860 -0.2843 -0.0638
  131MPD2    H5 2006   4.024   3.817   9.378  0.3938  0.5469  0.8203
  131MPD2    N1 2007   3.715   3.881   8.997  0.0202 -0.2034  0.5981
  131MPD2    H7 2008   3.633   3.864   8.941  0.4740 -2.3979  0.6118
  132TCq2    C1 2009   4.016   4.120   8.523  0.7282 -0.1082  0.0025
  132TCq2    O2 2010   4.019   4.125   8.400  0.1890 -0.0509 -0.0290
  132TCq2    C2 2011   3.914   4.038   8.590 -0.1429 -0.0725  0.6330
  132TCq2    C3 2012   3.818   3.976   8.516  0.4600 -0.3016  0.1138
  132TCq2    C4 2013   3.725   3.902   8.585  0.4448  0.9342 -0.4962
  132TCq2    C5 2014   3.738   3.887   8.720 -0.8397 -0.9089 -0.4842
  132TCq2    C6 2015   3.824   3.963   8.794 -0.2034 -0.5025 -0.4876
  132TCq2    C7 2016   3.916   4.033   8.730 -0.2508 -0.0369 -0.1720
  132TCq2    C8 2017   3.832   3.934   8.941  0.5157 -0.1264 -0.4918
  132TCq2    O4 2018   3.931   3.985   8.993 -0.6519 -0.1731 -0.0266
  132TCq2    C9 2019   3.628   3.827   8.513  0.1655  0.1009 -0.1057
  132TCq2    O5 2020   3.555   3.743   8.566 -0.3507 -0.6839  0.5221
  132TCq2    O6 2021   3.605   3.874   8.402 -0.0848  0.1459 -0.6250
  132TCq2    H2 2022   3.817   3.978   8.408  3.2718 -1.9834  0.0780
  132TCq2    H3 2023   3.664   3.820   8.763 -0.3363 -1.5779 -0.6608
  132TCq2    H4 2024   4.004   4.067   8.783  0.6708 -1.9569 -0.4452
  133MPD2     C 2025   3.735   1.200   8.783 -0.9777  0.2140  0.4657
  133MPD2    C1 2026   3.797   1.075   8.771 -0.0883 -0.0409 -0.2245
  133MPD2    C2 2027   3.719   0.957   8.780  0.5006  0.0270 -0.2410
  133MPD2    C3 2028   3.586   0.969   8.780 -0.2365  0.1251  0.5831
  133MPD2    C4 2029   3.522   1.091   8.785 -1.2896 -0.3773 -1.0525
  133MPD2    C5 2030   3.597   1.207   8.788 -0.6966 -0.1814  0.6849
  133MPD2     H 2031   3.764   0.858   8.787  0.6194  0.0329 -0.9505
  133MPD2    H1 2032   3.420   1.117   8.811  0.3827  2.3515  2.6607
  133MPD2    H2 2033   3.797   1.289   8.786 -0.0855 -0.3646 -0.9067
  133MPD2    H3 2034   3.542   1.298   8.807  0.4628  0.6492  0.0380
  133MPD2     N 2035   3.513   0.849   8.799 -0.1299  0.7582 -0.2945
  133MPD2    H5 2036   3.565   0.762   8.803  0.3390  0.9343 -2.4730
  133MPD2    N1 2037   3.935   1.073   8.763  0.1575  0.6597 -0.7286
  133MPD2    H7 2038   3.981   1.162   8.782 -1.2769  1.5121 -1.2579
  134TCq2    C1 2039   4.009   0.965   8.721  0.5437  0.1670 -0.4056
  134TCq2    O2 2040   3.980   0.860   8.668 -0.2188  0.1943 -0.4908
  134TCq2    C2 2041   4.151   0.980   8.739  0.1396 -0.0554  0.5045
  134TCq2    C3 2042   4.207   1.101   8.723 -0.4963 -0.5839  0.0968
  134TCq2    C4 2043   4.346   1.109   8.692  0.6828  0.4004  0.2764
  134TCq2    C5 2044   4.428   1.005   8.686  0.2432 -0.9202  0.6880
  134TCq2    C6 2045   4.361   0.888   8.693  0.3466 -0.3329 -0.0415
  134TCq2    C7 2046   4.226   0.871   8.713  0.3707  0.2312 -0.3387
  134TCq2    C8 2047   4.433   0.764   8.701 -0.1770  0.3244 -0.5039
  134TCq2    O4 2048   4.379   0.658   8.678  0.3416  0.5812 -0.1912
  134TCq2    C9 2049   4.405   1.239   8.670  0.2248 -1.0317  0.3844
  134TCq2    O5 2050   4.511   1.238   8.604 -0.1253  0.5093  0.0031
  134TCq2    O6 2051   4.320   1.333   8.667  0.0399  0.1627 -0.1459
  134TCq2    H2 2052   4.161   1.198   8.737  0.3475 -0.0753 -0.6308
  134TCq2    H3 2053   4.533   1.014   8.659  0.3874 -2.9020  0.6479
  134TCq2    H4 2054   4.184   0.771   8.720 -0.1356  0.3518 -1.5936
  135MPD2     C 2055   1.161   1.781   9.557 -0.1813 -0.0922  0.2506
  135MPD2    C1 2056   1.047   1.711   9.519  0.2958  0.2362 -0.8874
  135MPD2    C2 2057   1.067   1.615   9.421  0.0188  1.0035  0.3016
  135MPD2    C3 2058   1.196   1.570   9.393 -0.8271 -0.5854  0.9501
  135MPD2    C4 2059   1.310   1.642   9.443 -0.0957 -0.3289 -0.3115
  135MPD2    C5 2060   1.286   1.751   9.520  0.2889  0.1846 -0.0235
  135MPD2     H 2061   0.978   1.566   9.383  0.6967  0.0059  0.0002
  135MPD2    H1 2062   1.408   1.611   9.408 -0.6785 -0.4533 -1.8650
  135MPD2    H2 2063   1.157   1.873   9.615 -0.3200  0.0257  0.0542
  135MPD2    H3 2064   1.365   1.817   9.555  0.8921  1.2052 -3.3479
  135MPD2     N 2065   1.218   1.447   9.321  0.2681  0.2588 -0.0675
  135MPD2    H5 2066   1.313   1.413   9.330 -0.1861 -1.3879 -1.5464
  135MPD2    N1 2067   0.917   1.737   9.558  0.4752 -0.0848  0.2270
  135MPD2    H7 2068   0.843   1.684   9.513  0.3635  0.1817  0.0972
  136TCq2    C1 2069   0.886   1.806   9.674 -0.3798  0.2333 -0.1285
  136TCq2    O2 2070   0.963   1.848   9.759  0.1647 -0.4785  0.2744
  136TCq2    C2 2071   0.763   1.746   9.732 -0.0852  0.2669 -0.2480
  136TCq2    C3 2072   0.770   1.704   9.864 -0.4103 -0.2251 -1.1861
  136TCq2    C4 2073   0.660   1.639   9.914 -0.3659  0.6318  0.0512
  136TCq2    C5 2074   0.554   1.605   9.838 -0.6121  0.3078 -0.9307
  136TCq2    C6 2075   0.554   1.648   9.707  0.5895 -0.7353  0.4924
  136TCq2    C7 2076   0.652   1.726   9.652  0.0279 -0.0758  0.1220
  136TCq2    C8 2077   0.451   1.602   9.618  0.0676  0.5098 -0.4012
  136TCq2    O4 2078   0.444   1.670   9.515 -0.0371 -0.0124 -0.5299
  136TCq2    C9 2079   0.653   1.595  10.055 -0.4546 -0.5819  0.3420
  136TCq2    O5 2080   0.558   1.527  10.096  0.0783 -0.7936 -0.4594
  136TCq2    O6 2081   0.731   1.656  10.132  0.4783 -0.0095  0.4538
  136TCq2    H2 2082   0.857   1.713   9.928 -0.6435  1.0802 -1.0414
  136TCq2    H3 2083   0.474   1.544   9.880  0.0648  0.9639  1.3004
  136TCq2    H4 2084   0.655   1.753   9.547  4.4171 -2.1858 -0.2751
  137MPD2     C 2085   0.544   0.150   9.651  0.3936  0.3620 -0.0013
  137MPD2    C1 2086   0.607   0.271   9.632 -0.1055  0.1321 -0.8917
  137MPD2    C2 2087   0.669   0.330   9.742  0.4657  0.2540  0.6955
  137MPD2    C3 2088   0.682   0.259   9.862  0.1773 -0.4391  0.1385
  137MPD2    C4 2089   0.621   0.133   9.876  0.0886  0.3463 -0.0587
  137MPD2    C5 2090   0.547   0.083   9.770 -0.5228 -0.0069 -0.8944
  137MPD2     H 2091   0.703   0.432   9.730 -0.5154  0.4860 -0.1118
  137MPD2    H1 2092   0.624   0.067   9.962  1.3977  1.5054  0.7909
  137MPD2    H2 2093   0.501   0.098   9.566  0.8883 -0.9942  0.5934
  137MPD2    H3 2094   0.493   4.709   9.785  0.0738 -0.2158 -0.0405
  137MPD2     N 2095   0.768   0.321   9.956  0.4106 -0.2264  0.3342
  137MPD2    H5 2096   0.802   0.411   9.926  0.7620 -0.4309  0.1259
  137MPD2    N1 2097   0.602   0.329   9.503 -0.7439  0.1852 -0.4822
  137MPD2    H7 2098   0.549   0.278   9.433 -0.7227 -1.0768  0.4273
  138TCq2    C1 2099   0.655   0.451   9.467 -0.4869  0.7776 -0.4524
  138TCq2    O2 2100   0.726   0.524   9.535 -0.4034 -0.2212  0.1621
  138TCq2    C2 2101   0.627   0.505   9.339  0.7205 -0.1758 -0.4827
  138TCq2    C3 2102   0.664   0.636   9.313  0.1613  0.2108  0.6704
  138TCq2    C4 2103   0.631   0.694   9.196  0.6647  0.1287 -1.0133
  138TCq2    C5 2104   0.553   0.629   9.106 -0.1438 -0.5213  0.7765
  138TCq2    C6 2105   0.524   0.501   9.124 -0.4865 -0.2176  0.4569
  138TCq2    C7 2106   0.561   0.431   9.240  0.2200  0.4523 -0.1173
  138TCq2    C8 2107   0.473   0.431   9.008  0.5500  0.1280 -0.2097
  138TCq2    O4 2108   0.446   0.491   8.904 -0.8416 -0.0161 -0.3214
  138TCq2    C9 2109   0.663   0.834   9.173 -0.1593 -0.3981 -0.3198
  138TCq2    O5 2110   0.602   0.893   9.078  0.0992  0.2507  0.1620
  138TCq2    O6 2111   0.744   0.889   9.256 -0.1712  0.0657 -0.0117
  138TCq2    H2 2112   0.720   0.697   9.383  1.3389 -1.9690  1.6488
  138TCq2    H3 2113   0.525   0.681   9.016 -1.2994 -0.7324  1.0159
  138TCq2    H4 2114   0.534   0.327   9.256 -1.4580  1.1523  1.4808
  139TMC2    C1 2115   1.158   4.499  13.448 -0.0069 -0.1397  0.5090
  139TMC2    C2 2116   1.248   4.563  13.366 -0.0949  0.5256 -0.2953
  139TMC2    C3 2117   1.253   4.699  13.381 -0.0458 -0.2058  0.2113
  139TMC2    C4 2118   1.086   4.562  13.544  0.3018 -0.3217 -1.0772
  139TMC2    C5 2119   1.086   4.698  13.546 -0.7350 -0.1466  0.7726
  139TMC2    C6 2120   1.177   0.046  13.469 -0.2381 -0.2819 -0.8873
  139TMC2     C 2121   1.172   4.357  13.450 -0.0105  0.7371 -0.2565
  139TMC2     O 2122   1.216   4.313  13.342 -0.0903 -0.4180 -0.1776
  139TMC2     H 2123   1.313   4.518  13.290 -2.0569  0.6490 -2.0450
  139TMC2    H1 2124   1.020   4.498  13.602 -0.8900  0.6266 -1.3882
  139TMC2    H2 2125   1.159   0.152  13.454 -0.8579 -0.0687  1.2574
  139TMC2    C7 2126   0.985   0.060  13.606 -0.2223 -0.4777 -0.0572
  139TMC2    C8 2127   1.265   0.049  13.255  0.2673  0.0495  0.1275
  139TMC2    O1 2128   1.010   0.179  13.629  0.0756 -0.0261 -0.3846
  139TMC2    O2 2129   1.241   4.706  13.152 -0.4018  0.2115  0.4045
  139TMC2    O5 2130   1.363   0.143  13.265 -0.1184  0.3095 -0.1380
  139TMC2    H5 2131   1.391   0.161  13.357 -1.7520 -0.8056  0.5766
  140MPD2     C 2132   1.137   4.109  13.718 -0.2995  0.1598 -0.0071
  140MPD2    C1 2133   1.159   4.154  13.594 -0.1153 -0.2006  0.2103
  140MPD2    C2 2134   1.190   4.058  13.494  0.4959  0.4967 -0.0255
  140MPD2    C3 2135   1.166   3.928  13.519 -0.4557 -0.3561 -0.1169
  140MPD2    C4 2136   1.129   3.884  13.647  0.1558  0.2596  0.4222
  140MPD2    C5 2137   1.132   3.978  13.751  0.6996 -0.2678 -0.1386
  140MPD2     H 2138   1.217   4.091  13.395 -0.3590 -1.3811 -0.8810
  140MPD2    H1 2139   1.126   3.779  13.675 -1.3006  1.0928  3.3544
  140MPD2    H2 2140   1.115   4.186  13.792 -0.4125  1.6125 -1.5461
  140MPD2    H3 2141   1.125   3.947  13.854  0.5228 -2.4225 -0.8080
  140MPD2     N 2142   1.184   3.841  13.410  0.5607  0.5137  0.4979
  140MPD2    H5 2143   1.208   3.885  13.322  0.4684  1.0607  0.7444
  140MPD2    N1 2144   1.143   4.289  13.568 -0.6016 -0.7733 -0.6007
  140MPD2    H7 2145   1.104   4.355  13.633 -0.1407  0.3052 -1.4246
  141TCq2    C1 2146   1.475   0.582  14.665  0.1393  0.8293  0.3539
  141TCq2    O2 2147   1.585   0.598  14.612 -0.7615  0.2328 -0.1715
  141TCq2    C2 2148   1.447   0.682  14.763 -0.0439  0.3491 -0.2004
  141TCq2    C3 2149   1.329   0.679  14.838  0.6510 -0.5456 -0.6652
  141TCq2    C4 2150   1.286   0.792  14.903 -0.3564 -0.6724  0.0343
  141TCq2    C5 2151   1.347   0.915  14.879  0.0772 -0.4016  0.2248
  141TCq2    C6 2152   1.456   0.915  14.806  0.3536 -0.5578 -0.1136
  141TCq2    C7 2153   1.510   0.800  14.749 -0.6490 -0.5141 -0.2917
  141TCq2    C8 2154   1.495   1.042  14.752  0.1215  0.7268  0.3339
  141TCq2    O4 2155   1.415   1.134  14.748 -0.2460 -0.0241 -0.6953
  141TCq2    C9 2156   1.186   0.777  15.007 -0.6938 -0.6505 -0.0786
  141TCq2    O5 2157   1.189   0.667  15.067  0.5241 -0.0782 -0.2873
  141TCq2    O6 2158   1.133   0.883  15.047 -0.2862 -0.0632  0.2423
  141TCq2    H2 2159   1.277   0.585  14.854 -0.1516  0.2954  1.7882
  141TCq2    H3 2160   1.305   1.001  14.930 -3.2789 -1.9463  0.0750
  141TCq2    H4 2161   1.594   0.812  14.682 -2.3871 -0.3905 -2.4549
  142MPD2     C 2162   4.090   3.401   9.733 -0.4464  0.3046 -0.1385
  142MPD2    C1 2163   3.980   3.329   9.702  0.0887 -0.0923  0.1342
  142MPD2    C2 2164   3.943   3.324   9.570  0.1159  0.0116 -0.6052
  142MPD2    C3 2165   4.012   3.402   9.470 -0.3454 -0.2774 -0.3882
  142MPD2    C4 2166   4.124   3.474   9.508  0.2786 -0.3908 -0.2162
  142MPD2    C5 2167   4.160   3.471   9.636  0.2489 -0.0419  0.6654
  142MPD2     H 2168   3.850   3.280   9.536  1.0250 -1.5043 -1.1067
  142MPD2    H1 2169   4.172   3.544   9.441 -2.0190  1.4464  0.0171
  142MPD2    H2 2170   4.113   3.416   9.838  4.0504  1.5390 -1.3040
  142MPD2    H3 2171   4.242   3.534   9.669  0.9716 -0.2289 -0.7816
  142MPD2     N 2172   3.962   3.430   9.343 -0.6795 -0.2149 -0.1481
  142MPD2    H5 2173   4.014   3.505   9.298  2.2514 -1.9529  0.3258
  142MPD2    N1 2174   3.908   3.265   9.803 -0.7816 -0.2250  0.1805
  142MPD2    H7 2175   3.933   3.279   9.900 -1.1729 -0.3287  0.2948
  143TCq2    C1 2176   3.849   3.374   9.287 -0.3054 -0.9455 -0.3959
  143TCq2    O2 2177   3.769   3.288   9.329 -0.5570  0.3251 -0.1991
  143TCq2    C2 2178   3.808   3.437   9.160  0.2227  0.0747  0.2911
  143TCq2    C3 2179   3.684   3.399   9.115 -0.6759 -0.4057 -0.7262
  143TCq2    C4 2180   3.646   3.445   8.994 -0.2040 -0.4972 -0.8034
  143TCq2    C5 2181   3.723   3.517   8.908  0.1039 -0.1433 -0.2318
  143TCq2    C6 2182   3.848   3.543   8.956 -0.4921 -0.0586 -0.2384
  143TCq2    C7 2183   3.891   3.509   9.080 -0.2391  0.0660  0.1276
  143TCq2    C8 2184   3.948   3.606   8.870 -0.7048  0.3447 -0.7796
  143TCq2    O4 2185   4.059   3.625   8.919 -0.4643 -0.0773 -0.1560
  143TCq2    C9 2186   3.516   3.410   8.946 -0.1687  0.6472  0.2137
  143TCq2    O5 2187   3.449   3.332   9.023 -0.5530  0.7792 -0.2370
  143TCq2    O6 2188   3.471   3.475   8.847  0.1346  0.7646  0.5932
  143TCq2    H2 2189   3.617   3.333   9.169 -1.0949  0.2566 -0.4454
  143TCq2    H3 2190   3.680   3.565   8.821 -0.1711  0.1275  0.0483
  143TCq2    H4 2191   3.995   3.522   9.108 -0.2685  0.9929 -0.2043
  144MPD2     C 2192   1.449   2.992   1.019 -0.2244  0.0251 -0.0199
  144MPD2    C1 2193   1.475   3.087   0.924  0.4296  0.4689  0.1644
  144MPD2    C2 2194   1.586   3.167   0.935 -0.6395 -1.0291 -0.6680
  144MPD2    C3 2195   1.683   3.132   1.029 -0.3276 -0.2353 -0.3824
  144MPD2    C4 2196   1.654   3.038   1.130 -0.0065  0.5597  0.3107
  144MPD2    C5 2197   1.542   2.960   1.118  0.5146 -0.0695 -0.6873
  144MPD2     H 2198   1.600   3.229   0.847 -1.3097  1.7780  1.2423
  144MPD2    H1 2199   1.739   3.009   1.190 -0.3764  1.0283  1.0498
  144MPD2    H2 2200   1.354   2.940   1.022 -0.0178 -0.3805 -0.5455
  144MPD2    H3 2201   1.525   2.881   1.190 -2.2011 -0.1791 -1.4278
  144MPD2     N 2202   1.813   3.179   1.029 -0.4620 -0.2822  0.0694
  144MPD2    H5 2203   1.888   3.127   1.073 -0.1719 -1.2051 -1.4919
  144MPD2    N1 2204   1.400   3.105   0.801 -0.5424  0.4391 -0.2002
  144MPD2    H7 2205   1.434   3.176   0.737  0.4491  2.2698  2.3271
  145TCq2    C1 2206   1.843   3.301   0.978 -0.4085  0.4756  0.2827
  145TCq2    O2 2207   1.767   3.393   0.948  0.2993  0.3166 -0.5613
  145TCq2    C2 2208   1.989   3.324   0.952  0.2453 -0.8387  0.0067
  145TCq2    C3 2209   2.072   3.212   0.957  0.5366  0.3951  0.1293
  145TCq2    C4 2210   2.203   3.238   0.947 -0.3709 -0.5357  0.2454
  145TCq2    C5 2211   2.254   3.364   0.933 -0.2572  0.4900 -0.4722
  145TCq2    C6 2212   2.167   3.471   0.924  0.2518  0.4368 -0.2283
  145TCq2    C7 2213   2.033   3.447   0.923  0.0069 -0.0686  0.0716
  145TCq2    C8 2214   2.223   3.599   0.966  0.2850 -0.2553 -0.1360
  145TCq2    O4 2215   2.339   3.623   0.926 -0.5177  0.1573  0.0641
  145TCq2    C9 2216   2.301   3.133   0.932 -0.0131 -0.0005  0.6726
  145TCq2    O5 2217   2.414   3.168   0.892  0.3516  0.3824  0.0140
  145TCq2    O6 2218   2.273   3.014   0.966 -0.1107 -0.2021  0.2993
  145TCq2    H2 2219   2.029   3.113   0.958  0.2393  0.5207 -0.1964
  145TCq2    H3 2220   2.362   3.376   0.931 -0.0356 -1.0799  1.0388
  145TCq2    H4 2221   1.977   3.539   0.910  1.0695  0.2784 -1.9579
  146TMC2    C1 2222   3.931   1.903  11.944 -1.1540 -1.0296 -0.5170
  146TMC2    C2 2223   3.931   1.911  11.804 -0.0291 -0.4434 -0.3581
  146TMC2    C3 2224   4.044   1.869  11.746  0.0665 -0.2703 -1.3920
  146TMC2    C4 2225   4.029   1.843  12.017 -0.0542  0.2174  0.2922
  146TMC2    C5 2226   4.151   1.805  11.950  0.1992 -0.5212 -0.0422
  146TMC2    C6 2227   4.164   1.825  11.812 -0.3651  0.1301 -0.2531
  146TMC2     C 2228   3.805   1.946  12.006 -0.3869  0.4014 -0.2014
  146TMC2     O 2229   3.732   2.022  11.941 -0.3612 -0.4319  0.0145
  146TMC2     H 2230   3.848   1.956  11.751 -0.6942 -2.7407 -1.2925
  146TMC2    H1 2231   4.028   1.847  12.125  0.4813  0.5279  0.2886
  146TMC2    H2 2232   4.252   1.793  11.758  1.5452 -1.6960  3.9233
  146TMC2    C7 2233   4.262   1.730  12.004  0.0671  0.2583  0.3380
  146TMC2    C8 2234   4.057   1.870  11.603  0.1889  0.4191 -0.3133
  146TMC2    O1 2235   4.377   1.755  11.972 -0.0984 -0.4223 -0.2199
  146TMC2    O2 2236   4.170   1.898  11.561  0.2077 -0.3874 -0.2183
  146TMC2    O5 2237   3.958   1.791  11.555 -0.0759 -0.3774  0.2512
  146TMC2    H5 2238   3.886   1.779  11.621 -1.9395  0.0709 -1.7153
  147MPD2     C 2239   4.473   1.430  12.350 -0.0184 -0.5879  0.6953
  147MPD2    C1 2240   4.344   1.457  12.390 -0.8626  0.4279 -0.0860
  147MPD2    C2 2241   4.258   1.515  12.298 -0.7996  0.0624 -0.4104
  147MPD2    C3 2242   4.302   1.565  12.178  0.1903 -0.4327  0.5996
  147MPD2    C4 2243   4.430   1.534  12.144  0.3602  0.0712 -0.1807
  147MPD2    C5 2244   4.511   1.465  12.225 -0.1245  0.5066 -0.1372
  147MPD2     H 2245   4.155   1.538  12.321 -1.4987 -0.6072 -2.9341
  147MPD2    H1 2246   4.478   1.561  12.050 -0.0542  0.9866 -0.1264
  147MPD2    H2 2247   4.540   1.378  12.418 -0.7542 -0.9738  1.1306
  147MPD2    H3 2248   4.611   1.431  12.204  0.6036  2.3543  0.3361
  147MPD2     N 2249   4.216   1.644  12.103  0.0316 -0.5480 -0.1662
  147MPD2    H5 2250   4.124   1.657  12.144  0.6358  1.8836  0.3931
  147MPD2    N1 2251   4.308   1.415  12.523  0.5071  0.0502  0.1814
  147MPD2    H7 2252   4.386   1.385  12.582 -0.3173 -0.2324  1.1368
  148MPD2     C 2253   4.181   4.259  10.431 -0.6379  0.0877  0.0263
  148MPD2    C1 2254   4.139   4.280  10.304  0.5701 -0.5275  0.2522
  148MPD2    C2 2255   4.009   4.234  10.265  0.1339  0.0759 -0.6620
  148MPD2    C3 2256   3.935   4.156  10.348  0.2954  0.6157 -0.6414
  148MPD2    C4 2257   3.987   4.125  10.471  0.2804 -0.3898 -0.2136
  148MPD2    C5 2258   4.108   4.176  10.515 -0.9974  0.3819 -0.1909
  148MPD2     H 2259   3.970   4.256  10.167 -1.5392  0.0943  0.0026
  148MPD2    H1 2260   3.942   4.055  10.540  0.5099 -0.4764 -0.1501
  148MPD2    H2 2261   4.270   4.301  10.476 -0.1892 -1.1021  0.2607
  148MPD2    H3 2262   4.146   4.155  10.614 -3.2155  0.2251  0.6190
  148MPD2     N 2263   3.821   4.091  10.295  0.8024  0.3460  0.1995
  148MPD2    H5 2264   3.797   4.089  10.197 -3.2556 -2.5647  1.2721
  148MPD2    N1 2265   4.216   4.351  10.210 -0.3173 -0.5691  0.3301
  148MPD2    H7 2266   4.181   4.357  10.115  0.8088 -1.6380 -0.1535
  149TCq2    C1 2267   4.341   4.409  10.233 -0.2455 -0.3864  0.2744
  149TCq2    O2 2268   4.409   4.417  10.338  0.0881 -0.6779  0.0226
  149TCq2    C2 2269   4.401   4.455  10.104  0.2755  0.0122  0.2958
  149TCq2    C3 2270   4.530   4.444  10.079 -0.5929  0.2051  0.4744
  149TCq2    C4 2271   4.581   4.450   9.953  0.4233  0.5215  0.0948
  149TCq2    C5 2272   4.492   4.424   9.853  0.2741 -0.3830 -0.1308
  149TCq2    C6 2273   4.359   4.444   9.879 -0.2474  0.0472  0.8073
  149TCq2    C7 2274   4.314   4.475  10.004 -0.2287  0.5742 -0.1670
  149TCq2    C8 2275   4.253   4.394   9.792  0.8052  0.4785 -0.7045
  149TCq2    O4 2276   4.167   4.320   9.840  0.3775  0.5350 -0.0354
  149TCq2    C9 2277   4.706   4.379   9.931 -0.0506 -0.8138 -0.1727
  149TCq2    O5 2278   4.712   4.311   9.829  0.4637 -0.2290 -0.3300
  149TCq2    O6 2279   0.061   4.358  10.034  0.0698  0.1236 -0.4192
  149TCq2    H2 2280   4.596   4.415  10.160 -0.6391  0.5370  0.6310
  149TCq2    H3 2281   4.528   4.392   9.756  0.4922 -0.0764 -0.1528
  149TCq2    H4 2282   4.211   4.505  10.015 -0.3965  0.2716 -0.9309
  150MPD2     C 2283   0.133   4.618  12.131 -0.1564 -0.4094 -0.4137
  150MPD2    C1 2284   0.194   4.609  12.008  0.0177 -0.6980  0.3746
  150MPD2    C2 2285   0.311   4.678  11.993  0.1007  0.1755 -0.0310
  150MPD2    C3 2286   0.362   0.034  12.093 -0.2574 -0.6308 -0.2224
  150MPD2    C4 2287   0.306   0.040  12.216 -0.0702  0.3413  0.1169
  150MPD2    C5 2288   0.189   4.693  12.236 -0.4637 -0.4356 -0.5180
  150MPD2     H 2289   0.362   4.682  11.897  1.2233 -0.2666  0.5434
  150MPD2    H1 2290   0.353   0.093  12.298  0.5454 -0.5654  0.3543
  150MPD2    H2 2291   0.047   4.555  12.152 -0.3538  0.1136  0.3731
  150MPD2    H3 2292   0.134   4.689  12.330 -3.5691 -0.5550 -2.3591
  150MPD2     N 2293   0.489   0.089  12.072  0.2509 -0.1842  0.0004
  150MPD2    H5 2294   0.526   0.087  11.978 -0.6306 -0.7623 -0.3314
  150MPD2    N1 2295   0.133   4.528  11.910 -0.7455  0.4191 -0.2597
  150MPD2    H7 2296   0.052   4.478  11.947 -0.3816 -0.5902 -0.8220
  151TCq2    C1 2297   0.583   0.125  12.166  0.4012 -0.4479  0.5822
  151TCq2    O2 2298   0.577   0.125  12.291 -0.2498  0.2594 -0.4777
  151TCq2    C2 2299   0.709   0.158  12.102 -0.1528 -0.1942  0.0688
  151TCq2    C3 2300   0.710   0.244  11.989 -0.3202 -0.1184 -0.3852
  151TCq2    C4 2301   0.829   0.306  11.968 -0.4917 -0.0506  0.8870
  151TCq2    C5 2302   0.933   0.283  12.049  0.2780  0.8195  0.7012
  151TCq2    C6 2303   0.930   0.185  12.148 -0.0994  0.0330 -0.0342
  151TCq2    C7 2304   0.818   0.124  12.178 -0.3112 -0.7846 -0.0907
  151TCq2    C8 2305   1.041   0.185  12.239  0.3039 -0.2761 -0.0116
  151TCq2    O4 2306   1.099   0.292  12.245  0.1774  0.3994  0.0901
  151TCq2    C9 2307   0.837   0.394  11.856 -0.0459 -1.0760 -0.1263
  151TCq2    O5 2308   0.736   0.408  11.783 -0.1345  0.1041  0.8797
  151TCq2    O6 2309   0.951   0.432  11.819  0.2319  0.3778  0.3085
  151TCq2    H2 2310   0.618   0.274  11.939 -0.2503 -0.6721 -0.8445
  151TCq2    H3 2311   1.020   0.338  12.016  0.4349 -0.1989 -0.5312
  151TCq2    H4 2312   0.809   0.048  12.254 -1.1863 -1.2716 -0.6740
  152MPD2     C 2313   0.273   4.292  12.702 -1.1525 -0.5921  0.2710
  152MPD2    C1 2314   0.289   4.327  12.570  0.1797  0.2833 -0.6167
  152MPD2    C2 2315   0.189   4.304  12.474  0.3770  0.0169 -0.0141
  152MPD2    C3 2316   0.069   4.247  12.512  0.1371  0.3022 -0.0622
  152MPD2    C4 2317   0.056   4.216  12.646 -0.1122 -0.4103 -0.3086
  152MPD2    C5 2318   0.151   4.244  12.738 -0.0991  0.0267 -0.9302
  152MPD2     H 2319   0.215   4.334  12.374 -2.2964  0.8003 -0.4532
  152MPD2    H1 2320   4.684   4.175  12.689  0.1631 -0.4910  0.1934
  152MPD2    H2 2321   0.346   4.314  12.779 -0.7538  0.4752 -0.4054
  152MPD2    H3 2322   0.128   4.232  12.843  1.1980 -1.5486 -0.8197
  152MPD2     N 2323   4.686   4.233  12.421 -0.3363 -0.0354  0.3589
  152MPD2    H5 2324   4.707   4.260  12.325 -1.4156 -1.9161 -0.3984
  152MPD2    N1 2325   0.417   4.375  12.521  0.0563 -0.6485 -0.4578
  152MPD2    H7 2326   0.435   4.379  12.421  1.6397 -0.7083 -0.1804
  153TCq2    C1 2327   0.512   4.439  12.598 -0.9098 -0.2287 -0.1784
  153TCq2    O2 2328   0.502   4.461  12.718  0.3600 -0.0185  0.3053
  153TCq2    C2 2329   0.628   4.499  12.538 -0.0888  0.0094  0.5541
  153TCq2    C3 2330   0.689   4.447  12.430  0.4213  1.0977  0.0136
  153TCq2    C4 2331   0.814   4.482  12.398 -0.4887  0.0594  0.1249
  153TCq2    C5 2332   0.890   4.563  12.477 -0.1349 -0.5460 -0.9421
  153TCq2    C6 2333   0.831   4.610  12.592  0.2789 -0.0185 -0.3348
  153TCq2    C7 2334   0.706   4.565  12.630  0.1403 -0.3420  0.4388
  153TCq2    C8 2335   0.890   4.716  12.673 -0.3464  0.1456 -0.1740
  153TCq2    O4 2336   0.806   0.077  12.724  0.3050 -0.0733  0.2103
  153TCq2    C9 2337   0.868   4.458  12.265  0.2555  0.2463 -0.1268
  153TCq2    O5 2338   0.822   4.363  12.195  0.0370  0.7323 -0.0639
  153TCq2    O6 2339   0.933   4.551  12.217  0.1566 -0.2887 -0.3966
  153TCq2    H2 2340   0.639   4.386  12.356 -1.7901  1.1554  1.4772
  153TCq2    H3 2341   0.980   4.609  12.437  0.5958  0.4693  1.8565
  153TCq2    H4 2342   0.657   4.608  12.717 -0.6925 -0.0717 -0.1643
  154MPD2     C 2343   0.700   4.186   0.780 -0.2850 -0.5017 -0.0904
  154MPD2    C1 2344   0.664   4.313   0.818 -0.0261 -0.2465  0.0313
  154MPD2    C2 2345   0.635   4.351   0.950 -0.1044 -0.2348 -0.6837
  154MPD2    C3 2346   0.633   4.250   1.044 -0.2353  0.3442  0.5731
  154MPD2    C4 2347   0.663   4.121   1.006 -0.0396 -0.0697  0.2297
  154MPD2    C5 2348   0.689   4.086   0.878  0.4911 -0.1113  0.4301
  154MPD2     H 2349   0.589   4.446   0.973 -1.1504 -1.2089  1.2717
  154MPD2    H1 2350   0.664   4.042   1.080  0.1305 -0.2327  0.0520
  154MPD2    H2 2351   0.722   4.164   0.677  0.6894  1.7536 -0.3519
  154MPD2    H3 2352   0.696   3.981   0.849 -0.5862 -0.2631  0.7060
  154MPD2     N 2353   0.596   4.266   1.174  0.3158  0.2128  0.5377
  154MPD2    H5 2354   0.602   4.180   1.227  0.4191  1.2653  2.2334
  154MPD2    N1 2355   0.661   4.404   0.708  0.2604  0.3560  0.4645
  154MPD2    H7 2356   0.692   4.369   0.618  1.3585  2.6955 -0.0774
  155TCq2    C1 2357   0.666   4.539   0.721 -0.1312  0.6293  0.5631
  155TCq2    O2 2358   0.662   4.616   0.820 -0.0225 -0.0163 -0.0915
  155TCq2    C2 2359   0.691   4.601   0.591 -0.1301  0.6235  0.5327
  155TCq2    C3 2360   0.654   4.530   0.482  0.0287 -0.3055 -0.4019
  155TCq2    C4 2361   0.734   4.544   0.372 -0.0067 -0.5189 -0.3241
  155TCq2    C5 2362   0.845   4.633   0.365 -0.2889  0.4437 -0.2562
  155TCq2    C6 2363   0.873   4.707   0.473  0.5161 -0.2791  0.0977
  155TCq2    C7 2364   0.797   4.694   0.584  0.6055  0.2001  0.0056
  155TCq2    C8 2365   1.008   0.054   0.484  0.3437  0.2511  0.5177
  155TCq2    O4 2366   1.035   0.118   0.587 -0.9965  0.0542 -0.1102
  155TCq2    C9 2367   0.721   4.449   0.263  0.5670 -0.1880  1.1583
  155TCq2    O5 2368   0.739   4.485   0.148  0.0194  0.5021 -0.2104
  155TCq2    O6 2369   0.637   4.360   0.290  0.9861  0.5064 -0.6043
  155TCq2    H2 2370   0.583   4.449   0.486 -1.5686  0.9693 -2.5395
  155TCq2    H3 2371   0.907   4.618   0.277 -0.2570  0.7555 -0.2878
  155TCq2    H4 2372   0.805   0.033   0.675 -3.5135  1.7973 -0.6408
  156MPD2     C 2373   0.612   1.513  12.902 -0.0599 -0.3528  0.4832
  156MPD2    C1 2374   0.678   1.577  12.792  0.0487 -0.0104  0.3308
  156MPD2    C2 2375   0.646   1.707  12.769  0.8854 -0.1149 -0.6690
  156MPD2    C3 2376   0.560   1.778  12.849 -0.1465  0.1256  0.9579
  156MPD2    C4 2377   0.501   1.714  12.951  0.1290 -0.0823 -0.1903
  156MPD2    C5 2378   0.532   1.588  12.984  0.6456  0.6719 -0.2731
  156MPD2     H 2379   0.701   1.762  12.693 -0.4150  1.0657 -0.7372
  156MPD2    H1 2380   0.439   1.763  13.025 -1.4857 -1.0395 -0.8885
  156MPD2    H2 2381   0.633   1.410  12.927  1.0770 -0.7217 -2.0243
  156MPD2    H3 2382   0.496   1.543  13.076 -1.7995  0.4821 -1.3210
  156MPD2     N 2383   0.562   1.918  12.838  0.2151  0.0843 -0.5158
  156MPD2    H5 2384   0.618   1.959  12.764 -0.0003 -1.4620 -1.5236
  156MPD2    N1 2385   0.779   1.506  12.725 -0.4027  0.2346 -0.6527
  156MPD2    H7 2386   0.819   1.424  12.769 -2.1414 -1.2920 -1.9321
  157TCq2    C1 2387   0.829   1.552  12.608  0.0952  0.0938 -0.2968
  157TCq2    O2 2388   0.771   1.626  12.530  0.2569  0.3178  0.2528
  157TCq2    C2 2389   0.962   1.495  12.581  0.1773 -0.0642 -0.3231
  157TCq2    C3 2390   1.057   1.477  12.684 -0.1527  0.7990  0.1542
  157TCq2    C4 2391   1.190   1.481  12.650  0.4265  0.6230  0.1209
  157TCq2    C5 2392   1.234   1.479  12.515 -0.4379  0.5922 -0.6244
  157TCq2    C6 2393   1.136   1.492  12.415  0.1881  1.2644 -0.5288
  157TCq2    C7 2394   1.004   1.505  12.452  0.5417  0.6094 -0.5142
  157TCq2    C8 2395   1.183   1.514  12.285  0.6348 -0.0425 -0.3736
  157TCq2    O4 2396   1.270   1.444  12.241 -0.1487 -0.4524 -0.3141
  157TCq2    C9 2397   1.292   1.462  12.748 -0.1116 -0.7746 -0.3384
  157TCq2    O5 2398   1.412   1.469  12.710  0.6576  0.4066 -0.4658
  157TCq2    O6 2399   1.251   1.406  12.853  0.4109 -0.0038 -0.2742
  157TCq2    H2 2400   1.031   1.467  12.788  0.6809 -4.2754 -0.1141
  157TCq2    H3 2401   1.340   1.478  12.490  0.0887  1.5848  1.5702
  157TCq2    H4 2402   0.927   1.509  12.376  0.4157  0.7794 -0.3791
  158TMC2    C1 2403   1.566   1.008  13.840  0.0356 -0.1103  0.0581
  158TMC2    C2 2404   1.659   0.959  13.752  0.8242 -0.0394  1.1634
  158TMC2    C3 2405   1.637   0.977  13.617  0.7632  0.0906  0.1028
  158TMC2    C4 2406   1.449   1.068  13.801  0.2399 -0.4869  0.2816
  158TMC2    C5 2407   1.440   1.090  13.667  0.3796  0.0685 -0.3011
  158TMC2    C6 2408   1.529   1.051  13.573 -0.4213 -0.4217 -0.2494
  158TMC2     C 2409   1.573   0.964  13.977 -0.9333 -0.2095  0.5281
  158TMC2     O 2410   1.677   0.956  14.036 -0.6518 -0.0821  0.0851
  158TMC2     H 2411   1.745   0.904  13.789  0.7173 -2.0596 -1.5197
  158TMC2    H1 2412   1.384   1.125  13.867  0.4430  1.2591 -1.0145
  158TMC2    H2 2413   1.493   1.048  13.471  3.1455  2.9285 -1.6222
  158TMC2    C7 2414   1.325   1.153  13.623 -0.1718  0.9431  0.0304
  158TMC2    C8 2415   1.688   0.876  13.536  0.2777 -0.9747  0.0084
  158TMC2    O1 2416   1.333   1.232  13.529 -0.2710 -0.3777  0.0699
  158TMC2    O2 2417   1.804   0.846  13.547 -0.0956 -0.0604  0.0820
  158TMC2    O5 2418   1.589   0.806  13.474 -0.2571  0.3696  0.6915
  158TMC2    H5 2419   1.506   0.810  13.524 -0.2704  1.4815  0.5864
  159MPD2     C 2420   1.341   0.828  14.413 -0.0039 -0.2611  0.0823
  159MPD2    C1 2421   1.260   0.787  14.307 -0.1991  0.2781  0.3767
  159MPD2    C2 2422   1.300   0.809  14.179 -0.2069 -0.9621 -0.8307
  159MPD2    C3 2423   1.425   0.877  14.154 -0.5297  0.5120 -0.2629
  159MPD2    C4 2424   1.497   0.927  14.264  0.3686  0.1046 -0.1850
  159MPD2    C5 2425   1.454   0.902  14.387  0.1271 -0.0085  0.0919
  159MPD2     H 2426   1.250   0.759  14.097  1.5652 -0.1053 -2.4293
  159MPD2    H1 2427   1.587   0.988  14.256 -0.8918  1.9977 -0.0559
  159MPD2    H2 2428   1.317   0.830  14.519 -1.0658  2.4659 -0.1992
  159MPD2    H3 2429   1.512   0.947  14.467 -0.6058  1.7118 -0.3557
  159MPD2     N 2430   1.460   0.900  14.013 -0.0520 -0.1698 -0.3940
  159MPD2    H5 2431   1.401   0.873  13.935  0.9118 -0.9987 -0.8337
  159MPD2    N1 2432   1.131   0.730  14.336 -0.5764 -0.1513 -0.4512
  159MPD2    H7 2433   1.104   0.700  14.429  1.2085  0.2478  0.1890
  160TMC2    C1 2434   4.357   3.768   1.544  0.1413  0.0156  0.0104
  160TMC2    C2 2435   4.227   3.730   1.533  0.0019  0.3777 -0.2068
  160TMC2    C3 2436   4.207   3.608   1.483 -0.1778  0.0779  0.2534
  160TMC2    C4 2437   4.464   3.703   1.495  0.3115 -0.5140  0.3423
  160TMC2    C5 2438   4.430   3.588   1.426 -0.3072 -0.5612  1.3307
  160TMC2    C6 2439   4.310   3.533   1.438 -0.5881  0.6194  0.0314
  160TMC2     C 2440   4.390   3.904   1.583  0.2415 -0.0745 -0.2063
  160TMC2     O 2441   4.506   3.933   1.625  0.3815 -0.3360 -0.2542
  160TMC2     H 2442   4.139   3.783   1.568  0.4841  0.4727  0.8502
  160TMC2    H1 2443   4.566   3.739   1.493  0.1458  0.0247  2.1951
  160TMC2    H2 2444   4.298   3.429   1.409  1.1007 -0.4290  3.0198
  160TMC2    C7 2445   4.530   3.483   1.383  0.5684 -0.2719 -0.6811
  160TMC2    C8 2446   4.070   3.554   1.496  0.1342 -0.0658 -0.0749
  160TMC2    O1 2447   4.490   3.388   1.314  0.1740  0.4005  0.3302
  160TMC2    O2 2448   3.992   3.597   1.579 -0.4932  0.1101 -0.1742
  160TMC2    O5 2449   4.041   3.476   1.397  0.0189  0.5952  0.2628
  160TMC2    H5 2450   4.115   3.454   1.337 -0.8126  1.1236 -0.9741
  161MPD2     C 2451   4.341   4.176   1.728 -0.4221 -0.5980 -0.6229
  161MPD2    C1 2452   4.267   4.116   1.630  0.1535  0.3498 -0.5036
  161MPD2    C2 2453   4.159   4.195   1.584 -0.0892 -0.5808 -0.6593
  161MPD2    C3 2454   4.149   4.333   1.610 -0.1175  0.0617 -0.2536
  161MPD2    C4 2455   4.235   4.390   1.696  0.2704  0.6626  0.6862
  161MPD2    C5 2456   4.326   4.307   1.758  0.0581 -0.7089 -0.0544
  161MPD2     H 2457   4.098   4.157   1.503 -1.8161  0.5059  0.1431
  161MPD2    H1 2458   4.221   4.496   1.717  1.5542  1.2230 -1.2599
  161MPD2    H2 2459   4.418   4.121   1.780  0.1583  0.7270 -0.0853
  161MPD2    H3 2460   4.400   4.341   1.830 -1.4671 -2.0812  2.1343
  161MPD2     N 2461   4.039   4.411   1.567  0.0074  0.7916 -0.7422
  161MPD2    H5 2462   4.035   4.503   1.609  0.2679  1.1665 -1.5540
  161MPD2    N1 2463   4.278   3.986   1.573  0.3934 -0.4889  0.4884
  161MPD2    H7 2464   4.197   3.943   1.529  0.0156  0.2860  0.4217
  162TMC2    C1 2465   2.752   1.623   1.030  0.3849 -0.2127 -0.1418
  162TMC2    C2 2466   2.689   1.673   0.924 -0.0584  0.7107 -0.8104
  162TMC2    C3 2467   2.569   1.735   0.940 -0.5719  0.1325  1.0333
  162TMC2    C4 2468   2.705   1.644   1.154  0.2620 -0.5609  0.1625
  162TMC2    C5 2469   2.581   1.708   1.170  0.1297 -0.1606  0.3890
  162TMC2    C6 2470   2.515   1.756   1.064 -0.4893  0.0202  0.1904
  162TMC2     C 2471   2.873   1.542   1.008 -0.3034 -0.3977 -0.5440
  162TMC2     O 2472   2.935   1.564   0.904 -0.5552  0.3119 -0.2260
  162TMC2     H 2473   2.726   1.657   0.823 -0.3533  1.1072 -0.9793
  162TMC2    H1 2474   2.766   1.618   1.240 -0.2378 -1.5719  0.2167
  162TMC2    H2 2475   2.409   1.778   1.063 -0.3597  0.6751  0.8249
  162TMC2    C7 2476   2.500   1.692   1.293  0.7297  0.1028  0.2347
  162TMC2    C8 2477   2.519   1.819   0.831  0.1649  0.3212  0.6044
  162TMC2    O1 2478   2.379   1.704   1.292  0.1007  0.4881  0.0337
  162TMC2    O2 2479   2.567   1.801   0.720  0.3068  0.5643  0.1090
  162TMC2    O5 2480   2.506   1.944   0.882  0.3154  0.1163 -0.2658
  162TMC2    H5 2481   2.498   1.935   0.979  1.9589  0.7062 -0.0798
  163MPD2     C 2482   3.271   1.269   1.198 -0.1132 -0.4783  0.1782
  163MPD2    C1 2483   3.249   1.324   1.074 -0.7311 -0.0302  0.4881
  163MPD2    C2 2484   3.132   1.393   1.047  0.1981  0.5318 -0.2010
  163MPD2    C3 2485   3.024   1.396   1.136 -0.8012 -0.0390 -0.1555
  163MPD2    C4 2486   3.046   1.339   1.262  0.3256  0.0441  0.4166
  163MPD2    C5 2487   3.165   1.274   1.284  0.7090  0.1938  0.0168
  163MPD2     H 2488   3.130   1.456   0.959  0.3659  1.0681  0.1790
  163MPD2    H1 2489   2.975   1.328   1.343 -2.4426  0.2545 -1.9835
  163MPD2    H2 2490   3.362   1.221   1.232 -0.7622 -2.7983 -1.3005
  163MPD2    H3 2491   3.174   1.229   1.382  0.4209  1.4404  0.6024
  163MPD2     N 2492   2.903   1.463   1.113  0.2332 -0.0152  0.0581
  163MPD2    H5 2493   2.830   1.443   1.180 -0.0971 -0.4752 -0.4332
  163MPD2    N1 2494   3.351   1.302   0.977 -0.2516  0.3890 -0.2430
  163MPD2    H7 2495   3.426   1.239   1.004 -0.9077  0.4894  1.8102
  164TCq2    C1 2496   3.930   0.309  10.070 -0.0167  0.1400 -0.1321
  164TCq2    O2 2497   3.968   0.286   9.955 -0.0459 -0.0325  0.2418
  164TCq2    C2 2498   4.007   0.404  10.149  0.6428  0.8983 -0.8409
  164TCq2    C3 2499   4.092   0.483  10.075  0.2376 -0.0101  0.2681
  164TCq2    C4 2500   4.144   0.594  10.135  0.2997  0.4753 -0.0660
  164TCq2    C5 2501   4.124   0.622  10.267  0.1044  0.0701  0.1490
  164TCq2    C6 2502   4.045   0.533  10.339 -0.0671  0.2866  0.1881
  164TCq2    C7 2503   3.982   0.425  10.284  0.5358  0.5654 -0.6359
  164TCq2    C8 2504   4.056   0.536  10.490  0.4450  0.9569  0.0497
  164TCq2    O4 2505   4.171   0.525  10.535 -0.1101  0.7885  0.0304
  164TCq2    C9 2506   4.222   0.689  10.057  0.2277  0.7341  1.1664
  164TCq2    O5 2507   4.288   0.769  10.122  0.5268  0.1345 -0.4733
  164TCq2    O6 2508   4.228   0.676   9.934 -0.1009  0.6406 -0.0255
  164TCq2    H2 2509   4.111   0.468   9.969 -1.2893  1.0500 -0.1556
  164TCq2    H3 2510   4.176   0.701  10.319  1.2587 -0.6756  0.1257
  164TCq2    H4 2511   3.921   0.360  10.346  2.7701 -0.6501  0.2552
  165MPD2     C 2512   0.153   2.266   2.712 -0.5169 -0.2462  0.9283
  165MPD2    C1 2513   0.147   2.348   2.601  0.1227  0.1500  0.0717
  165MPD2    C2 2514   0.231   2.457   2.590 -0.4417 -0.7792  0.0597
  165MPD2    C3 2515   0.329   2.473   2.687  0.3732  0.4186 -0.4263
  165MPD2    C4 2516   0.335   2.395   2.797  0.8189  0.0398 -0.3491
  165MPD2    C5 2517   0.252   2.283   2.807 -0.1285  0.6841 -0.3811
  165MPD2     H 2518   0.211   2.531   2.513  0.5840 -0.7616 -0.1959
  165MPD2    H1 2519   0.416   2.402   2.869 -0.7476 -0.2490  1.4142
  165MPD2    H2 2520   0.092   2.176   2.716  0.2874 -0.8474 -0.2312
  165MPD2    H3 2521   0.263   2.220   2.894 -0.5978  0.1065 -0.7433
  165MPD2     N 2522   0.429   2.567   2.678 -0.4801 -0.2081  0.9586
  165MPD2    H5 2523   0.489   2.578   2.758 -0.6341  0.3453  0.9962
  165MPD2    N1 2524   0.046   2.304   2.513  0.3569  0.4430 -0.3680
  165MPD2    H7 2525   0.014   2.212   2.542  1.4279  0.0371 -0.4987
  166TCq2    C1 2526   0.461   2.634   2.558  0.3772  0.5888  0.1142
  166TCq2    O2 2527   0.394   2.663   2.462  0.1804  0.1995  0.5490
  166TCq2    C2 2528   0.587   2.711   2.576  0.4448  0.3364  0.4078
  166TCq2    C3 2529   0.679   2.675   2.672 -0.2136  0.0700  0.5100
  166TCq2    C4 2530   0.799   2.737   2.672 -0.0343  0.2921  0.6467
  166TCq2    C5 2531   0.824   2.842   2.593  1.0091 -0.2166  0.3753
  166TCq2    C6 2532   0.736   2.875   2.492 -0.2597 -0.2602  0.2134
  166TCq2    C7 2533   0.620   2.806   2.486 -0.5083 -0.2874  0.6902
  166TCq2    C8 2534   0.777   2.941   2.365 -0.1798 -0.3254 -0.1255
  166TCq2    O4 2535   0.895   2.955   2.351 -0.2847 -0.5709 -0.8464
  166TCq2    C9 2536   0.892   2.706   2.785  0.1883  0.0071 -0.4692
  166TCq2    O5 2537   0.880   2.593   2.840  0.4157 -0.3497 -0.2458
  166TCq2    O6 2538   0.988   2.783   2.804  0.3841 -0.6355 -0.3787
  166TCq2    H2 2539   0.667   2.594   2.744 -0.0225  0.3817  0.8935
  166TCq2    H3 2540   0.916   2.899   2.598 -0.6557  2.3824  1.3558
  166TCq2    H4 2541   0.543   2.817   2.411 -1.0927 -0.1266  1.3109
  167TMC2    C1 2542   2.998   0.974  12.302 -0.0819 -0.6272  0.0130
  167TMC2    C2 2543   2.897   1.049  12.355  0.6817  0.2656  0.4478
  167TMC2    C3 2544   2.818   0.994  12.454 -0.2193 -0.4521 -0.3435
  167TMC2    C4 2545   3.040   0.855  12.366 -0.6195  0.4383 -0.5194
  167TMC2    C5 2546   2.960   0.801  12.464 -0.2317 -0.2076  0.7677
  167TMC2    C6 2547   2.850   0.869  12.505  1.0332 -0.0054 -0.0914
  167TMC2     C 2548   3.057   1.015  12.183  0.0261  0.6074  0.4022
  167TMC2     O 2549   3.058   1.139  12.164  0.9647  0.1733  0.1110
  167TMC2     H 2550   2.874   1.151  12.324  0.9268  0.2928  0.3554
  167TMC2    H1 2551   3.124   0.796  12.331  1.2183  3.7464 -1.6810
  167TMC2    H2 2552   2.785   0.821  12.577  0.2406  0.2871 -0.6229
  167TMC2    C7 2553   2.961   0.667  12.508  0.6047 -0.9006  1.0770
  167TMC2    C8 2554   2.679   1.031  12.452  0.1027 -0.5083 -0.5963
  167TMC2    O1 2555   2.902   0.631  12.609  0.2620 -0.3809  0.1618
  167TMC2    O2 2556   2.600   0.937  12.444  0.7554  0.0616  0.5020
  167TMC2    O5 2557   2.660   1.140  12.538 -0.6991 -0.3958 -0.6742
  167TMC2    H5 2558   2.740   1.196  12.525 -0.0834 -0.9366  0.7628
  168MPD2     C 2559   3.119   1.052  11.893  1.0939  0.4316 -0.0749
  168MPD2    C1 2560   3.119   0.926  11.953  0.3162  0.4520 -0.8613
  168MPD2    C2 2561   3.140   0.813  11.876  0.0073  0.1754 -0.3687
  168MPD2    C3 2562   3.184   0.821  11.744  0.2251  0.3223  0.0385
  168MPD2    C4 2563   3.185   0.944  11.683 -0.9457  0.1268  0.5305
  168MPD2    C5 2564   3.149   1.056  11.756  0.5888 -0.4618  0.1997
  168MPD2     H 2565   3.120   0.717  11.923  0.2100 -0.0624 -0.7680
  168MPD2    H1 2566   3.212   0.979  11.583 -1.0572 -0.7980  0.1823
  168MPD2    H2 2567   3.093   1.147  11.938  1.9997  0.3105  0.6988
  168MPD2    H3 2568   3.150   1.158  11.719  0.0534  0.1927  1.9902
  168MPD2     N 2569   3.221   0.704  11.676  0.4183 -0.3373 -0.2807
  168MPD2    H5 2570   3.232   0.621  11.733 -1.2915 -0.4458 -0.0919
  168MPD2    N1 2571   3.087   0.910  12.095 -0.6522 -0.2378 -0.3530
  168MPD2    H7 2572   3.073   0.814  12.124 -0.8351  0.6203  2.3634
  169MPD1     C 2573   0.463   3.955   8.991  0.1346  0.1664 -0.0477
  169MPD1    C1 2574   0.552   4.063   9.002  0.1738  0.2255 -0.4530
  169MPD1    C2 2575   0.632   4.074   9.109  0.3959  0.4477  0.0381
  169MPD1    C3 2576   0.636   3.972   9.200 -0.1574 -0.8939 -0.2794
  169MPD1    C4 2577   0.544   3.871   9.195  0.4376 -0.2071 -0.3817
  169MPD1    C5 2578   0.453   3.868   9.091 -0.7947  0.5148 -0.2375
  169MPD1     H 2579   0.704   4.155   9.109  0.9396 -0.0300  1.6591
  169MPD1    H1 2580   0.546   3.793   9.269  1.1567  0.9096  0.7679
  169MPD1    H2 2581   0.400   3.932   8.907 -1.4099 -0.8459  1.3849
  169MPD1    H3 2582   0.374   3.793   9.088  0.7450 -1.0929 -0.5871
  169MPD1     N 2583   0.729   3.980   9.303 -0.6008  0.0570 -0.0695
  169MPD1    H5 2584   0.781   4.067   9.300  1.8712 -1.4169 -0.3891
  169MPD1    N1 2585   0.563   4.151   8.896 -0.4289 -0.5350 -0.1132
  169MPD1    H6 2586   0.574   4.247   8.928  1.4077 -0.2377 -1.6569
  169MPD1    H7 2587   0.472   4.151   8.850 -0.6246  0.0704  0.2619
  170MPD1     C 2588   0.155   2.759  13.124  0.0132 -0.1956 -0.2437
  170MPD1    C1 2589   0.025   2.740  13.109 -0.1511 -0.0173 -0.8637
  170MPD1    C2 2590   4.672   2.725  13.225 -0.2837  0.4847  0.1739
  170MPD1    C3 2591   0.011   2.741  13.351  0.1088 -0.0711 -0.3202
  170MPD1    C4 2592   0.148   2.760  13.357  0.9442  0.1336 -0.3287
  170MPD1    C5 2593   0.214   2.773  13.243 -0.1867 -0.4821 -0.3565
  170MPD1     H 2594   4.566   2.703  13.220  0.0354 -0.4780 -2.3090
  170MPD1    H1 2595   0.198   2.775  13.452 -0.2767 -0.3400  0.3950
  170MPD1    H2 2596   0.214   2.775  13.035 -1.1280  0.7364 -0.8238
  170MPD1    H3 2597   0.320   2.793  13.242 -0.2102 -0.3500  1.0508
  170MPD1     N 2598   4.654   2.738  13.471  0.1478 -0.2033  0.1761
  170MPD1    H5 2599   4.555   2.716  13.463  0.3009 -0.7201 -0.3458
  170MPD1    N1 2600   4.689   2.713  12.980 -0.7139 -0.1990 -0.0165
  170MPD1    H6 2601   0.017   2.754  12.899 -1.1668  2.2933  1.0115
  170MPD1    H7 2602   4.588   2.704  12.976 -0.8074  1.3278 -1.4541
  171MPD1     C 2603   3.016   4.402  15.423 -0.4589 -0.4373  0.2598
  171MPD1    C1 2604   2.930   4.321  15.354 -0.5308 -0.8657 -0.1968
  171MPD1    C2 2605   2.937   4.186  15.380  0.4006 -0.0246 -0.6100
  171MPD1    C3 2606   3.038   4.130  15.464  0.1214 -0.0175 -0.4411
  171MPD1    C4 2607   3.137   4.210  15.510 -0.3199  0.7217  0.8755
  171MPD1    C5 2608   3.121   4.346  15.496  0.0402  0.1028  0.2485
  171MPD1     H 2609   2.852   4.131  15.340  1.6064 -0.7785 -2.1290
  171MPD1    H1 2610   3.220   4.173  15.569 -0.5699 -0.5679  0.4104
  171MPD1    H2 2611   3.006   4.509  15.406 -0.6079 -0.6319 -0.8190
  171MPD1    H3 2612   3.183   4.419  15.546  1.2320 -0.0693 -0.9551
  171MPD1     N 2613   3.049   3.993  15.487  0.1203  0.0413 -0.2676
  171MPD1    H5 2614   3.123   3.960  15.548 -2.6760 -1.0708  2.5507
  171MPD1    N1 2615   2.827   4.373  15.281  0.5608  0.5393 -0.1652
  171MPD1    H6 2616   2.812   4.308  15.204  0.0002 -0.4652  0.7857
  171MPD1    H7 2617   2.847   4.465  15.243 -1.7026  0.5901 -1.2364
  172MPD1     C 2618   1.928   2.906   0.723  0.0508  0.4656  0.6933
  172MPD1    C1 2619   1.802   2.955   0.731 -0.4187 -0.6704  0.0945
  172MPD1    C2 2620   1.770   3.069   0.658 -0.7249 -0.0367  0.0463
  172MPD1    C3 2621   1.871   3.156   0.620 -0.5641 -0.2680  0.5597
  172MPD1    C4 2622   2.001   3.107   0.632 -0.1577 -0.3180 -0.3196
  172MPD1    C5 2623   2.030   2.984   0.677  0.0363 -0.4389  0.4016
  172MPD1     H 2624   1.664   3.091   0.648 -1.2731 -1.1981  3.3536
  172MPD1    H1 2625   2.083   3.166   0.592 -2.3758  2.4080 -0.8198
  172MPD1    H2 2626   1.955   2.812   0.770 -1.5072 -0.0982  0.4578
  172MPD1    H3 2627   2.132   2.952   0.691 -0.4167 -1.5721  1.0867
  172MPD1     N 2628   1.853   3.289   0.579  0.0217  0.1793  0.1335
  172MPD1    H5 2629   1.935   3.345   0.557  0.7185 -0.3073  1.4938
  172MPD1    N1 2630   1.698   2.868   0.765  0.0509 -0.0905 -0.0787
  172MPD1    H6 2631   1.613   2.922   0.773 -0.7285 -1.7158  2.5193
  172MPD1    H7 2632   1.708   2.800   0.841  3.2473  1.4599  0.9114
  173MPD1     C 2633   3.838   2.973  13.770  0.1134 -0.3889  0.5496
  173MPD1    C1 2634   3.851   2.903  13.890 -0.1014 -0.3004  0.1612
  173MPD1    C2 2635   3.740   2.898  13.979 -0.0113  0.0242  0.3573
  173MPD1    C3 2636   3.617   2.933  13.930 -0.0384  0.1559 -0.6630
  173MPD1    C4 2637   3.599   3.005  13.812 -0.3595  0.0048 -0.1375
  173MPD1    C5 2638   3.715   3.023  13.738  0.0330  0.3353 -0.7458
  173MPD1     H 2639   3.750   2.849  14.075  1.8594  2.2165  1.2963
  173MPD1    H1 2640   3.504   3.044  13.777 -0.0278  1.4609  0.6145
  173MPD1    H2 2641   3.914   3.000  13.697 -0.8416 -1.0416 -0.6976
  173MPD1    H3 2642   3.700   3.081  13.647  0.4883  1.5757 -0.0320
  173MPD1     N 2643   3.503   2.898  14.014  0.1255 -0.4370 -0.0549
  173MPD1    H5 2644   3.528   2.847  14.098 -1.2594 -1.7410 -0.4271
  173MPD1    N1 2645   3.978   2.877  13.933 -0.2142  0.0896 -0.7202
  173MPD1    H6 2646   3.982   2.817  14.015  3.6538 -1.0688 -1.7863
  173MPD1    H7 2647   4.034   2.849  13.854 -1.0538 -1.5031 -0.7397
  174MPD1     C 2648   3.136   2.249  14.682  0.1897 -0.0526  0.3600
  174MPD1    C1 2649   3.257   2.268  14.627  0.2683 -0.4671 -0.3181
  174MPD1    C2 2650   3.271   2.365  14.524  0.2866  0.3809  0.4743
  174MPD1    C3 2651   3.161   2.406  14.455 -0.3621 -0.4582  0.0803
  174MPD1    C4 2652   3.030   2.363  14.494 -0.0593  0.5244  0.1100
  174MPD1    C5 2653   3.023   2.304  14.619  0.6437  0.2512 -0.0718
  174MPD1     H 2654   3.373   2.396  14.504  0.6737 -1.4426 -0.4340
  174MPD1    H1 2655   2.937   2.384  14.443 -0.8863 -0.0325  1.3873
  174MPD1    H2 2656   3.114   2.196  14.773  1.4540  0.3886  0.9243
  174MPD1    H3 2657   2.926   2.286  14.663  0.8859 -0.0938  0.3200
  174MPD1     N 2658   3.169   2.512  14.361 -0.0524  0.1343  0.1484
  174MPD1    H5 2659   3.081   2.555  14.336  1.5196  3.3284  0.0979
  174MPD1    N1 2660   3.366   2.219  14.696  0.5593 -0.2367  0.2985
  174MPD1    H6 2661   3.443   2.218  14.630 -0.5524 -2.1948 -0.9945
  174MPD1    H7 2662   3.347   2.125  14.731  1.4203 -0.5387 -0.0431
  175MPD1     C 2663   1.897   4.417  15.295  0.0375 -0.5180 -0.7710
  175MPD1    C1 2664   1.797   4.319  15.289  1.0319 -0.0207  0.8358
  175MPD1    C2 2665   1.762   4.251  15.401  0.2267 -0.4877  0.4219
  175MPD1    C3 2666   1.809   4.286  15.526 -0.4202  0.0830 -0.2718
  175MPD1    C4 2667   1.909   4.379  15.530  0.1563 -0.1953  0.0692
  175MPD1    C5 2668   1.957   4.441  15.417  0.2562  0.2857 -0.2227
  175MPD1     H 2669   1.681   4.179  15.391 -0.7845  0.4539  1.9027
  175MPD1    H1 2670   1.951   4.413  15.624  2.4890 -1.2515 -0.6012
  175MPD1    H2 2671   1.921   4.480  15.210  1.0625 -0.1553 -0.2052
  175MPD1    H3 2672   2.019   4.529  15.432  0.8948 -0.1658 -0.2187
  175MPD1     N 2673   1.754   4.248  15.654  0.2156  0.4771  0.3687
  175MPD1    H5 2674   1.795   4.289  15.737 -0.4242  0.0616  0.8873
  175MPD1    N1 2675   1.736   4.300  15.170  0.0109  0.2236 -0.2974
  175MPD1    H6 2676   1.779   4.348  15.091 -0.8263  1.0926 -0.2256
  175MPD1    H7 2677   1.724   4.202  15.145  0.8340  0.0957 -0.1841
  176MPD1     C 2678   3.099   0.948   0.419  0.1521 -0.7069 -0.2920
  176MPD1    C1 2679   3.007   1.049   0.394  0.4127  0.6297 -0.7458
  176MPD1    C2 2680   2.963   1.058   0.268  0.8945  0.9559  0.6088
  176MPD1    C3 2681   3.024   0.991   0.159  0.2596 -0.7205 -0.2125
  176MPD1    C4 2682   3.116   0.895   0.180  0.0837 -0.0156 -0.3285
  176MPD1    C5 2683   3.148   0.871   0.311  0.2138  0.0564  0.5312
  176MPD1     H 2684   2.885   1.129   0.245 -1.8263 -1.9239  0.9921
  176MPD1    H1 2685   3.173   0.852   0.099  1.0144  1.1543 -0.2966
  176MPD1    H2 2686   3.133   0.912   0.516  2.1475 -1.3345 -1.2283
  176MPD1    H3 2687   3.217   0.791   0.336  0.7404 -0.2047 -1.7349
  176MPD1     N 2688   2.988   1.037   0.027  0.2119 -0.1775  0.2157
  176MPD1    H5 2689   2.911   1.103   0.017  1.3221  1.1419  0.4608
  176MPD1    N1 2690   2.927   1.102   0.501 -0.1254  0.9082 -0.2787
  176MPD1    H6 2691   2.878   1.188   0.477 -0.5625  0.6458 -0.3282
  176MPD1    H7 2692   2.978   1.113   0.589  0.7773 -1.0932 -0.5395
  177MPD1     C 2693   2.040   0.762  10.169  0.2091 -0.6054  0.4791
  177MPD1    C1 2694   2.015   0.877  10.107 -0.1904 -0.0489 -0.1961
  177MPD1    C2 2695   1.907   0.876  10.022  0.7485  0.0197  0.9399
  177MPD1    C3 2696   1.830   0.763  10.005  0.4817 -0.0220  0.7298
  177MPD1    C4 2697   1.859   0.645  10.077  0.4934  0.1401 -0.3517
  177MPD1    C5 2698   1.969   0.644  10.147  0.8336  0.7899 -0.4379
  177MPD1     H 2699   1.883   0.968   9.968 -1.8152  0.0806  2.1795
  177MPD1    H1 2700   1.794   0.559  10.081  0.0696  0.5615  1.9028
  177MPD1    H2 2701   2.124   0.757  10.238  0.3846  2.1269  0.4639
  177MPD1    H3 2702   1.991   0.548  10.191 -1.5514  0.3216 -0.2726
  177MPD1     N 2703   1.717   0.775   9.920  0.3994  0.1636  0.4071
  177MPD1    H5 2704   1.698   0.871   9.892 -1.0394 -0.9058 -2.2200
  177MPD1    N1 2705   2.109   0.984  10.118 -0.1912 -0.2589 -0.1582
  177MPD1    H6 2706   2.067   1.077  10.113  0.3562 -0.0148 -0.2183
  177MPD1    H7 2707   2.157   0.987  10.208  0.3052 -0.6612 -0.4115
  178MPD1     C 2708   4.277   2.066   0.476  0.5312 -0.4228 -0.8255
  178MPD1    C1 2709   4.175   1.981   0.440 -0.2726 -0.3986  0.8040
  178MPD1    C2 2710   4.156   1.976   0.299 -0.1571 -0.6726  0.5037
  178MPD1    C3 2711   4.253   2.037   0.213  0.2410 -1.0935  0.0643
  178MPD1    C4 2712   4.356   2.114   0.260  0.2360 -0.3091  0.9299
  178MPD1    C5 2713   4.365   2.130   0.395 -0.5393  0.4073 -0.1674
  178MPD1     H 2714   4.074   1.916   0.260  0.4731 -1.2444  0.0612
  178MPD1    H1 2715   4.434   2.155   0.197 -0.5714 -2.2845 -1.3418
  178MPD1    H2 2716   4.285   2.091   0.582 -2.2515 -1.3058 -0.4180
  178MPD1    H3 2717   4.434   2.197   0.445  0.2104 -2.0428  2.0990
  178MPD1     N 2718   4.254   2.023   0.074  0.0375 -0.5775  0.1501
  178MPD1    H5 2719   4.331   2.064   0.022  0.6022 -0.2304  1.2515
  178MPD1    N1 2720   4.073   1.946   0.532  0.6671  0.3537 -1.2804
  178MPD1    H6 2721   4.002   1.884   0.494 -1.3529  1.9881 -0.1799
  178MPD1    H7 2722   4.116   1.911   0.618  0.7881 -0.8385 -1.8217
  179MPD1     C 2723   3.992   0.467  16.001  0.2342  0.5508  0.2349
  179MPD1    C1 2724   3.870   0.500  15.952  0.1284  0.6321 -0.0072
  179MPD1    C2 2725   3.788   0.401  15.904  0.4789 -0.4171  0.3676
  179MPD1    C3 2726   3.818   0.269  15.899 -0.2909 -0.0354 -0.1761
  179MPD1    C4 2727   3.940   0.241  15.937 -0.4065 -0.6961 -0.5068
  179MPD1    C5 2728   4.027   0.338  15.982 -0.3794 -0.4758  0.3322
  179MPD1     H 2729   3.689   0.435  15.876  1.5181  3.7225  1.8288
  179MPD1    H1 2730   3.971   0.138  15.947 -1.0610 -0.8266  0.1982
  179MPD1    H2 2731   4.063   0.538  16.044  0.1535  1.1405 -0.5928
  179MPD1    H3 2732   4.112   0.287  16.026 -0.6669 -2.0719 -0.9431
  179MPD1     N 2733   3.737   0.164  15.848  0.6096 -0.1995  0.0331
  179MPD1    H5 2734   3.788   0.077  15.845  1.4087  0.2696  0.0656
  179MPD1    N1 2735   3.820   0.629  15.964  0.3833 -0.5120 -0.3460
  179MPD1    H6 2736   3.884   0.704  15.940 -1.8412  0.9432 -1.6711
  179MPD1    H7 2737   3.735   0.634  15.908 -1.2400  2.0379  2.3301
  180MPD1     C 2738   3.212   1.495  15.357  0.3251 -0.2723  0.1806
  180MPD1    C1 2739   3.295   1.588  15.300 -0.2913 -0.7934 -0.6783
  180MPD1    C2 2740   3.271   1.604  15.164  0.5300  0.0757 -0.3924
  180MPD1    C3 2741   3.160   1.543  15.102 -1.2876  0.5209  0.5936
  180MPD1    C4 2742   3.071   1.468  15.169  0.2210  0.3987  0.0687
  180MPD1    C5 2743   3.103   1.437  15.297  0.2445 -0.0912 -0.1672
  180MPD1     H 2744   3.346   1.657  15.105 -0.8013  0.7376 -1.4833
  180MPD1    H1 2745   2.971   1.437  15.138  0.0344  1.0007  0.0669
  180MPD1    H2 2746   3.238   1.452  15.453  2.5865 -0.7255 -0.6385
  180MPD1    H3 2747   3.054   1.360  15.355 -0.9089  0.7490 -0.0205
  180MPD1     N 2748   3.141   1.558  14.963 -0.4829  0.0811 -0.0116
  180MPD1    H5 2749   3.209   1.607  14.906  0.7268 -0.2608  1.1514
  180MPD1    N1 2750   3.419   1.619  15.356 -0.1183 -0.2870 -0.5491
  180MPD1    H6 2751   3.412   1.634  15.456 -3.6271 -0.3874 -0.7758
  180MPD1    H7 2752   3.446   1.706  15.312  1.4351  0.7460  2.4689
  181MPD1     C 2753   0.508   2.009   9.823 -0.4210  0.0412 -0.0260
  181MPD1    C1 2754   0.511   2.132   9.765  0.7003  0.1619  0.3043
  181MPD1    C2 2755   0.565   2.237   9.834 -0.2362  0.1932  0.1423
  181MPD1    C3 2756   0.623   2.212   9.956 -0.2816 -0.2619  0.5112
  181MPD1    C4 2757   0.619   2.086  10.017  0.0958 -0.1554 -0.4432
  181MPD1    C5 2758   0.548   1.987   9.952  0.2966  0.4269  0.0702
  181MPD1     H 2759   0.579   2.334   9.786  1.1638  0.7755  1.7095
  181MPD1    H1 2760   0.667   2.067  10.113 -1.0903  2.2665  0.6238
  181MPD1    H2 2761   0.471   1.920   9.773 -2.1184 -0.5901  2.3372
  181MPD1    H3 2762   0.555   1.883   9.983 -2.5472 -0.6016 -2.8394
  181MPD1     N 2763   0.700   2.315  10.018 -0.0289 -0.3433 -0.6189
  181MPD1    H5 2764   0.766   2.287  10.089  0.8725  0.2633 -1.2125
  181MPD1    N1 2765   0.467   2.161   9.637  0.6763 -0.4737 -0.6481
  181MPD1    H6 2766   0.396   2.095   9.607 -0.6086  0.8085 -0.4506
  181MPD1    H7 2767   0.419   2.251   9.627 -1.0160 -1.5712 -2.2597
  182MPD1     C 2768   2.447   2.733   2.246 -0.0658  0.0036  0.3055
  182MPD1    C1 2769   2.405   2.744   2.118  1.0261 -0.1180  0.1581
  182MPD1    C2 2770   2.277   2.729   2.094 -0.3458 -0.3981  0.9884
  182MPD1    C3 2771   2.173   2.725   2.186 -0.4284  0.3145  0.8917
  182MPD1    C4 2772   2.213   2.716   2.318 -0.2641 -0.4464 -0.5180
  182MPD1    C5 2773   2.347   2.718   2.341 -0.5964 -0.6495 -0.0871
  182MPD1     H 2774   2.242   2.736   1.992 -2.1877 -0.9956  1.5962
  182MPD1    H1 2775   2.141   2.700   2.397 -1.5003 -0.7211 -1.6962
  182MPD1    H2 2776   2.549   2.726   2.281  0.9200  0.7046 -2.4390
  182MPD1    H3 2777   2.388   2.708   2.441  0.7617  0.0287 -0.5764
  182MPD1     N 2778   2.033   2.717   2.154 -0.6125  0.5209  0.1065
  182MPD1    H5 2779   1.966   2.713   2.230 -2.1580 -2.3136 -1.4037
  182MPD1    N1 2780   2.506   2.755   2.014 -0.5403  0.3921 -0.0390
  182MPD1    H6 2781   2.473   2.793   1.926 -1.1317  1.7047  0.7576
  182MPD1    H7 2782   2.580   2.818   2.045 -0.2458 -0.2900  0.6634
  183MPD1     C 2783   2.940   2.557   9.924 -0.1223 -0.2334  0.1540
  183MPD1    C1 2784   2.892   2.687   9.941 -0.2167 -0.1111 -0.0126
  183MPD1    C2 2785   2.758   2.700   9.952 -0.0014  0.1630  0.2067
  183MPD1    C3 2786   2.670   2.592   9.972 -0.1268 -0.4489  0.2062
  183MPD1    C4 2787   2.725   2.462   9.975 -0.1551  0.0646  0.4981
  183MPD1    C5 2788   2.859   2.448   9.946  0.7439  0.7177 -0.4535
  183MPD1     H 2789   2.719   2.801   9.961  2.5575  1.1421  0.3013
  183MPD1    H1 2790   2.670   2.370   9.992 -0.8992  0.9341  2.7616
  183MPD1    H2 2791   3.043   2.537   9.898 -0.3118  0.4839 -1.1248
  183MPD1    H3 2792   2.906   2.351   9.952 -2.3426 -0.6547  1.5000
  183MPD1     N 2793   2.534   2.609   9.994  0.4898 -0.4870  0.1790
  183MPD1    H5 2794   2.482   2.524  10.015 -1.9104  0.6977 -0.9597
  183MPD1    N1 2795   2.971   2.793   9.911  0.2239 -0.5358  0.4161
  183MPD1    H6 2796   2.938   2.882   9.947 -1.3499 -1.5622  1.5051
  183MPD1    H7 2797   3.064   2.779   9.951  0.8311  0.1681 -0.7389
  184MPD1     C 2798   0.775   4.311  10.043 -0.2092  0.5130 -0.4980
  184MPD1    C1 2799   0.888   4.372  10.076 -0.0071 -0.0463 -0.2141
  184MPD1    C2 2800   0.930   4.483   9.998 -0.5617  0.4458  0.0680
  184MPD1    C3 2801   0.842   4.548   9.910  0.0381  0.6104  0.1684
  184MPD1    C4 2802   0.717   4.494   9.891  0.1122 -0.1139  0.1816
  184MPD1    C5 2803   0.688   4.375   9.954  0.3912 -0.3962  1.0783
  184MPD1     H 2804   1.026   4.529  10.018 -1.2672  1.2914  1.5014
  184MPD1    H1 2805   0.649   4.542   9.821 -0.1300  1.4009  1.4695
  184MPD1    H2 2806   0.741   4.221  10.093  0.3360  0.4411 -0.2500
  184MPD1    H3 2807   0.590   4.330   9.941  0.3477  0.1589 -0.5414
  184MPD1     N 2808   0.878   4.667   9.840 -0.6205 -0.5125 -0.7136
  184MPD1    H5 2809   0.813   4.701   9.770 -0.4052 -0.2445 -0.7844
  184MPD1    N1 2810   0.959   4.307  10.176 -0.0410 -0.9329  0.0450
  184MPD1    H6 2811   1.015   4.369  10.235 -1.0377 -0.1621  0.1697
  184MPD1    H7 2812   0.895   4.263  10.241  0.4578 -0.0081  1.1616
  185MPD1     C 2813   0.869   0.368   8.949 -0.1712  0.0521 -0.2422
  185MPD1    C1 2814   0.876   0.244   9.004 -0.6227  0.2871  0.2154
  185MPD1    C2 2815   0.898   0.236   9.142  0.7536  0.0038  0.5384
  185MPD1    C3 2816   0.911   0.345   9.224 -0.3128 -0.1022  0.0511
  185MPD1    C4 2817   0.911   0.464   9.161  0.0036  0.0223 -0.5465
  185MPD1    C5 2818   0.895   0.479   9.031  0.0397  0.8510  0.2381
  185MPD1     H 2819   0.910   0.138   9.186 -0.5173 -1.5116 -2.4855
  185MPD1    H1 2820   0.919   0.555   9.220  0.9863 -1.8621  2.2753
  185MPD1    H2 2821   0.844   0.383   8.845 -1.1741  1.6758  0.2358
  185MPD1    H3 2822   0.884   0.580   8.993 -3.1650 -0.3244 -1.9921
  185MPD1     N 2823   0.934   0.339   9.365  0.6148  0.4048  0.0462
  185MPD1    H5 2824   0.945   0.428   9.414 -2.4168  0.5071  0.4992
  185MPD1    N1 2825   0.872   0.124   8.927  0.5436  0.1797  0.0745
  185MPD1    H6 2826   0.838   0.043   8.977  0.7708 -0.7106 -1.2158
  185MPD1    H7 2827   0.818   0.146   8.844  0.0472 -1.8329 -0.1265
  186MPD1     C 2828   4.275   4.502  15.975  0.9217  0.1235 -0.2220
  186MPD1    C1 2829   4.141   4.506  16.026 -0.2876  0.0951 -0.5388
  186MPD1    C2 2830   4.111   4.593  16.133  0.0741 -0.3961 -0.0101
  186MPD1    C3 2831   4.205   4.689  16.169 -1.1710 -0.1631  0.1505
  186MPD1    C4 2832   4.329   4.685  16.112 -0.1275 -0.6469 -0.2536
  186MPD1    C5 2833   4.372   4.589  16.020  0.3826  0.2862 -0.6778
  186MPD1     H 2834   4.009   4.599  16.168 -0.1158 -1.6288 -0.3626
  186MPD1    H1 2835   4.398   0.049  16.122 -0.4083 -0.4704  0.2353
  186MPD1    H2 2836   4.292   4.451  15.881  1.5323 -0.3808  0.1650
  186MPD1    H3 2837   4.461   4.599  15.959 -1.3726  0.6823 -3.1657
  186MPD1     N 2838   4.174   0.083  16.247  0.3266 -0.4966  0.7234
  186MPD1    H5 2839   4.255   0.143  16.252  0.8378 -1.1409 -0.0048
  186MPD1    N1 2840   4.045   4.417  15.986 -0.5579 -0.0267  0.3422
  186MPD1    H6 2841   3.956   4.435  16.034 -0.2763 -0.2696  0.9575
  186MPD1    H7 2842   4.032   4.402  15.886 -1.3120 -0.9278  0.5678
  187MPD1     C 2843   3.366   1.660  17.465 -0.9196 -0.4037  0.0902
  187MPD1    C1 2844   3.452   1.762  17.433 -1.0069  0.2166 -0.5475
  187MPD1    C2 2845   3.406   1.890  17.451  0.5093  0.1504 -1.1651
  187MPD1    C3 2846   3.278   1.922  17.489 -0.1361  0.0020  0.0989
  187MPD1    C4 2847   3.197   1.813  17.519  0.2186  0.4997 -0.3878
  187MPD1    C5 2848   3.242   1.682  17.515 -0.4489  0.0102 -0.0605
  187MPD1     H 2849   3.476   1.967  17.418  0.6858  0.0181 -1.1023
  187MPD1    H1 2850   3.091   1.837  17.526 -0.3159 -1.4427 -1.4631
  187MPD1    H2 2851   3.404   1.561  17.441 -0.5507 -0.2363 -0.0153
  187MPD1    H3 2852   3.183   1.595  17.538 -0.5481 -0.0227 -0.4521
  187MPD1     N 2853   3.219   2.054  17.481 -0.2651 -0.1713 -0.7569
  187MPD1    H5 2854   3.119   2.067  17.470 -0.7511 -2.4842  0.8750
  187MPD1    N1 2855   3.579   1.738  17.379  0.3383  0.1466 -0.5097
  187MPD1    H6 2856   3.635   1.822  17.389  1.8483 -0.7595 -1.2628
  187MPD1    H7 2857   3.570   1.727  17.279  2.3098 -2.0268 -0.4489
  188MPD1     C 2858   4.106   1.790  10.261 -1.1366  0.1362  0.0549
  188MPD1    C1 2859   4.148   1.784  10.129 -0.5189 -0.1618  0.8182
  188MPD1    C2 2860   4.083   1.695  10.048  0.2132 -0.2014 -0.5301
  188MPD1    C3 2861   4.000   1.597  10.101  0.0078 -0.0865  0.2727
  188MPD1    C4 2862   3.985   1.585  10.238 -0.1437  0.5769  0.3850
  188MPD1    C5 2863   4.037   1.687  10.319  0.7070 -1.3396  0.1641
  188MPD1     H 2864   4.096   1.706   9.941  0.8482 -3.0305 -0.7357
  188MPD1    H1 2865   3.914   1.519  10.286 -1.4091  1.7174  0.0767
  188MPD1    H2 2866   4.158   1.861  10.324 -0.3394 -2.3498  2.2181
  188MPD1    H3 2867   4.019   1.682  10.425 -2.0715  0.0782 -0.2623
  188MPD1     N 2868   3.925   1.509  10.018 -0.3156  0.5714 -0.9094
  188MPD1    H5 2869   3.872   1.434  10.060  1.3002  0.6666  1.2788
  188MPD1    N1 2870   4.216   1.897  10.074  0.3055  0.0951  0.1540
  188MPD1    H6 2871   4.270   1.872   9.992 -2.8863 -0.6430 -1.7046
  188MPD1    H7 2872   4.283   1.927  10.145 -1.8039  1.0663  1.7512
  189MPD1     C 2873   3.173   2.978   0.336 -0.0948 -0.0828 -0.3286
  189MPD1    C1 2874   3.239   3.087   0.397 -0.8725  0.1303 -0.6681
  189MPD1    C2 2875   3.381   3.074   0.405  0.3320  0.0286  0.1953
  189MPD1    C3 2876   3.455   2.968   0.360  0.0689  0.5140 -0.5628
  189MPD1    C4 2877   3.389   2.867   0.305  0.1614  0.1155 -0.1488
  189MPD1    C5 2878   3.253   2.871   0.294  0.7903  0.0443 -1.0531
  189MPD1     H 2879   3.436   3.151   0.458 -0.4949  1.5789 -1.1996
  189MPD1    H1 2880   3.441   2.780   0.266 -2.1869 -2.4987  2.5698
  189MPD1    H2 2881   3.066   2.982   0.320 -0.2533 -2.1515  0.2093
  189MPD1    H3 2882   3.201   2.788   0.248 -0.2116 -0.3750  0.8480
  189MPD1     N 2883   3.589   2.978   0.357 -0.1627 -0.5826  0.1250
  189MPD1    H5 2884   3.634   3.069   0.368  2.3887 -1.7795 -0.3316
  189MPD1    N1 2885   3.167   3.191   0.454 -0.6675  0.2065 -0.2799
  189MPD1    H6 2886   3.079   3.204   0.404  0.5289 -0.3122 -2.5071
  189MPD1    H7 2887   3.209   3.283   0.460 -0.2078  0.1844 -3.1031
  190MPD1     C 2888   2.947   1.149  15.400  0.0012 -0.0683 -0.2016
  190MPD1    C1 2889   3.054   1.098  15.324 -0.8669 -0.2272 -0.6459
  190MPD1    C2 2890   3.163   1.055  15.399 -0.3969 -0.1883 -0.0510
  190MPD1    C3 2891   3.176   1.084  15.537 -1.0969 -0.4895  0.3974
  190MPD1    C4 2892   3.073   1.150  15.597  0.6739  1.0537  0.0423
  190MPD1    C5 2893   2.960   1.176  15.532 -0.2062 -0.3624 -0.0941
  190MPD1     H 2894   3.246   1.014  15.344 -1.2445 -2.1738  0.1331
  190MPD1    H1 2895   3.076   1.181  15.700  0.4272 -0.0548  0.3789
  190MPD1    H2 2896   2.847   1.155  15.359  0.8321  0.1125 -2.2208
  190MPD1    H3 2897   2.876   1.208  15.593 -2.2888 -0.9917 -2.6630
  190MPD1     N 2898   3.284   1.058  15.617 -0.9936  0.3176 -0.1608
  190MPD1    H5 2899   3.279   1.093  15.713  0.4948 -0.1459  0.0869
  190MPD1    N1 2900   3.045   1.060  15.187  0.5144 -0.3347  0.1853
  190MPD1    H6 2901   3.132   1.037  15.140 -0.5476  0.7926 -2.3298
  190MPD1    H7 2902   2.985   1.118  15.129 -1.6396 -0.0394  2.7188
  191MPD1     C 2903   3.298   1.991  12.674  0.1953 -0.0419 -0.1605
  191MPD1    C1 2904   3.189   2.014  12.599 -0.2059  0.3826 -0.4413
  191MPD1    C2 2905   3.149   2.143  12.572  0.3827  0.1001  0.5669
  191MPD1    C3 2906   3.221   2.251  12.614 -0.2815 -0.7365  0.2590
  191MPD1    C4 2907   3.341   2.227  12.685  0.1969  0.5547  0.2174
  191MPD1    C5 2908   3.374   2.098  12.724 -0.2186 -0.7779  0.5409
  191MPD1     H 2909   3.056   2.154  12.518  0.1336 -0.6933  0.8378
  191MPD1    H1 2910   3.408   2.305  12.722 -0.9695  0.7114  2.0185
  191MPD1    H2 2911   3.323   1.893  12.712  1.9242  0.1534 -0.7988
  191MPD1    H3 2912   3.457   2.063  12.784  0.6180  1.8330  0.9361
  191MPD1     N 2913   3.184   2.376  12.570 -0.0910  0.2284  0.2214
  191MPD1    H5 2914   3.106   2.383  12.506  1.6138  1.7512 -1.6960
  191MPD1    N1 2915   3.100   1.905  12.564 -0.1529  0.2160 -0.2625
  191MPD1    H6 2916   3.047   1.912  12.477 -0.2532  0.8681 -0.1492
  191MPD1    H7 2917   3.152   1.821  12.541  1.8444  1.0919  1.0821
  192MPD1     C 2918   2.449   3.032  12.337  0.0227  0.2260  0.0228
  192MPD1    C1 2919   2.460   2.907  12.395  0.4969 -0.1991  0.5302
  192MPD1    C2 2920   2.570   2.865  12.456 -0.2767 -0.2060  0.5988
  192MPD1    C3 2921   2.679   2.951  12.446  0.0889 -0.7506 -0.0375
  192MPD1    C4 2922   2.667   3.080  12.391  0.0704 -0.5474  0.1206
  192MPD1    C5 2923   2.551   3.119  12.345 -0.0991 -0.9355  0.5458
  192MPD1     H 2924   2.582   2.761  12.483  0.0011  0.2477  2.2531
  192MPD1    H1 2925   2.759   3.133  12.369  0.5254 -2.0002 -1.4659
  192MPD1    H2 2926   2.352   3.071  12.307 -0.1574  1.5646  2.3862
  192MPD1    H3 2927   2.542   3.218  12.302 -0.1322 -0.1976  2.2668
  192MPD1     N 2928   2.817   2.902  12.458  0.4268 -0.5630  0.6452
  192MPD1    H5 2929   2.895   2.966  12.445 -0.3616  0.3684  0.5036
  192MPD1    N1 2930   2.338   2.845  12.423 -0.3567 -0.3162  0.2015
  192MPD1    H6 2931   2.351   2.746  12.440  0.9421 -0.2112 -0.1740
  192MPD1    H7 2932   2.264   2.856  12.354 -0.2799  0.5083  0.2525
  193MPD1     C 2933   3.061   3.056  15.884  0.1276  0.2951  0.2075
  193MPD1    C1 2934   3.051   3.192  15.903 -0.5398 -0.4841  0.0998
  193MPD1    C2 2935   3.073   3.237  16.030 -0.1982  0.8566 -0.4043
  193MPD1    C3 2936   3.113   3.157  16.134  0.0016 -0.8437 -0.2458
  193MPD1    C4 2937   3.140   3.029  16.113  0.0761 -0.3944 -0.7995
  193MPD1    C5 2938   3.104   2.980  15.989 -0.0859 -0.2699 -0.1821
  193MPD1     H 2939   3.061   3.343  16.048 -2.2649  0.6145 -0.3991
  193MPD1    H1 2940   3.175   2.961  16.189 -0.4928  1.3826  1.0428
  193MPD1    H2 2941   3.040   3.001  15.792  1.2827 -0.9727  0.7074
  193MPD1    H3 2942   3.099   2.873  15.975  0.2675 -0.5477  1.7783
  193MPD1     N 2943   3.155   3.222  16.258 -0.0063  0.0527  0.5550
  193MPD1    H5 2944   3.212   3.167  16.322 -0.9029 -1.1894  0.2797
  193MPD1    N1 2945   2.996   3.276  15.802 -0.0305  0.0467 -0.2883
  193MPD1    H6 2946   3.023   3.259  15.705 -0.2617 -2.2723  0.0460
  193MPD1    H7 2947   3.022   3.373  15.818  0.4260  0.0016 -0.7542
  194MPD1     C 2948   4.400   0.296  17.441  0.3950  0.7716  0.6518
  194MPD1    C1 2949   4.531   0.264  17.486 -0.4680 -0.1886  0.6564
  194MPD1    C2 2950   4.585   0.146  17.438  0.2543  0.2552  0.3027
  194MPD1    C3 2951   4.511   0.057  17.364  0.5644  0.6579  0.1730
  194MPD1    C4 2952   4.378   0.084  17.337  1.1207  0.2570 -0.3172
  194MPD1    C5 2953   4.324   0.205  17.374 -0.2905  0.0847 -0.3335
  194MPD1     H 2954   4.689   0.121  17.457  0.0255  0.4877  1.8128
  194MPD1    H1 2955   4.314   0.011  17.288 -0.6218  0.8886  1.0150
  194MPD1    H2 2956   4.361   0.397  17.454  2.9112  1.8245  0.0125
  194MPD1    H3 2957   4.226   0.229  17.333 -0.4393 -1.7609 -1.0341
  194MPD1     N 2958   4.566   4.654  17.321  0.2527 -0.2579  0.4540
  194MPD1    H5 2959   4.510   4.584  17.274 -0.2854 -0.8221  1.9617
  194MPD1    N1 2960   4.615   0.362  17.538 -0.2484  0.4030  0.3321
  194MPD1    H6 2961   4.571   0.435  17.593 -3.4233 -1.7114  0.6683
  194MPD1    H7 2962   4.694   0.328  17.592 -0.1058 -0.8823 -0.6841
  195MPD1     C 2963   2.752   0.787   0.758 -0.2070  0.9216 -0.2053
  195MPD1    C1 2964   2.678   0.684   0.721 -0.1094  0.3098 -0.3966
  195MPD1    C2 2965   2.549   0.707   0.671 -0.0809  0.6486 -0.5186
  195MPD1    C3 2966   2.503   0.837   0.670 -0.1199  0.5672 -0.5366
  195MPD1    C4 2967   2.576   0.952   0.722  0.0558 -0.1739  0.2389
  195MPD1    C5 2968   2.704   0.917   0.758  0.3687 -0.0435 -0.3694
  195MPD1     H 2969   2.500   0.628   0.615 -0.3233 -0.2096  0.9036
  195MPD1    H1 2970   2.545   1.056   0.713  0.5806 -0.0502 -0.1274
  195MPD1    H2 2971   2.857   0.771   0.779 -0.2491  0.7801 -0.0967
  195MPD1    H3 2972   2.773   0.999   0.772  1.1477 -0.8837  0.8005
  195MPD1     N 2973   2.385   0.871   0.598  0.4492 -0.2649 -0.3010
  195MPD1    H5 2974   2.374   0.972   0.591  1.7751  0.0109  1.4607
  195MPD1    N1 2975   2.742   0.559   0.689 -0.0191 -0.1557 -0.6520
  195MPD1    H6 2976   2.818   0.548   0.754 -1.7998 -0.1254  1.4381
  195MPD1    H7 2977   2.679   0.478   0.685 -1.5483  0.8062  4.4118
  196MPD1     C 2978   3.642   1.979   0.881  0.4671  0.7006  0.3436
  196MPD1    C1 2979   3.550   2.046   0.806  0.4270 -0.1167  0.0248
  196MPD1    C2 2980   3.441   2.109   0.866 -0.0628  0.0756  0.0684
  196MPD1    C3 2981   3.416   2.088   1.005  0.5070  0.9620  0.1781
  196MPD1    C4 2982   3.520   2.034   1.080  0.5069  0.1423 -0.1423
  196MPD1    C5 2983   3.632   1.981   1.020  0.0707  0.3266 -0.2219
  196MPD1     H 2984   3.361   2.158   0.812 -1.9914 -1.6493  1.3346
  196MPD1    H1 2985   3.514   2.020   1.187  0.3544 -0.2307 -0.2014
  196MPD1    H2 2986   3.728   1.937   0.830  1.9990  1.6120  2.1651
  196MPD1    H3 2987   3.705   1.936   1.087  1.9095  1.0395 -1.7638
  196MPD1     N 2988   3.301   2.119   1.079 -0.2186 -0.2532  0.6109
  196MPD1    H5 2989   3.308   2.108   1.180 -2.6125 -0.2839  0.7740
  196MPD1    N1 2990   3.557   2.044   0.666 -0.1421  0.6586 -0.4007
  196MPD1    H6 2991   3.656   2.053   0.647 -0.5849  1.2993 -2.4670
  196MPD1    H7 2992   3.512   2.119   0.613 -2.7233 -0.7997 -0.2584
  197MPD1     C 2993   0.805   0.621   0.008  0.3110 -0.6749  0.0589
  197MPD1    C1 2994   0.812   0.491  17.657  0.5399 -0.4253  0.4611
  197MPD1    C2 2995   0.926   0.445  17.593 -0.0839 -0.3358  0.2018
  197MPD1    C3 2996   1.036   0.529  17.569 -0.2089 -0.1357  0.1548
  197MPD1    C4 2997   1.029   0.658  17.616  0.2591 -0.1606 -0.7378
  197MPD1    C5 2998   0.913   0.699  17.671 -0.1044  0.5706  0.0453
  197MPD1     H 2999   0.928   0.339  17.568  2.8242 -0.4436  0.8927
  197MPD1    H1 3000   1.117   0.721  17.611  0.6555 -0.5416  1.6026
  197MPD1    H2 3001   0.725   0.673   0.060 -0.9745 -0.7784 -1.8345
  197MPD1    H3 3002   0.894   0.804   0.009  1.5767  0.8584  0.1656
  197MPD1     N 3003   1.149   0.486  17.501 -0.0269  0.1656 -0.1307
  197MPD1    H5 3004   1.238   0.535  17.505 -0.1557  0.3167  0.8213
  197MPD1    N1 3005   0.700   0.405  17.667  0.2890 -0.4046 -0.2531
  197MPD1    H6 3006   0.655   0.408   0.080  0.0980 -1.0466 -0.3260
  197MPD1    H7 3007   0.733   0.309  17.660  0.0517 -0.4787 -0.3693
  198MPD1     C 3008   3.897   1.423  15.675 -0.3589  0.1744  0.1224
  198MPD1    C1 3009   3.839   1.488  15.569  0.8151  0.0294 -0.1779
  198MPD1    C2 3010   3.851   1.631  15.570  0.2116 -1.1012  0.1529
  198MPD1    C3 3011   3.896   1.697  15.681  0.2422  0.6057  0.2379
  198MPD1    C4 3012   3.945   1.630  15.787  0.0663  0.0396  0.0355
  198MPD1    C5 3013   3.946   1.499  15.779  0.0292 -0.6100  0.9909
  198MPD1     H 3014   3.815   1.692  15.488  1.6374 -0.6186 -0.1250
  198MPD1    H1 3015   3.977   1.671  15.882  0.3488 -0.0299 -0.0295
  198MPD1    H2 3016   3.888   1.315  15.677 -1.5332  0.2174 -2.2324
  198MPD1    H3 3017   3.971   1.446  15.871 -0.1225 -0.0121  1.3790
  198MPD1     N 3018   3.888   1.840  15.674  0.4057 -0.5828 -0.2029
  198MPD1    H5 3019   3.865   1.875  15.582 -0.3535 -0.0475  0.1876
  198MPD1    N1 3020   3.799   1.429  15.447 -0.1096 -0.7991  0.3264
  198MPD1    H6 3021   3.752   1.340  15.460 -2.6417  0.5189  0.1633
  198MPD1    H7 3022   3.728   1.488  15.405 -1.8517 -1.1909  2.7428
  199MPD1     C 3023   1.036   2.179   9.729  0.3306 -0.4841  0.0138
  199MPD1    C1 3024   1.112   2.286   9.773 -0.5680  0.7233  0.2085
  199MPD1    C2 3025   1.064   2.417   9.766 -0.5259 -0.3138 -0.0430
  199MPD1    C3 3026   0.934   2.442   9.720 -0.4164  0.1011 -0.1952
  199MPD1    C4 3027   0.856   2.337   9.664 -0.3747 -0.2215  0.4773
  199MPD1    C5 3028   0.908   2.210   9.680  0.3356 -0.1747 -0.3256
  199MPD1     H 3029   1.108   2.500   9.821  2.0590 -0.4318 -1.9328
  199MPD1    H1 3030   0.753   2.345   9.630  0.0021  2.1340 -0.1086
  199MPD1    H2 3031   1.068   2.076   9.732 -1.0023 -0.8111  2.8612
  199MPD1    H3 3032   0.853   2.124   9.643 -1.8090  1.6972 -1.5381
  199MPD1     N 3033   0.866   2.562   9.724  0.6131 -0.5195  0.6187
  199MPD1    H5 3034   0.770   2.552   9.691  0.0925  0.2210  1.9098
  199MPD1    N1 3035   1.238   2.266   9.822  0.6668  0.0593 -0.1243
  199MPD1    H6 3036   1.226   2.185   9.882 -0.0462  0.1884 -0.0947
  199MPD1    H7 3037   1.261   2.351   9.873 -0.1293  0.7257 -0.8889
  200MPD1     C 3038   4.281   3.567  15.058  0.4101  0.4624  0.5003
  200MPD1    C1 3039   4.247   3.524  14.934 -0.6637 -0.0611 -0.0552
  200MPD1    C2 3040   4.339   3.523  14.833  0.2028 -0.0633  0.6363
  200MPD1    C3 3041   4.477   3.546  14.856  0.1826 -0.3600 -0.5679
  200MPD1    C4 3042   4.510   3.595  14.977  0.6088 -0.5104  0.1000
  200MPD1    C5 3043   4.416   3.607  15.078 -0.0214  0.8214 -0.3228
  200MPD1     H 3044   4.300   3.527  14.732 -0.6484  2.8965  1.0837
  200MPD1    H1 3045   4.611   3.631  14.995  0.8387 -0.4802 -1.2286
  200MPD1    H2 3046   4.209   3.577  15.138 -0.1008 -0.1899  0.1289
  200MPD1    H3 3047   4.440   3.656  15.171 -0.1343 -1.3394  0.8449
  200MPD1     N 3048   4.562   3.538  14.742  0.0942  0.4092  0.5485
  200MPD1    H5 3049   4.518   3.493  14.662  1.2781  1.5100 -0.7206
  200MPD1    N1 3050   4.109   3.509  14.913  0.4156  0.0604  0.0193
  200MPD1    H6 3051   4.109   3.433  14.846 -1.0357  0.9010 -0.9154
  200MPD1    H7 3052   4.059   3.488  14.999 -0.3369  1.4721 -0.0857
  201MPD1     C 3053   2.314   2.946  13.163  0.0071 -0.5266 -1.1159
  201MPD1    C1 3054   2.251   2.866  13.072 -0.6075 -0.0241 -0.3172
  201MPD1    C2 3055   2.307   2.735  13.067  0.1746  0.5256 -0.3625
  201MPD1    C3 3056   2.393   2.687  13.149 -0.0853 -0.8373 -0.6174
  201MPD1    C4 3057   2.435   2.759  13.262 -0.2420  0.1759 -0.0661
  201MPD1    C5 3058   2.395   2.887  13.261  0.1913  0.6275  0.0743
  201MPD1     H 3059   2.269   2.663  12.995  1.3876 -1.0002  0.5320
  201MPD1    H1 3060   2.503   2.723  13.338  1.1596 -0.6187 -1.6771
  201MPD1    H2 3061   2.287   3.050  13.176 -1.5053 -0.8381 -1.7228
  201MPD1    H3 3062   2.426   2.962  13.333  0.6992 -1.7278  2.2872
  201MPD1     N 3063   2.435   2.553  13.140 -0.4184  0.8225 -0.4206
  201MPD1    H5 3064   2.389   2.497  13.069  2.5201 -2.4909  0.3000
  201MPD1    N1 3065   2.164   2.913  12.970 -0.1493 -0.1266  0.5978
  201MPD1    H6 3066   2.101   2.975  13.019 -0.9555 -0.8465  0.4678
  201MPD1    H7 3067   2.107   2.839  12.931 -1.5480  1.3246 -0.0860
  202MPD1     C 3068   2.149   2.054   9.230  0.1065 -0.8840  0.9792
  202MPD1    C1 3069   2.131   1.921   9.231  0.0211 -0.1178 -0.0243
  202MPD1    C2 3070   2.171   1.852   9.341 -0.6691 -0.6647 -1.0124
  202MPD1    C3 3071   2.194   1.916   9.462 -0.6331 -0.0929  0.0510
  202MPD1    C4 3072   2.198   2.050   9.465  0.0859 -0.3071  0.2515
  202MPD1    C5 3073   2.186   2.116   9.346 -0.1504  0.1549 -0.0562
  202MPD1     H 3074   2.174   1.743   9.345 -0.2971 -0.6409 -0.6380
  202MPD1    H1 3075   2.238   2.104   9.551  1.6630  1.4144 -1.5545
  202MPD1    H2 3076   2.138   2.118   9.143 -3.7237  0.7224  2.6381
  202MPD1    H3 3077   2.185   2.224   9.342  0.0544  0.2629  2.6854
  202MPD1     N 3078   2.237   1.854   9.578  0.2870  0.7217  0.3360
  202MPD1    H5 3079   2.233   1.917   9.658 -3.1555 -0.6088  1.1982
  202MPD1    N1 3080   2.128   1.867   9.104 -0.6481  0.2021  0.2268
  202MPD1    H6 3081   2.077   1.928   9.041  1.8377  1.1882 -0.8133
  202MPD1    H7 3082   2.089   1.773   9.105  2.7286 -1.1826  0.7864
  203MPD1     C 3083   1.021   3.102  12.637  0.6508 -0.1256 -0.1769
  203MPD1    C1 3084   1.026   2.997  12.548 -0.2769  0.2020  0.0456
  203MPD1    C2 3085   1.047   2.864  12.594 -0.1981  0.3524 -0.2563
  203MPD1    C3 3086   1.074   2.845  12.728  0.3412  0.6409 -0.2712
  203MPD1    C4 3087   1.085   2.950  12.812  0.4139 -0.0101 -0.5772
  203MPD1    C5 3088   1.055   3.076  12.769  0.6580  0.4580  0.0961
  203MPD1     H 3089   1.048   2.789  12.516 -0.5399 -0.8134  0.8589
  203MPD1    H1 3090   1.126   2.942  12.911 -0.5675 -2.1874 -0.3513
  203MPD1    H2 3091   0.989   3.204  12.620 -0.4071 -0.1355  1.7391
  203MPD1    H3 3092   1.045   3.159  12.838 -0.7224  0.7280 -0.4225
  203MPD1     N 3093   1.107   2.712  12.759 -0.4282  0.5401 -0.2609
  203MPD1    H5 3094   1.121   2.639  12.690 -1.3113  0.3523 -0.2495
  203MPD1    N1 3095   1.012   3.022  12.414 -0.8205  0.2439  0.8346
  203MPD1    H6 3096   1.011   2.937  12.357  3.8317  1.7065 -1.4216
  203MPD1    H7 3097   1.075   3.090  12.372  1.5617 -1.7597  1.1944
  204MPD1     C 3098   4.492   4.232   0.104  0.7754 -0.5932  0.1719
  204MPD1    C1 3099   4.515   4.138   0.197 -0.0319 -0.3212  0.6504
  204MPD1    C2 3100   4.578   4.025   0.152 -0.6814  0.0423 -0.9403
  204MPD1    C3 3101   4.583   3.990   0.016  0.2685  0.2261 -0.2688
  204MPD1    C4 3102   4.536   4.086  17.607 -0.8004 -0.8166  0.0050
  204MPD1    C5 3103   4.497   4.207  17.649  0.0688  0.6930  0.7176
  204MPD1     H 3104   4.634   3.973   0.228 -0.9481 -0.2801 -0.9658
  204MPD1    H1 3105   4.547   4.076  17.500  1.0143  0.8441  0.0144
  204MPD1    H2 3106   4.457   4.327   0.143 -0.6736 -2.1275  2.5960
  204MPD1    H3 3107   4.459   4.280  17.578  0.9194 -0.6904 -1.1734
  204MPD1     N 3108   4.646   3.864  17.664  0.0756  0.5977 -0.3828
  204MPD1    H5 3109   4.704   3.823   0.058 -1.0739 -1.1141 -0.4419
  204MPD1    N1 3110   4.529   4.183   0.324 -0.1725  0.0062  0.0390
  204MPD1    H6 3111   4.491   4.106   0.379 -0.5287  0.0750 -0.1111
  204MPD1    H7 3112   4.470   4.263   0.345  3.4896  2.2975  1.4135
  205MPD1     C 3113   1.231   3.041  17.416 -0.4797 -0.1306  0.6569
  205MPD1    C1 3114   1.256   3.011  17.546 -0.4347 -0.4283 -0.5364
  205MPD1    C2 3115   1.156   2.961  17.621 -0.0303  0.2085 -0.5376
  205MPD1    C3 3116   1.029   2.944  17.565 -0.2096 -0.3908 -0.6221
  205MPD1    C4 3117   1.008   2.976  17.435  0.2721 -0.3458 -0.1565
  205MPD1    C5 3118   1.108   3.029  17.359 -0.5329  0.0082  0.2065
  205MPD1     H 3119   1.169   2.955   0.050 -0.5878 -2.4025 -0.6118
  205MPD1    H1 3120   0.918   2.954  17.378  0.5939  1.7573 -1.4974
  205MPD1    H2 3121   1.316   3.062  17.351 -0.3564  0.5021  1.0235
  205MPD1    H3 3122   1.101   3.047  17.252  2.6466  2.0245  0.3597
  205MPD1     N 3123   0.915   2.904  17.632  0.1738 -0.3526 -0.3156
  205MPD1    H5 3124   0.827   2.902  17.582 -0.1796 -1.5212  0.3462
  205MPD1    N1 3125   1.375   3.029  17.614  0.4162  0.1528  0.0542
  205MPD1    H6 3126   1.442   3.084  17.561 -0.1546  0.1520 -0.6600
  205MPD1    H7 3127   1.370   3.050   0.035 -0.4278 -0.2182  0.0917
  206MPD1     C 3128   0.424   0.419  16.964  0.1915  0.3460 -0.1367
  206MPD1    C1 3129   0.326   0.504  16.920 -0.5336  0.3371 -0.1390
  206MPD1    C2 3130   0.341   0.550  16.794  0.4999 -0.0591 -0.8231
  206MPD1    C3 3131   0.437   0.504  16.703 -0.1355  0.2158 -0.0137
  206MPD1    C4 3132   0.526   0.411  16.746  0.4539  0.6083  0.6685
  206MPD1    C5 3133   0.513   0.373  16.872 -0.3766  1.1944 -0.5526
  206MPD1     H 3134   0.268   0.624  16.763  1.3090  2.4181  3.2860
  206MPD1    H1 3135   0.589   0.365  16.671 -1.8051 -0.4382 -0.6137
  206MPD1    H2 3136   0.410   0.372  17.060  1.0981 -2.9056 -1.5731
  206MPD1    H3 3137   0.576   0.289  16.899 -1.6258  0.2002 -0.7046
  206MPD1     N 3138   0.455   0.566  16.581 -0.0700  0.6034  0.2869
  206MPD1    H5 3139   0.529   0.528  16.522 -0.0333 -0.8540  1.2654
  206MPD1    N1 3140   0.223   0.541  17.005 -0.7928  0.3707  0.4105
  206MPD1    H6 3141   0.132   0.537  16.959 -0.5565  3.2478 -0.3249
  206MPD1    H7 3142   0.220   0.494  17.095 -3.1524  0.4484  0.3590
  207MPD1     C 3143   2.908   3.198   9.825 -0.2231 -0.0639 -0.0978
  207MPD1    C1 3144   2.944   3.138   9.942 -0.2340 -0.2829  0.6110
  207MPD1    C2 3145   3.082   3.129   9.969  0.3857 -0.6017 -0.2227
  207MPD1    C3 3146   3.179   3.185   9.884  0.3686  0.9835 -0.5928
  207MPD1    C4 3147   3.137   3.260   9.784 -0.4693  0.5750  0.6085
  207MPD1    C5 3148   3.003   3.258   9.743  0.3412 -0.6543  0.2644
  207MPD1     H 3149   3.108   3.060  10.048 -0.3412 -1.1112 -0.4299
  207MPD1    H1 3150   3.206   3.312   9.718 -0.3649  0.8815  0.9585
  207MPD1    H2 3151   2.803   3.202   9.797 -0.1002 -0.6100 -0.6379
  207MPD1    H3 3152   2.972   3.290   9.645  0.0776 -0.3421  0.4498
  207MPD1     N 3153   3.316   3.176   9.907 -0.6710  0.3203  0.0790
  207MPD1    H5 3154   3.372   3.204   9.827  1.4142 -1.8901  0.7463
  207MPD1    N1 3155   2.852   3.055  10.003 -0.1078  0.1155  0.2090
  207MPD1    H6 3156   2.764   3.106  10.003 -0.7070 -0.9210 -0.2106
  207MPD1    H7 3157   2.871   3.051  10.103 -0.4564 -1.7098  0.2121
  208MPD1     C 3158   1.773   2.586   0.404 -0.4386 -0.4294 -0.5263
  208MPD1    C1 3159   1.642   2.545   0.402 -0.3493 -0.8907  0.3718
  208MPD1    C2 3160   1.565   2.537   0.515  0.2974 -0.3847 -0.2717
  208MPD1    C3 3161   1.618   2.560   0.639  0.0912 -0.4686 -0.2413
  208MPD1    C4 3162   1.752   2.596   0.642  0.3824 -0.2029 -0.0764
  208MPD1    C5 3163   1.829   2.608   0.528  0.5227 -0.2027 -0.3599
  208MPD1     H 3164   1.459   2.516   0.507  0.1140  0.9928 -1.4014
  208MPD1    H1 3165   1.789   2.635   0.736 -0.1047 -2.1727  0.9390
  208MPD1    H2 3166   1.836   2.601   0.317 -0.0525  0.5505 -0.0751
  208MPD1    H3 3167   1.933   2.639   0.540  0.5130 -0.3767  0.1822
  208MPD1     N 3168   1.534   2.540   0.755 -0.0085 -0.4134 -0.0045
  208MPD1    H5 3169   1.433   2.538   0.739  0.0502 -0.8733 -0.3214
  208MPD1    N1 3170   1.568   2.527   0.277 -0.0056  0.4184 -0.3900
  208MPD1    H6 3171   1.501   2.450   0.281  1.2738 -0.6494  0.3033
  208MPD1    H7 3172   1.633   2.508   0.202  1.4098 -1.3914  1.2914
  209MPD1     C 3173   3.976   2.865  11.690  0.5155  0.5948 -0.1156
  209MPD1    C1 3174   3.867   2.948  11.685  0.1024 -0.1468  0.8698
  209MPD1    C2 3175   3.844   3.022  11.564 -0.1083  0.0737 -0.2306
  209MPD1    C3 3176   3.934   3.013  11.459  0.6435 -0.2656  0.0300
  209MPD1    C4 3177   4.053   2.936  11.476  0.0359  0.0120 -0.5243
  209MPD1    C5 3178   4.076   2.860  11.592 -0.3393 -0.3488 -0.6214
  209MPD1     H 3179   3.758   3.087  11.560 -0.6093 -0.6704 -1.6640
  209MPD1    H1 3180   4.130   2.929  11.401 -1.2755  1.2859 -1.9741
  209MPD1    H2 3181   3.991   2.799  11.776 -2.0861 -1.7967 -1.4911
  209MPD1    H3 3182   4.164   2.798  11.607  1.8816  3.0308  0.3828
  209MPD1     N 3183   3.905   3.091  11.345 -0.0755  0.0314 -0.3426
  209MPD1    H5 3184   3.817   3.142  11.352 -0.2066 -0.2750  0.2397
  209MPD1    N1 3185   3.782   2.964  11.792  0.7254  0.6898 -0.0594
  209MPD1    H6 3186   3.685   2.982  11.769  0.9877  1.7378 -0.3481
  209MPD1    H7 3187   3.793   2.882  11.851 -0.9554  1.1873  0.9604
  210MPD1     C 3188   3.518   3.845  11.437 -0.1749  0.4460 -0.1637
  210MPD1    C1 3189   3.572   3.863  11.304  0.2897 -0.1473  0.0209
  210MPD1    C2 3190   3.639   3.757  11.241 -0.3794 -0.4256 -0.2958
  210MPD1    C3 3191   3.669   3.641  11.310 -0.1575 -0.2630 -0.2631
  210MPD1    C4 3192   3.616   3.625  11.436 -0.3035  0.4072  0.6568
  210MPD1    C5 3193   3.540   3.723  11.500 -0.2542 -0.0599 -0.0132
  210MPD1     H 3194   3.668   3.767  11.137 -0.2318  1.2098 -0.0949
  210MPD1    H1 3195   3.633   3.529  11.484 -1.0856 -0.5216 -0.9396
  210MPD1    H2 3196   3.458   3.916  11.493  2.0965  0.8883  1.7291
  210MPD1    H3 3197   3.511   3.719  11.605 -1.7243  4.0004 -0.2914
  210MPD1     N 3198   3.743   3.526  11.256 -0.8589  0.6483  0.4855
  210MPD1    H5 3199   3.737   3.440  11.311 -0.7243  1.2293  1.4195
  210MPD1    N1 3200   3.536   3.978  11.231 -0.1219  0.3729 -0.1085
  210MPD1    H6 3201   3.606   4.000  11.161 -0.0570 -0.0932 -0.1879
  210MPD1    H7 3202   3.539   4.056  11.297  3.7234  0.4822 -0.3909
  211MPD1     C 3203   1.522   3.108  16.922  0.2480  0.2222 -0.0425
  211MPD1    C1 3204   1.474   3.212  16.841  0.5363 -0.1306  0.3740
  211MPD1    C2 3205   1.340   3.228  16.832  0.0746  0.1638  0.2939
  211MPD1    C3 3206   1.248   3.157  16.903  0.9084 -0.1579  0.1659
  211MPD1    C4 3207   1.300   3.064  16.994 -0.3404 -0.5542  0.4006
  211MPD1    C5 3208   1.431   3.035  16.999  0.1021  0.3374 -0.1252
  211MPD1     H 3209   1.304   3.305  16.764 -1.7218 -2.6867 -1.9753
  211MPD1    H1 3210   1.238   3.001  17.057 -0.1512 -0.5100  0.6320
  211MPD1    H2 3211   1.625   3.075  16.921  0.0312 -0.4754  0.3867
  211MPD1    H3 3212   1.469   2.959  17.067  1.0574  0.6643 -0.2929
  211MPD1     N 3213   1.113   3.174  16.871 -0.4742 -0.2177 -0.7888
  211MPD1    H5 3214   1.093   3.245  16.802 -0.3849  0.3654 -0.2074
  211MPD1    N1 3215   1.557   3.261  16.736 -0.3147 -0.0039  0.4137
  211MPD1    H6 3216   1.520   3.344  16.690  2.7203  0.8175 -0.5277
  211MPD1    H7 3217   1.652   3.268  16.773  0.2728 -0.4429 -1.0106
  212MPD1     C 3218   0.125   1.194  16.234  0.0738  0.1429 -0.3256
  212MPD1    C1 3219   4.718   1.192  16.281  0.2170  0.6455  0.6478
  212MPD1    C2 3220   4.698   1.149  16.413 -0.0595  0.4041  0.9328
  212MPD1    C3 3221   0.075   1.091  16.489 -0.5597 -0.4422 -0.2341
  212MPD1    C4 3222   0.200   1.084  16.439  0.3224  0.3993 -0.2798
  212MPD1    C5 3223   0.223   1.144  16.317  0.8805 -0.2047 -0.1653
  212MPD1     H 3224   4.600   1.170  16.455 -0.9066  0.9643 -1.3451
  212MPD1    H1 3225   0.289   1.048  16.489 -0.7230 -1.3759  0.3197
  212MPD1    H2 3226   0.145   1.225  16.132  0.2438 -1.3971 -0.7578
  212MPD1    H3 3227   0.330   1.141  16.298  1.0797 -3.2723  1.5320
  212MPD1     N 3228   0.046   1.041  16.623 -0.3878  0.4784  0.1175
  212MPD1    H5 3229   0.122   1.002  16.677  1.1909  2.5601 -0.6009
  212MPD1    N1 3230   4.616   1.218  16.190 -0.2085  0.2670  0.3737
  212MPD1    H6 3231   4.663   1.274  16.120 -1.1220 -0.1608 -0.5745
  212MPD1    H7 3232   4.545   1.275  16.235  0.9551  0.8846  1.4346
  213MPD1     C 3233   3.554   1.884  15.580 -0.1795  0.6377 -0.0188
  213MPD1    C1 3234   3.463   1.793  15.635 -0.4750  0.4486 -0.0183
  213MPD1    C2 3235   3.330   1.812  15.600 -0.5511  0.1192 -0.6790
  213MPD1    C3 3236   3.289   1.930  15.547 -0.0680 -0.2066 -0.1214
  213MPD1    C4 3237   3.378   2.033  15.531 -0.1689  0.2333  0.6110
  213MPD1    C5 3238   3.508   2.006  15.538  0.3980  0.5963  0.1675
  213MPD1     H 3239   3.264   1.726  15.609 -0.2961  0.3160  2.9203
  213MPD1    H1 3240   3.347   2.125  15.484  0.9770 -0.5520 -1.6744
  213MPD1    H2 3241   3.659   1.864  15.594 -0.3593  0.6816  1.3829
  213MPD1    H3 3242   3.584   2.080  15.515 -0.6817  2.0153  1.1741
  213MPD1     N 3243   3.150   1.941  15.523 -0.2043  0.2642 -0.2555
  213MPD1    H5 3244   3.090   1.861  15.541  0.2661 -0.5069 -2.1647
  213MPD1    N1 3245   3.515   1.661  15.673  0.3761 -0.2242 -0.4626
  213MPD1    H6 3246   3.607   1.664  15.717 -0.2691 -0.5187  0.9098
  213MPD1    H7 3247   3.456   1.630  15.750  0.9566  0.5390  0.2875
  214MPD1     C 3248   2.563   1.529  16.025  0.1120 -0.1781 -0.4567
  214MPD1    C1 3249   2.480   1.593  15.937 -0.4389  0.4398 -0.0166
  214MPD1    C2 3250   2.530   1.653  15.821 -0.5197  0.2207 -0.4206
  214MPD1    C3 3251   2.669   1.676  15.810 -0.3751  0.1902 -0.1029
  214MPD1    C4 3252   2.752   1.615  15.911  0.1703 -0.1013 -0.0920
  214MPD1    C5 3253   2.702   1.540  16.015 -0.1270  0.9720 -0.6302
  214MPD1     H 3254   2.454   1.689  15.752  0.5889  2.2446 -0.6061
  214MPD1    H1 3255   2.859   1.617  15.896  0.1120 -0.7153 -0.5747
  214MPD1    H2 3256   2.539   1.481  16.119 -0.3656 -0.0988 -0.5365
  214MPD1    H3 3257   2.768   1.491  16.086  0.0301 -0.2502 -1.6103
  214MPD1     N 3258   2.734   1.743  15.703 -0.0638  0.3427  0.2833
  214MPD1    H5 3259   2.835   1.746  15.711  0.1011 -0.8488 -1.3340
  214MPD1    N1 3260   2.341   1.579  15.954  0.3063 -0.0182  0.2716
  214MPD1    H6 3261   2.305   1.610  16.044  0.8020 -0.1884  0.5293
  214MPD1    H7 3262   2.298   1.643  15.886  2.3411  2.1411  1.0230
  215MPD1     C 3263   3.985   2.005  10.555  0.5621 -0.0782 -0.0399
  215MPD1    C1 3264   4.047   2.058  10.668  0.3345  0.7363 -0.6419
  215MPD1    C2 3265   4.090   2.192  10.660 -0.6804 -0.3027 -0.0851
  215MPD1    C3 3266   4.076   2.259  10.540  0.0042  0.2319  0.1554
  215MPD1    C4 3267   4.026   2.197  10.431  0.4760 -0.6831 -0.2251
  215MPD1    C5 3268   3.982   2.064  10.433  0.2551 -0.6761 -0.4465
  215MPD1     H 3269   4.124   2.240  10.750 -0.2745  1.3515 -1.1307
  215MPD1    H1 3270   4.015   2.248  10.336  1.0296  2.8756  1.6359
  215MPD1    H2 3271   3.940   1.906  10.559 -1.3321  0.7496 -0.8241
  215MPD1    H3 3272   3.951   2.000  10.350 -0.1759  0.2237 -0.9817
  215MPD1     N 3273   4.092   2.400  10.529 -0.1588  0.3027 -0.3657
  215MPD1    H5 3274   4.058   2.450  10.447  0.2008  1.2370  0.0506
  215MPD1    N1 3275   4.041   2.000  10.795 -0.3192  0.0272  0.0390
  215MPD1    H6 3276   4.061   1.901  10.781  0.5021  0.5823 -2.6806
  215MPD1    H7 3277   4.112   2.045  10.853  0.1299 -0.6890  0.0445
  216MPD1     C 3278   1.069   0.931   0.751  0.3108 -0.7474  0.0907
  216MPD1    C1 3279   1.010   0.844   0.834  0.3158  0.2125 -0.9245
  216MPD1    C2 3280   0.893   0.781   0.793  0.1372  0.4014 -0.2260
  216MPD1    C3 3281   0.842   0.794   0.668  0.4799 -0.6638 -0.0713
  216MPD1    C4 3282   0.902   0.885   0.580 -0.0919 -0.5113 -0.3243
  216MPD1    C5 3283   1.016   0.950   0.624  0.2701 -0.3709 -0.1380
  216MPD1     H 3284   0.841   0.716   0.862 -0.1306  0.6164 -0.2274
  216MPD1    H1 3285   0.861   0.903   0.482 -0.5939 -2.8360 -0.5370
  216MPD1    H2 3286   1.162   0.974   0.786  0.4115  0.5152 -1.7229
  216MPD1    H3 3287   1.056   1.035   0.570 -0.9404 -0.1816 -0.7305
  216MPD1     N 3288   0.726   0.719   0.645 -0.2322 -0.5559  0.0293
  216MPD1    H5 3289   0.686   0.668   0.723  1.2257  0.6940  1.6023
  216MPD1    N1 3290   1.061   0.831   0.963  0.2399  0.0549 -0.7207
  216MPD1    H6 3291   1.160   0.847   0.976  0.2471 -0.5370 -0.0508
  216MPD1    H7 3292   1.042   0.740   1.004 -1.2792  0.2418 -0.9948
  217MPD1     C 3293   0.793   0.637   8.726  0.2599  0.0956 -0.4725
  217MPD1    C1 3294   0.752   0.737   8.805  0.6722 -0.0835 -0.3458
  217MPD1    C2 3295   0.843   0.812   8.872  0.3894  0.6732  0.4749
  217MPD1    C3 3296   0.977   0.795   8.860 -0.0027 -0.3834 -0.0589
  217MPD1    C4 3297   1.027   0.695   8.775  0.2190  0.7469  0.2265
  217MPD1    C5 3298   0.932   0.620   8.714 -0.3311 -0.1855 -0.4447
  217MPD1     H 3299   0.799   0.897   8.923 -1.6272 -0.2660  0.2907
  217MPD1    H1 3300   1.132   0.671   8.763  0.0873  0.7534 -0.8876
  217MPD1    H2 3301   0.723   0.563   8.687  0.3222 -0.0667 -0.2745
  217MPD1    H3 3302   0.967   0.553   8.637 -0.2160 -0.6476  0.0076
  217MPD1     N 3303   1.071   0.892   8.913 -0.5751 -0.2431 -0.3874
  217MPD1    H5 3304   1.170   0.869   8.909 -0.4803 -0.0167  0.6761
  217MPD1    N1 3305   0.618   0.769   8.810 -0.1177 -0.0299 -0.3392
  217MPD1    H6 3306   0.583   0.824   8.888  0.6970 -2.0728  1.4599
  217MPD1    H7 3307   0.556   0.691   8.790 -3.1713  2.7663 -1.8434
  218MPD1     C 3308   2.406   2.318  12.706 -0.1717  0.3689 -0.3149
  218MPD1    C1 3309   2.406   2.458  12.716  0.7484 -0.6910  0.4011
  218MPD1    C2 3310   2.523   2.522  12.759 -0.2693 -0.3132  0.5517
  218MPD1    C3 3311   2.629   2.443  12.804 -0.0207 -0.2804  0.4752
  218MPD1    C4 3312   2.610   2.303  12.820  0.0995 -0.0898  0.0234
  218MPD1    C5 3313   2.500   2.243  12.764 -0.7629 -0.6912 -0.0309
  218MPD1     H 3314   2.536   2.629  12.750  0.6409 -0.4303  0.5010
  218MPD1    H1 3315   2.686   2.237  12.860  1.9288  2.6725  1.0781
  218MPD1    H2 3316   2.336   2.259  12.649 -0.1756  0.0833 -0.0173
  218MPD1    H3 3317   2.491   2.135  12.760 -0.5907 -0.7242  0.4570
  218MPD1     N 3318   2.747   2.508  12.847 -0.8126  0.1350  0.9324
  218MPD1    H5 3319   2.750   2.609  12.855 -0.9294  0.3539 -1.5532
  218MPD1    N1 3320   2.312   2.527  12.637 -0.4881 -0.2210  0.2850
  218MPD1    H6 3321   2.222   2.482  12.631 -0.3757 -0.5547  1.1812
  218MPD1    H7 3322   2.300   2.623  12.671  0.5876 -0.3927  1.1568
  219MPD1     C 3323   3.311   3.305  12.663 -0.3954 -0.7984 -0.5184
  219MPD1    C1 3324   3.190   3.262  12.622  0.0320  0.4959 -0.9455
  219MPD1    C2 3325   3.149   3.136  12.666  0.3057 -0.5977 -0.0674
  219MPD1    C3 3326   3.233   3.053  12.733 -0.3165 -0.2093 -0.0244
  219MPD1    C4 3327   3.360   3.100  12.764 -0.1786  0.0089  0.1725
  219MPD1    C5 3328   3.395   3.226  12.736  0.6601 -0.5412  0.0752
  219MPD1     H 3329   3.050   3.099  12.642 -0.0002 -0.5774  1.1672
  219MPD1    H1 3330   3.430   3.039  12.819 -1.7094 -2.3503 -0.4997
  219MPD1    H2 3331   3.343   3.405  12.637  0.4688 -1.2214 -1.1155
  219MPD1    H3 3332   3.497   3.255  12.757 -0.9786  2.3698  4.0196
  219MPD1     N 3333   3.203   2.922  12.778 -0.1087 -0.0289 -0.0499
  219MPD1    H5 3334   3.275   2.864  12.820 -1.9416 -1.5561  0.9854
  219MPD1    N1 3335   3.129   3.335  12.508  0.1601  0.4661  0.1894
  219MPD1    H6 3336   3.147   3.434  12.522  1.2058  0.3441 -0.2918
  219MPD1    H7 3337   3.028   3.321  12.510 -0.2641  4.0815  2.5970
  220MPD1     C 3338   3.144   2.015  10.844  0.2411 -0.8878 -0.0108
  220MPD1    C1 3339   3.254   2.075  10.783  0.0482  0.2375 -0.1037
  220MPD1    C2 3340   3.235   2.150  10.671  0.1072  0.4978 -0.4284
  220MPD1    C3 3341   3.104   2.150  10.614 -0.2911 -0.0673 -0.7685
  220MPD1    C4 3342   3.000   2.068  10.664  0.3432 -0.5760  0.8329
  220MPD1    C5 3343   3.019   2.018  10.788  0.4069  0.2035  0.4406
  220MPD1     H 3344   3.322   2.197  10.626 -0.1572  1.7064  0.3104
  220MPD1    H1 3345   2.900   2.069  10.624  0.4102 -3.1683  0.6260
  220MPD1    H2 3346   3.161   1.972  10.942 -2.0513  1.7951  1.5678
  220MPD1    H3 3347   2.935   1.967  10.834 -0.7745  0.6757 -1.1818
  220MPD1     N 3348   3.095   2.239  10.504  0.0709 -0.6706  0.2843
  220MPD1    H5 3349   3.173   2.302  10.487  0.9424 -2.1619 -1.1526
  220MPD1    N1 3350   3.365   2.098  10.865  0.4720  0.6685 -0.0389
  220MPD1    H6 3351   3.441   2.102  10.798  2.1226 -0.7912  1.7517
  220MPD1    H7 3352   3.386   2.034  10.941 -0.4434  0.4777  0.0512
  221MPD1     C 3353   2.042   2.264  16.385 -0.8573  0.4880  0.0979
  221MPD1    C1 3354   1.996   2.144  16.413  0.5255  0.1185 -0.2483
  221MPD1    C2 3355   1.865   2.120  16.383 -0.2118  0.0090 -0.0078
  221MPD1    C3 3356   1.784   2.209  16.324  0.5353 -0.1899 -0.3986
  221MPD1    C4 3357   1.839   2.331  16.282  0.3591 -0.4155 -0.3843
  221MPD1    C5 3358   1.972   2.353  16.312 -1.2212  0.4891  1.1219
  221MPD1     H 3359   1.820   2.025  16.409 -0.0340  0.2537  1.1754
  221MPD1    H1 3360   1.781   2.409  16.234 -0.5139 -0.5324  0.4698
  221MPD1    H2 3361   2.147   2.283  16.399 -0.7589 -0.6560  0.9687
  221MPD1    H3 3362   2.019   2.445  16.279  0.3003 -1.2999 -1.6676
  221MPD1     N 3363   1.644   2.195  16.302 -0.0541 -0.3818  0.3907
  221MPD1    H5 3364   1.600   2.283  16.277  0.6734 -0.0304  0.3379
  221MPD1    N1 3365   2.060   2.058  16.496 -0.2321 -0.0031  0.4056
  221MPD1    H6 3366   2.158   2.065  16.470  0.1038 -2.4851  0.9228
  221MPD1    H7 3367   2.029   1.964  16.473 -0.2422 -0.4229  2.1333
  222MPD1     C 3368   0.176   0.940  17.104  0.0067  0.4796  0.2128
  222MPD1    C1 3369   0.106   0.903  17.216  0.0519 -0.3156 -0.3159
  222MPD1    C2 3370   0.047   1.012  17.282 -0.0304  0.7094 -0.2367
  222MPD1    C3 3371   0.067   1.135  17.239 -0.6001 -0.6594 -0.1767
  222MPD1    C4 3372   0.152   1.168  17.139  0.0610 -0.0410  0.1479
  222MPD1    C5 3373   0.211   1.069  17.069  0.0689 -0.3127 -0.1292
  222MPD1     H 3374   4.699   0.993  17.365 -0.2289 -4.2111 -1.5062
  222MPD1    H1 3375   0.185   1.269  17.116  1.3014 -0.3536  0.5329
  222MPD1    H2 3376   0.222   0.863  17.042 -0.8156 -1.2521  1.7718
  222MPD1    H3 3377   0.281   1.087  16.988  0.1535 -1.8366 -0.3911
  222MPD1     N 3378   0.009   1.249  17.293  0.8713 -0.2619 -0.1240
  222MPD1    H5 3379   0.037   1.338  17.254 -0.6452  1.4887  2.8565
  222MPD1    N1 3380   0.122   0.774  17.273  0.0772 -0.0293  0.3730
  222MPD1    H6 3381   0.119   0.705  17.198  1.3656  2.1220 -1.7063
  222MPD1    H7 3382   0.049   0.747  17.338 -0.3085 -2.2721 -0.9732
  223MPD1     C 3383   3.974   1.506   0.330 -0.0793  0.5254  0.8449
  223MPD1    C1 3384   4.047   1.389   0.334  0.1757  0.1445 -0.2615
  223MPD1    C2 3385   4.161   1.378   0.258 -0.7566 -0.6264  0.5844
  223MPD1    C3 3386   4.185   1.463   0.152  0.5604  0.0554 -0.4849
  223MPD1    C4 3387   4.098   1.567   0.137  0.6821 -0.4594 -0.3781
  223MPD1    C5 3388   4.002   1.597   0.227  0.9169 -0.1858 -0.0336
  223MPD1     H 3389   4.221   1.289   0.274  1.1224  0.2335 -1.7407
  223MPD1    H1 3390   4.105   1.636   0.053 -0.7448 -1.4970 -1.3516
  223MPD1    H2 3391   3.889   1.523   0.394 -1.6917  0.3857 -1.2731
  223MPD1    H3 3392   3.943   1.688   0.222 -0.2178 -0.9002  0.4360
  223MPD1     N 3393   4.301   1.443   0.066  0.4570  0.6696  0.6474
  223MPD1    H5 3394   4.360   1.361   0.077  0.9046  1.2134  2.3644
  223MPD1    N1 3395   4.026   1.305   0.440 -0.4238 -0.2937 -0.4926
  223MPD1    H6 3396   3.929   1.295   0.469 -0.9798 -0.8227 -2.5150
  223MPD1    H7 3397   4.064   1.216   0.409 -2.7841 -0.5447 -2.6501
  224MPD1     C 3398   2.203   2.765   9.558  0.3788  0.5152 -0.5613
  224MPD1    C1 3399   2.265   2.642   9.559 -0.5370  0.4128 -1.0495
  224MPD1    C2 3400   2.200   2.532   9.622  0.5547  0.8695  0.4926
  224MPD1    C3 3401   2.069   2.547   9.663 -0.3540 -0.3104 -0.1552
  224MPD1    C4 3402   2.009   2.667   9.643  0.0231  0.7472 -0.1285
  224MPD1    C5 3403   2.073   2.779   9.599  0.7533  0.3092  0.3304
  224MPD1     H 3404   2.257   2.444   9.649 -1.7317 -0.0919  2.1858
  224MPD1    H1 3405   1.905   2.675   9.672  0.4190  0.3532  1.3967
  224MPD1    H2 3406   2.257   2.844   9.508 -2.0254  0.8093 -2.6605
  224MPD1    H3 3407   2.026   2.875   9.582 -0.6136 -0.4306 -0.0845
  224MPD1     N 3408   1.990   2.454   9.731  0.1657  0.6433 -0.4849
  224MPD1    H5 3409   1.894   2.477   9.756  0.1488  1.1495 -1.0008
  224MPD1    N1 3410   2.389   2.624   9.495  0.1468 -0.5055 -0.1515
  224MPD1    H6 3411   2.435   2.714   9.483  0.0698 -0.3260  0.8981
  224MPD1    H7 3412   2.459   2.573   9.549 -0.0855  1.7790  2.2638
  225MPD1     C 3413   3.252   3.912  12.203 -0.0554  0.5578  0.4568
  225MPD1    C1 3414   3.205   3.800  12.139 -0.0215  0.1104 -0.9922
  225MPD1    C2 3415   3.072   3.811  12.098 -0.0150  0.4471  0.8128
  225MPD1    C3 3416   2.989   3.916  12.121  0.0295 -0.0959 -0.2698
  225MPD1    C4 3417   3.042   4.027  12.182 -0.1105 -0.2943 -0.6640
  225MPD1    C5 3418   3.172   4.020  12.222  0.4986 -0.2794 -0.2502
  225MPD1     H 3419   3.035   3.728  12.039  0.9268 -0.4088  1.4313
  225MPD1    H1 3420   2.994   4.122  12.201 -0.0274 -0.1095 -1.3774
  225MPD1    H2 3421   3.354   3.917  12.239 -0.0889 -2.2143  0.9419
  225MPD1    H3 3422   3.210   4.113  12.263 -0.5290  0.2145 -0.4182
  225MPD1     N 3423   2.853   3.916  12.075  0.0392  0.0281  0.1648
  225MPD1    H5 3424   2.811   4.006  12.053  0.5603  0.0850 -0.6077
  225MPD1    N1 3425   3.288   3.702  12.083 -0.1193 -0.1908  0.0850
  225MPD1    H6 3426   3.371   3.678  12.136 -0.1313  0.3655  0.3485
  225MPD1    H7 3427   3.240   3.620  12.046  2.3667 -0.3698 -2.7580
  226MPD1     C 3428   0.805   2.931   9.433 -0.0298 -0.1913  0.3452
  226MPD1    C1 3429   0.793   3.074   9.430  0.0562 -0.0968  0.1099
  226MPD1    C2 3430   0.903   3.158   9.433 -0.2796 -0.2911  0.3702
  226MPD1    C3 3431   1.023   3.105   9.470 -0.8001  0.4175  0.3362
  226MPD1    C4 3432   1.035   2.962   9.485  0.0946 -0.3677  0.4767
  226MPD1    C5 3433   0.929   2.882   9.474 -0.7547 -0.0870  0.0740
  226MPD1     H 3434   0.897   3.265   9.420  0.9970 -0.1018  1.3916
  226MPD1    H1 3435   1.134   2.928   9.514  0.2158 -0.4928 -0.0873
  226MPD1    H2 3436   0.721   2.866   9.413 -1.3554  1.3062  1.0127
  226MPD1    H3 3437   0.934   2.777   9.501 -1.4842 -0.3166 -0.6757
  226MPD1     N 3438   1.134   3.193   9.485 -0.0671  0.2313  0.1102
  226MPD1    H5 3439   1.111   3.291   9.469  4.0202  1.3354  1.1555
  226MPD1    N1 3440   0.673   3.134   9.384 -0.2981  0.4573  0.5077
  226MPD1    H6 3441   0.594   3.081   9.419 -0.8869  2.1673  1.7816
  226MPD1    H7 3442   0.662   3.224   9.431  1.4438 -0.2722  2.3070
  227MPD1     C 3443   1.044   3.882   9.077  0.1369  0.4856  0.4311
  227MPD1    C1 3444   0.967   3.777   9.129  0.7727 -0.1254  0.3862
  227MPD1    C2 3445   1.033   3.688   9.209  0.5796 -1.0742 -0.2193
  227MPD1    C3 3446   1.155   3.717   9.263 -0.1680 -0.8471  0.2023
  227MPD1    C4 3447   1.219   3.834   9.225 -0.5137  0.1176 -0.0648
  227MPD1    C5 3448   1.162   3.917   9.126 -0.4470 -0.5825 -0.6552
  227MPD1     H 3449   0.987   3.598   9.247 -0.9235 -0.7671 -1.3091
  227MPD1    H1 3450   1.319   3.859   9.258 -0.8775 -0.5198  1.4899
  227MPD1    H2 3451   1.004   3.939   8.994 -0.4955 -1.1151 -0.3642
  227MPD1    H3 3452   1.217   4.001   9.085 -0.8473  0.3219  0.6667
  227MPD1     N 3453   1.213   3.627   9.344 -0.0971  0.3431  0.3386
  227MPD1    H5 3454   1.169   3.535   9.347  0.3004  0.0865 -1.7100
  227MPD1    N1 3455   0.855   3.732   9.054  0.6362  0.3257  0.0740
  227MPD1    H6 3456   0.810   3.803   8.997 -0.2021  0.3130  0.7174
  227MPD1    H7 3457   0.785   3.676   9.103 -0.5314  2.0476  0.3786
  228MPD1     C 3458   0.096   1.280  13.218  0.7280 -0.0621  0.0969
  228MPD1    C1 3459   0.086   1.400  13.161  0.0924 -0.3121  0.0063
  228MPD1    C2 3460   4.698   1.434  13.081 -0.8573  0.7296  0.7370
  228MPD1    C3 3461   4.577   1.371  13.086 -0.0681 -0.4425  0.4165
  228MPD1    C4 3462   4.578   1.250  13.154 -0.2380 -0.3413 -0.3627
  228MPD1    C5 3463   4.696   1.209  13.221 -0.1281  0.3339  0.0475
  228MPD1     H 3464   4.699   1.516  13.010 -0.4492 -1.1365 -1.4010
  228MPD1    H1 3465   4.500   1.176  13.149  0.3511 -1.0232  0.6358
  228MPD1    H2 3466   0.187   1.243  13.264  1.0274  0.1138 -0.3534
  228MPD1    H3 3467   4.712   1.112  13.266  2.5899  0.1061 -1.4002
  228MPD1     N 3468   4.463   1.422  13.024  0.4249  0.0574  0.0909
  228MPD1    H5 3469   4.471   1.506  12.967  0.4111 -0.6262 -0.9076
  228MPD1    N1 3470   0.198   1.481  13.152  1.0761 -0.7222  0.0278
  228MPD1    H6 3471   0.251   1.484  13.239 -0.6237  0.9758  1.0112
  228MPD1    H7 3472   0.163   1.576  13.150 -0.8213 -1.4324 -0.3160
  229MPD1     C 3473   3.164   0.050  15.084  0.0811  0.3254 -0.5711
  229MPD1    C1 3474   3.195   4.638  15.124 -0.3359  0.2985 -0.6180
  229MPD1    C2 3475   3.325   4.608  15.161 -0.1151  0.6917 -0.1942
  229MPD1    C3 3476   3.427   4.709  15.150  0.3794  0.2462 -0.2018
  229MPD1    C4 3477   3.393   0.121  15.125 -0.3333  0.2406  0.6270
  229MPD1    C5 3478   3.263   0.147  15.100 -0.4657  0.2240  0.1733
  229MPD1     H 3479   3.353   4.505  15.182 -1.0559  0.6479  0.8701
  229MPD1    H1 3480   3.465   0.201  15.133 -0.8466  0.7043  0.6411
  229MPD1    H2 3481   3.067   0.078  15.044 -0.7314 -1.1313  0.3781
  229MPD1    H3 3482   3.234   0.245  15.064  1.1737  0.3885 -0.7029
  229MPD1     N 3483   3.561   4.678  15.172  0.0073 -0.1568 -0.0685
  229MPD1    H5 3484   3.623   0.037  15.191  0.4613 -1.3515  3.3948
  229MPD1    N1 3485   3.091   4.548  15.137 -1.0624 -0.1247  0.1483
  229MPD1    H6 3486   3.120   4.453  15.119 -2.6475 -0.6844  0.5795
  229MPD1    H7 3487   3.011   4.583  15.084  0.1463  0.6123 -1.1836
  230MPD1     C 3488   4.460   4.551  15.665  0.1055 -0.3211 -0.4954
  230MPD1    C1 3489   4.442   4.429  15.602 -0.6477 -0.0868  0.2922
  230MPD1    C2 3490   4.333   4.409  15.517  0.4359  0.1845 -0.0803
  230MPD1    C3 3491   4.242   4.517  15.509  0.3476  0.0970 -0.5392
  230MPD1    C4 3492   4.262   4.637  15.580 -0.9891  1.1524  0.0423
  230MPD1    C5 3493   4.365   4.649  15.665 -0.1946 -0.2128  0.2819
  230MPD1     H 3494   4.323   4.319  15.457 -2.3066  0.0916  0.5108
  230MPD1    H1 3495   4.183   4.711  15.582 -2.7458 -0.6789 -1.3415
  230MPD1    H2 3496   4.548   4.569  15.725 -1.6523 -0.2640  2.0948
  230MPD1    H3 3497   4.391   0.016  15.725 -1.4389 -0.6586  1.4717
  230MPD1     N 3498   4.140   4.503  15.407 -0.3042  0.0152 -0.6546
  230MPD1    H5 3499   4.152   4.429  15.338 -0.5532 -0.4874 -0.1564
  230MPD1    N1 3500   4.549   4.336  15.599  0.1570  0.2654 -0.5900
  230MPD1    H6 3501   4.525   4.238  15.598 -0.8842  0.4939  1.6511
  230MPD1    H7 3502   4.616   4.344  15.676  0.8260  2.5260 -1.3977
  231MPD1     C 3503   2.624   2.245  15.593 -0.9716  0.3317  0.4970
  231MPD1    C1 3504   2.497   2.216  15.544  0.1532 -0.7644  0.2396
  231MPD1    C2 3505   2.437   2.297  15.444 -0.5493  0.3264  0.0459
  231MPD1    C3 3506   2.506   2.401  15.390 -0.1802  0.4715  0.3599
  231MPD1    C4 3507   2.622   2.436  15.456 -0.9895  0.0518 -0.3316
  231MPD1    C5 3508   2.686   2.364  15.550  0.1570  0.3269  0.3621
  231MPD1     H 3509   2.336   2.279  15.409 -1.1990 -1.2136  2.7148
  231MPD1    H1 3510   2.677   2.528  15.438 -0.6713 -0.1311 -0.2788
  231MPD1    H2 3511   2.675   2.185  15.668 -0.7631 -2.2599 -1.6808
  231MPD1    H3 3512   2.783   2.383  15.595 -0.2071  0.9823  0.8763
  231MPD1     N 3513   2.453   2.467  15.272 -0.1104 -0.7456  0.0830
  231MPD1    H5 3514   2.365   2.433  15.234 -0.8039  0.9522  0.1579
  231MPD1    N1 3515   2.426   2.111  15.601  0.1684 -0.7124 -0.0939
  231MPD1    H6 3516   2.355   2.069  15.541 -0.8452  0.1630  0.4948
  231MPD1    H7 3517   2.489   2.033  15.618  1.8238  0.2232 -1.9279
  232MPD1     C 3518   3.851   1.342   0.852 -0.1157  0.3763 -0.0513
  232MPD1    C1 3519   3.803   1.262   0.747  0.2774  0.2510  0.2203
  232MPD1    C2 3520   3.806   1.125   0.763  0.2110 -0.0657 -0.1014
  232MPD1    C3 3521   3.828   1.066   0.888 -0.3131 -0.3231 -0.8111
  232MPD1    C4 3522   3.863   1.148   0.990  0.4244 -0.2199  0.2277
  232MPD1    C5 3523   3.871   1.287   0.970 -0.1155  0.8879  0.0881
  232MPD1     H 3524   3.797   1.056   0.681 -2.6523 -2.0510  1.8580
  232MPD1    H1 3525   3.896   1.115   1.088 -2.5967  0.8447  1.6063
  232MPD1    H2 3526   3.865   1.450   0.847 -4.2404  0.9226  0.2659
  232MPD1    H3 3527   3.910   1.346   1.052 -0.1945 -0.1057  0.8501
  232MPD1     N 3528   3.808   0.924   0.906  0.5889 -0.4069  0.4387
  232MPD1    H5 3529   3.810   0.870   0.821 -0.3041  1.3518 -0.7040
  232MPD1    N1 3530   3.790   1.308   0.616  0.3770 -0.3296  0.0987
  232MPD1    H6 3531   3.743   1.398   0.622 -2.3566 -1.8213  0.6865
  232MPD1    H7 3532   3.723   1.254   0.562 -0.1808 -0.1283  0.5937
  233MPD1     C 3533   0.190   1.972   2.382 -0.2266  0.4180  0.1556
  233MPD1    C1 3534   0.283   2.003   2.475 -0.4143  0.2295  0.4476
  233MPD1    C2 3535   0.366   2.115   2.453 -0.3244 -0.7725  0.5621
  233MPD1    C3 3536   0.356   2.183   2.334 -0.1503 -0.0350  0.5451
  233MPD1    C4 3537   0.254   2.157   2.250 -0.3167  0.2744 -0.3698
  233MPD1    C5 3538   0.180   2.041   2.271 -0.6521  0.1011  0.4589
  233MPD1     H 3539   0.434   2.147   2.531 -0.1830  0.2487  0.0338
  233MPD1    H1 3540   0.233   2.215   2.160 -0.3431  0.3012 -0.3465
  233MPD1    H2 3541   0.124   1.888   2.402 -1.3190  1.1720 -0.3148
  233MPD1    H3 3542   0.104   2.006   2.202 -1.5482 -0.8038  1.9169
  233MPD1     N 3543   0.431   2.296   2.294  0.1219 -0.4293  0.3611
  233MPD1    H5 3544   0.403   2.341   2.207  1.6439 -0.8218 -0.3234
  233MPD1    N1 3545   0.332   1.918   2.577 -0.4120  0.5479  0.1232
  233MPD1    H6 3546   0.271   1.841   2.607 -0.5068  0.7089  0.3374
  233MPD1    H7 3547   0.363   1.964   2.662  1.8651  0.6354 -0.7412
  234MPD1     C 3548   2.496   0.515  10.067  0.3414  0.3923  0.3710
  234MPD1    C1 3549   2.434   0.605  10.150  0.5816  0.1469  0.0443
  234MPD1    C2 3550   2.365   0.714  10.089  0.1546  0.2138  0.1322
  234MPD1    C3 3551   2.347   0.720   9.951  0.4238 -0.7007 -0.4368
  234MPD1    C4 3552   2.423   0.631   9.876  1.1200 -0.3273  0.7240
  234MPD1    C5 3553   2.498   0.530   9.928 -0.1043  0.2901 -0.4339
  234MPD1     H 3554   2.309   0.780  10.153  0.4061  2.0456 -1.5443
  234MPD1    H1 3555   2.425   0.630   9.768 -2.3572  1.5024  0.6308
  234MPD1    H2 3556   2.548   0.427  10.103  0.2837  0.7519  1.3351
  234MPD1    H3 3557   2.544   0.456   9.863  0.1394 -2.2119  2.5561
  234MPD1     N 3558   2.278   0.822   9.886 -0.4587 -0.1434 -0.0833
  234MPD1    H5 3559   2.242   0.898   9.942 -0.3666  1.1052 -1.6938
  234MPD1    N1 3560   2.432   0.579  10.292  0.4787  0.4089  0.1765
  234MPD1    H6 3561   2.454   0.662  10.347 -0.3662  0.4262  0.4927
  234MPD1    H7 3562   2.511   0.517  10.305 -0.0119 -0.1344  0.5872
  235MPD1     C 3563   4.528   4.043  10.297  0.2756  0.7039  0.0569
  235MPD1    C1 3564   4.581   4.110  10.194  0.0260  0.2845  0.0300
  235MPD1    C2 3565   4.511   4.111  10.076 -0.3034 -0.3488 -0.7608
  235MPD1    C3 3566   4.382   4.068  10.059  0.4758  0.0008 -0.5121
  235MPD1    C4 3567   4.331   4.024  10.175 -0.4659 -0.6144  0.5510
  235MPD1    C5 3568   4.402   4.011  10.291  0.3876  0.4751  0.4721
  235MPD1     H 3569   4.563   4.155   9.991 -1.0028 -1.8262 -1.9420
  235MPD1    H1 3570   4.227   3.995  10.184  0.1645 -3.1909 -0.4458
  235MPD1    H2 3571   4.584   4.045  10.390 -0.1707 -0.6077  0.3457
  235MPD1    H3 3572   4.352   3.990  10.384 -2.2550  0.8525 -0.8712
  235MPD1     N 3573   4.321   4.066   9.933  0.5592  0.8069  0.3339
  235MPD1    H5 3574   4.380   4.087   9.853 -0.7342 -1.4248 -1.2088
  235MPD1    N1 3575   4.716   4.142  10.190  0.6759 -0.1860  0.7385
  235MPD1    H6 3576   0.024   4.215  10.124 -0.5099  1.0416  1.6195
  235MPD1    H7 3577   0.029   4.186  10.276  0.4064  1.5007 -0.0267
  236MPD1     C 3578   3.510   4.483   9.659  0.0998  0.2219  0.2057
  236MPD1    C1 3579   3.397   4.415   9.698  0.5800  0.5123  0.5320
  236MPD1    C2 3580   3.413   4.307   9.791 -0.0242 -0.3762  0.1205
  236MPD1    C3 3581   3.535   4.266   9.837  0.0499  0.3907  0.0445
  236MPD1    C4 3582   3.648   4.339   9.805  0.4199 -0.1657  0.1474
  236MPD1    C5 3583   3.629   4.448   9.721 -0.0509 -0.1347  0.2122
  236MPD1     H 3584   3.324   4.269   9.841 -0.1345 -0.7536 -0.3723
  236MPD1    H1 3585   3.747   4.314   9.842  0.2866 -1.9809 -0.7515
  236MPD1    H2 3586   3.496   4.573   9.601  0.9094 -0.2777 -0.7650
  236MPD1    H3 3587   3.717   4.509   9.703 -0.5806  1.2851  2.3128
  236MPD1     N 3588   3.550   4.154   9.921 -0.7775  0.3275  0.3682
  236MPD1    H5 3589   3.647   4.136   9.947 -0.1726  1.5431 -1.0316
  236MPD1    N1 3590   3.269   4.469   9.671 -0.4066  0.6473  0.5136
  236MPD1    H6 3591   3.275   4.507   9.577  2.0061  1.0708  0.8456
  236MPD1    H7 3592   3.190   4.404   9.672  1.2312 -1.3397 -0.1633
  237MPD1     C 3593   2.587   3.853  15.639 -0.1414  0.9922 -0.9665
  237MPD1    C1 3594   2.506   3.895  15.745 -0.8497  0.2080  0.0574
  237MPD1    C2 3595   2.389   3.831  15.760 -0.0340  0.5476 -0.4688
  237MPD1    C3 3596   2.355   3.712  15.700  0.4188 -0.8281 -0.0591
  237MPD1    C4 3597   2.440   3.663  15.608 -0.0375  0.2941 -0.0931
  237MPD1    C5 3598   2.546   3.742  15.571  0.1535  0.0640 -0.2217
  237MPD1     H 3599   2.317   3.854  15.839 -1.7252 -2.7835 -1.0587
  237MPD1    H1 3600   2.426   3.577  15.544 -1.1629  0.2006  0.2788
  237MPD1    H2 3601   2.677   3.902  15.602  1.0529 -0.0579  0.5280
  237MPD1    H3 3602   2.607   3.727  15.483 -1.8435 -1.2226 -1.3806
  237MPD1     N 3603   2.237   3.640  15.729 -0.0078  0.5586  0.0445
  237MPD1    H5 3604   2.238   3.554  15.674  1.7869  1.4271 -1.2647
  237MPD1    N1 3605   2.527   4.028  15.791 -0.0576  0.0207 -0.2553
  237MPD1    H6 3606   2.620   4.062  15.770 -0.2506  1.0138  0.4959
  237MPD1    H7 3607   2.512   4.040  15.891 -0.6072 -0.1458 -0.3152
  238MPD1     C 3608   4.329   1.750  15.414  0.4913 -0.0781 -0.4637
  238MPD1    C1 3609   4.202   1.710  15.441  0.2979 -0.8172  0.1799
  238MPD1    C2 3610   4.100   1.785  15.381  0.3128 -0.7194 -0.6734
  238MPD1    C3 3611   4.125   1.911  15.324  0.9535 -0.0905 -0.3678
  238MPD1    C4 3612   4.253   1.954  15.306  0.4419  0.1963 -0.2820
  238MPD1    C5 3613   4.350   1.866  15.340  0.3853 -0.4653  0.0413
  238MPD1     H 3614   3.998   1.757  15.408  0.3191 -1.4494 -1.3856
  238MPD1    H1 3615   4.268   2.050  15.258 -1.0999  1.0972  1.0256
  238MPD1    H2 3616   4.410   1.684  15.441 -2.2169 -2.1155  2.6625
  238MPD1    H3 3617   4.451   1.893  15.311  0.2503 -0.3141 -0.2755
  238MPD1     N 3618   4.022   2.001  15.286  0.4953 -0.0165 -0.2260
  238MPD1    H5 3619   4.049   2.075  15.221 -1.4172  2.6648  2.0379
  238MPD1    N1 3620   4.179   1.582  15.501  0.0905 -0.3802  0.2384
  238MPD1    H6 3621   4.265   1.563  15.552 -0.3479 -0.3661  0.9937
  238MPD1    H7 3622   4.099   1.569  15.563 -1.0188  1.6256 -0.7914
  239MPD1     C 3623   3.887   2.758  15.130  0.1667 -0.5961  0.6845
  239MPD1    C1 3624   4.017   2.782  15.085 -0.2916 -0.1636  0.2434
  239MPD1    C2 3625   4.026   2.817  14.948  0.1069  0.7855  0.4875
  239MPD1    C3 3626   3.917   2.843  14.869  0.7604  0.5350 -0.4692
  239MPD1    C4 3627   3.792   2.818  14.922  0.6145  0.1321  0.0484
  239MPD1    C5 3628   3.778   2.785  15.055 -0.5593 -0.6967 -0.7024
  239MPD1     H 3629   4.125   2.808  14.905  0.0928 -0.5938  0.7450
  239MPD1    H1 3630   3.698   2.834  14.871  0.0816 -0.2235  0.9385
  239MPD1    H2 3631   3.865   2.713  15.226 -0.8273  0.5540  1.0000
  239MPD1    H3 3632   3.677   2.771  15.091 -0.1625  0.3464  0.8030
  239MPD1     N 3633   3.927   2.873  14.729  0.6901 -0.0219 -0.3677
  239MPD1    H5 3634   3.843   2.873  14.671  0.3995  1.5561  0.0390
  239MPD1    N1 3635   4.130   2.732  15.148 -0.1730 -0.1724  0.1354
  239MPD1    H6 3636   4.216   2.784  15.130 -0.9907  0.8824 -0.7753
  239MPD1    H7 3637   4.107   2.731  15.247 -0.5846 -3.4391  0.0001
  240MPD1     C 3638   4.049   2.530  14.292  0.5985  0.0951  0.5208
  240MPD1    C1 3639   3.973   2.489  14.407  0.0219 -0.0925  0.0807
  240MPD1    C2 3640   3.845   2.429  14.376 -0.4670 -0.5413  0.1051
  240MPD1    C3 3641   3.798   2.413  14.250  0.0147  0.0531 -0.6215
  240MPD1    C4 3642   3.875   2.469  14.147  0.2704 -0.2515  0.2603
  240MPD1    C5 3643   3.995   2.526  14.170 -0.0798 -0.0034  0.0434
  240MPD1     H 3644   3.783   2.409  14.462 -3.2747 -1.6647 -2.2048
  240MPD1    H1 3645   3.841   2.460  14.045 -1.3666 -1.7797  0.9384
  240MPD1    H2 3646   4.142   2.585  14.300  0.3493  0.7708 -1.1808
  240MPD1    H3 3647   4.058   2.548  14.084  1.6258  0.9579  1.5448
  240MPD1     N 3648   3.680   2.333  14.249  0.0602  0.1136  0.2390
  240MPD1    H5 3649   3.646   2.290  14.335  0.1905 -1.7340 -0.6321
  240MPD1    N1 3650   4.007   2.541  14.537  0.3706 -0.0129  0.2656
  240MPD1    H6 3651   3.964   2.488  14.613 -0.1580  1.8357  1.2616
  240MPD1    H7 3652   4.106   2.550  14.557 -0.0220  2.3366  1.1358
  241MPD1     C 3653   3.461   1.804  14.816  0.0083  0.5188  0.0734
  241MPD1    C1 3654   3.335   1.842  14.765  0.5121  0.1952  1.0112
  241MPD1    C2 3655   3.335   1.884  14.633  0.4407 -0.2891  0.1965
  241MPD1    C3 3656   3.450   1.886  14.557 -0.5703  0.6584  0.5095
  241MPD1    C4 3657   3.571   1.852  14.608 -0.1933 -0.1669 -0.3772
  241MPD1    C5 3658   3.581   1.821  14.746 -0.2270  0.9078  0.0730
  241MPD1     H 3659   3.239   1.912  14.589  1.3295 -2.3427 -3.0894
  241MPD1    H1 3660   3.656   1.852  14.540  0.3693  1.8264  0.3531
  241MPD1    H2 3661   3.466   1.765  14.917  0.4187  0.0700 -0.1206
  241MPD1    H3 3662   3.680   1.801  14.787 -0.2354 -0.4270 -0.5455
  241MPD1     N 3663   3.455   1.951  14.428  0.1388 -0.7287 -0.4962
  241MPD1    H5 3664   3.547   1.966  14.387  1.4595 -3.0658  1.5629
  241MPD1    N1 3665   3.212   1.819  14.833  0.1235 -0.2542 -0.4480
  241MPD1    H6 3666   3.221   1.852  14.929  2.9708 -0.3157 -0.7083
  241MPD1    H7 3667   3.140   1.869  14.782 -2.3065 -0.1479  3.0721
  242MPD1     C 3668   2.944   0.769  16.002 -0.1849  0.4358 -0.4336
  242MPD1    C1 3669   2.899   0.846  15.898 -0.0127 -0.3036 -0.1559
  242MPD1    C2 3670   2.934   0.812  15.768  0.1405  0.7448  0.8000
  242MPD1    C3 3671   3.011   0.702  15.747  0.5211 -0.2648  0.0893
  242MPD1    C4 3672   3.056   0.626  15.854 -0.2904 -0.5154  0.0556
  242MPD1    C5 3673   3.022   0.658  15.985  0.3519 -1.0866  0.4590
  242MPD1     H 3674   2.928   0.884  15.686  1.0256  0.4626  0.4884
  242MPD1    H1 3675   3.120   0.539  15.844 -2.6820 -2.2928  0.1765
  242MPD1    H2 3676   2.924   0.792  16.106 -0.5951  1.6966 -0.7889
  242MPD1    H3 3677   3.049   0.592  16.067 -0.2873 -2.4620 -0.4559
  242MPD1     N 3678   3.053   0.658  15.628 -0.4792  0.2401 -0.0228
  242MPD1    H5 3679   3.119   0.581  15.625 -1.0262 -0.1946 -1.0232
  242MPD1    N1 3680   2.841   0.973  15.922 -0.1602  0.7584  0.0917
  242MPD1    H6 3681   2.792   0.984  16.010  2.0045  0.2875  1.3451
  242MPD1    H7 3682   2.796   1.016  15.841  2.3764  0.6097 -1.3911
  243MPD1     C 3683   4.117   4.312   0.450 -0.1541  0.0801  0.0362
  243MPD1    C1 3684   4.095   4.353   0.319 -0.2779  0.5247  0.0099
  243MPD1    C2 3685   4.111   4.260   0.221  0.4615 -0.3415 -0.3287
  243MPD1    C3 3686   4.150   4.131   0.245  0.2226 -0.4630 -0.1931
  243MPD1    C4 3687   4.165   4.089   0.373  0.0124  0.3796 -0.0184
  243MPD1    C5 3688   4.157   4.178   0.475 -0.2345  0.4323  0.4044
  243MPD1     H 3689   4.098   4.287   0.117 -1.9606 -1.5578 -0.3273
  243MPD1    H1 3690   4.172   3.987   0.410 -3.9348 -0.3036 -1.1699
  243MPD1    H2 3691   4.109   4.376   0.536 -3.8365  0.4239 -0.5881
  243MPD1    H3 3692   4.148   4.141   0.577  2.1089  0.1407  0.5098
  243MPD1     N 3693   4.153   4.049   0.134  0.2517 -0.3016  0.2578
  243MPD1    H5 3694   4.128   4.094   0.046  1.3058  2.6059  1.4463
  243MPD1    N1 3695   4.058   4.488   0.289 -0.0827 -0.4465  0.0244
  243MPD1    H6 3696   4.037   4.511   0.192  3.3388 -2.4942 -1.2298
  243MPD1    H7 3697   4.010   4.547   0.355  1.7831  0.4253  0.6036
  244MPD1     C 3698   4.159   3.086  17.256 -0.1370  0.0346 -0.7053
  244MPD1    C1 3699   4.227   3.175  17.176  0.4081  0.0230  0.4763
  244MPD1    C2 3700   4.252   3.302  17.225  0.5956  0.0603 -0.5598
  244MPD1    C3 3701   4.223   3.334  17.358 -1.4469  0.0176  0.3284
  244MPD1    C4 3702   4.161   3.237  17.438  0.5572 -0.0151 -0.6863
  244MPD1    C5 3703   4.126   3.114  17.385  0.4418 -0.5348 -0.2850
  244MPD1     H 3704   4.306   3.376  17.168  0.9250  1.8847  2.1400
  244MPD1    H1 3705   4.148   3.265  17.542  1.9667  0.5044 -0.6432
  244MPD1    H2 3706   4.126   2.996  17.207  0.2496  0.1504 -1.1753
  244MPD1    H3 3707   4.079   3.040  17.448 -3.0808  1.0486 -1.0697
  244MPD1     N 3708   4.247   3.470  17.396  0.0044 -0.0019 -0.2140
  244MPD1    H5 3709   4.303   3.514  17.324  1.1235  1.9287  1.8379
  244MPD1    N1 3710   4.252   3.147  17.047  0.0393 -0.2804 -0.4008
  244MPD1    H6 3711   4.328   3.200  17.006  0.5368 -0.3692  0.4152
  244MPD1    H7 3712   4.248   3.050  17.019  0.6211 -0.0058 -1.4112
  245MPD1     C 3713   2.110   4.576  13.017 -0.1981  0.0581  0.6529
  245MPD1    C1 3714   2.069   4.617  13.137 -0.0485  0.8627 -0.1134
  245MPD1    C2 3715   2.142   0.000  13.193 -0.2453 -0.3452 -0.3851
  245MPD1    C3 3716   2.254   0.056  13.133 -0.0810  0.5280 -0.4419
  245MPD1    C4 3717   2.289   0.009  13.011 -0.5398  0.8270  0.8540
  245MPD1    C5 3718   2.216   4.630  12.955  0.6218  1.1321 -0.0130
  245MPD1     H 3719   2.111   0.038  13.289  1.1924 -1.4515  0.5180
  245MPD1    H1 3720   2.376   0.041  12.956  0.1124  0.5170  1.7076
  245MPD1    H2 3721   2.061   4.487  12.980 -0.7501  0.6968 -0.1445
  245MPD1    H3 3722   2.250   4.582  12.864  1.5938  2.3434 -0.2916
  245MPD1     N 3723   2.330   0.150  13.205  1.0630 -0.3933  0.0853
  245MPD1    H5 3724   2.314   0.170  13.304 -0.2736 -2.3959  0.2646
  245MPD1    N1 3725   1.982   4.542  13.214 -0.3224 -0.3353 -0.3603
  245MPD1    H6 3726   1.908   4.506  13.153 -1.3739 -0.6041  1.0803
  245MPD1    H7 3727   1.938   4.604  13.282  0.3408 -1.8417  1.4225
  246MPD1     C 3728   0.127   0.507   8.830  0.8556  0.2148  0.1479
  246MPD1    C1 3729   0.143   0.634   8.883 -0.1628  0.0407 -0.5550
  246MPD1    C2 3730   0.043   0.723   8.858 -0.9930  0.3778  0.3682
  246MPD1    C3 3731   4.659   0.695   8.774  0.5289 -0.0254  0.1007
  246MPD1    C4 3732   4.657   0.570   8.710  0.3448  0.6860 -0.8445
  246MPD1    C5 3733   0.024   0.478   8.753  0.2954  0.1786 -0.3603
  246MPD1     H 3734   0.045   0.819   8.908 -0.3043 -0.9420  2.8511
  246MPD1    H1 3735   4.576   0.542   8.644 -0.5867  0.4720  0.3836
  246MPD1    H2 3736   0.205   0.438   8.862 -1.0446 -1.8916  0.2525
  246MPD1    H3 3737   0.019   0.377   8.713  3.0306  0.5584 -1.7187
  246MPD1     N 3738   4.555   0.790   8.763 -0.1148  0.5421  0.2291
  246MPD1    H5 3739   4.563   0.888   8.790  2.2367 -0.0206  1.6178
  246MPD1    N1 3740   0.239   0.661   8.979 -0.4728 -0.1506  0.7628
  246MPD1    H6 3741   0.268   0.757   8.993 -0.5463 -0.0193  0.0473
  246MPD1    H7 3742   0.315   0.595   8.963 -0.4894 -0.0761  0.3803
  247MPD1     C 3743   1.325   0.660  16.535  1.3377 -0.8449  0.6592
  247MPD1    C1 3744   1.409   0.616  16.436  0.5184  0.1351  0.5941
  247MPD1    C2 3745   1.403   0.484  16.390 -0.3333  0.5627  0.2016
  247MPD1    C3 3746   1.316   0.394  16.452 -0.1060 -0.8194 -0.1130
  247MPD1    C4 3747   1.251   0.435  16.566 -0.0789  0.2459 -0.4036
  247MPD1    C5 3748   1.260   0.565  16.607  0.7314 -0.3746 -0.3164
  247MPD1     H 3749   1.468   0.446  16.312  0.4947  3.8056 -0.6789
  247MPD1    H1 3750   1.193   0.375  16.635 -1.0094  2.4219  0.7134
  247MPD1    H2 3751   1.317   0.760  16.575  1.1567 -1.3086  1.7948
  247MPD1    H3 3752   1.202   0.598  16.692 -0.1328  1.2970 -1.5320
  247MPD1     N 3753   1.293   0.268  16.387 -0.2140 -0.3631 -0.0404
  247MPD1    H5 3754   1.339   0.248  16.299  1.2252  1.4608  0.2943
  247MPD1    N1 3755   1.486   0.709  16.363 -0.1985 -0.2202  0.1835
  247MPD1    H6 3756   1.518   0.790  16.415  0.5153 -1.0894  1.1003
  247MPD1    H7 3757   1.576   0.675  16.331  0.1545  1.9325 -1.0522
  248MPD1     C 3758   1.514   0.103   0.365 -0.0451 -0.8267 -0.6776
  248MPD1    C1 3759   1.462   0.015   0.275 -0.0538 -0.1888 -0.5926
  248MPD1    C2 3760   1.323   4.706   0.280  0.4842 -0.2460  0.5960
  248MPD1    C3 3761   1.235   0.048   0.374  0.3357 -0.2320 -0.8880
  248MPD1    C4 3762   1.293   0.148   0.445 -0.1235  0.5149  0.6457
  248MPD1    C5 3763   1.424   0.177   0.438 -0.0432  0.1010 -0.0370
  248MPD1     H 3764   1.276   4.646   0.203  1.2323 -0.0143 -0.0397
  248MPD1    H1 3765   1.237   0.215   0.510 -0.0656  0.2155  1.0067
  248MPD1    H2 3766   1.617   0.135   0.377  0.6149 -2.7815 -1.0235
  248MPD1    H3 3767   1.458   0.263   0.494  1.5948 -0.5716  0.0189
  248MPD1     N 3768   1.101   0.007   0.390  0.1457  0.1718  0.0927
  248MPD1    H5 3769   1.070   4.655   0.323  0.8921  0.5790 -0.6785
  248MPD1    N1 3770   1.555   4.660   0.198 -0.0911 -1.2785  0.2432
  248MPD1    H6 3771   1.623   0.009   0.163  1.5287 -2.1662  1.6797
  248MPD1    H7 3772   1.531   4.613   0.111 -2.8835  0.2013  0.2085
  249MPD1     C 3773   3.273   2.862   9.651  0.1535 -0.5759 -0.0543
  249MPD1    C1 3774   3.358   2.944   9.588  0.2809  1.1542  0.2579
  249MPD1    C2 3775   3.501   2.928   9.598  0.8508 -0.2271 -0.0482
  249MPD1    C3 3776   3.541   2.828   9.690 -0.6846 -0.6155 -0.5405
  249MPD1    C4 3777   3.453   2.740   9.752 -0.5164 -0.5400 -0.4248
  249MPD1    C5 3778   3.318   2.766   9.738 -0.0013 -0.0611  0.0213
  249MPD1     H 3779   3.566   3.001   9.553  0.1420  0.7443  0.5096
  249MPD1    H1 3780   3.483   2.677   9.834 -2.0605 -0.0803  0.4981
  249MPD1    H2 3781   3.168   2.877   9.630 -0.4715 -2.5552  1.5769
  249MPD1    H3 3782   3.245   2.709   9.795  0.1145  1.5002  1.7208
  249MPD1     N 3783   3.681   2.824   9.708 -0.7719  0.1462 -1.0169
  249MPD1    H5 3784   3.724   2.908   9.669  0.6779 -0.6619 -1.1545
  249MPD1    N1 3785   3.313   3.032   9.492 -0.1921  0.1923 -0.0781
  249MPD1    H6 3786   3.216   3.062   9.496 -0.8567 -1.7027 -1.9881
  249MPD1    H7 3787   3.380   3.108   9.482 -0.7282  0.5038 -1.2221
  250MPD2     C 3788   0.767   3.628  12.614 -0.0827  0.4320  0.2298
  250MPD2    C1 3789   0.663   3.679  12.679  0.4621 -0.0317  0.1594
  250MPD2    C2 3790   0.607   3.605  12.779  0.0039 -0.4201 -0.0989
  250MPD2    C3 3791   0.637   3.470  12.800 -0.3590  0.3900  0.4117
  250MPD2    C4 3792   0.738   3.416  12.728  0.3662 -0.1996 -0.0455
  250MPD2    C5 3793   0.801   3.498  12.638 -0.1196  0.4922 -0.4899
  250MPD2     H 3794   0.525   3.645  12.837  0.7369 -0.5136  0.9928
  250MPD2    H1 3795   0.768   3.312  12.736  2.2281  0.3586  0.4247
  250MPD2    H2 3796   0.821   3.685  12.539 -0.2594  0.6189  0.2423
  250MPD2    H3 3797   0.886   3.456  12.585  0.7689 -0.6944  1.8591
  250MPD2     N 3798   0.575   3.388  12.894 -0.1577  0.1371  0.1758
  250MPD2    H5 3799   0.589   3.288  12.880 -2.0165 -0.1125  0.0346
  250MPD2    N1 3800   0.633   3.815  12.659  1.0540 -0.3622 -0.2013
  250MPD2    H7 3801   0.692   3.864  12.592  0.2287 -0.2109 -0.8035
  251TMC3    C1 3802   0.554   4.027  12.724 -0.3759  0.5783  0.7738
  251TMC3    C2 3803   0.534   4.092  12.843 -0.2876 -0.6927 -0.2626
  251TMC3    C3 3804   0.615   4.199  12.862 -0.2207 -0.6727  0.1116
  251TMC3    C4 3805   0.640   4.075  12.627 -0.0823 -0.5720  0.1120
  251TMC3    C5 3806   0.730   4.176  12.654 -0.7089 -0.0959  0.7253
  251TMC3    C6 3807   0.714   4.241  12.775 -0.4314 -0.4782  0.3301
  251TMC3     C 3808   0.534   3.888  12.723 -0.2904 -0.2304  0.1717
  251TMC3     O 3809   0.436   3.840  12.783 -0.4751 -0.0717  0.1276
  251TMC3     H 3810   0.467   4.068  12.924  0.9629 -0.9654  0.6867
  251TMC3    H1 3811   0.640   4.034  12.527  0.0113  1.4804 -0.7137
  251TMC3    H2 3812   0.781   4.324  12.796 -1.4856  0.2008  1.0160
  251TMC3    C7 3813   0.857   4.109  12.657  0.7536  0.1869  0.5528
  251TMC3    C8 3814   0.578   4.285  12.980  0.0570 -0.0045  0.2471
  251TMC3    O1 3815   0.902   4.104  12.771 -0.0808  0.7478  0.3923
  251TMC3    O2 3816   0.466   4.265  13.028 -0.6987 -0.0803  0.4132
  252TMC3    C1 3817   0.882   3.903   9.471  0.1479 -0.1332  0.0480
  252TMC3    C2 3818   0.970   3.996   9.430 -0.1550 -0.1556 -0.7818
  252TMC3    C3 3819   1.102   4.007   9.469  0.3919 -0.0368  0.1997
  252TMC3    C4 3820   0.920   3.810   9.561  0.3517 -0.4007 -0.6319
  252TMC3    C5 3821   1.046   3.827   9.620 -0.2808  0.3732  0.1400
  252TMC3    C6 3822   1.137   3.912   9.564  0.8914 -0.1230 -0.1602
  252TMC3     C 3823   0.769   3.870   9.383  0.1922  0.3420 -0.4987
  252TMC3     O 3824   0.717   3.759   9.397 -0.9643 -0.4150  0.4919
  252TMC3     H 3825   0.948   4.062   9.347 -0.7451  0.6321  0.0073
  252TMC3    H1 3826   0.844   3.744   9.603 -0.0677  0.4085 -0.1172
  252TMC3    H2 3827   1.241   3.914   9.594  1.2805  0.4068 -1.5134
  252TMC3    C7 3828   1.103   3.725   9.707 -0.1644  0.3421  0.3886
  252TMC3    C8 3829   1.183   4.118   9.428  0.1559  0.3384  0.6564
  252TMC3    O1 3830   1.199   3.757   9.775 -0.4344 -0.4259 -0.5390
  252TMC3    O2 3831   1.148   4.188   9.333  0.0509  0.3311 -0.0779
  253MPD2     C 3832   1.875   3.933  15.371  0.4968 -0.5533  0.4471
  253MPD2    C1 3833   1.756   3.866  15.400 -0.5858 -0.4514  0.6278
  253MPD2    C2 3834   1.730   3.820  15.526 -0.0922 -0.5967  0.6273
  253MPD2    C3 3835   1.822   3.847  15.633  0.0496  0.3359  0.2763
  253MPD2    C4 3836   1.936   3.926  15.604  0.2086  0.0135 -0.0968
  253MPD2    C5 3837   1.962   3.959  15.473  0.2699 -0.0051  0.0754
  253MPD2     H 3838   1.642   3.759  15.542 -1.7385  1.2634 -1.4224
  253MPD2    H1 3839   2.005   3.960  15.679  0.3129 -0.1269 -0.1293
  253MPD2    H2 3840   1.896   3.977  15.274 -0.0685  0.0053  0.5740
  253MPD2    H3 3841   2.047   4.019  15.441  0.3833 -0.0713  0.2499
  253MPD2     N 3842   1.780   3.835  15.768 -0.2964 -0.1005  0.0363
  253MPD2    H5 3843   1.825   3.886  15.844  0.9319 -2.5879  1.0026
  253MPD2    N1 3844   1.665   3.834  15.307 -0.0049 -0.5625  0.2809
  253MPD2    H7 3845   1.586   3.779  15.338  0.1708 -0.9585  0.0195
  254TMC3    C1 3846   1.627   3.809  15.943 -0.3663  0.3205 -0.1866
  254TMC3    C2 3847   1.491   3.802  15.965  0.0281 -0.5973  0.1454
  254TMC3    C3 3848   1.445   3.811  16.093  0.1056  0.4788 -0.8228
  254TMC3    C4 3849   1.721   3.835  16.050 -0.7438  1.0425  0.5241
  254TMC3    C5 3850   1.673   3.849  16.174  0.2411  0.1130 -0.9215
  254TMC3    C6 3851   1.537   3.839  16.198  0.6900  0.3754  0.1976
  254TMC3     C 3852   1.669   3.775  15.807 -0.6681 -0.6654 -0.7079
  254TMC3     O 3853   1.602   3.689  15.747  0.4356 -0.2377 -0.2725
  254TMC3     H 3854   1.419   3.787  15.885 -0.8355 -0.7349  0.9565
  254TMC3    H1 3855   1.827   3.819  16.038 -1.3156 -2.3349  0.1623
  254TMC3    H2 3856   1.495   3.842  16.298 -0.4617  0.1061 -0.2721
  254TMC3    C7 3857   1.758   3.866  16.290 -0.1117  0.7421 -0.2723
  254TMC3    C8 3858   1.304   3.779  16.131  0.5903  1.0856  0.2875
  254TMC3    O1 3859   1.708   3.818  16.392  0.1624  0.7187  0.2660
  254TMC3    O2 3860   1.265   3.809  16.242  0.0705  0.0051  0.2471
  255MPD2     C 3861   0.119   0.436  10.092 -0.3479  0.3062  0.3157
  255MPD2    C1 3862   0.188   0.531  10.031 -0.0033  0.3062  0.0775
  255MPD2    C2 3863   0.311   0.569  10.078  0.0665 -0.4199  0.2534
  255MPD2    C3 3864   0.356   0.511  10.198  0.4325 -0.0965 -0.4054
  255MPD2    C4 3865   0.291   0.415  10.261 -0.3480  0.0890  0.1561
  255MPD2    C5 3866   0.167   0.380  10.211 -0.2910  0.6737  0.1111
  255MPD2     H 3867   0.367   0.647  10.029 -0.3670 -0.1323  0.2127
  255MPD2    H1 3868   0.324   0.365  10.352  0.3170  2.1303  1.0567
  255MPD2    H2 3869   0.026   0.397  10.052  0.2281 -1.7115  0.9424
  255MPD2    H3 3870   0.115   0.296  10.254  0.3461  0.2607  0.0815
  255MPD2     N 3871   0.490   0.546  10.230  0.0944 -0.3903  0.2277
  255MPD2    H5 3872   0.528   0.613  10.164 -0.0306  1.1923  1.7335
  255MPD2    N1 3873   0.122   0.600   9.930 -0.5888  0.3078 -0.1917
  255MPD2    H7 3874   0.023   0.579   9.925 -0.2730 -1.0147 -0.8932
  256TMC3    C1 3875   0.088   0.722   9.725 -0.1096 -0.0883 -0.2441
  256TMC3    C2 3876   0.104   0.843   9.665 -0.1291 -0.0796  0.3209
  256TMC3    C3 3877   0.011   0.885   9.578 -0.0184  0.5231  0.1560
  256TMC3    C4 3878   4.705   0.640   9.694  0.0191 -0.2171 -0.4394
  256TMC3    C5 3879   4.620   0.683   9.598 -0.1441 -0.1955 -0.0582
  256TMC3    C6 3880   4.623   0.807   9.542  0.4045 -0.9227  0.4191
  256TMC3     C 3881   0.173   0.683   9.832  0.6535  0.0527  0.4541
  256TMC3     O 3882   0.281   0.741   9.831  0.0648  0.5490  0.1797
  256TMC3     H 3883   0.198   0.897   9.675 -0.3822  0.0804  1.8077
  256TMC3    H1 3884   4.699   0.537   9.729  0.9684 -0.1310 -0.0073
  256TMC3    H2 3885   4.559   0.829   9.458  0.8295  2.6975  1.0573
  256TMC3    C7 3886   4.544   0.582   9.527 -0.4772  0.1188  0.1742
  256TMC3    C8 3887   0.032   1.017   9.510  0.5333  0.0855  0.1217
  256TMC3    O1 3888   4.594   0.472   9.527 -0.0532  0.5876 -0.0256
  256TMC3    O2 3889   4.688   1.034   9.406  0.2337 -0.8273 -0.7886
  257MPD2     C 3890   3.833   2.815  13.315  0.2942 -0.0091  0.3967
  257MPD2    C1 3891   3.922   2.924  13.300 -0.4941  0.7327  0.9500
  257MPD2    C2 3892   4.047   2.925  13.371 -0.0870 -0.1840  0.2286
  257MPD2    C3 3893   4.072   2.840  13.479  0.2555  1.1525  0.2012
  257MPD2    C4 3894   3.979   2.737  13.489 -0.6855  0.5894  0.7016
  257MPD2    C5 3895   3.867   2.732  13.410  0.2143 -0.1663  0.3889
  257MPD2     H 3896   4.125   2.999  13.353  1.6474 -2.5755 -2.1167
  257MPD2    H1 3897   3.973   2.664  13.569 -0.8377 -0.0874  0.0728
  257MPD2    H2 3898   3.734   2.819  13.271  1.0179 -0.7765 -1.2861
  257MPD2    H3 3899   3.787   2.662  13.435  1.1468 -0.5225  2.3677
  257MPD2     N 3900   4.195   2.843  13.552 -0.5966 -0.4203  0.1749
  257MPD2    H5 3901   4.264   2.908  13.516 -2.1584  0.4120 -1.3015
  257MPD2    N1 3902   3.884   3.020  13.196 -0.5197 -0.3549  0.5650
  257MPD2    H7 3903   3.803   2.997  13.139  0.0218  1.4362 -0.9135
  258TMC3    C1 3904   4.349   2.786  13.722  0.3479  0.5999 -0.1232
  258TMC3    C2 3905   4.459   2.798  13.637  0.3151 -0.6912  0.0402
  258TMC3    C3 3906   4.586   2.772  13.683  0.4154  0.6123 -0.0895
  258TMC3    C4 3907   4.366   2.739  13.852  0.2589 -0.6842 -0.5051
  258TMC3    C5 3908   4.495   2.715  13.892 -0.3111 -0.2315  0.3751
  258TMC3    C6 3909   4.601   2.729  13.812 -0.4270 -0.5808 -0.2995
  258TMC3     C 3910   4.211   2.776  13.675  0.0383 -0.0691 -0.9431
  258TMC3     O 3911   4.119   2.739  13.751  0.0457 -0.4964  0.1852
  258TMC3     H 3912   4.439   2.828  13.535  1.1823  1.8109  0.6129
  258TMC3    H1 3913   4.286   2.729  13.925  0.9307  1.0339  0.4630
  258TMC3    H2 3914   4.699   2.689  13.835 -1.1836 -1.8731  0.7060
  258TMC3    C7 3915   4.519   2.669  14.027  0.4004  0.5611  0.2426
  258TMC3    C8 3916   4.699   2.753  13.599  0.7065  0.0382 -0.4246
  258TMC3    O1 3917   4.426   2.646  14.101 -0.4732 -0.5794 -0.5282
  258TMC3    O2 3918   0.093   2.754  13.652 -0.2103 -0.1314 -0.1330
  259MPD2     C 3919   2.302   0.281   0.798 -0.0488 -0.1013  0.2903
  259MPD2    C1 3920   2.399   0.272   0.901  0.2459 -0.0263 -0.1841
  259MPD2    C2 3921   2.529   0.266   0.861  0.5054  0.1222 -0.1421
  259MPD2    C3 3922   2.569   0.260   0.729  0.3093  0.3883 -0.1076
  259MPD2    C4 3923   2.478   0.274   0.629 -0.0575  0.1220  0.6314
  259MPD2    C5 3924   2.343   0.281   0.670  0.2579 -0.1233 -0.1187
  259MPD2     H 3925   2.607   0.253   0.936 -0.1222 -0.3010  0.4422
  259MPD2    H1 3926   2.501   0.274   0.523 -0.6624 -0.1875  0.4982
  259MPD2    H2 3927   2.197   0.296   0.822 -0.2797  0.2783 -1.0077
  259MPD2    H3 3928   2.276   0.294   0.586 -1.4283  2.2467  1.5829
  259MPD2     N 3929   2.707   0.238   0.711  0.0365 -0.1818  0.5174
  259MPD2    H5 3930   2.760   0.232   0.796  0.1535 -0.5156  0.4219
  259MPD2    N1 3931   2.368   0.288   1.038 -0.4262 -0.6505 -0.5562
  259MPD2    H7 3932   2.271   0.276   1.066  0.0585 -1.3408  0.8446
  260TMC3    C1 3933   2.914   0.200   0.598 -0.9492  0.6013  0.6227
  260TMC3    C2 3934   2.979   0.212   0.481  0.7415 -0.5501 -0.2722
  260TMC3    C3 3935   3.108   0.153   0.467 -0.3619 -0.4397 -0.2741
  260TMC3    C4 3936   2.956   0.108   0.694  0.5969  0.0008 -0.0189
  260TMC3    C5 3937   3.078   0.044   0.674  0.5944  0.1066  0.1549
  260TMC3    C6 3938   3.158   0.071   0.567  0.2231 -0.1683  1.5746
  260TMC3     C 3939   2.778   0.231   0.586  0.4572  0.4446 -0.0690
  260TMC3     O 3940   2.730   0.249   0.473  0.4859 -0.7059  0.2720
  260TMC3     H 3941   2.937   0.283   0.411  0.4191  0.2357  0.7116
  260TMC3    H1 3942   2.892   0.099   0.780 -0.4241 -0.1122 -0.7896
  260TMC3    H2 3943   3.251   0.018   0.550  0.2509  0.5813 -0.6498
  260TMC3    C7 3944   3.119   4.644   0.748 -0.4193 -0.5258  0.4333
  260TMC3    C8 3945   3.199   0.238   0.406  0.5036  0.1106  0.0403
  260TMC3    O1 3946   3.217   4.580   0.706  0.1301 -0.0739 -0.0538
  260TMC3    O2 3947   3.149   0.309   0.319  0.2476  0.8519  0.3969
  261MPD2     C 3948   4.667   3.058  12.923 -0.4096  0.1084  0.3734
  261MPD2    C1 3949   0.006   3.184  12.910  0.7270  1.3014 -0.6180
  261MPD2    C2 3950   4.706   3.256  12.794  0.3142 -0.8088 -0.1275
  261MPD2    C3 3951   4.642   3.203  12.685 -0.0115 -0.8203 -0.3794
  261MPD2    C4 3952   4.595   3.076  12.702 -0.6925  0.0208  0.4309
  261MPD2    C5 3953   4.592   3.008  12.817  0.4046 -1.0432 -0.3434
  261MPD2     H 3954   0.031   3.355  12.791 -0.0541 -0.6286  0.5272
  261MPD2    H1 3955   4.548   3.035  12.614  0.0553 -0.5110  0.2810
  261MPD2    H2 3956   4.674   2.999  13.013  1.5836  0.5619  0.5214
  261MPD2    H3 3957   4.528   2.921  12.823  0.2300 -0.9189 -0.4180
  261MPD2     N 3958   4.643   3.266  12.563 -0.0176 -0.1103  0.3273
  261MPD2    H5 3959   4.668   3.364  12.564  1.9968 -0.6207  0.0102
  261MPD2    N1 3960   0.092   3.238  13.009  0.0185  0.5732  0.3238
  261MPD2    H7 3961   0.150   3.319  12.992 -1.0202  1.3915  0.7040
  262TMC3    C1 3962   4.639   3.301  12.326 -0.3523  0.3164  0.4947
  262TMC3    C2 3963   4.603   3.431  12.349  0.2334 -0.0126  0.1817
  262TMC3    C3 3964   4.632   3.522  12.252  0.6411  0.0780 -0.0685
  262TMC3    C4 3965   4.704   3.262  12.210  0.5637  0.6167 -0.1502
  262TMC3    C5 3966   4.717   3.357  12.113 -0.2266  0.2818 -0.5470
  262TMC3    C6 3967   4.689   3.490  12.129 -0.4382  0.3634 -0.0399
  262TMC3     C 3968   4.631   3.203  12.438  0.0729 -0.1017 -0.2794
  262TMC3     O 3969   4.662   3.088  12.399 -1.1038  0.5883 -0.7858
  262TMC3     H 3970   4.542   3.456  12.435 -1.1845  1.3795 -1.2045
  262TMC3    H1 3971   4.713   3.156  12.191 -2.2824  0.6279 -1.5669
  262TMC3    H2 3972   4.716   3.564  12.054  0.3435 -0.2978 -0.4179
  262TMC3    C7 3973   0.059   3.316  11.989  0.4570 -0.3875  0.4509
  262TMC3    C8 3974   4.538   3.633  12.256  0.4434  0.4309  0.3145
  262TMC3    O1 3975   0.083   3.196  11.975  0.1975  0.3280 -0.5205
  262TMC3    O2 3976   4.433   3.622  12.320  0.5512 -0.5091  0.8510
  263MPD2     C 3977   1.140   1.967  11.519 -0.5977 -0.0043  0.6676
  263MPD2    C1 3978   1.182   2.089  11.574  0.1930 -0.6517  0.1638
  263MPD2    C2 3979   1.149   2.211  11.515  0.7892  0.0054 -0.2522
  263MPD2    C3 3980   1.080   2.211  11.394  0.0282 -0.0454 -0.3527
  263MPD2    C4 3981   1.042   2.089  11.344  0.2736 -0.2227  0.5534
  263MPD2    C5 3982   1.065   1.968  11.406  0.5385  0.3610 -0.8058
  263MPD2     H 3983   1.186   2.304  11.558 -0.1562  0.8658 -1.3126
  263MPD2    H1 3984   0.991   2.079  11.249  0.4358 -0.7166  0.5163
  263MPD2    H2 3985   1.169   1.873  11.565  0.9950 -0.3450 -1.0193
  263MPD2    H3 3986   1.045   1.874  11.357  0.9502  0.1858 -0.6412
  263MPD2     N 3987   1.055   2.329  11.324  0.2696  0.0513  0.3948
  263MPD2    H5 3988   1.019   2.316  11.230 -3.7041  0.8813  1.8351
  263MPD2    N1 3989   1.265   2.080  11.685  0.5044 -0.1572  0.6371
  263MPD2    H7 3990   1.300   1.987  11.708  1.1971 -0.0281  0.1030
  264TMC3    C1 3991   1.061   2.553  11.257 -0.4505  0.3297  0.1014
  264TMC3    C2 3992   1.000   2.677  11.283  0.0533  0.1995 -0.4136
  264TMC3    C3 3993   0.968   2.745  11.167  0.0450  0.0169 -1.1893
  264TMC3    C4 3994   1.105   2.510  11.136  0.4424 -0.2783 -0.1875
  264TMC3    C5 3995   1.077   2.588  11.029 -0.5615  0.0659  0.2248
  264TMC3    C6 3996   1.002   2.700  11.041 -0.6102  0.5730  0.9083
  264TMC3     C 3997   1.064   2.460  11.370 -0.8143  0.0577  0.3613
  264TMC3     O 3998   1.071   2.506  11.484 -0.3145 -0.1784  0.0444
  264TMC3     H 3999   0.968   2.699  11.384  1.0451 -0.5263  0.0490
  264TMC3    H1 4000   1.168   2.423  11.124 -0.3220 -0.6925 -1.2396
  264TMC3    H2 4001   0.960   2.733  10.947  0.7284  0.7241  0.3673
  264TMC3    C7 4002   1.205   2.629  10.966  0.8080 -0.5382 -0.1914
  264TMC3    C8 4003   0.996   2.884  11.169 -0.7823 -0.1488  0.0455
  264TMC3    O1 4004   1.292   2.545  10.952  0.8041  0.1582 -0.3630
  264TMC3    O2 4005   1.040   2.922  11.062 -0.2984  0.5948  0.3458
  265MPD2     C 4006   2.579   3.311  15.342  0.2542 -0.2069  0.6459
  265MPD2    C1 4007   2.705   3.356  15.303  0.0668 -0.2281 -0.1130
  265MPD2    C2 4008   2.778   3.298  15.204 -0.3408  0.6215 -0.0256
  265MPD2    C3 4009   2.728   3.191  15.132  0.3058  0.3535  0.3758
  265MPD2    C4 4010   2.604   3.152  15.164  0.1684 -0.4011 -0.0471
  265MPD2    C5 4011   2.529   3.219  15.260 -0.5942 -0.4545  0.7726
  265MPD2     H 4012   2.873   3.338  15.168 -0.2462  1.9715  1.7032
  265MPD2    H1 4013   2.552   3.084  15.098  0.9631 -0.0651 -1.0205
  265MPD2    H2 4014   2.514   3.351  15.419  0.9931  0.3442  0.9920
  265MPD2    H3 4015   2.431   3.175  15.271 -1.2901  0.1473 -3.1522
  265MPD2     N 4016   2.789   3.122  15.031  0.0880 -0.2840  0.7128
  265MPD2    H5 4017   2.741   3.035  15.009  0.8224 -0.1502 -1.4301
  265MPD2    N1 4018   2.773   3.454  15.377 -0.1287 -0.4084  0.1207
  265MPD2    H7 4019   2.868   3.479  15.353  0.5860 -3.3024 -0.0992
  266TMC3    C1 4020   2.837   3.589  15.563 -0.8376  0.3468 -0.2824
  266TMC3    C2 4021   2.866   3.589  15.698 -0.2075  0.1273  0.2345
  266TMC3    C3 4022   2.936   3.697  15.746  0.5819  0.8597 -0.1081
  266TMC3    C4 4023   2.872   3.688  15.475  0.2710  0.5369  0.5683
  266TMC3    C5 4024   2.961   3.781  15.518 -0.2424 -0.2814  0.3783
  266TMC3    C6 4025   2.992   3.785  15.654 -0.6433  0.0430 -0.4925
  266TMC3     C 4026   2.742   3.492  15.509  0.7705 -0.1184 -1.1387
  266TMC3     O 4027   2.660   3.450  15.589 -0.4905 -0.4129  0.5843
  266TMC3     H 4028   2.822   3.520  15.769  0.7060 -1.2278 -0.5214
  266TMC3    H1 4029   2.838   3.698  15.373 -1.4147 -0.3745  1.0389
  266TMC3    H2 4030   3.053   3.867  15.692  0.0562 -0.1862 -1.1181
  266TMC3    C7 4031   2.952   3.903  15.448  0.0934  0.5132  0.2551
  266TMC3    C8 4032   3.011   3.671  15.862  0.4480 -0.3256  0.2516
  266TMC3    O1 4033   2.861   3.918  15.367  0.1179 -0.4124 -0.0847
  266TMC3    O2 4034   3.015   3.551  15.882  0.4331  0.4023  0.5436
  267MPD2     C 4035   0.239   4.701   0.983  0.1686  0.4934 -0.7854
  267MPD2    C1 4036   0.283   4.662   0.860  0.0837  0.0939  0.1462
  267MPD2    C2 4037   0.325   0.041   0.775  0.1845 -0.0182  0.2538
  267MPD2    C3 4038   0.307   0.176   0.803  0.0776  0.1782  0.2098
  267MPD2    C4 4039   0.251   0.218   0.921  0.1475 -1.1685  0.4137
  267MPD2    C5 4040   0.224   0.115   1.008  0.2182 -0.0907  0.6849
  267MPD2     H 4041   0.367   0.015   0.679  0.1934 -0.0819  0.2749
  267MPD2    H1 4042   0.227   0.321   0.942  1.4397 -1.2558  2.3305
  267MPD2    H2 4043   0.209   4.643   1.069  1.3059 -0.7070 -1.2100
  267MPD2    H3 4044   0.189   0.152   1.104 -0.0202  1.6816 -0.0805
  267MPD2     N 4045   0.356   0.273   0.715 -0.4791 -0.3638 -0.3180
  267MPD2    H5 4046   0.391   0.247   0.623  0.3445  1.2510 -0.4550
  267MPD2    N1 4047   0.285   4.524   0.829 -0.3633 -0.4205  0.2978
  267MPD2    H7 4048   0.255   4.468   0.908 -2.4288 -1.0284 -0.9118
  268TMC3    C1 4049   0.293   4.322   0.708  0.1925 -0.8111 -0.3097
  268TMC3    C2 4050   0.270   4.267   0.579  0.3998  0.3539  0.7970
  268TMC3    C3 4051   0.250   4.130   0.590 -0.7181 -0.2278  0.2442
  268TMC3    C4 4052   0.299   4.256   0.822  0.2668  0.3078 -0.1622
  268TMC3    C5 4053   0.252   4.126   0.826  0.3056  0.1840 -0.0155
  268TMC3    C6 4054   0.221   4.063   0.711  0.6368 -0.4917 -0.2862
  268TMC3     C 4055   0.317   4.468   0.709 -0.2286  0.3016  0.6614
  268TMC3     O 4056   0.348   4.525   0.604 -0.4250 -0.1621 -0.2801
  268TMC3     H 4057   0.269   4.333   0.492 -0.0684 -0.5911  0.0894
  268TMC3    H1 4058   0.321   4.306   0.916 -3.8612 -0.6001  1.2931
  268TMC3    H2 4059   0.180   3.963   0.703 -1.2989  0.4610 -2.3131
  268TMC3    C7 4060   0.299   4.055   0.941 -0.1058  0.1973  0.5684
  268TMC3    C8 4061   0.258   4.048   0.468  0.2055 -0.5355  0.4046
  268TMC3    O1 4062   0.323   3.934   0.924  0.1526 -0.2897  0.1878
  268TMC3    O2 4063   0.297   3.933   0.478 -0.3934  0.0801  0.0073
  269MPD2     C 4064   0.826   3.585  15.608  0.2347  0.5727 -0.4111
  269MPD2    C1 4065   0.698   3.626  15.642  0.4490  0.1828 -0.3318
  269MPD2    C2 4066   0.660   3.758  15.614  0.2368  0.3858 -0.3131
  269MPD2    C3 4067   0.750   3.843  15.561  0.0315 -0.3549  0.5513
  269MPD2    C4 4068   0.877   3.799  15.536  0.4008  0.8212  0.1174
  269MPD2    C5 4069   0.910   3.677  15.563  0.8444  0.1218 -0.0090
  269MPD2     H 4070   0.554   3.782  15.612  0.7208  2.5547  0.9865
  269MPD2    H1 4071   0.957   3.858  15.494  1.2684  1.1165  2.1955
  269MPD2    H2 4072   0.859   3.487  15.640 -0.6141  0.8256  1.2429
  269MPD2    H3 4073   1.011   3.644  15.542  0.9183 -2.2854  4.0145
  269MPD2     N 4074   0.704   3.963  15.518 -0.6259  0.3500 -0.2278
  269MPD2    H5 4075   0.619   3.995  15.563  0.1582  2.0633  0.0569
  269MPD2    N1 4076   0.614   3.526  15.693 -0.4355 -0.6832 -0.0109
  269MPD2    H7 4077   0.652   3.434  15.713 -0.2515 -0.9053 -1.4185
  270TMC3    C1 4078   0.422   3.422  15.787  0.4051  0.6446  0.7210
  270TMC3    C2 4079   0.296   3.398  15.753 -0.3790 -0.0984  0.2129
  270TMC3    C3 4080   0.228   3.309  15.838  0.8222  0.2360  0.5222
  270TMC3    C4 4081   0.480   3.382  15.902 -0.3675 -0.3143  0.0336
  270TMC3    C5 4082   0.408   3.305  15.986  0.0429  0.2520  0.0812
  270TMC3    C6 4083   0.285   3.260  15.949  0.0040 -0.0063  0.6153
  270TMC3     C 4084   0.483   3.541  15.736  0.4916 -0.6270  0.6219
  270TMC3     O 4085   0.395   3.626  15.716 -0.3690  0.1180 -0.3679
  270TMC3     H 4086   0.258   3.442  15.661 -1.1477 -1.4283 -0.1243
  270TMC3    H1 4087   0.588   3.387  15.917 -0.4532  0.3942  0.4087
  270TMC3    H2 4088   0.226   3.191  16.007 -0.4266 -0.3199 -0.2091
  270TMC3    C7 4089   0.483   3.232  16.087  0.6848  0.0457 -0.4116
  270TMC3    C8 4090   0.141   3.225  15.768 -0.8503  0.1759 -0.1458
  270TMC3    O1 4091   0.603   3.246  16.082 -0.6108 -0.4396 -0.1677
  270TMC3    O2 4092   0.042   3.176  15.817 -0.1869  0.3794 -0.5695
  271MPD2     C 4093   4.650   3.343  14.053  0.4535 -0.3802 -0.2442
  271MPD2    C1 4094   4.547   3.309  14.135 -0.4759 -0.1904  0.3527
  271MPD2    C2 4095   4.424   3.373  14.123  0.2869 -0.0150 -0.1033
  271MPD2    C3 4096   4.408   3.485  14.051 -0.6308 -0.1619  0.2009
  271MPD2    C4 4097   4.515   3.527  13.971  0.1955  0.3189  0.0048
  271MPD2    C5 4098   4.624   3.447  13.960 -0.2382  0.3122  0.3414
  271MPD2     H 4099   4.341   3.337  14.183  0.6768 -0.3063  0.2624
  271MPD2    H1 4100   4.487   3.606  13.902  0.5945 -0.4915 -1.0807
  271MPD2    H2 4101   0.026   3.292  14.047 -0.0750 -1.8357  4.7044
  271MPD2    H3 4102   4.701   3.474  13.889 -1.5213 -0.4967 -1.3380
  271MPD2     N 4103   4.281   3.543  14.045 -0.4161 -0.1771  0.7369
  271MPD2    H5 4104   4.201   3.486  14.073 -0.5963 -0.2530  0.0568
  271MPD2    N1 4105   4.558   3.198  14.228  0.3444  0.3551 -0.0287
  271MPD2    H7 4106   4.475   3.175  14.280 -0.1184  0.8411 -0.5460
  272TMC3    C1 4107   4.658   3.019  14.349 -0.1271  0.1955  1.2212
  272TMC3    C2 4108   0.055   2.943  14.367 -0.3863 -0.3745  0.2997
  272TMC3    C3 4109   0.102   2.903  14.485 -0.2111 -0.4695  0.7424
  272TMC3    C4 4110   4.582   3.047  14.455  0.7812 -0.0140 -0.0375
  272TMC3    C5 4111   4.635   3.025  14.572 -0.0652 -0.0206  0.3961
  272TMC3    C6 4112   0.029   2.955  14.589 -0.2078 -0.1189  0.1465
  272TMC3     C 4113   4.669   3.122  14.243 -0.4741 -0.2177 -0.1499
  272TMC3     O 4114   0.049   3.113  14.173  0.1965 -0.4848 -0.2212
  272TMC3     H 4115   0.120   2.914  14.285 -1.5395 -0.3565 -0.6064
  272TMC3    H1 4116   4.504   3.121  14.441  0.6747 -0.3101 -0.9746
  272TMC3    H2 4117   0.061   2.932  14.690  0.4886 -0.5985 -0.1777
  272TMC3    C7 4118   4.558   3.075  14.684  0.0178  0.8981  0.6077
  272TMC3    C8 4119   0.244   2.905  14.506 -0.0346 -0.0742  0.5128
  272TMC3    O1 4120   4.438   3.058  14.688  0.0037 -0.2125 -0.3332
  272TMC3    O2 4121   0.311   2.941  14.410 -0.3353  0.4134  0.0229
  273MPD2     C 4122   1.785   0.964  11.862  0.1178 -0.6733 -0.1459
  273MPD2    C1 4123   1.919   1.004  11.849 -0.4606 -0.0845 -0.6708
  273MPD2    C2 4124   1.960   1.071  11.727 -0.0689  0.7551  0.4802
  273MPD2    C3 4125   1.870   1.077  11.621  0.6082  0.0870  0.2241
  273MPD2    C4 4126   1.740   1.032  11.637  1.1319  0.3451 -0.2785
  273MPD2    C5 4127   1.700   0.992  11.760  0.1763 -0.3846 -0.0935
  273MPD2     H 4128   2.053   1.128  11.724 -1.2755  2.6320 -1.0099
  273MPD2    H1 4129   1.674   1.056  11.555  0.2157  1.8160  0.8919
  273MPD2    H2 4130   1.753   0.899  11.943 -1.4111  0.0916 -0.1310
  273MPD2    H3 4131   1.596   0.961  11.764  0.9795 -2.7145  2.8015
  273MPD2     N 4132   1.902   1.144  11.499 -0.5511 -0.0251  0.2346
  273MPD2    H5 4133   1.831   1.163  11.428  0.0589 -2.1381 -0.9517
  273MPD2    N1 4134   2.008   0.972  11.958 -0.1875  0.2666 -0.1933
  273MPD2    H7 4135   1.960   0.953  12.045 -1.1771  0.7386 -0.6399
  274TMC3    C1 4136   1.993   1.297  11.358  0.2266  0.3633 -0.2872
  274TMC3    C2 4137   1.897   1.267  11.262  0.0634 -0.0943  1.0354
  274TMC3    C3 4138   1.855   1.378  11.197  0.2202  0.2890  0.1116
  274TMC3    C4 4139   2.040   1.424  11.389 -0.3188  0.6241 -0.0580
  274TMC3    C5 4140   1.976   1.527  11.327  0.3661 -0.4000 -0.0599
  274TMC3    C6 4141   1.888   1.508  11.219  0.0418 -0.5014 -1.0373
  274TMC3     C 4142   2.023   1.201  11.463 -0.2604  0.6890  0.0678
  274TMC3     O 4143   2.135   1.204  11.518  0.2576 -0.4759 -0.1282
  274TMC3     H 4144   1.865   1.166  11.242  0.0195  0.1890 -0.2702
  274TMC3    H1 4145   2.104   1.433  11.476  0.1309  2.6688 -0.6077
  274TMC3    H2 4146   1.804   1.576  11.205  1.3109  1.3314  0.2918
  274TMC3    C7 4147   1.951   1.643  11.412  0.1746  0.4378 -0.3261
  274TMC3    C8 4148   1.752   1.359  11.103  0.3914 -0.0159 -0.2700
  274TMC3    O1 4149   1.844   1.698  11.403 -0.2140  0.0191  0.0235
  274TMC3    O2 4150   1.690   1.253  11.108  0.0035 -0.2884 -0.0764
  275MPD2     C 4151   1.132   4.374  14.255 -0.4539 -0.4644 -0.2598
  275MPD2    C1 4152   1.033   4.426  14.324  0.3355  0.0080 -0.7983
  275MPD2    C2 4153   0.922   4.349  14.333  1.0046 -0.3084  0.2415
  275MPD2    C3 4154   0.911   4.232  14.261  0.4466 -0.0785 -0.0628
  275MPD2    C4 4155   1.018   4.176  14.195  0.4807 -0.6471  0.0686
  275MPD2    C5 4156   1.125   4.259  14.185  0.1749 -0.2641  0.3843
  275MPD2     H 4157   0.846   4.381  14.404 -1.3409 -1.0312 -1.9526
  275MPD2    H1 4158   1.017   4.074  14.158 -2.0304  0.1459 -2.0963
  275MPD2    H2 4159   1.226   4.426  14.243 -0.4824 -0.1440  0.9828
  275MPD2    H3 4160   1.211   4.230  14.125  1.5377  1.0224  1.6951
  275MPD2     N 4161   0.797   4.151  14.264  0.3515  0.0135 -0.2118
  275MPD2    H5 4162   0.800   4.059  14.223 -1.7531 -0.5233  0.8072
  275MPD2    N1 4163   1.041   4.537  14.413  0.4537  0.0473 -0.3732
  275MPD2    H7 4164   0.956   4.560  14.463  0.6496  0.4057 -0.2069
  276TMC3    C1 4165   1.135   4.696  14.551 -0.5540  0.0064 -0.2112
  276TMC3    C2 4166   1.016   4.695  14.626 -0.5672 -0.6571 -0.1915
  276TMC3    C3 4167   1.018   4.715  14.760  0.2416  0.4157  0.0503
  276TMC3    C4 4168   1.254   4.718  14.615  0.2733 -0.1774 -0.3364
  276TMC3    C5 4169   1.248   0.032  14.744  0.0524  0.8652  0.5414
  276TMC3    C6 4170   1.135   0.008  14.825  0.7692 -0.2258  0.7804
  276TMC3     C 4171   1.157   4.607  14.441 -0.1888 -0.0595  0.5577
  276TMC3     O 4172   1.264   4.605  14.387  0.0193 -0.5575 -0.1193
  276TMC3     H 4173   0.921   4.688  14.574 -1.5541  1.0788  1.3964
  276TMC3    H1 4174   1.347   0.001  14.559  0.6468  0.8997  0.3455
  276TMC3    H2 4175   1.127   0.032  14.930  0.4753  1.7939  0.2972
  276TMC3    C7 4176   1.367   0.036  14.830 -0.1747 -0.6681 -0.4491
  276TMC3    C8 4177   0.936   4.630  14.837 -0.5392  0.6275  0.5649
  276TMC3    O1 4178   1.357   4.700  14.939 -0.0435 -0.4579 -0.1826
  276TMC3    O2 4179   0.818   4.621  14.797  0.1278  0.8153  0.3259
  277MPD2     C 4180   3.032   3.141  13.052 -0.8242  0.6561 -0.4275
  277MPD2    C1 4181   3.158   3.200  13.066 -0.0514 -0.4175  0.0165
  277MPD2    C2 4182   3.250   3.136  13.145  0.7146  0.2566 -0.0430
  277MPD2    C3 4183   3.216   3.016  13.203  0.2963  0.8502  0.1924
  277MPD2    C4 4184   3.088   2.959  13.181 -0.5296  0.0840  0.1974
  277MPD2    C5 4185   2.999   3.028  13.107  0.2216 -0.5310 -0.2336
  277MPD2     H 4186   3.352   3.164  13.167  1.1202  1.4909 -3.4762
  277MPD2    H1 4187   3.068   2.860  13.222  1.9908 -0.6536 -0.3230
  277MPD2    H2 4188   2.967   3.188  12.979 -1.6347 -0.2047 -0.2644
  277MPD2    H3 4189   2.908   2.973  13.087  0.7213 -0.8332 -1.7301
  277MPD2     N 4190   3.319   2.949  13.278  0.1913 -0.2735  0.2086
  277MPD2    H5 4191   3.400   3.006  13.300  0.2084  0.6761 -2.3332
  277MPD2    N1 4192   3.173   3.331  13.014 -0.0944 -0.7377  0.2758
  277MPD2    H7 4193   3.087   3.372  12.979 -0.3723 -0.9758  0.6712
  278TMC3    C1 4194   3.435   2.781  13.396  0.0788  0.0859 -0.1019
  278TMC3    C2 4195   3.478   2.655  13.358 -0.4340  0.5473 -0.1603
  278TMC3    C3 4196   3.521   2.569  13.455 -0.2345 -0.4277 -0.1298
  278TMC3    C4 4197   3.436   2.816  13.533 -0.0564 -0.0526 -0.1154
  278TMC3    C5 4198   3.483   2.724  13.626  0.6491  0.0321 -0.5781
  278TMC3    C6 4199   3.543   2.605  13.582  0.3038 -0.7074 -0.2910
  278TMC3     C 4200   3.321   2.811  13.316 -0.2265 -0.6095 -0.2079
  278TMC3     O 4201   3.250   2.718  13.282  0.6590 -0.1656 -1.1471
  278TMC3     H 4202   3.456   2.624  13.257 -0.4463 -1.9440  0.6129
  278TMC3    H1 4203   3.387   2.908  13.561 -4.6661 -2.5436 -0.0930
  278TMC3    H2 4204   3.593   2.536  13.649  1.5765 -1.9838 -2.5493
  278TMC3    C7 4205   3.395   2.688  13.738 -0.2752 -0.2343  0.0865
  278TMC3    C8 4206   3.478   2.428  13.447 -0.4247 -0.9736  0.2735
  278TMC3    O1 4207   3.433   2.609  13.821  0.1742 -0.0701 -0.2814
  278TMC3    O2 4208   3.544   2.354  13.520 -0.3853  0.3600 -0.2572
  279MPD2     C 4209   2.268   3.849   0.702 -0.7768 -0.3248  0.0876
  279MPD2    C1 4210   2.222   3.822   0.573 -0.0425  0.4186 -0.4581
  279MPD2    C2 4211   2.314   3.816   0.464 -0.3119  0.0135 -0.1736
  279MPD2    C3 4212   2.447   3.852   0.480  0.0687  0.4119 -0.3496
  279MPD2    C4 4213   2.489   3.900   0.601 -0.1310 -0.2807 -0.0101
  279MPD2    C5 4214   2.401   3.888   0.710  0.0305  0.6558 -0.0405
  279MPD2     H 4215   2.282   3.770   0.371 -1.7444  0.5168  0.0813
  279MPD2    H1 4216   2.584   3.944   0.627  0.0946  0.2251 -1.6753
  279MPD2    H2 4217   2.206   3.849   0.791  0.1106  1.1689  0.7037
  279MPD2    H3 4218   2.434   3.937   0.801 -1.8287  0.5229  0.7142
  279MPD2     N 4219   2.544   3.835   0.373  0.2276 -0.1280  0.3542
  279MPD2    H5 4220   2.640   3.862   0.393  0.0319  0.5414  0.3985
  279MPD2    N1 4221   2.097   3.768   0.548  0.1929  0.6490 -0.2745
  279MPD2    H7 4222   2.082   3.737   0.452 -0.4168 -1.4888  0.5000
  280TMC3    C1 4223   1.896   3.666   0.554 -0.3426 -0.1109  0.0251
  280TMC3    C2 4224   1.832   3.552   0.609 -0.2161 -0.4425  0.3280
  280TMC3    C3 4225   1.736   3.486   0.535  0.0565  0.1276  0.3821
  280TMC3    C4 4226   1.869   3.712   0.430 -0.5361 -0.8627  0.4267
  280TMC3    C5 4227   1.782   3.636   0.350  0.2329 -0.1902  0.5637
  280TMC3    C6 4228   1.703   3.530   0.406 -0.3577  1.1979 -0.8117
  280TMC3     C 4229   1.996   3.736   0.633 -0.3109 -0.7610 -0.7213
  280TMC3     O 4230   1.986   3.736   0.755 -0.1362  0.2642  0.5501
  280TMC3     H 4231   1.879   3.508   0.696  0.7098  0.7236  0.4132
  280TMC3    H1 4232   1.907   3.804   0.387 -0.2343 -0.9372  0.5371
  280TMC3    H2 4233   1.637   3.476   0.339  1.5639 -1.4855 -0.5585
  280TMC3    C7 4234   1.768   3.679   0.211  0.2471  0.1086 -0.2900
  280TMC3    C8 4235   1.725   3.348   0.570  0.3711  0.5376  0.2191
  280TMC3    O1 4236   1.868   3.726   0.168 -0.4695 -0.4393 -0.0299
  280TMC3    O2 4237   1.612   3.299   0.583  0.7630  0.2357 -0.7343
  281TMC3    C1 4238   1.165   3.645  13.269 -0.3598 -0.5791 -0.0024
  281TMC3    C2 4239   1.138   3.724  13.163  1.0544  0.0009  0.2908
  281TMC3    C3 4240   1.145   3.666  13.035  0.3627 -0.9839 -0.0407
  281TMC3    C4 4241   1.175   3.508  13.261  0.5038 -0.8322  0.1568
  281TMC3    C5 4242   1.191   3.460  13.132  0.9214  0.5776 -0.3125
  281TMC3    C6 4243   1.175   3.537  13.018 -0.2254  0.3657  0.8529
  281TMC3     C 4244   1.147   3.708  13.401  0.0475 -0.3751  0.0659
  281TMC3     O 4245   1.104   3.643  13.491 -0.2482 -0.0695  0.1068
  281TMC3     H 4246   1.094   3.820  13.184  1.2592 -0.1498  1.4116
  281TMC3    H1 4247   1.196   3.446  13.348  0.2997 -3.3714 -1.5901
  281TMC3    H2 4248   1.184   3.492  12.920  2.3544  1.5038  0.5686
  281TMC3    C7 4249   1.226   3.320  13.119  0.1410 -0.3787  0.6670
  281TMC3    C8 4250   1.121   3.760  12.930 -0.0395 -0.0696 -0.2805
  281TMC3    O1 4251   1.299   3.293  13.024 -0.5444  0.1859 -0.2508
  281TMC3    O2 4252   1.078   3.866  12.964 -0.1038 -0.9055 -0.3273
  282MPD2     C 4253   2.943   0.390  15.360  0.0259 -0.5011 -0.3599
  282MPD2    C1 4254   2.828   0.467  15.349  0.2451 -0.2233 -0.8775
  282MPD2    C2 4255   2.779   0.494  15.227  0.4255  0.0643 -0.9732
  282MPD2    C3 4256   2.835   0.430  15.117  0.2939  0.1409 -0.0834
  282MPD2    C4 4257   2.957   0.361  15.127  0.4152 -0.0249  0.0721
  282MPD2    C5 4258   3.005   0.341  15.252 -0.3769  0.0522 -0.0533
  282MPD2     H 4259   2.682   0.542  15.226 -0.2197 -1.1935  1.2194
  282MPD2    H1 4260   3.018   0.333  15.043  1.2917 -1.1733  1.0999
  282MPD2    H2 4261   2.984   0.356  15.454 -1.6020  1.0430  0.8959
  282MPD2    H3 4262   3.093   0.280  15.270  0.8011  1.7891  0.0720
  282MPD2     N 4263   2.772   0.443  14.988 -0.1497 -0.2426 -0.2181
  282MPD2    H5 4264   2.679   0.482  14.992 -0.1109 -0.0743 -1.0327
  282MPD2    N1 4265   2.765   0.521  15.469  0.0391 -0.0346 -0.3085
  282MPD2    H7 4266   2.684   0.579  15.452 -0.9192 -2.0843 -2.7415
  283TMC3    C1 4267   2.701   0.531  15.692  0.1367  0.7163 -1.2859
  283TMC3    C2 4268   2.668   0.667  15.685 -0.0568  0.3885  0.6155
  283TMC3    C3 4269   2.571   0.718  15.771  0.1541 -0.6043  0.5280
  283TMC3    C4 4270   2.635   0.443  15.775 -0.1548 -0.4781 -0.1449
  283TMC3    C5 4271   2.530   0.502  15.845 -0.3074  0.0478  0.4005
  283TMC3    C6 4272   2.496   0.633  15.846  0.1442 -0.2638 -0.0112
  283TMC3     C 4273   2.791   0.472  15.595  0.2399  0.4851 -0.1742
  283TMC3     O 4274   2.855   0.375  15.641  0.4228  0.2663 -0.2340
  283TMC3     H 4275   2.719   0.734  15.617  0.6608 -0.1069  0.6648
  283TMC3    H1 4276   2.668   0.341  15.791 -0.8388 -0.3352  2.1670
  283TMC3    H2 4277   2.401   0.660  15.893  0.4575  0.7024  0.0694
  283TMC3    C7 4278   2.440   0.414  15.921  0.0204  0.1023 -0.1552
  283TMC3    C8 4279   2.566   0.857  15.800  0.1954  0.6853 -0.1101
  283TMC3    O1 4280   2.383   0.458  16.021 -0.0494  0.3743  0.6750
  283TMC3    O2 4281   2.532   0.888  15.912  0.2611  0.1391  0.4049
  284MPD2     C 4282   1.313   3.852  12.031  0.3036  0.1168 -0.5473
  284MPD2    C1 4283   1.401   3.763  11.984  0.4403 -0.1929 -0.2863
  284MPD2    C2 4284   1.355   3.649  11.928  0.2521  0.1880 -0.9712
  284MPD2    C3 4285   1.223   3.620  11.911  0.1449 -0.6714 -1.0138
  284MPD2    C4 4286   1.129   3.710  11.963 -0.8035 -0.0008 -0.1904
  284MPD2    C5 4287   1.174   3.830  12.016  0.3492 -0.2723  0.3657
  284MPD2     H 4288   1.433   3.583  11.891  1.0921  0.1309  0.9113
  284MPD2    H1 4289   1.021   3.700  11.954 -0.9687  1.9329 -0.3694
  284MPD2    H2 4290   1.338   3.951  12.069 -2.2146 -1.0822  4.2224
  284MPD2    H3 4291   1.110   3.911  12.051  0.7621  0.0864  0.2907
  284MPD2     N 4292   1.179   3.504  11.849 -0.5192 -0.3847  0.1012
  284MPD2    H5 4293   1.092   3.460  11.878 -0.5134  0.0847  0.8117
  284MPD2    N1 4294   1.541   3.786  11.993  0.4262  0.1679 -0.4369
  284MPD2    H7 4295   1.594   3.712  11.948 -2.1779 -0.5769 -2.2511
  285TMC3    C1 4296   1.728   3.932  11.971  0.6883  0.9448 -0.1085
  285TMC3    C2 4297   1.770   3.848  11.867 -0.5294 -0.2662  0.7243
  285TMC3    C3 4298   1.840   3.898  11.762 -0.2926 -0.5881  0.1741
  285TMC3    C4 4299   1.760   4.060  11.963 -0.1073  0.1322 -0.1486
  285TMC3    C5 4300   1.843   4.108  11.864  0.4417  0.4717 -0.0762
  285TMC3    C6 4301   1.877   4.030  11.760 -0.5581 -1.0581  0.0031
  285TMC3     C 4302   1.597   3.909  12.022 -0.0698  0.2567  0.0025
  285TMC3     O 4303   1.547   3.998  12.087 -0.0489  0.4217  0.0139
  285TMC3     H 4304   1.739   3.744  11.867 -1.6248  0.0589 -2.4115
  285TMC3    H1 4305   1.725   4.117  12.048  1.0630 -0.0869  0.4748
  285TMC3    H2 4306   1.923   4.083  11.678  1.5026 -0.7480  1.3686
  285TMC3    C7 4307   1.848   4.249  11.851  0.1009  0.0414 -0.5375
  285TMC3    C8 4308   1.830   3.818  11.644  0.6019 -0.4178 -0.4738
  285TMC3    O1 4309   1.742   4.310  11.872 -0.2537 -0.3250  0.1340
  285TMC3    O2 4310   1.761   3.720  11.636 -0.1934 -0.9986  0.0162
  286MPD2     C 4311   1.681   3.099   1.975 -0.0591 -0.8646  0.7634
  286MPD2    C1 4312   1.646   3.060   1.846 -0.0615  0.1168  0.6274
  286MPD2    C2 4313   1.742   2.994   1.771  0.2665 -0.4988  0.3383
  286MPD2    C3 4314   1.874   3.012   1.802  0.4190 -0.0586 -0.0188
  286MPD2    C4 4315   1.908   3.061   1.929 -0.4255  0.5329  0.1347
  286MPD2    C5 4316   1.811   3.104   2.014 -0.5757 -0.7525  0.1285
  286MPD2     H 4317   1.714   2.939   1.682 -2.3032  2.0046 -0.3766
  286MPD2    H1 4318   2.008   3.066   1.969  0.1556 -1.0462 -1.1623
  286MPD2    H2 4319   1.606   3.146   2.037 -1.2707 -1.9795  0.1470
  286MPD2    H3 4320   1.838   3.157   2.105 -0.9980 -1.6818  0.7877
  286MPD2     N 4321   1.976   2.951   1.723  0.3531  0.0050 -0.3973
  286MPD2    H5 4322   2.066   2.990   1.751  1.1784 -0.5081 -2.3190
  286MPD2    N1 4323   1.517   3.063   1.785 -0.2875  0.1647 -0.3482
  286MPD2    H7 4324   1.513   3.049   1.685  0.9549  2.5878 -0.7345
  287TMC3    C1 4325   2.104   2.820   1.582 -0.2952 -0.3813 -0.2805
  287TMC3    C2 4326   2.117   2.789   1.448  0.3220 -0.2180 -0.7756
  287TMC3    C3 4327   2.239   2.740   1.407  1.2589  0.0722 -0.0968
  287TMC3    C4 4328   2.217   2.827   1.661 -0.2230  0.6469  0.6889
  287TMC3    C5 4329   2.337   2.786   1.614  0.1018 -0.0057 -0.1791
  287TMC3    C6 4330   2.351   2.727   1.492  0.5036 -0.5314 -0.1738
  287TMC3     C 4331   1.971   2.860   1.622  0.2312 -0.1524  0.6226
  287TMC3     O 4332   1.880   2.837   1.542 -0.6671 -0.1876 -0.8433
  287TMC3     H 4333   2.041   2.790   1.371 -0.4179 -0.6832 -0.0441
  287TMC3    H1 4334   2.201   2.827   1.768  0.1592 -0.2766  0.7420
  287TMC3    H2 4335   2.448   2.706   1.449  1.0550  0.7426  0.4370
  287TMC3    C7 4336   2.452   2.828   1.688  0.9622 -0.7254 -0.6736
  287TMC3    C8 4337   2.239   2.666   1.280  0.1279 -0.3352  0.4814
  287TMC3    O1 4338   2.425   2.886   1.796 -0.0259 -0.1808 -0.2912
  287TMC3    O2 4339   2.163   2.708   1.193  0.5590 -0.7397 -0.1075
  288TMC3    C1 4340   3.246   2.710  14.263 -0.2075 -0.9817 -0.4613
  288TMC3    C2 4341   3.135   2.775  14.311 -0.7626 -0.4173 -0.3613
  288TMC3    C3 4342   3.109   2.897  14.241  0.2854  0.6925  0.2509
  288TMC3    C4 4343   3.323   2.759  14.165  0.3441 -0.1464 -0.1792
  288TMC3    C5 4344   3.287   2.870  14.097  0.7114  0.2607 -0.1837
  288TMC3    C6 4345   3.187   2.947  14.138  0.3275 -0.2598  0.0999
  288TMC3     C 4346   3.280   2.582  14.318 -0.1521 -0.2723  0.7122
  288TMC3     O 4347   3.398   2.560  14.329 -0.1191 -0.4071 -0.3275
  288TMC3     H 4348   3.087   2.735  14.399  1.1717 -1.1534  0.3505
  288TMC3    H1 4349   3.413   2.703  14.142 -0.6863 -1.1023 -1.8757
  288TMC3    H2 4350   3.170   3.043  14.091 -0.8708 -1.4270 -1.8282
  288TMC3    C7 4351   3.372   2.931  13.995 -0.2435 -0.0298 -0.4074
  288TMC3    C8 4352   3.008   2.988  14.294  0.4182  0.2671  0.1799
  288TMC3    O1 4353   3.313   2.997  13.914 -0.1381  0.3365  0.8175
  288TMC3    O2 4354   3.008   3.106  14.272 -0.2179  0.3862  0.3742
  289MPD2     C 4355   3.130   2.371  13.657  0.5567  0.2157  0.3614
  289MPD2    C1 4356   3.083   2.302  13.771 -0.6155 -0.5376  0.5498
  289MPD2    C2 4357   2.946   2.277  13.792 -0.7877  0.1949  0.1825
  289MPD2    C3 4358   2.858   2.328  13.706  0.5470  0.1228  0.0772
  289MPD2    C4 4359   2.908   2.404  13.599  0.5968  0.0461  0.0268
  289MPD2    C5 4360   3.040   2.429  13.572 -0.1743  0.0584  0.4412
  289MPD2     H 4361   2.927   2.214  13.877  0.9558 -1.3492 -0.5838
  289MPD2    H1 4362   2.838   2.442  13.526  4.0613  1.2817 -2.6239
  289MPD2    H2 4363   3.234   2.390  13.634  0.3571  2.5913  1.3874
  289MPD2    H3 4364   3.071   2.482  13.484  0.8674 -0.3400  0.5680
  289MPD2     N 4365   2.720   2.300  13.709 -0.0742  0.1917 -0.5235
  289MPD2    H5 4366   2.664   2.357  13.647  4.2731  2.6833 -2.1572
  289MPD2    N1 4367   3.182   2.257  13.869 -0.4635  0.0478  0.0291
  289MPD2    H7 4368   3.279   2.267  13.842 -1.2035  2.9367 -1.5752
  290TMC3    C1 4369   2.515   2.208  13.778  0.1040  0.2470 -0.3766
  290TMC3    C2 4370   2.449   2.321  13.808 -0.1866 -0.5910  0.5709
  290TMC3    C3 4371   2.323   2.310  13.857  0.2840 -0.2290  0.5443
  290TMC3    C4 4372   2.450   2.091  13.786 -0.4569  0.4683  0.3488
  290TMC3    C5 4373   2.317   2.089  13.821 -0.2149 -0.9398 -0.0114
  290TMC3    C6 4374   2.244   2.196  13.864  0.0049 -1.0476  0.7709
  290TMC3     C 4375   2.656   2.203  13.782  0.5000 -0.3722  0.4884
  290TMC3     O 4376   2.711   2.121  13.854 -0.7114  0.1174 -0.1629
  290TMC3     H 4377   2.493   2.420  13.799 -0.6979 -0.2800  1.5351
  290TMC3    H1 4378   2.493   2.003  13.739 -1.8815 -0.1969  0.2558
  290TMC3    H2 4379   2.140   2.196  13.893  0.0347 -0.9281  0.8758
  290TMC3    C7 4380   2.243   1.960  13.843 -0.4556  0.3335  0.0587
  290TMC3    C8 4381   2.253   2.422  13.916  0.0277 -0.6825  0.2486
  290TMC3    O1 4382   2.123   1.974  13.833  0.0751 -0.2467  0.7889
  290TMC3    O2 4383   2.130   2.421  13.905  0.2995  0.1495  0.1175
  291MPD2     C 4384   1.333   0.996   0.369 -0.2718 -0.2288 -0.1999
  291MPD2    C1 4385   1.404   0.878   0.377 -1.2567 -0.6669  0.3097
  291MPD2    C2 4386   1.538   0.875   0.408 -0.2733 -0.2984  0.6436
  291MPD2    C3 4387   1.602   0.995   0.436 -0.3284  0.3568 -0.0716
  291MPD2    C4 4388   1.533   1.114   0.430  0.9774 -0.2374 -0.9783
  291MPD2    C5 4389   1.402   1.115   0.392 -0.1001  0.3040 -0.1117
  291MPD2     H 4390   1.594   0.783   0.418  1.4020  0.7444  0.7889
  291MPD2    H1 4391   1.581   1.209   0.445  0.7288  0.0309 -1.8422
  291MPD2    H2 4392   1.226   1.009   0.355 -0.1072  0.6103 -0.6847
  291MPD2    H3 4393   1.353   1.211   0.388  1.4081  1.0640  0.0287
  291MPD2     N 4394   1.737   0.998   0.472 -0.5316 -0.1567  0.3991
  291MPD2    H5 4395   1.778   1.089   0.490  0.4655 -0.4946 -0.1129
  291MPD2    N1 4396   1.348   0.747   0.365 -0.2693  0.7308 -0.2286
  291MPD2    H7 4397   1.408   0.668   0.388  0.5806  1.6636  0.8021
  292TMC3    C1 4398   1.175   0.586   0.324 -0.5743 -0.2972  0.2140
  292TMC3    C2 4399   1.048   0.562   0.371 -0.4350  0.3825 -0.2838
  292TMC3    C3 4400   0.992   0.440   0.327  0.8446  0.1319 -0.3100
  292TMC3    C4 4401   1.237   0.517   0.225 -0.5517 -0.3577 -1.2376
  292TMC3    C5 4402   1.179   0.400   0.181  0.3400  0.9376 -0.5785
  292TMC3    C6 4403   1.063   0.358   0.241  0.6958 -0.1371 -0.3602
  292TMC3     C 4404   1.213   0.724   0.343 -0.3382  0.0402 -0.6645
  292TMC3     O 4405   1.129   0.810   0.328 -0.5228 -0.0646 -0.0977
  292TMC3     H 4406   0.979   0.634   0.414 -0.7086  0.5254 -0.9627
  292TMC3    H1 4407   1.325   0.555   0.175 -0.7247  1.1675 -0.3850
  292TMC3    H2 4408   1.022   0.260   0.218  0.3326  0.1650 -0.9968
  292TMC3    C7 4409   1.250   0.326   0.086 -0.2341 -0.6624 -0.5317
  292TMC3    C8 4410   0.894   0.381   0.415 -0.4117  0.2092  0.7514
  292TMC3    O1 4411   1.346   0.377   0.029 -0.5100  0.0781  0.0527
  292TMC3    O2 4412   0.817   0.291   0.377  0.9089  0.4271 -0.2316
  293MPD2     C 4413   4.288   3.216  12.579 -0.4123  0.3520 -1.0629
  293MPD2    C1 4414   4.237   3.113  12.652 -0.8080  0.4386  0.4513
  293MPD2    C2 4415   4.246   3.128  12.787  0.1985  0.4868  0.9145
  293MPD2    C3 4416   4.304   3.241  12.851  0.7281  0.5875 -0.1100
  293MPD2    C4 4417   4.353   3.343  12.770  0.1639 -0.3596 -0.3942
  293MPD2    C5 4418   4.334   3.332  12.631 -0.1692  0.0051 -0.7158
  293MPD2     H 4419   4.218   3.046  12.853 -0.5082  0.1895  0.2348
  293MPD2    H1 4420   4.409   3.431  12.801 -0.5388 -0.6146  1.5910
  293MPD2    H2 4421   4.264   3.212  12.473 -4.3051  3.6752 -0.3029
  293MPD2    H3 4422   4.370   3.416  12.573 -1.8428 -0.7317 -2.8124
  293MPD2     N 4423   4.311   3.253  12.996  0.4323  0.2445  0.5366
  293MPD2    H5 4424   4.282   3.169  13.045 -0.9262  0.8109  0.7068
  293MPD2    N1 4425   4.179   2.998  12.589  0.3672 -0.2177  0.6990
  293MPD2    H7 4426   4.181   3.000  12.487 -3.3924 -2.0300  0.5797
  294TMC3    C1 4427   4.033   2.824  12.563 -0.3051  0.3982 -0.4708
  294TMC3    C2 4428   3.896   2.827  12.589 -0.0277 -0.6035  0.3289
  294TMC3    C3 4429   3.815   2.826  12.472  0.9198  0.2473  0.0381
  294TMC3    C4 4430   4.093   2.815  12.440  0.5309  0.1577 -0.5382
  294TMC3    C5 4431   4.015   2.810  12.334 -0.5509  0.6168 -0.2121
  294TMC3    C6 4432   3.878   2.821  12.345 -0.1616 -0.0516  0.2757
  294TMC3     C 4433   4.098   2.904  12.658  0.2174 -0.0963  0.2648
  294TMC3     O 4434   4.064   2.909  12.776  0.7407  0.2452 -0.0869
  294TMC3     H 4435   3.856   2.851  12.687 -1.5691 -3.6412  0.4349
  294TMC3    H1 4436   4.199   2.798  12.426 -0.2249 -2.4498 -3.1629
  294TMC3    H2 4437   3.825   2.833  12.252  1.1870  2.2372 -0.1886
  294TMC3    C7 4438   4.054   2.710  12.231 -0.3138 -0.0730  1.0088
  294TMC3    C8 4439   3.710   2.724  12.483 -0.3697 -0.7182 -1.1154
  294TMC3    O1 4440   3.952   2.656  12.189 -0.8153  0.2997  0.3232
  294TMC3    O2 4441   3.666   2.702  12.593 -0.0883 -0.3368 -0.3056
  295MPD2     C 4442   0.715   2.072   0.664  0.0859 -0.1497  0.4455
  295MPD2    C1 4443   0.584   2.102   0.637  0.0541  0.2608  0.3744
  295MPD2    C2 4444   0.490   2.079   0.729 -0.2245 -0.0477 -0.3141
  295MPD2    C3 4445   0.511   2.021   0.852 -0.0204 -0.1082  0.2736
  295MPD2    C4 4446   0.643   1.994   0.878  0.1989  0.6201 -0.1513
  295MPD2    C5 4447   0.742   2.027   0.789 -0.0078 -0.0675  0.5203
  295MPD2     H 4448   0.389   2.102   0.698 -0.4913 -0.3738  0.3110
  295MPD2    H1 4449   0.666   1.957   0.977  1.8062 -1.6291 -1.3875
  295MPD2    H2 4450   0.796   2.087   0.593 -1.0505 -0.1408 -0.8697
  295MPD2    H3 4451   0.848   2.021   0.812  0.0141  1.5778  0.8398
  295MPD2     N 4452   0.416   1.990   0.950  0.2050  0.6500  0.1717
  295MPD2    H5 4453   0.447   1.976   1.046 -0.6917  2.4269  0.7273
  295MPD2    N1 4454   0.539   2.154   0.519  0.0201 -0.3344 -0.2662
  295MPD2    H7 4455   0.443   2.187   0.510  0.1119  0.4797  1.7315
  296TMC3    C1 4456   0.189   2.019   1.045  0.1150 -0.4443  0.4879
  296TMC3    C2 4457   0.240   2.086   1.149 -0.6979 -0.5778  0.0532
  296TMC3    C3 4458   0.153   2.118   1.252 -0.1992  0.2934  0.3304
  296TMC3    C4 4459   0.058   1.987   1.039  0.5213  0.0247 -0.4224
  296TMC3    C5 4460   4.691   2.039   1.133  0.2788 -0.8678  0.9970
  296TMC3    C6 4461   0.016   2.107   1.245  0.9161 -0.0403  0.3854
  296TMC3     C 4462   0.277   1.992   0.926 -0.1401  0.6332 -0.7806
  296TMC3     O 4463   0.218   2.008   0.819 -0.0353  0.6368 -0.5492
  296TMC3     H 4464   0.346   2.104   1.166 -0.5918 -1.1143 -0.0263
  296TMC3    H1 4465   0.025   1.945   0.944 -0.8246 -0.3914  0.2176
  296TMC3    H2 4466   4.671   2.159   1.315  0.1716 -1.9692  1.1078
  296TMC3    C7 4467   4.547   2.036   1.089 -0.1440  0.0595  0.5018
  296TMC3    C8 4468   0.213   2.170   1.372  0.1814 -0.0134 -0.7786
  296TMC3    O1 4469   4.523   1.983   0.982 -0.2253 -0.9603 -0.4214
  296TMC3    O2 4470   0.332   2.199   1.376 -0.1823 -0.4679  0.2040
  297MPD2     C 4471   1.929   4.216  16.342 -0.1592  0.2842  0.4171
  297MPD2    C1 4472   1.927   4.276  16.217  0.1140  0.6603  0.2457
  297MPD2    C2 4473   2.029   4.362  16.178  0.0237  0.4714  0.2159
  297MPD2    C3 4474   2.135   4.389  16.268  0.2125  0.3166  0.5592
  297MPD2    C4 4475   2.141   4.322  16.386 -0.6492 -0.0484  0.3340
  297MPD2    C5 4476   2.034   4.236  16.423 -0.7274  0.4595 -0.5109
  297MPD2     H 4477   2.014   4.424  16.090 -0.8992  0.2056  0.1812
  297MPD2    H1 4478   2.228   4.327  16.450 -0.4740  2.2863 -0.0759
  297MPD2    H2 4479   1.843   4.161  16.378  0.7502  0.1893  2.4092
  297MPD2    H3 4480   2.050   4.177  16.513  1.0838  1.0482 -0.4451
  297MPD2     N 4481   2.232   4.490  16.237  0.2279 -0.7767  0.3932
  297MPD2    H5 4482   2.231   4.528  16.142  0.5395  0.3667  0.8540
  297MPD2    N1 4483   1.824   4.260  16.120  0.1701 -0.2616 -0.0432
  297MPD2    H7 4484   1.833   4.318  16.037 -3.5284 -0.7993 -0.8361
  298TMC3    C1 4485   1.617   4.180  16.033  0.4300 -0.1612  0.0567
  298TMC3    C2 4486   1.671   4.184  15.906  0.4849  0.1739 -0.1936
  298TMC3    C3 4487   1.586   4.166  15.803  1.2728 -0.1853  0.0750
  298TMC3    C4 4488   1.482   4.152  16.051  0.3450 -0.0232 -0.2387
  298TMC3    C5 4489   1.405   4.133  15.941  0.0531  0.4272 -0.3909
  298TMC3    C6 4490   1.452   4.138  15.816  0.5653 -0.3333 -0.0386
  298TMC3     C 4491   1.701   4.206  16.148 -0.7029  0.7390 -0.1625
  298TMC3     O 4492   1.650   4.165  16.250  0.3218  0.0467  0.5388
  298TMC3     H 4493   1.778   4.192  15.888  0.4169  0.0224 -0.6498
  298TMC3    H1 4494   1.432   4.148  16.147 -1.4157 -1.3154 -1.2129
  298TMC3    H2 4495   1.385   4.142  15.731 -0.4620 -3.3138  0.6423
  298TMC3    C7 4496   1.267   4.157  15.960  0.1800 -0.3966 -0.3669
  298TMC3    C8 4497   1.622   4.192  15.664 -0.2809 -0.2590  0.5319
  298TMC3    O1 4498   1.231   4.250  16.029 -0.3361  0.1796  0.9515
  298TMC3    O2 4499   1.544   4.166  15.571  0.7616  0.1934 -0.0939
  299MPD2     C 4500   2.763   3.657   9.832  0.6612  0.5600  0.2705
  299MPD2    C1 4501   2.737   3.559   9.921  0.0685 -0.4536 -0.3368
  299MPD2    C2 4502   2.607   3.509   9.935 -0.4456 -0.5996  0.4071
  299MPD2    C3 4503   2.508   3.577   9.866  0.3422 -0.5138  0.4664
  299MPD2    C4 4504   2.539   3.676   9.775  0.3668 -0.7046  0.8726
  299MPD2    C5 4505   2.667   3.716   9.760  0.1849  0.1466 -0.0290
  299MPD2     H 4506   2.580   3.429  10.003 -2.9337  0.8975  1.2250
  299MPD2    H1 4507   2.459   3.724   9.718  1.0709  0.5971  0.9947
  299MPD2    H2 4508   2.861   3.701   9.817  0.3122  1.2024 -0.1053
  299MPD2    H3 4509   2.691   3.793   9.686  2.4032 -0.4601  0.0759
  299MPD2     N 4510   2.372   3.558   9.890  0.4499 -0.4838  0.0607
  299MPD2    H5 4511   2.301   3.613   9.843 -0.4077 -2.3624 -0.8469
  299MPD2    N1 4512   2.847   3.511   9.998 -0.3398  0.1765 -0.1731
  299MPD2    H7 4513   2.928   3.571  10.009 -1.7150  2.0005  0.0338
  300TMC3    C1 4514   2.176   3.497  10.003 -0.2115 -0.1160  0.1855
  300TMC3    C2 4515   2.140   3.625  10.056  0.2430  0.0778 -0.2919
  300TMC3    C3 4516   2.022   3.637  10.123 -0.0448  0.0369 -0.1271
  300TMC3    C4 4517   2.095   3.389  10.036  0.1875  0.8706 -0.0440
  300TMC3    C5 4518   1.977   3.415  10.095 -0.9017  0.4172 -0.1263
  300TMC3    C6 4519   1.933   3.534  10.141 -0.1040  0.1995  0.7693
  300TMC3     C 4520   2.311   3.463   9.976  0.5157 -1.1522  0.6127
  300TMC3     O 4521   2.363   3.356  10.011 -0.7135 -0.1053  0.4556
  300TMC3     H 4522   2.206   3.710  10.037 -0.2000  0.1509 -1.5029
  300TMC3    H1 4523   2.117   3.291   9.996  1.2750  1.3168 -0.5417
  300TMC3    H2 4524   1.833   3.550  10.177  0.2564  0.3224  1.7004
  300TMC3    C7 4525   1.954   3.304  10.191  1.0548  0.1626  0.3024
  300TMC3    C8 4526   2.017   3.751  10.213 -0.0189  0.5490 -0.0833
  300TMC3    O1 4527   2.009   3.196  10.164  0.1422 -0.1313  0.0206
  300TMC3    O2 4528   1.908   3.806  10.216  0.2179 -0.2105  0.2795
  301MPD2     C 4529   4.038   0.521   1.668 -0.2361  0.2702  0.9395
  301MPD2    C1 4530   3.915   0.510   1.615  0.6792  0.2685 -0.0577
  301MPD2    C2 4531   3.863   0.389   1.578  0.4013 -0.3387 -0.3589
  301MPD2    C3 4532   3.949   0.276   1.579 -0.4297 -0.2423 -0.4796
  301MPD2    C4 4533   4.081   0.294   1.622 -0.3150  0.1058  0.3138
  301MPD2    C5 4534   4.118   0.413   1.674  0.6601  0.8661 -0.4455
  301MPD2     H 4535   3.757   0.386   1.555  0.4916  2.1121 -1.0838
  301MPD2    H1 4536   4.142   0.205   1.618 -0.4863  0.0070 -0.1312
  301MPD2    H2 4537   4.073   0.608   1.722 -1.1214 -0.4472  2.6581
  301MPD2    H3 4538   4.209   0.425   1.732  0.6069  0.0401 -0.1941
  301MPD2     N 4539   3.914   0.146   1.535  0.1243  0.5477  0.7793
  301MPD2    H5 4540   3.984   0.073   1.541  0.2218  0.5254 -0.8090
  301MPD2    N1 4541   3.833   0.625   1.605 -0.4401  0.6116 -0.6341
  301MPD2    H7 4542   3.740   0.617   1.566 -0.9986 -0.7847  0.9827
  302TMC3    C1 4543   3.775   4.691   1.457  0.1001 -0.3346 -0.1944
  302TMC3    C2 4544   3.878   4.605   1.464  0.3761 -0.2717  0.2518
  302TMC3    C3 4545   3.840   4.474   1.451  0.3864  0.3308  0.5679
  302TMC3    C4 4546   3.652   4.650   1.417  0.0853  0.4815 -0.7166
  302TMC3    C5 4547   3.621   4.518   1.401 -0.5709 -0.2407  0.7350
  302TMC3    C6 4548   3.717   4.426   1.427 -0.3267 -0.6469 -0.6999
  302TMC3     C 4549   3.788   0.108   1.510  0.3629 -0.3503 -0.2789
  302TMC3     O 4550   3.690   0.175   1.513 -0.0389  0.2618  0.1550
  302TMC3     H 4551   3.979   4.642   1.477  1.3735 -3.1017  0.4791
  302TMC3    H1 4552   3.575   0.007   1.416  0.3979  0.8291  1.5420
  302TMC3    H2 4553   3.691   4.322   1.409  1.1196 -1.2145  0.4396
  302TMC3    C7 4554   3.477   4.482   1.419 -0.1712 -0.1080  0.2875
  302TMC3    C8 4555   3.933   4.371   1.485 -0.1336 -0.5253 -0.6335
  302TMC3    O1 4556   3.447   4.389   1.495 -0.4436 -0.2803  0.1860
  302TMC3    O2 4557   3.909   4.259   1.438  0.0294 -0.4689  0.4277
  303MPD2     C 4558   0.221   2.020  10.670  0.6314 -0.5365 -0.0145
  303MPD2    C1 4559   0.262   1.908  10.606 -0.1381 -0.1678  0.0985
  303MPD2    C2 4560   0.266   1.906  10.471 -0.5606 -0.1395  0.1603
  303MPD2    C3 4561   0.253   2.023  10.394  0.9341  1.1749  0.0375
  303MPD2    C4 4562   0.217   2.138  10.466 -0.0989 -0.2982  0.0446
  303MPD2    C5 4563   0.200   2.136  10.601 -0.2130  0.3253 -0.2872
  303MPD2     H 4564   0.278   1.808  10.427 -1.0154 -0.0486 -0.1628
  303MPD2    H1 4565   0.182   2.226  10.414  0.1994 -0.5192 -0.5251
  303MPD2    H2 4566   0.219   2.026  10.779 -2.0695 -0.0538 -0.0932
  303MPD2    H3 4567   0.171   2.223  10.659  1.6646  0.3584  0.6297
  303MPD2     N 4568   0.250   2.025  10.257  0.6757  0.3549 -0.2952
  303MPD2    H5 4569   0.217   2.111  10.215 -0.1924 -0.3633 -1.0641
  303MPD2    N1 4570   0.267   1.792  10.687 -0.8034 -0.0943  0.3352
  303MPD2    H7 4571   0.216   1.793  10.774 -1.2676  3.1051  0.0556
  304TMC3    C1 4572   0.295   1.568  10.751  0.5686  0.1250 -0.2431
  304TMC3    C2 4573   0.177   1.558  10.814 -0.0267  0.3056 -0.0610
  304TMC3    C3 4574   0.152   1.445  10.896  0.3099 -0.3663  0.3235
  304TMC3    C4 4575   0.400   1.469  10.757  0.2612 -0.2903  0.1815
  304TMC3    C5 4576   0.369   1.365  10.837 -0.3933  0.6225 -0.1482
  304TMC3    C6 4577   0.253   1.350  10.903 -0.8214 -0.3442  0.0065
  304TMC3     C 4578   0.310   1.669  10.645  0.0903 -0.6306 -0.0586
  304TMC3     O 4579   0.377   1.639  10.545 -0.2102  0.3747 -0.4371
  304TMC3     H 4580   0.096   1.629  10.799 -1.0156 -0.7447  0.3240
  304TMC3    H1 4581   0.482   1.469  10.686 -1.8296 -1.3473 -2.2518
  304TMC3    H2 4582   0.234   1.262  10.963  0.4463 -0.3537  0.3810
  304TMC3    C7 4583   0.403   1.238  10.768 -0.1425 -0.2641 -0.1644
  304TMC3    C8 4584   0.017   1.394  10.876 -0.4117 -0.2745  0.0042
  304TMC3    O1 4585   0.317   1.153  10.774  0.0421  0.2093 -0.6131
  304TMC3    O2 4586   4.642   1.442  10.941  0.7644  0.3190 -0.4080
  305MPD2     C 4587   2.963   0.773  13.784 -0.5999 -0.2593  0.9127
  305MPD2    C1 4588   2.960   0.634  13.802 -0.1247  0.3621  0.6831
  305MPD2    C2 4589   2.939   0.559  13.687 -0.2058  0.7513  0.1244
  305MPD2    C3 4590   2.936   0.621  13.558 -0.9480 -0.1669  0.3084
  305MPD2    C4 4591   2.940   0.762  13.547 -0.2287 -0.5012 -0.2206
  305MPD2    C5 4592   2.959   0.830  13.662 -0.1662 -0.1583 -0.0174
  305MPD2     H 4593   2.934   0.451  13.681  1.5893  0.5611  1.9566
  305MPD2    H1 4594   2.937   0.821  13.457  2.6086 -0.3305 -0.1926
  305MPD2    H2 4595   2.979   0.848  13.861  0.1992  0.2581  0.2390
  305MPD2    H3 4596   2.954   0.938  13.669 -2.4757 -0.3426  1.0978
  305MPD2     N 4597   2.935   0.544  13.433 -0.0490  0.5164 -0.6506
  305MPD2    H5 4598   2.930   0.603  13.350 -1.1439 -0.0664 -0.9889
  305MPD2    N1 4599   2.972   0.578  13.933 -0.2423  0.4867  0.4527
  305MPD2    H7 4600   2.983   0.645  14.009 -2.6189  1.1965  0.1442
  306TMC3    C1 4601   2.958   0.426  14.110 -0.0072  0.7730  0.0405
  306TMC3    C2 4602   2.995   0.297  14.157 -0.3201 -0.2146 -0.5361
  306TMC3    C3 4603   2.993   0.275  14.298  0.8452  0.1845  0.2119
  306TMC3    C4 4604   2.935   0.527  14.202  0.9917  0.4790  0.1871
  306TMC3    C5 4605   2.942   0.502  14.340  0.1540 -0.3347 -0.1415
  306TMC3    C6 4606   2.962   0.375  14.390 -0.0796 -0.4740  0.9837
  306TMC3     C 4607   2.977   0.444  13.970 -0.0052 -1.2544 -0.6618
  306TMC3     O 4608   2.971   0.348  13.900 -0.6696 -0.0099  0.4006
  306TMC3     H 4609   3.037   0.217  14.098 -1.2256 -0.8196 -0.3698
  306TMC3    H1 4610   2.902   0.628  14.180  0.2710  0.8806  3.2189
  306TMC3    H2 4611   2.941   0.357  14.495 -2.0983  0.0731  0.6812
  306TMC3    C7 4612   2.862   0.599  14.418 -0.2332 -0.3442  0.4403
  306TMC3    C8 4613   2.960   0.143  14.342 -0.2559  0.1115  0.0540
  306TMC3    O1 4614   2.782   0.671  14.360  0.6717  0.1932  0.0012
  306TMC3    O2 4615   2.965   0.117  14.462 -0.5021 -0.3734 -0.7011
  307MPD2     C 4616   3.765   3.222   1.879  0.3220  0.5584  0.4823
  307MPD2    C1 4617   3.873   3.265   1.803  0.4394 -0.5669 -0.3863
  307MPD2    C2 4618   3.851   3.377   1.721 -0.7217 -0.0825  0.5914
  307MPD2    C3 4619   3.733   3.448   1.720  1.0742 -0.3416  0.2372
  307MPD2    C4 4620   3.635   3.413   1.810  0.2502  0.4155 -0.1007
  307MPD2    C5 4621   3.646   3.293   1.880 -0.1319 -0.4315 -0.7205
  307MPD2     H 4622   3.928   3.411   1.653 -1.1316  2.4706  1.3807
  307MPD2    H1 4623   3.540   3.464   1.816  0.4844  0.7439  0.7770
  307MPD2    H2 4624   3.769   3.133   1.941 -1.7886  0.0414 -0.1354
  307MPD2    H3 4625   3.564   3.261   1.943 -0.3327  0.3985 -0.5732
  307MPD2     N 4626   3.719   3.550   1.624 -0.2560 -0.1283 -0.1046
  307MPD2    H5 4627   3.805   3.574   1.576 -1.2974  2.0527 -0.9281
  307MPD2    N1 4628   3.986   3.183   1.778  0.3524 -0.0548 -0.4717
  307MPD2    H7 4629   4.060   3.232   1.730  2.1012 -0.1707  2.1274
  308TMC3    C1 4630   3.615   3.700   1.253  0.1491  0.9168  0.4275
  308TMC3    C2 4631   3.738   3.756   1.235 -0.2134 -0.4490 -0.1000
  308TMC3    C3 4632   3.809   3.787   1.354 -0.3338  0.3291  0.4392
  308TMC3    C4 4633   3.549   3.694   1.374 -0.5121 -0.1240 -0.2917
  308TMC3    C5 4634   3.621   3.724   1.484  0.1916  0.2886  0.0726
  308TMC3    C6 4635   3.749   3.763   1.478 -0.2092 -0.2688 -0.8370
  308TMC3     C 4636   3.539   3.652   1.144 -0.5166  0.4438 -0.5022
  308TMC3     O 4637   3.416   3.646   1.154 -0.2227 -0.3770 -0.4855
  308TMC3     H 4638   3.779   3.783   1.138 -1.5932 -3.2721 -1.4497
  308TMC3    H1 4639   3.450   3.650   1.373 -0.1143 -1.0144 -0.7600
  308TMC3    H2 4640   3.799   3.789   1.570  2.0016 -1.9325 -1.5570
  308TMC3    C7 4641   3.605   3.615   1.586  0.8547  0.6025  0.1540
  308TMC3    C8 4642   3.934   3.853   1.347 -0.3630 -0.6594  0.3617
  308TMC3    O1 4643   3.490   3.586   1.624 -0.2413 -0.0800  0.5867
  308TMC3    O2 4644   3.960   3.927   1.443  0.6578  0.6038 -0.4335
  309MPD2     C 4645   4.196   3.513  16.947 -0.1995 -0.5152 -0.3012
  309MPD2    C1 4646   4.240   3.638  16.906 -0.0717 -0.7222  0.3553
  309MPD2    C2 4647   4.173   3.753  16.943  0.3829  0.1681  0.3776
  309MPD2    C3 4648   4.069   3.738  17.035 -0.0807  0.4626 -0.1081
  309MPD2    C4 4649   4.033   3.610  17.079 -0.7914 -0.3190  0.1120
  309MPD2    C5 4650   4.089   3.501  17.024 -0.9203  0.2704  0.1177
  309MPD2     H 4651   4.205   3.852  16.913  0.9084 -0.0397  0.2378
  309MPD2    H1 4652   3.951   3.593  17.148 -0.2702 -0.6629  0.6456
  309MPD2    H2 4653   4.242   3.424  16.904 -0.9248 -1.3594  0.6885
  309MPD2    H3 4654   4.041   3.404  17.027  0.6683 -0.5471 -0.6820
  309MPD2     N 4655   4.006   3.853  17.084  0.7359 -0.8802 -0.3574
  309MPD2    H5 4656   3.942   3.835  17.161 -0.5907  0.4579 -1.1547
  309MPD2    N1 4657   4.344   3.653  16.814 -0.2104 -0.2171  0.3602
  309MPD2    H7 4658   4.353   3.743  16.767 -0.3861 -0.9479 -1.0668
  310TMC3    C1 4659   4.518   3.605  16.667  0.2831 -0.0726  1.4549
  310TMC3    C2 4660   4.457   3.678  16.567 -0.2195  0.5839 -0.3200
  310TMC3    C3 4661   4.518   3.679  16.441  0.2164  0.3448 -0.3848
  310TMC3    C4 4662   4.631   3.533  16.652  0.8155  0.6237 -0.3057
  310TMC3    C5 4663   4.696   3.533  16.530  0.3285 -0.5879  0.1810
  310TMC3    C6 4664   4.643   3.610  16.424  0.1791 -0.8712  0.2765
  310TMC3     C 4665   4.431   3.555  16.776 -0.2591 -0.4218 -0.1133
  310TMC3     O 4666   4.457   3.450  16.832 -0.5990  0.2691 -0.3134
  310TMC3     H 4667   4.355   3.714  16.574 -0.0912  0.9733 -0.4423
  310TMC3    H1 4668   4.664   3.475  16.737  3.9979  3.0255  0.0819
  310TMC3    H2 4669   4.689   3.601  16.327  0.8605  0.0510  0.5114
  310TMC3    C7 4670   0.115   3.489  16.527 -0.2779 -0.6713  0.6405
  310TMC3    C8 4671   4.470   3.770  16.341  0.6742  0.0755 -0.2189
  310TMC3    O1 4672   0.149   3.427  16.625 -0.1691  0.1116 -0.4576
  310TMC3    O2 4673   4.511   3.761  16.229 -0.0241 -0.1230  0.1280
  311MPD2     C 4674   2.386   4.530  12.439 -0.3507 -0.0371 -0.0802
  311MPD2    C1 4675   2.380   4.664  12.472  0.5128 -0.7656 -0.0299
  311MPD2    C2 4676   2.274   4.703  12.539 -0.0511 -0.0850 -0.6480
  311MPD2    C3 4677   2.165   4.625  12.575  0.6335 -0.3282  1.0093
  311MPD2    C4 4678   2.176   4.491  12.542  0.7873 -0.1848 -0.8510
  311MPD2    C5 4679   2.283   4.445  12.472  0.3426  0.4704 -0.6067
  311MPD2     H 4680   2.262   0.090  12.559  0.8735 -0.1668  0.3247
  311MPD2    H1 4681   2.097   4.420  12.566  1.6583 -1.3455 -1.4386
  311MPD2    H2 4682   2.473   4.486  12.392  0.2320  1.9471 -0.8557
  311MPD2    H3 4683   2.280   4.338  12.452  0.0501  0.6172 -1.3534
  311MPD2     N 4684   2.066   4.681  12.648  0.9484  0.1511  0.1007
  311MPD2    H5 4685   2.070   0.061  12.671 -1.0374  0.2445  0.0938
  311MPD2    N1 4686   2.473   0.044  12.436  0.3027 -0.0722 -0.6668
  311MPD2    H7 4687   2.455   0.137  12.472 -4.1822 -1.7464  1.3887
  312TMC3    C1 4688   1.868   4.709  12.768 -0.2699 -0.2644 -0.5171
  312TMC3    C2 4689   1.736   4.670  12.796  0.0511  0.4959  0.0554
  312TMC3    C3 4690   1.666   0.018  12.889 -1.0455  0.1203 -0.9717
  312TMC3    C4 4691   1.917   0.110  12.816  0.1516  0.7266 -0.6428
  312TMC3    C5 4692   1.838   0.163  12.918  0.7353 -0.2484  0.6484
  312TMC3    C6 4693   1.712   0.123  12.958 -0.1875 -0.7432 -0.5794
  312TMC3     C 4694   1.953   4.621  12.692 -0.0405  0.1953  0.0896
  312TMC3     O 4695   1.902   4.515  12.661  0.1674  0.2518 -0.9474
  312TMC3     H 4696   1.681   4.606  12.729 -2.0670  2.5376 -0.1513
  312TMC3    H1 4697   2.021   0.140  12.814 -0.1719  1.9538  2.5542
  312TMC3    H2 4698   1.656   0.170  13.037  1.1955  1.2739 -0.7886
  312TMC3    C7 4699   1.922   0.250  12.997  0.8243  0.1075 -0.5618
  312TMC3    C8 4700   1.519   0.009  12.886 -0.1483  0.1243 -0.6482
  312TMC3    O1 4701   2.014   0.313  12.953  0.4384  0.3744  0.3568
  312TMC3    O2 4702   1.486   4.615  12.843  0.0011 -0.3367  0.2998
  313MPD2     C 4703   1.343   3.834  11.142 -0.9077 -0.2747  0.0867
  313MPD2    C1 4704   1.464   3.831  11.073  0.7831  0.6562 -0.5561
  313MPD2    C2 4705   1.466   3.769  10.950  0.2064 -0.3648  0.0996
  313MPD2    C3 4706   1.356   3.704  10.901  0.7892 -0.0778 -0.2651
  313MPD2    C4 4707   1.243   3.702  10.977 -0.5617 -0.1856  0.4630
  313MPD2    C5 4708   1.239   3.764  11.099  0.2910  0.3974 -0.6997
  313MPD2     H 4709   1.556   3.772  10.889 -0.6779  0.5556 -1.1455
  313MPD2    H1 4710   1.157   3.641  10.949  1.5351 -3.0191  0.2453
  313MPD2    H2 4711   1.337   3.882  11.238  1.3865  1.1807 -0.4907
  313MPD2    H3 4712   1.145   3.757  11.153  1.0917  1.2924  0.8043
  313MPD2     N 4713   1.356   3.661  10.766 -0.0263 -0.6892  0.0654
  313MPD2    H5 4714   1.439   3.690  10.716 -0.0620  0.8043  0.8778
  313MPD2    N1 4715   1.578   3.908  11.108  0.3405 -0.2806 -0.3395
  313MPD2    H7 4716   1.645   3.911  11.032 -2.1711  2.0011 -2.4514
  314TMC3    C1 4717   1.718   4.062  11.206  0.8232 -0.3789 -0.0279
  314TMC3    C2 4718   1.692   4.191  11.214  0.0945 -0.1066  0.0585
  314TMC3    C3 4719   1.751   4.268  11.115  0.1121  0.1153  0.3486
  314TMC3    C4 4720   1.807   4.007  11.118 -0.3784  0.3686  0.4863
  314TMC3    C5 4721   1.862   4.083  11.017  0.6134  0.2650  0.4959
  314TMC3    C6 4722   1.840   4.219  11.023  0.2538  0.0741  0.0231
  314TMC3     C 4723   1.601   3.976  11.225  1.0662 -0.3403  0.0751
  314TMC3     O 4724   1.516   4.017  11.305  0.2936  0.6488 -0.0309
  314TMC3     H 4725   1.634   4.232  11.295  0.6248  2.2332 -0.7539
  314TMC3    H1 4726   1.818   3.900  11.118  0.1850  0.4257  2.7165
  314TMC3    H2 4727   1.886   4.282  10.948  0.2821  1.4885  1.2276
  314TMC3    C7 4728   1.850   4.025  10.882 -0.0516  0.2167 -0.0060
  314TMC3    C8 4729   1.751   4.414  11.124 -0.0222  0.9380  0.3845
  314TMC3    O1 4730   1.820   3.903  10.882  0.2540 -0.4981  0.2608
  314TMC3    O2 4731   1.836   4.474  11.061 -0.0269  0.1138 -0.7673
  315MPD2     C 4732   0.761   3.241   0.253  0.0125  0.2917 -0.2616
  315MPD2    C1 4733   0.892   3.229   0.213  0.3622 -0.3765 -0.8427
  315MPD2    C2 4734   0.937   3.298   0.100  0.5937  0.2540  0.2994
  315MPD2    C3 4735   0.851   3.357   0.014 -0.5473  0.3676 -0.4580
  315MPD2    C4 4736   0.716   3.359   0.054 -0.0441  0.4446 -0.3338
  315MPD2    C5 4737   0.676   3.308   0.171 -0.1712  0.5869 -0.0009
  315MPD2     H 4738   1.042   3.288   0.075  1.0793  0.7271  2.1499
  315MPD2    H1 4739   0.647   3.413  17.668 -0.5766 -0.4450 -0.5164
  315MPD2    H2 4740   0.724   3.195   0.344  0.7357 -0.7393 -0.4858
  315MPD2    H3 4741   0.571   3.321   0.194  0.0881 -0.4174  1.7556
  315MPD2     N 4742   0.904   3.431  17.583  0.0330  0.1472  0.4909
  315MPD2    H5 4743   1.005   3.435  17.583  0.0091  0.7406  1.3603
  315MPD2    N1 4744   0.990   3.171   0.294  0.9190 -0.4612 -0.3389
  315MPD2    H7 4745   1.081   3.168   0.249  0.3342 -1.1111 -1.4817
  316TMC3    C1 4746   0.914   3.589  17.396 -0.4954 -0.6510  0.1820
  316TMC3    C2 4747   1.040   3.628  17.432  0.2286 -0.1724 -0.0645
  316TMC3    C3 4748   1.099   3.741  17.377 -0.2401 -0.2347  0.0394
  316TMC3    C4 4749   0.838   3.670  17.312 -0.5473  0.2566  0.2543
  316TMC3    C5 4750   0.904   3.769  17.243  0.2394 -0.0105  0.4439
  316TMC3    C6 4751   1.035   3.810  17.271 -0.1082  0.5591 -0.2981
  316TMC3     C 4752   0.835   3.498  17.483  0.2907 -0.1204  0.2210
  316TMC3     O 4753   0.713   3.506  17.478  0.5097 -0.3257  0.2214
  316TMC3     H 4754   1.096   3.576  17.509 -2.1514 -0.3062  1.5732
  316TMC3    H1 4755   0.732   3.651  17.294 -0.1358 -0.3767 -1.5462
  316TMC3    H2 4756   1.087   3.893  17.226  0.0402  0.3068 -0.5906
  316TMC3    C7 4757   0.843   3.842  17.134 -0.2800 -0.0344 -0.7066
  316TMC3    C8 4758   1.239   3.764  17.393 -0.3750  0.1169  0.5703
  316TMC3    O1 4759   0.900   3.940  17.089 -0.2253 -0.2670 -0.1047
  316TMC3    O2 4760   1.288   3.815  17.293  0.2702 -0.1299  1.0301
  317MPD2     C 4761   3.542   1.937  12.141  0.1847 -0.5214 -0.4708
  317MPD2    C1 4762   3.658   1.885  12.199  0.7289  0.4042 -0.3686
  317MPD2    C2 4763   3.647   1.819  12.317 -0.3083 -0.8214  0.5556
  317MPD2    C3 4764   3.523   1.787  12.373 -0.2131  0.1054  0.5636
  317MPD2    C4 4765   3.407   1.825  12.303 -0.5736 -0.0068  0.0096
  317MPD2    C5 4766   3.418   1.898  12.191 -0.0311  0.1915  0.3912
  317MPD2     H 4767   3.744   1.788  12.356  0.0600 -0.1200  0.1974
  317MPD2    H1 4768   3.309   1.807  12.346 -0.4102  1.2089  0.8766
  317MPD2    H2 4769   3.537   1.994  12.049 -1.6508  0.8841  0.5008
  317MPD2    H3 4770   3.330   1.935  12.140 -1.5304 -1.0156  2.1094
  317MPD2     N 4771   3.526   1.708  12.487 -0.0852  1.0458 -0.1224
  317MPD2    H5 4772   3.616   1.685  12.530 -0.5528  0.4442  0.5428
  317MPD2    N1 4773   3.779   1.882  12.129 -0.6480  0.1474  0.4828
  317MPD2    H7 4774   3.857   1.827  12.164  1.2962  1.9709 -0.9657
  318TMC3    C1 4775   3.444   1.616  12.690 -0.3823  1.2759  0.4148
  318TMC3    C2 4776   3.346   1.546  12.758  0.0449 -1.2156  0.6095
  318TMC3    C3 4777   3.353   1.562  12.894  0.2845  0.8251  0.8702
  318TMC3    C4 4778   3.550   1.679  12.753 -0.2524  0.0290  0.4923
  318TMC3    C5 4779   3.556   1.686  12.890  0.2056 -0.7125 -0.6367
  318TMC3    C6 4780   3.456   1.627  12.958  0.4708 -0.4160 -0.1174
  318TMC3     C 4781   3.410   1.672  12.561  0.1972  0.0554 -0.6574
  318TMC3     O 4782   3.293   1.684  12.533 -0.2195  0.1061  0.1003
  318TMC3     H 4783   3.271   1.489  12.705  0.4595 -1.2492  0.0644
  318TMC3    H1 4784   3.624   1.735  12.697 -1.6065  1.3059 -0.0286
  318TMC3    H2 4785   3.445   1.646  13.064  1.0745  2.2101 -0.5197
  318TMC3    C7 4786   3.681   1.731  12.958  0.6156 -0.3132  1.1214
  318TMC3    C8 4787   3.244   1.504  12.975  0.3762  0.4017 -0.2055
  318TMC3    O1 4788   3.766   1.799  12.895 -0.0587  0.0226  0.1853
  318TMC3    O2 4789   3.260   1.509  13.098 -0.2963 -0.2941 -0.0734
  319MPD2     C 4790   4.350   3.283  16.348  0.4136  0.2533 -0.6774
  319MPD2    C1 4791   4.273   3.217  16.440 -0.1439 -0.0741  0.1777
  319MPD2    C2 4792   4.146   3.177  16.413 -0.7916 -0.5824 -0.7711
  319MPD2    C3 4793   4.087   3.220  16.292  0.5826  0.2691 -0.0677
  319MPD2    C4 4794   4.171   3.277  16.197 -0.9861  0.1862 -0.3002
  319MPD2    C5 4795   4.303   3.307  16.220  0.7955 -0.3405 -0.2334
  319MPD2     H 4796   4.097   3.112  16.484 -1.7508  0.9916  0.0128
  319MPD2    H1 4797   4.129   3.299  16.100 -0.4316  0.7213 -0.4158
  319MPD2    H2 4798   4.450   3.310  16.379  0.7558 -2.8073  0.8346
  319MPD2    H3 4799   4.364   3.347  16.140  0.3372 -1.1405 -0.9835
  319MPD2     N 4800   3.951   3.189  16.259  0.7698  0.3394  0.1467
  319MPD2    H5 4801   3.920   3.213  16.165  3.3199  1.2847 -0.4676
  319MPD2    N1 4802   4.329   3.170  16.567 -0.4139  0.5564 -0.1751
  319MPD2    H7 4803   4.257   3.144  16.633 -0.1255 -2.0459 -0.8752
  320TMC3    C1 4804   3.733   3.123  16.265  0.0902  0.3416 -0.5845
  320TMC3    C2 4805   3.703   3.242  16.194  0.4237 -0.1685 -0.0031
  320TMC3    C3 4806   3.590   3.233  16.120  0.3712  0.4869  0.3932
  320TMC3    C4 4807   3.670   3.001  16.256 -0.5691 -0.7377  0.3592
  320TMC3    C5 4808   3.560   3.007  16.177  0.5130  0.0030 -0.5775
  320TMC3    C6 4809   3.517   3.118  16.113 -0.2117  0.4092  0.1797
  320TMC3     C 4810   3.860   3.127  16.336 -0.8959 -0.2763  0.0000
  320TMC3     O 4811   3.864   3.080  16.450  0.3341 -0.6994  0.6913
  320TMC3     H 4812   3.749   3.340  16.203 -2.0030  0.9954 -0.3779
  320TMC3    H1 4813   3.700   2.917  16.318  1.4641  0.3995  0.9404
  320TMC3    H2 4814   3.422   3.112  16.060 -0.8567 -0.9892  1.4797
  320TMC3    C7 4815   3.486   2.885  16.168  0.1126  0.0263 -0.0705
  320TMC3    C8 4816   3.572   3.342  16.029  0.1573  0.6435  0.0258
  320TMC3    O1 4817   3.406   2.876  16.071 -0.1922 -1.1765  0.4067
  320TMC3    O2 4818   3.651   3.432  16.028  0.4856  0.3169  0.4308
  321TMC3    C1 4819   4.473   3.133  16.751 -0.3711 -0.1000  0.5348
  321TMC3    C2 4820   4.411   3.011  16.765 -0.0430  0.2869 -0.0459
  321TMC3    C3 4821   4.482   2.928  16.846 -0.3406  0.3051 -0.2292
  321TMC3    C4 4822   4.590   3.163  16.812 -0.2803  0.7434 -0.3004
  321TMC3    C5 4823   4.640   3.077  16.908  0.1015 -0.2366 -0.7035
  321TMC3    C6 4824   4.600   2.949  16.907  0.5138  0.2146 -0.3815
  321TMC3     C 4825   4.450   3.196  16.620  0.0494  0.6540  0.3755
  321TMC3     O 4826   4.541   3.266  16.577 -0.2976 -0.0988  0.0351
  321TMC3     H 4827   4.310   2.989  16.733  0.1835  1.8195 -1.7784
  321TMC3    H1 4828   4.638   3.259  16.794  1.3076  0.3209  1.6975
  321TMC3    H2 4829   4.646   2.880  16.976 -0.5147  1.2391  1.3297
  321TMC3    C7 4830   4.639   3.130  17.045  0.4248  0.9820  0.2266
  321TMC3    C8 4831   4.389   2.843  16.920  0.0744 -0.0004  0.4645
  321TMC3    O1 4832   4.636   3.042  17.126  0.2199 -0.0551  0.0579
  321TMC3    O2 4833   4.289   2.799  16.863  0.3856  0.1815  0.2336
  322MPD2     C 4834   3.143   4.561  13.572 -1.0353  0.6870  0.1218
  322MPD2    C1 4835   3.107   4.461  13.658  0.2739 -0.0054  0.3321
  322MPD2    C2 4836   3.088   4.335  13.595  0.7152  0.0171  0.6191
  322MPD2    C3 4837   3.090   4.326  13.456  0.2118  0.1799  0.0923
  322MPD2    C4 4838   3.135   4.431  13.372 -1.2244  0.0409 -0.5518
  322MPD2    C5 4839   3.158   4.546  13.434 -0.4842 -0.1575 -0.8293
  322MPD2     H 4840   3.067   4.248  13.656 -2.0568 -0.1106 -0.4847
  322MPD2    H1 4841   3.143   4.425  13.264  0.2943  1.7545 -0.5328
  322MPD2    H2 4842   3.157   4.664  13.602  2.5085  0.5715 -1.0936
  322MPD2    H3 4843   3.197   4.624  13.370  0.3047 -0.1402 -0.3259
  322MPD2     N 4844   3.063   4.191  13.419 -0.4440  0.2837  0.6779
  322MPD2    H5 4845   3.049   4.125  13.495 -0.3108 -1.7728 -1.0811
  322MPD2    N1 4846   3.084   4.486  13.795 -0.0262  0.3531 -0.0287
  322MPD2    H7 4847   3.104   4.581  13.826  0.6735  0.3186 -0.3692
  323TMC3    C1 4848   3.051   4.446  14.028 -0.1992  0.4411  0.2130
  323TMC3    C2 4849   3.112   4.571  14.055  0.4308 -0.0777 -0.5033
  323TMC3    C3 4850   3.195   4.587  14.167 -0.2772 -0.1640  0.0445
  323TMC3    C4 4851   3.069   4.345  14.113 -0.3578  0.5446  1.0615
  323TMC3    C5 4852   3.151   4.364  14.224 -0.6467 -0.1498  0.6367
  323TMC3    C6 4853   3.219   4.481  14.256 -0.4574 -0.5563  0.0973
  323TMC3     C 4854   3.029   4.402  13.886  0.7121 -0.4585  0.2107
  323TMC3     O 4855   2.979   4.292  13.867  0.0373  0.0769 -0.2359
  323TMC3     H 4856   3.114   4.651  13.982  0.7737  0.4135  0.0506
  323TMC3    H1 4857   3.020   4.254  14.082  0.3364  0.3719  0.4661
  323TMC3    H2 4858   3.273   4.490  14.350 -1.5086  2.5642  0.3700
  323TMC3    C7 4859   3.205   4.241  14.291 -0.6487  0.1477  0.8084
  323TMC3    C8 4860   3.281   4.708  14.183 -0.0361  0.5264 -0.1619
  323TMC3    O1 4861   3.314   4.256  14.342  0.6126  0.4208  0.2266
  323TMC3    O2 4862   3.323   0.035  14.078  0.2392 -0.4541 -0.2544
  324MPD2     C 4863   4.527   0.930  14.042 -0.0510  0.1974 -0.5534
  324MPD2    C1 4864   4.448   0.947  14.156 -0.1618  0.3418 -0.1376
  324MPD2    C2 4865   4.311   0.973  14.141 -0.5859 -0.2166 -0.7072
  324MPD2    C3 4866   4.252   0.974  14.020 -0.2510  0.0692  0.0144
  324MPD2    C4 4867   4.333   0.961  13.908 -0.2990 -0.3826  0.4322
  324MPD2    C5 4868   4.463   0.940  13.915  0.6213  0.3295  1.3463
  324MPD2     H 4869   4.251   0.991  14.230  1.7241 -1.5875  1.1503
  324MPD2    H1 4870   4.293   0.959  13.807 -3.0652  3.1749  1.4686
  324MPD2    H2 4871   4.629   0.893  14.044 -0.4203 -0.8314 -0.8262
  324MPD2    H3 4872   4.527   0.934  13.827 -0.2430 -0.5225  0.7773
  324MPD2     N 4873   4.113   0.982  13.999  0.4376 -0.6955 -0.5549
  324MPD2    H5 4874   4.091   0.977  13.901  0.2993  0.9432 -0.6122
  324MPD2    N1 4875   4.501   0.915  14.282  0.1436  0.5419  0.0754
  324MPD2    H7 4876   4.441   0.916  14.363  0.8457  2.1629  0.5621
  325TMC3    C1 4877   3.890   0.966  14.060  0.4249  0.6619  0.7493
  325TMC3    C2 4878   3.861   0.865  13.973 -0.0480  0.2217 -0.5839
  325TMC3    C3 4879   3.737   0.810  13.957  0.5184  0.8781 -0.7915
  325TMC3    C4 4880   3.787   1.022  14.130  0.1491  0.8964 -0.0800
  325TMC3    C5 4881   3.660   0.968  14.113 -0.1209 -0.3624  0.4675
  325TMC3    C6 4882   3.632   0.861  14.030 -0.1207 -0.1490 -0.2142
  325TMC3     C 4883   4.026   1.002  14.100 -0.1162  0.0187  0.0077
  325TMC3     O 4884   4.038   1.026  14.219  0.2719 -0.3585 -0.3657
  325TMC3     H 4885   3.942   0.815  13.921  2.2508  1.7326  1.4855
  325TMC3    H1 4886   3.811   1.096  14.205  2.5424  1.2472 -1.1925
  325TMC3    H2 4887   3.527   0.837  14.024  0.3894 -2.6347  0.8847
  325TMC3    C7 4888   3.593   0.959  14.246 -0.3725 -0.0922 -0.3513
  325TMC3    C8 4889   3.701   0.741  13.838 -1.0604 -0.4171  0.1996
  325TMC3    O1 4890   3.560   0.850  14.292 -0.2401 -0.1820 -0.1903
  325TMC3    O2 4891   3.772   0.742  13.740  0.5736 -0.4483 -0.3522
  326MPD2     C 4892   1.346   1.186  11.269  0.0112 -0.5358 -0.3326
  326MPD2    C1 4893   1.270   1.286  11.204  0.4132  0.1202 -0.0154
  326MPD2    C2 4894   1.311   1.414  11.213  0.2691  0.5616  0.2377
  326MPD2    C3 4895   1.415   1.460  11.296  0.6760  0.4054  0.4127
  326MPD2    C4 4896   1.486   1.365  11.363 -0.1923 -0.1784  0.1312
  326MPD2    C5 4897   1.450   1.227  11.348  0.2920  0.1353 -0.5290
  326MPD2     H 4898   1.248   1.485  11.161  0.4301  1.6738  1.5646
  326MPD2    H1 4899   1.566   1.391  11.431 -1.8185  1.4706  1.3797
  326MPD2    H2 4900   1.347   1.079  11.250 -1.0971 -0.6297  0.1410
  326MPD2    H3 4901   1.512   1.153  11.396 -0.4287  0.4108  0.8094
  326MPD2     N 4902   1.459   1.587  11.311  0.1067  0.6650  0.6902
  326MPD2    H5 4903   1.533   1.605  11.377  0.0938  0.8587  0.6516
  326MPD2    N1 4904   1.158   1.247  11.121 -0.3215 -0.4683 -0.0906
  326MPD2    H7 4905   1.110   1.327  11.080  0.7980  0.6797  0.8546
  327TMC3    C1 4906   1.049   1.110  10.957 -0.2911 -0.7787 -0.2758
  327TMC3    C2 4907   0.925   1.166  10.945 -0.1273 -0.2812 -0.0977
  327TMC3    C3 4908   0.897   1.248  10.839  0.6463  1.0163 -0.6892
  327TMC3    C4 4909   1.147   1.139  10.866  0.4492 -0.1324  0.4671
  327TMC3    C5 4910   1.120   1.212  10.754 -0.5942 -0.1938  0.2536
  327TMC3    C6 4911   0.997   1.268  10.743 -0.3108  0.0846 -0.3739
  327TMC3     C 4912   1.120   1.115  11.086 -0.5146 -0.2910  0.3005
  327TMC3     O 4913   1.165   1.007  11.123 -0.6450 -0.0261  0.0731
  327TMC3     H 4914   0.859   1.160  11.031 -2.2809  0.1667 -1.7226
  327TMC3    H1 4915   1.243   1.093  10.883  0.7247  0.4164  0.3927
  327TMC3    H2 4916   0.989   1.336  10.659  0.0096 -0.1957 -0.6324
  327TMC3    C7 4917   1.216   1.307  10.708 -0.2121  0.0182  0.2020
  327TMC3    C8 4918   0.799   1.354  10.842 -0.3330 -0.5815  0.6852
  327TMC3    O1 4919   1.189   1.382  10.616 -0.1949 -0.0109  0.0161
  327TMC3    O2 4920   0.815   1.446  10.763 -0.4513 -0.8704 -0.2088
  328MPD2     C 4921   3.411   1.347  17.099 -0.3553 -0.3910  0.7211
  328MPD2    C1 4922   3.287   1.384  17.144 -0.1819  0.3658 -0.8222
  328MPD2    C2 4923   3.254   1.521  17.150  0.4260  0.2137  0.0195
  328MPD2    C3 4924   3.338   1.607  17.085  0.3837 -0.4065  0.1860
  328MPD2    C4 4925   3.454   1.574  17.030 -0.0210 -0.4184 -1.0122
  328MPD2    C5 4926   3.489   1.441  17.043  0.7285  0.3483  0.2596
  328MPD2     H 4927   3.155   1.546  17.186 -0.2956  1.9246 -3.1909
  328MPD2    H1 4928   3.518   1.639  16.971  1.1069  1.5289  2.3564
  328MPD2    H2 4929   3.449   1.246  17.101  0.2638 -0.1156  2.6481
  328MPD2    H3 4930   3.582   1.410  16.996  1.3663 -1.6491  2.8198
  328MPD2     N 4931   3.304   1.747  17.083  0.3338  0.4139  0.1529
  328MPD2    H5 4932   3.372   1.814  17.047 -1.5451  0.4805 -3.2163
  328MPD2    N1 4933   3.202   1.278  17.185  0.2664 -0.0985  0.0048
  328MPD2    H7 4934   3.247   1.188  17.191 -1.5096 -1.0493 -0.7384
  329TMC3    C1 4935   3.003   1.180  17.272 -0.5460  0.7035 -0.2261
  329TMC3    C2 4936   2.866   1.194  17.273 -0.0678  0.1265 -0.1392
  329TMC3    C3 4937   2.788   1.140  17.370 -0.5265 -0.8610  1.0967
  329TMC3    C4 4938   3.070   1.119  17.373 -0.4165  1.1703  0.5452
  329TMC3    C5 4939   2.992   1.066  17.474 -0.8210 -0.3260 -0.6683
  329TMC3    C6 4940   2.857   1.073  17.469 -0.0172  0.4922 -0.2327
  329TMC3     C 4941   3.065   1.285  17.192  0.1131  0.2142 -0.3016
  329TMC3     O 4942   2.993   1.379  17.156  0.0904  0.3809  0.0753
  329TMC3     H 4943   2.807   1.250  17.201  2.1500  0.7173 -1.4912
  329TMC3    H1 4944   3.178   1.122  17.381 -0.4329  0.6774  0.9401
  329TMC3    H2 4945   2.798   1.024  17.547 -2.5799  0.1024 -2.4046
  329TMC3    C7 4946   3.053   1.000  17.588 -0.1994  0.2974  0.0601
  329TMC3    C8 4947   2.656   1.201  17.392  0.5075  0.2836 -0.2393
  329TMC3    O1 4948   3.160   0.945  17.563  0.0223  0.3892 -0.0254
  329TMC3    O2 4949   2.605   1.271  17.304 -0.4033  0.1859  0.3257
  330TMC3    C1 4950   1.385   0.873   9.698  0.7030 -0.1081  0.7047
  330TMC3    C2 4951   1.350   0.785   9.594  0.5059  0.8956  0.0103
  330TMC3    C3 4952   1.406   0.659   9.599 -0.0533 -0.4220 -0.0418
  330TMC3    C4 4953   1.480   0.841   9.784  0.6439  0.1291 -1.2413
  330TMC3    C5 4954   1.541   0.718   9.782 -0.2128 -0.1270  0.0132
  330TMC3    C6 4955   1.501   0.626   9.688 -0.3218  0.3585  0.1448
  330TMC3     C 4956   1.324   1.002   9.711 -0.4226  0.3552 -0.5775
  330TMC3     O 4957   1.385   1.071   9.792  0.0003 -0.0705  0.0972
  330TMC3     H 4958   1.277   0.815   9.520  0.9306  0.9556 -0.3846
  330TMC3    H1 4959   1.513   0.909   9.862  0.3039  0.6619 -1.5621
  330TMC3    H2 4960   1.551   0.530   9.683  1.9687  1.4758  1.5064
  330TMC3    C7 4961   1.648   0.670   9.865  0.0095  0.0055 -0.0865
  330TMC3    C8 4962   1.337   0.563   9.514 -0.4084 -0.1226  0.3178
  330TMC3    O1 4963   1.666   0.548   9.863 -0.8994  0.2512  0.1021
  330TMC3    O2 4964   1.272   0.607   9.424  0.1358 -0.2591 -0.4483
  331MPD2     C 4965   3.944   0.052  12.613  0.6718  0.1576 -0.1284
  331MPD2    C1 4966   4.074   0.081  12.574  0.7326  0.4783  0.1131
  331MPD2    C2 4967   4.135   4.700  12.505 -0.7312 -0.0440  0.2620
  331MPD2    C3 4968   4.083   4.578  12.476  0.1431  0.1943  0.9030
  331MPD2    C4 4969   3.962   4.556  12.530 -0.5777 -0.2859 -0.1136
  331MPD2    C5 4970   3.887   4.650  12.592  0.1695  0.3387  0.6303
  331MPD2     H 4971   4.230   4.715  12.456  0.7441 -1.9756  2.4796
  331MPD2    H1 4972   3.917   4.460  12.509 -0.3364 -0.9511  2.3754
  331MPD2    H2 4973   3.885   0.130  12.659  1.2195  0.6597 -0.2705
  331MPD2    H3 4974   3.786   4.629  12.627  0.5280  0.4792  1.7338
  331MPD2     N 4975   4.156   4.488  12.396  0.9762 -0.1590 -0.6233
  331MPD2    H5 4976   4.227   4.531  12.337  0.5721 -0.0428 -1.0266
  331MPD2    N1 4977   4.129   0.212  12.583 -0.3707  0.0326  0.4747
  331MPD2    H7 4978   4.064   0.278  12.623  0.0570 -0.6606  2.3183
  332TMC3    C1 4979   4.245   4.287  12.312 -0.0330  0.3765  0.1503
  332TMC3    C2 4980   4.288   4.374  12.210  0.5006 -0.2191 -0.0787
  332TMC3    C3 4981   4.419   4.361  12.172  0.0076 -0.0411  0.0915
  332TMC3    C4 4982   4.332   4.210  12.375  0.2520 -0.4686 -0.6863
  332TMC3    C5 4983   4.470   4.213  12.344 -0.5814 -0.1953 -0.3013
  332TMC3    C6 4984   4.514   4.286  12.239  0.2830 -0.3239  0.5262
  332TMC3     C 4985   4.134   4.349  12.392  0.4984  0.1178 -0.4953
  332TMC3     O 4986   4.074   4.278  12.475 -0.1179  0.2545  0.0978
  332TMC3     H 4987   4.219   4.440  12.158  1.7918  0.0033 -1.4869
  332TMC3    H1 4988   4.297   4.165  12.468  1.0643 -1.3316 -0.7984
  332TMC3    H2 4989   4.605   4.265  12.185 -0.7635 -1.2330 -0.8621
  332TMC3    C7 4990   4.566   4.179  12.448 -0.4785  0.6202  0.6957
  332TMC3    C8 4991   4.473   4.432  12.056 -0.4093  0.4035 -1.1371
  332TMC3    O1 4992   4.513   4.147  12.552  0.2217 -0.4098 -0.0697
  332TMC3    O2 4993   4.591   4.438  12.037 -0.0933 -0.0845  0.2016
  333MPD2     C 4994   4.699   4.558  11.410  0.2642 -0.2978 -0.9361
  333MPD2    C1 4995   4.709   4.443  11.332  0.7582  0.2451 -0.3041
  333MPD2    C2 4996   4.632   4.333  11.370  0.4192 -0.2923  0.0914
  333MPD2    C3 4997   4.548   4.331  11.477 -0.0128  0.0637 -0.1687
  333MPD2    C4 4998   4.553   4.442  11.555 -0.2608 -0.4274  1.1529
  333MPD2    C5 4999   4.625   4.553  11.519  0.4248  0.3098 -0.3376
  333MPD2     H 5000   4.638   4.245  11.307  1.5719 -1.7852  2.2548
  333MPD2    H1 5001   4.493   4.465  11.643  0.1311  2.6975  0.5953
  333MPD2    H2 5002   0.036   4.650  11.399  1.9080 -1.2523 -0.6315
  333MPD2    H3 5003   4.634   4.640  11.583  0.3070  0.1761 -0.1369
  333MPD2     N 5004   4.464   4.221  11.506 -0.2892 -0.6543 -0.4632
  333MPD2    H5 5005   4.459   4.145  11.439 -1.4261  0.1520 -1.2859
  333MPD2    N1 5006   0.070   4.445  11.213 -0.9569 -0.1687  0.4624
  333MPD2    H7 5007   0.119   4.531  11.189 -3.4735  1.8706  2.6161
  334TMC3    C1 5008   0.199   4.384  11.046 -0.8844  0.9154  0.5015
  334TMC3    C2 5009   0.320   4.323  11.068  0.0700  0.4406  0.5008
  334TMC3    C3 5010   0.430   4.382  11.011  0.7557 -0.7197  0.7021
  334TMC3    C4 5011   0.188   4.501  10.979  0.4700  0.2764  0.0729
  334TMC3    C5 5012   0.297   4.548  10.916  0.2862  0.0630 -0.0692
  334TMC3    C6 5013   0.418   4.493  10.929 -0.0857 -0.6451  0.5096
  334TMC3     C 5014   0.103   4.340  11.138 -0.7008  0.4511  0.4055
  334TMC3     O 5015   0.082   4.220  11.146 -0.0761  0.8404  0.2864
  334TMC3     H 5016   0.332   4.238  11.135  2.1964  0.7462  0.5001
  334TMC3    H1 5017   0.093   4.554  10.976 -1.7120 -3.5422  1.5193
  334TMC3    H2 5018   0.503   4.553  10.900  0.5843 -1.6037  0.4809
  334TMC3    C7 5019   0.286   4.668  10.835  0.1922 -0.2637  0.4742
  334TMC3    C8 5020   0.556   4.321  11.037 -0.4571 -0.3445  1.0279
  334TMC3    O1 5021   0.380   0.027  10.831 -0.0615  0.1687 -0.1500
  334TMC3    O2 5022   0.563   4.238  11.122 -0.0698  0.4984 -0.1892
  335TMC3    C1 5023   4.218   1.941  17.536  0.3477 -0.4088 -0.0726
  335TMC3    C2 5024   4.124   1.953  17.437 -0.4008  0.5534  0.5129
  335TMC3    C3 5025   4.151   1.966  17.307  0.0218  0.1347 -0.2926
  335TMC3    C4 5026   4.349   1.970  17.492  0.1983 -0.2800  0.3078
  335TMC3    C5 5027   4.375   1.985  17.361  0.5632 -1.1943 -0.3955
  335TMC3    C6 5028   4.277   1.988  17.265 -0.0833  0.9443 -0.1315
  335TMC3     C 5029   4.167   1.959  17.671  0.1211 -0.2472 -0.7409
  335TMC3     O 5030   4.056   1.922   0.020  0.7263 -0.4376 -0.2310
  335TMC3     H 5031   4.022   1.928  17.464 -1.3779 -1.1372 -4.7127
  335TMC3    H1 5032   4.436   1.970  17.557  0.5018 -0.8640 -0.0965
  335TMC3    H2 5033   4.306   1.976  17.161 -1.2001  0.3844 -0.3843
  335TMC3    C7 5034   4.498   2.012  17.304 -0.0844  0.1756 -0.7281
  335TMC3    C8 5035   4.061   1.909  17.213 -0.1331 -0.3265 -0.3913
  335TMC3    O1 5036   4.516   1.979  17.188  0.3672  0.3310 -0.0448
  335TMC3    O2 5037   4.071   1.962  17.102  0.1724 -0.1424 -0.2623
  336MPD2     C 5038   3.772   4.435  16.214 -0.3055  0.0090  0.2615
  336MPD2    C1 5039   3.743   4.377  16.094  0.0158  0.3805 -0.6748
  336MPD2    C2 5040   3.767   4.239  16.072 -0.0767 -0.0491 -0.1510
  336MPD2    C3 5041   3.833   4.169  16.169  0.3940 -0.3058  0.0307
  336MPD2    C4 5042   3.861   4.228  16.287 -0.4892  0.6329 -0.1927
  336MPD2    C5 5043   3.836   4.357  16.314  0.6033 -0.2275  0.7166
  336MPD2     H 5044   3.757   4.190  15.975  0.5927  2.1038 -1.3050
  336MPD2    H1 5045   3.924   4.168  16.352 -1.8867 -1.4036 -0.7261
  336MPD2    H2 5046   3.764   4.542  16.228  0.1939  0.0601  0.1538
  336MPD2    H3 5047   3.867   4.406  16.406 -2.5539  0.7725  1.2481
  336MPD2     N 5048   3.884   4.044  16.147  0.0851 -0.3796 -0.2309
  336MPD2    H5 5049   3.943   4.009  16.222  0.4605  1.9652  0.5687
  336MPD2    N1 5050   3.678   4.458  15.998 -0.2832 -0.3543 -0.3902
  336MPD2    H7 5051   3.671   4.556  16.024  3.1564 -0.1660 -0.1795
  337TMC3    C1 5052   3.558   4.521  15.822  0.9115 -0.6252 -0.1418
  337TMC3    C2 5053   3.432   4.507  15.769  0.4736  0.9593  0.7262
  337TMC3    C3 5054   3.357   4.621  15.747  0.1108  0.2109  0.7139
  337TMC3    C4 5055   3.626   4.639  15.831  0.4860  0.0657  0.3872
  337TMC3    C5 5056   3.555   0.031  15.787 -0.3549 -0.1402  0.5642
  337TMC3    C6 5057   3.424   0.030  15.748 -0.5024 -0.3119  0.1190
  337TMC3     C 5058   3.599   4.410  15.899 -0.2346  0.1108 -0.2473
  337TMC3     O 5059   3.557   4.299  15.873  0.0622  0.1004 -0.0099
  337TMC3     H 5060   3.383   4.412  15.752 -1.2847  1.9388  0.2848
  337TMC3    H1 5061   3.730   4.645  15.858  0.0575  0.6382  1.9179
  337TMC3    H2 5062   3.365   0.118  15.726 -0.4949 -0.5853 -1.0050
  337TMC3    C7 5063   3.602   0.161  15.817 -0.5022  0.2815  0.1191
  337TMC3    C8 5064   3.212   4.614  15.741  0.5522  0.7705  0.6304
  337TMC3    O1 5065   3.527   0.257  15.822 -0.3608 -0.0020  1.1447
  337TMC3    O2 5066   3.163   4.512  15.787 -0.6749  0.1775 -0.0256
  338MPD2     C 5067   4.425   3.830   0.482 -0.0809 -0.0555  0.2460
  338MPD2    C1 5068   4.311   3.785   0.544  0.8284 -0.4718  0.0968
  338MPD2    C2 5069   4.275   3.837   0.662 -0.1905  0.6403  0.2785
  338MPD2    C3 5070   4.351   3.944   0.709 -0.4595 -0.4486 -0.0230
  338MPD2    C4 5071   4.475   3.983   0.651 -0.3404 -0.1346 -0.5645
  338MPD2    C5 5072   4.511   3.919   0.535 -0.1898 -0.4746 -0.0421
  338MPD2     H 5073   4.176   3.816   0.702 -1.4142  0.7190 -2.7798
  338MPD2    H1 5074   4.537   4.067   0.679 -0.1384  0.5061 -2.8850
  338MPD2    H2 5075   4.445   3.786   0.384  0.0411  1.4376 -0.4057
  338MPD2    H3 5076   4.603   3.944   0.483 -0.3899 -1.1485 -0.7217
  338MPD2     N 5077   4.292   4.003   0.823 -0.5564  0.0191 -0.2654
  338MPD2    H5 5078   4.200   3.965   0.844 -0.6920  1.2862  1.4374
  338MPD2    N1 5079   4.227   3.694   0.477  0.3538 -0.4084  0.0511
  338MPD2    H7 5080   4.249   3.666   0.381  2.2023 -0.1266  0.3976
  339TMC3    C1 5081   4.235   4.175   0.968 -0.1218 -0.0298  0.3998
  339TMC3    C2 5082   4.109   4.122   0.977  0.8185 -0.2635  0.0179
  339TMC3    C3 5083   4.017   4.180   1.064  0.5207 -0.0373  0.6346
  339TMC3    C4 5084   4.263   4.289   1.036  0.8028  0.1652 -0.1322
  339TMC3    C5 5085   4.173   4.342   1.115 -0.1009 -0.1536 -0.2680
  339TMC3    C6 5086   4.048   4.285   1.145 -0.4700  0.2946 -0.1297
  339TMC3     C 5087   4.341   4.109   0.889 -0.4863  0.5191  0.0532
  339TMC3     O 5088   4.444   4.175   0.882  0.1916 -0.0013  0.0681
  339TMC3     H 5089   4.086   4.021   0.946  0.4692 -0.2697  0.2986
  339TMC3    H1 5090   4.350   4.348   1.006 -1.1611  2.5243 -1.2679
  339TMC3    H2 5091   3.967   4.330   1.201  0.7138 -1.6206  3.1737
  339TMC3    C7 5092   4.218   4.463   1.176  0.2517  0.2337  0.1116
  339TMC3    C8 5093   3.887   4.118   1.077 -0.4801 -0.4569  0.5481
  339TMC3    O1 5094   4.339   4.493   1.168  0.6519 -0.9249  0.0814
  339TMC3    O2 5095   3.851   4.063   0.972  0.3469 -0.0894 -0.3559
  340MPD2     C 5096   4.149   0.408   9.267 -0.3973 -0.6015  0.2168
  340MPD2    C1 5097   4.262   0.342   9.309 -0.1701  0.5563  0.1354
  340MPD2    C2 5098   4.365   0.418   9.362  0.1107  0.7006 -0.2114
  340MPD2    C3 5099   4.340   0.549   9.401 -0.6810  0.2779  1.0086
  340MPD2    C4 5100   4.225   0.623   9.362  0.1853 -0.6174 -0.3345
  340MPD2    C5 5101   4.133   0.541   9.293  0.0490 -0.6923  0.0936
  340MPD2     H 5102   4.463   0.374   9.377 -0.9345 -0.8091  2.4221
  340MPD2    H1 5103   4.212   0.729   9.379 -0.2339 -0.6170 -0.6609
  340MPD2    H2 5104   4.066   0.364   9.212 -0.6220  0.6104 -0.4151
  340MPD2    H3 5105   4.036   0.584   9.271  0.4243  0.0776 -0.0501
  340MPD2     N 5106   4.438   0.631   9.459 -0.0624  0.0561  0.6367
  340MPD2    H5 5107   4.407   0.725   9.482  1.5064 -0.0185  3.0747
  340MPD2    N1 5108   4.279   0.204   9.278  0.1976 -0.3918  0.5475
  340MPD2    H7 5109   4.201   0.162   9.228 -0.8755  2.6390 -0.3461
  341TMC3    C1 5110   4.416   0.017   9.246  0.2065 -0.6345  0.0294
  341TMC3    C2 5111   4.328   4.688   9.148  0.0844 -0.5777 -0.5399
  341TMC3    C3 5112   4.387   4.622   9.037  0.1214 -0.4937 -0.0928
  341TMC3    C4 5113   4.550   0.003   9.230 -0.0791 -0.0089 -0.7967
  341TMC3    C5 5114   4.600   4.653   9.126 -0.6341  0.5237 -1.0651
  341TMC3    C6 5115   4.518   4.608   9.025  0.2899 -0.1689  0.4135
  341TMC3     C 5116   4.384   0.134   9.325  0.5314 -0.1466  0.1895
  341TMC3     O 5117   4.458   0.151   9.421 -0.1232  0.0659  0.3577
  341TMC3     H 5118   4.222   4.680   9.170 -0.3119 -1.7395 -2.8607
  341TMC3    H1 5119   4.619   0.053   9.296 -0.0800 -2.5115  1.1126
  341TMC3    H2 5120   4.561   4.557   8.940  0.0562 -0.1141  0.2642
  341TMC3    C7 5121   0.027   4.690   9.110  0.1917 -0.5465 -0.6569
  341TMC3    C8 5122   4.294   4.554   8.941 -0.3663  0.2664 -0.1448
  341TMC3    O1 5123   0.103   4.657   9.201 -0.5037  0.5045  0.5764
  341TMC3    O2 5124   4.179   4.532   8.970  0.4963 -0.1296 -0.5806
  342MPD2     C 5125   2.248   0.015  16.661  0.2479  0.3379 -0.0830
  342MPD2    C1 5126   2.189   4.629  16.731 -0.4303  0.7898  0.4387
  342MPD2    C2 5127   2.090   4.656  16.819 -0.3249  0.2414 -0.4885
  342MPD2    C3 5128   2.073   0.070  16.867 -0.7584 -0.6224 -0.5566
  342MPD2    C4 5129   2.138   0.171  16.804 -0.1286 -0.3320 -0.0722
  342MPD2    C5 5130   2.225   0.143  16.704 -0.5583  0.2838  0.4322
  342MPD2     H 5131   2.040   4.571  16.865  2.6946 -2.0072 -1.3700
  342MPD2    H1 5132   2.119   0.275  16.829 -0.0492 -0.2410 -0.3965
  342MPD2    H2 5133   2.321   4.714  16.584 -0.1416 -1.6627  0.0432
  342MPD2    H3 5134   2.277   0.224  16.655 -2.3113  1.2603  0.1811
  342MPD2     N 5135   1.984   0.113  16.974 -0.2519 -0.2524  0.2344
  342MPD2    H5 5136   1.989   0.214  16.987 -0.7417 -0.0851 -0.9451
  342MPD2    N1 5137   2.236   4.499  16.697  0.6073  0.0615  0.6012
  342MPD2    H7 5138   2.300   4.497  16.619  0.7425 -0.3388  0.7237
  343TMC3    C1 5139   2.279   4.270  16.728 -0.2483 -0.5402  0.4282
  343TMC3    C2 5140   2.405   4.274  16.673 -0.2398 -0.0156  0.0858
  343TMC3    C3 5141   2.478   4.158  16.669 -0.7341 -0.2034 -0.3723
  343TMC3    C4 5142   2.229   4.152  16.775  0.0820 -0.2986 -0.3258
  343TMC3    C5 5143   2.302   4.038  16.768  0.3518  0.9368 -0.5630
  343TMC3    C6 5144   2.424   4.041  16.712 -0.6331 -0.6542  0.2086
  343TMC3     C 5145   2.212   4.389  16.774 -0.6306  0.5516 -0.3742
  343TMC3     O 5146   2.140   4.372  16.873  0.2130 -0.2874  0.5248
  343TMC3     H 5147   2.445   4.373  16.654  2.9274 -0.9518  1.8683
  343TMC3    H1 5148   2.144   4.147  16.841 -0.9897  0.3627 -1.6498
  343TMC3    H2 5149   2.488   3.953  16.715 -1.4057 -1.3500 -3.1637
  343TMC3    C7 5150   2.295   3.945  16.879  0.4749 -0.7881 -0.0921
  343TMC3    C8 5151   2.623   4.171  16.697 -0.2816 -0.8022  0.0565
  343TMC3    O1 5152   2.403   3.922  16.931 -0.2023 -0.4712 -0.2842
  343TMC3    O2 5153   2.664   4.278  16.747  0.2835 -0.2146  0.1519
  344MPD2     C 5154   3.560   3.490  10.012  0.1070  0.0010  0.2103
  344MPD2    C1 5155   3.440   3.544   9.980  0.7965 -1.0954  0.0636
  344MPD2    C2 5156   3.433   3.627   9.874  0.7498  0.3284 -0.0655
  344MPD2    C3 5157   3.550   3.666   9.810 -0.0589 -0.0228 -0.1378
  344MPD2    C4 5158   3.660   3.594   9.828  0.3326  0.0482 -0.6921
  344MPD2    C5 5159   3.669   3.514   9.934  0.2549 -0.0683  0.2111
  344MPD2     H 5160   3.339   3.676   9.855  0.3768 -0.3233  0.0997
  344MPD2    H1 5161   3.752   3.620   9.776  0.9745  0.6094  0.7229
  344MPD2    H2 5162   3.574   3.424  10.097 -1.0893  0.0164  0.4144
  344MPD2    H3 5163   3.761   3.458   9.949 -1.1901 -3.0668 -2.0417
  344MPD2     N 5164   3.563   3.759   9.717 -0.1350 -0.1889  0.0002
  344MPD2    H5 5165   3.656   3.780   9.682  0.1182 -0.2061  0.6417
  344MPD2    N1 5166   3.329   3.531  10.062 -0.4053  0.4867 -0.0631
  344MPD2    H7 5167   3.240   3.564  10.025 -0.5633 -0.0276 -0.1360
  345TMC3    C1 5168   3.519   3.935   9.579 -0.1549 -0.2309  0.0652
  345TMC3    C2 5169   3.636   4.005   9.611  0.5065 -0.0581  0.8393
  345TMC3    C3 5170   3.679   4.106   9.533  0.1802  0.3736 -0.6616
  345TMC3    C4 5171   3.434   4.000   9.491 -0.1566  0.5443  0.3466
  345TMC3    C5 5172   3.471   4.116   9.439  0.0001 -0.2290  0.2069
  345TMC3    C6 5173   3.596   4.167   9.449  0.9174 -0.3021 -0.5717
  345TMC3     C 5174   3.464   3.846   9.681  0.1485 -0.4689 -0.0627
  345TMC3     O 5175   3.338   3.838   9.693 -0.2317 -0.1228 -0.3400
  345TMC3     H 5176   3.695   3.978   9.698  0.5402 -2.8207 -0.0703
  345TMC3    H1 5177   3.333   3.961   9.479  0.2446  0.2574 -2.0860
  345TMC3    H2 5178   3.632   4.251   9.392  0.7851  1.6236  2.1776
  345TMC3    C7 5179   3.359   4.206   9.403  0.4435  0.3365 -0.7578
  345TMC3    C8 5180   3.812   4.162   9.572 -0.1275 -0.1694 -0.1320
  345TMC3    O1 5181   3.245   4.162   9.394  0.3731  0.4936  0.0837
  345TMC3    O2 5182   3.848   4.158   9.688 -0.7381  0.0568  0.0710
  346MPD2     C 5183   2.922   1.213  13.970 -0.0035 -0.0309  0.5363
  346MPD2    C1 5184   3.011   1.314  13.961  0.8143  0.3785 -1.2374
  346MPD2    C2 5185   3.036   1.384  14.076  0.4318 -0.6719 -0.0630
  346MPD2    C3 5186   2.960   1.365  14.189  0.0179  0.0915 -0.0292
  346MPD2    C4 5187   2.875   1.260  14.197  0.7366  1.0859  0.6698
  346MPD2    C5 5188   2.860   1.184  14.089 -0.1134 -0.0531  0.9980
  346MPD2     H 5189   3.106   1.466  14.072 -1.3591  0.9367  1.7399
  346MPD2    H1 5190   2.817   1.227  14.283  0.1803  1.0436  0.2800
  346MPD2    H2 5191   2.903   1.142  13.890 -1.8323  0.5108  0.5018
  346MPD2    H3 5192   2.802   1.092  14.090 -0.5640  0.2122 -0.5002
  346MPD2     N 5193   2.988   1.457  14.293  0.2904  0.2922  0.2347
  346MPD2    H5 5194   3.061   1.523  14.268 -1.7412  1.6509 -2.1409
  346MPD2    N1 5195   3.084   1.349  13.843  0.4250  0.4303  0.6218
  346MPD2    H7 5196   3.157   1.419  13.856  2.9723 -2.3070  0.9985
  347TMC3    C1 5197   3.024   1.501  14.519  0.2588  1.2976 -0.4571
  347TMC3    C2 5198   3.159   1.528  14.485 -0.8797 -0.4583 -0.2261
  347TMC3    C3 5199   3.252   1.540  14.583 -0.9262  1.0326 -0.0342
  347TMC3    C4 5200   2.984   1.506  14.645 -0.1298 -0.2681 -0.2436
  347TMC3    C5 5201   3.077   1.522  14.745 -0.7199  0.6333  0.1323
  347TMC3    C6 5202   3.211   1.533  14.717  0.1288 -0.3669 -0.4970
  347TMC3     C 5203   2.943   1.438  14.418  0.4279  0.2307  0.2168
  347TMC3     O 5204   2.857   1.368  14.464  0.4038 -0.3314 -0.0714
  347TMC3     H 5205   3.193   1.529  14.382 -3.7152  1.4357 -1.1397
  347TMC3    H1 5206   2.879   1.492  14.670 -0.6283  0.5689 -1.8984
  347TMC3    H2 5207   3.292   1.557  14.784 -0.0625  2.3579 -1.2763
  347TMC3    C7 5208   3.039   1.503  14.881  0.0993 -0.2163 -0.0270
  347TMC3    C8 5209   3.369   1.473  14.542 -0.1721  0.7510 -0.7459
  347TMC3    O1 5210   2.933   1.461  14.907  0.1468  0.0024 -0.1480
  347TMC3    O2 5211   3.396   1.475  14.422 -0.0110  0.3578  0.2435
  348MPD2     C 5212   2.444   0.475  11.953  0.2935 -0.2820  0.0283
  348MPD2    C1 5213   2.500   0.492  11.826  0.3062 -0.3396  0.8989
  348MPD2    C2 5214   2.433   0.563  11.737 -0.1104 -0.1254  0.1068
  348MPD2    C3 5215   2.314   0.621  11.758 -0.0336  0.2916 -0.0166
  348MPD2    C4 5216   2.258   0.615  11.884 -0.2216  0.1080 -0.8192
  348MPD2    C5 5217   2.326   0.537  11.977 -0.2472  0.7565  0.7798
  348MPD2     H 5218   2.469   0.548  11.636 -1.0745  0.9162 -0.3965
  348MPD2    H1 5219   2.163   0.655  11.917 -0.1190 -2.0313  2.1075
  348MPD2    H2 5220   2.500   0.429  12.033 -0.4962 -2.8699 -0.9113
  348MPD2    H3 5221   2.292   0.531  12.080 -1.5509  0.0907  0.2962
  348MPD2     N 5222   2.250   0.684  11.652  0.3704  0.4642 -0.4777
  348MPD2    H5 5223   2.307   0.701  11.569  1.4664 -1.3391 -0.0937
  348MPD2    N1 5224   2.620   0.426  11.789 -0.2485  0.9837 -0.3029
  348MPD2    H7 5225   2.655   0.449  11.697 -1.1073 -0.3324 -0.9667
  349TMC3    C1 5226   2.739   0.224  11.772 -0.9156 -0.1913 -0.0626
  349TMC3    C2 5227   2.773   0.100  11.834 -0.2314 -0.0934  0.1526
  349TMC3    C3 5228   2.703   4.707  11.798  0.0815  0.2589 -0.4097
  349TMC3    C4 5229   2.674   0.219  11.652  0.2901 -0.0974  0.6871
  349TMC3    C5 5230   2.610   0.106  11.613 -0.0039  0.8895  0.6938
  349TMC3    C6 5231   2.619   4.711  11.690  0.6090 -0.4467  0.1027
  349TMC3     C 5232   2.678   0.319  11.860  0.3837 -0.3863  0.6158
  349TMC3     O 5233   2.661   0.285  11.977 -0.1480  0.1817  0.7096
  349TMC3     H 5234   2.825   0.100  11.929  0.8240  0.4807 -0.4254
  349TMC3    H1 5235   2.677   0.304  11.585  0.9474 -0.5714  0.1062
  349TMC3    H2 5236   2.551   4.627  11.676  0.5079 -0.1541 -1.1594
  349TMC3    C7 5237   2.471   0.135  11.575  0.2251  0.2207  0.1288
  349TMC3    C8 5238   2.683   4.603  11.898 -0.2790  0.2314  0.4899
  349TMC3    O1 5239   2.388   0.075  11.642  0.4022 -0.3876 -0.2322
  349TMC3    O2 5240   2.567   4.559  11.915  0.1955  0.2461 -0.6947
  350MPD2     C 5241   0.737   3.161  10.146 -0.4224 -0.0366  0.6661
  350MPD2    C1 5242   0.865   3.115  10.163 -0.0890 -0.4913  0.2433
  350MPD2    C2 5243   0.969   3.200  10.199 -0.0960 -0.7212  0.3078
  350MPD2    C3 5244   0.945   3.340  10.205 -0.0759 -0.0127  0.5508
  350MPD2    C4 5245   0.820   3.387  10.171  0.0022  0.2642  0.1722
  350MPD2    C5 5246   0.719   3.296  10.148 -0.6469 -0.5573  0.2933
  350MPD2     H 5247   1.071   3.163  10.207 -0.8649 -2.5458  1.6932
  350MPD2    H1 5248   0.797   3.493  10.167  0.8029  0.3724 -1.3493
  350MPD2    H2 5249   0.647   3.104  10.126  0.0153 -1.4592  2.7207
  350MPD2    H3 5250   0.620   3.338  10.138 -0.5088  0.0161  1.2777
  350MPD2     N 5251   1.056   3.425  10.233 -0.0528 -1.2658 -0.3994
  350MPD2    H5 5252   1.150   3.389  10.247 -0.4796 -1.6876  1.3253
  350MPD2    N1 5253   0.893   2.972  10.162  0.2613  0.3506 -0.0125
  350MPD2    H7 5254   0.987   2.935  10.171  0.2437  0.5238  0.8585
  351TMC3    C1 5255   0.845   2.741  10.112 -0.8318 -0.5975 -0.0557
  351TMC3    C2 5256   0.979   2.713  10.111 -0.4759  0.1755  0.4785
  351TMC3    C3 5257   1.014   2.583  10.094 -0.6480  0.1051 -0.4323
  351TMC3    C4 5258   0.749   2.656  10.082  0.3782 -0.0917  0.4741
  351TMC3    C5 5259   0.790   2.534  10.060  0.2312  0.0508  0.6150
  351TMC3    C6 5260   0.918   2.489  10.067 -0.1780 -0.4887 -0.9151
  351TMC3     C 5261   0.797   2.875  10.142  0.5277  0.2139 -0.5166
  351TMC3     O 5262   0.675   2.889  10.120 -0.0607 -0.3719  0.1797
  351TMC3     H 5263   1.058   2.787  10.118 -0.3389 -0.0698  1.5177
  351TMC3    H1 5264   0.642   2.674  10.083  0.0864 -1.9625  1.9894
  351TMC3    H2 5265   0.948   2.388  10.044 -0.7344 -1.0118  0.6587
  351TMC3    C7 5266   0.685   2.452   9.992  0.2431  0.0038  0.2274
  351TMC3    C8 5267   1.144   2.528  10.112 -0.2711 -0.4320 -1.1108
  351TMC3    O1 5268   0.593   2.507   9.930  0.1219 -0.1361 -0.5239
  351TMC3    O2 5269   1.163   2.417  10.065 -0.2568 -0.1371 -0.0423
  352MPD2     C 5270   3.942   1.576   1.246 -0.2649  0.0313  0.3863
  352MPD2    C1 5271   3.809   1.534   1.245 -0.0390  0.5096 -0.7092
  352MPD2    C2 5272   3.770   1.428   1.327 -0.8155  0.2421  0.2327
  352MPD2    C3 5273   3.863   1.357   1.399  0.3599  1.0890 -0.7032
  352MPD2    C4 5274   3.994   1.400   1.405 -0.2761  0.4307 -0.5005
  352MPD2    C5 5275   4.027   1.511   1.329 -0.4241 -0.2968  0.3266
  352MPD2     H 5276   3.668   1.394   1.317 -0.5527  0.7163 -4.0370
  352MPD2    H1 5277   4.066   1.346   1.466 -0.4934 -0.3420 -0.9290
  352MPD2    H2 5278   3.966   1.663   1.186  0.9453  1.1258  2.4528
  352MPD2    H3 5279   4.131   1.534   1.346 -0.5462 -0.5492  1.4263
  352MPD2     N 5280   3.829   1.242   1.476  0.1569  0.2167 -0.4291
  352MPD2    H5 5281   3.902   1.213   1.540 -0.8926 -0.8415  0.3053
  352MPD2    N1 5282   3.728   1.591   1.148 -0.3204 -1.1656 -0.0353
  352MPD2    H7 5283   3.773   1.664   1.092 -0.8720 -0.6545  0.1830
  353TMC3    C1 5284   3.707   1.052   1.544  0.7624 -0.4089  0.4476
  353TMC3    C2 5285   3.809   0.961   1.546  0.1915  0.2533 -0.4034
  353TMC3    C3 5286   3.772   0.846   1.611  0.4633  0.1868  0.1104
  353TMC3    C4 5287   3.582   1.034   1.591  0.4454 -0.4662 -0.0002
  353TMC3    C5 5288   3.553   0.913   1.648  0.7993  0.5229  0.4542
  353TMC3    C6 5289   3.649   0.819   1.669  0.1207  0.3835  0.1317
  353TMC3     C 5290   3.714   1.166   1.462 -0.1844  0.0517 -0.0281
  353TMC3     O 5291   3.620   1.179   1.386  0.1817 -0.0525 -0.3107
  353TMC3     H 5292   3.906   0.991   1.509 -0.8877  2.2364 -1.5879
  353TMC3    H1 5293   3.508   1.108   1.563  1.8045  0.3720 -1.3729
  353TMC3    H2 5294   3.627   0.728   1.724 -2.7528  0.1334 -1.4004
  353TMC3    C7 5295   3.418   0.863   1.641  0.1927  0.5364  0.3136
  353TMC3    C8 5296   3.876   0.751   1.613  0.0379 -0.0878  0.3210
  353TMC3    O1 5297   3.399   0.745   1.612 -0.7080 -1.3756  0.2581
  353TMC3    O2 5298   3.992   0.794   1.612 -0.5555 -0.6875 -0.3193
  354TMC3    C1 5299   1.111   1.926  13.831 -0.1640  0.3305 -0.4430
  354TMC3    C2 5300   1.245   1.946  13.857 -0.2648  0.3320  0.1120
  354TMC3    C3 5301   1.329   1.909  13.758 -0.3873  0.0867 -0.6482
  354TMC3    C4 5302   1.065   1.861  13.721  0.5888  0.2846  0.0022
  354TMC3    C5 5303   1.151   1.825  13.620  0.5655  0.2224  0.2906
  354TMC3    C6 5304   1.287   1.848  13.646  0.0189  0.3690 -0.6923
  354TMC3     C 5305   1.025   1.909  13.944 -0.0239  0.0596 -0.5243
  354TMC3     O 5306   0.903   1.892  13.924 -0.1234  0.0940  0.0975
  354TMC3     H 5307   1.292   2.028  13.910 -1.1206  0.5015  0.6135
  354TMC3    H1 5308   0.958   1.865  13.706  0.5540 -3.0258 -0.6492
  354TMC3    H2 5309   1.364   1.814  13.579  1.6385 -0.6545  1.6682
  354TMC3    C7 5310   1.113   1.846  13.484  0.0075 -0.5571  0.2618
  354TMC3    C8 5311   1.427   2.007  13.726  0.0420 -0.2212  0.0249
  354TMC3    O1 5312   1.013   1.915  13.473 -0.4159  0.7364  0.5899
  354TMC3    O2 5313   1.506   2.038  13.813 -0.4706  0.0799  0.1599
  355MPD2     C 5314   1.888   2.433  12.374 -0.5262 -0.2554 -0.5372
  355MPD2    C1 5315   1.857   2.443  12.239  0.1076  0.5107 -0.5389
  355MPD2    C2 5316   1.957   2.450  12.146 -0.7336 -0.1592 -0.1931
  355MPD2    C3 5317   2.090   2.471  12.189 -0.0597 -0.2158  0.7631
  355MPD2    C4 5318   2.115   2.452  12.322 -0.1001  0.1210  0.2822
  355MPD2    C5 5319   2.016   2.422  12.415  0.0622 -0.6078  0.1842
  355MPD2     H 5320   1.924   2.464  12.044  1.3675 -0.8516 -0.9590
  355MPD2    H1 5321   2.215   2.459  12.364 -0.5249  1.1566  1.1101
  355MPD2    H2 5322   1.805   2.413  12.441 -0.3152  0.2124 -0.1342
  355MPD2    H3 5323   2.032   2.397  12.519 -0.9548  1.1213  0.7498
  355MPD2     N 5324   2.182   2.528  12.109  0.1132 -0.2630  0.4154
  355MPD2    H5 5325   2.267   2.549  12.161 -0.7791  1.4042  1.2187
  355MPD2    N1 5326   1.721   2.467  12.218  0.2336  0.0356  0.0910
  355MPD2    H7 5327   1.662   2.490  12.298 -0.9049  0.6167 -0.9176
  356TMC3    C1 5328   2.262   2.687  11.945 -0.2110  0.1399  0.4974
  356TMC3    C2 5329   2.268   2.715  11.813 -1.1848 -0.2006 -0.6980
  356TMC3    C3 5330   2.250   2.842  11.771  0.3450 -0.2484 -0.1403
  356TMC3    C4 5331   2.250   2.787  12.034  0.5747 -0.6999 -0.2179
  356TMC3    C5 5332   2.232   2.912  11.994  1.1623  0.5893 -0.7198
  356TMC3    C6 5333   2.229   2.948  11.856  0.7481 -0.1750  0.5923
  356TMC3     C 5334   2.174   2.567  11.979 -0.0941  0.1278 -0.2188
  356TMC3     O 5335   2.098   2.521  11.889  0.2817 -0.4580  0.2574
  356TMC3     H 5336   2.291   2.646  11.732  2.8124  1.2596 -0.7744
  356TMC3    H1 5337   2.249   2.768  12.140 -2.0235 -0.1188 -0.1466
  356TMC3    H2 5338   2.205   3.047  11.818 -0.7768 -0.8434 -0.1729
  356TMC3    C7 5339   2.198   3.004  12.096  0.0960  0.2534 -0.0606
  356TMC3    C8 5340   2.293   2.874  11.642 -0.0524  0.3744 -0.1974
  356TMC3    O1 5341   2.135   2.964  12.195 -0.2884 -0.6208  0.0074
  356TMC3    O2 5342   2.267   2.799  11.551 -0.2240 -0.3451  0.0713
  357MPD2     C 5343   1.388   2.497   2.489 -0.0922  0.2279  0.6275
  357MPD2    C1 5344   1.359   2.586   2.383  0.8708  0.5733  0.4078
  357MPD2    C2 5345   1.229   2.620   2.351 -0.2257 -0.0415  0.5679
  357MPD2    C3 5346   1.127   2.570   2.431 -0.4672  0.3740  0.3577
  357MPD2    C4 5347   1.158   2.494   2.546  0.3808 -0.0575  0.0818
  357MPD2    C5 5348   1.285   2.458   2.571 -0.3117 -0.5442 -0.1397
  357MPD2     H 5349   1.213   2.697   2.276  0.6260 -1.3519 -0.9554
  357MPD2    H1 5350   1.078   2.454   2.607  0.9414  1.3220  1.7265
  357MPD2    H2 5351   1.487   2.454   2.502  1.1012  2.6521 -0.4820
  357MPD2    H3 5352   1.317   2.378   2.637  0.5570  1.0869  1.4408
  357MPD2     N 5353   0.988   2.576   2.397 -0.6797 -0.1994  0.1463
  357MPD2    H5 5354   0.921   2.527   2.455 -0.2830  1.7993  2.2551
  357MPD2    N1 5355   1.456   2.620   2.288 -0.3351  0.2037 -0.7127
  357MPD2    H7 5356   1.414   2.663   2.206  1.6285  2.2955 -0.6264
  358TMC3    C1 5357   1.654   2.602   2.161 -0.5078 -0.0852  0.4155
  358TMC3    C2 5358   1.581   2.621   2.050  0.4407  0.0857  0.9728
  358TMC3    C3 5359   1.639   2.655   1.939 -0.0927 -0.5013  0.0979
  358TMC3    C4 5360   1.790   2.602   2.151 -0.4008  0.2754 -0.2014
  358TMC3    C5 5361   1.850   2.653   2.036  0.0230 -0.4101  0.2074
  358TMC3    C6 5362   1.774   2.679   1.929 -0.4312 -0.0368  0.3781
  358TMC3     C 5363   1.586   2.579   2.290  0.0770 -0.1032  0.6339
  358TMC3     O 5364   1.655   2.540   2.388  0.0167  0.0872  0.1802
  358TMC3     H 5365   1.479   2.588   2.037  1.2429 -2.4500  0.9538
  358TMC3    H1 5366   1.849   2.581   2.240 -3.4798 -1.7281  1.3795
  358TMC3    H2 5367   1.821   2.691   1.833 -0.6240  3.4578  0.7374
  358TMC3    C7 5368   1.986   2.692   2.031  0.2495  0.4101 -0.5145
  358TMC3    C8 5369   1.560   2.689   1.817 -0.1340 -0.5837  0.3583
  358TMC3    O1 5370   2.045   2.678   1.926 -0.3780 -0.2182  0.1616
  358TMC3    O2 5371   1.621   2.692   1.712 -0.3305  0.1723  0.0254
  359MPD2     C 5372   1.978   1.336  12.564  0.4389 -0.1341 -0.6402
  359MPD2    C1 5373   1.940   1.224  12.488 -0.1480 -0.1066  0.1675
  359MPD2    C2 5374   1.804   1.194  12.490 -0.4323 -0.0917  0.3934
  359MPD2    C3 5375   1.701   1.276  12.546 -0.2013 -0.3456  0.0328
  359MPD2    C4 5376   1.749   1.392  12.604 -0.5259  0.6245  0.0578
  359MPD2    C5 5377   1.884   1.413  12.619 -0.2127  0.1895  0.7494
  359MPD2     H 5378   1.784   1.098  12.444 -0.7631  1.9271 -3.6787
  359MPD2    H1 5379   1.688   1.471  12.646  0.1192  1.1000  0.0994
  359MPD2    H2 5380   2.080   1.368  12.575  0.0319  2.0045 -3.1485
  359MPD2    H3 5381   1.920   1.501  12.670 -0.4564 -1.1028  3.1643
  359MPD2     N 5382   1.562   1.245  12.551 -0.8410 -0.1700  0.4624
  359MPD2    H5 5383   1.500   1.314  12.593  0.0196 -0.0352  1.5252
  359MPD2    N1 5384   2.029   1.143  12.407  0.4568 -0.5108  0.1117
  359MPD2    H7 5385   1.999   1.056  12.365  0.5051 -0.2935 -0.3714
  360TMC3    C1 5386   2.217   1.089  12.288 -0.5886 -0.6258  0.3887
  360TMC3    C2 5387   2.352   1.085  12.285 -0.1523  0.4832 -0.6366
  360TMC3    C3 5388   2.414   1.047  12.167 -0.0067 -0.0949  0.4750
  360TMC3    C4 5389   2.143   1.047  12.184 -0.0099 -0.3950 -0.3870
  360TMC3    C5 5390   2.215   0.993  12.076  0.4255 -0.1030 -1.1340
  360TMC3    C6 5391   2.345   0.993  12.065  0.6377  0.5533 -0.6908
  360TMC3     C 5392   2.150   1.184  12.370 -0.3371  0.2021  0.0438
  360TMC3     O 5393   2.219   1.280  12.408 -0.0180  0.2146 -0.3162
  360TMC3     H 5394   2.400   1.152  12.355  0.8330  0.3298 -1.1748
  360TMC3    H1 5395   2.035   1.060  12.178 -0.0958 -0.5089  0.9964
  360TMC3    H2 5396   2.387   0.966  11.968 -0.5813  0.4426 -1.1818
  360TMC3    C7 5397   2.146   0.991  11.952  0.2246  0.3340  0.2891
  360TMC3    C8 5398   2.537   1.115  12.137 -0.5295 -0.9579  0.3649
  360TMC3    O1 5399   2.218   1.027  11.857 -0.6952 -0.2991  0.2112
  360TMC3    O2 5400   2.546   1.226  12.185 -0.5407  0.1759  0.3230
  361MPD2     C 5401   2.700   0.759  17.644  0.3884  0.4491 -0.2415
  361MPD2    C1 5402   2.706   0.751  17.507 -0.4907  1.1831  0.5762
  361MPD2    C2 5403   2.814   0.686  17.448 -0.5708  0.5989 -0.4135
  361MPD2    C3 5404   2.918   0.641  17.531  0.2721  0.0349 -0.4425
  361MPD2    C4 5405   2.925   0.670  17.665 -0.1608 -0.9100  0.1271
  361MPD2    C5 5406   2.808   0.731   0.040 -0.0523  0.0563  0.2278
  361MPD2     H 5407   2.814   0.672  17.341  2.6349  0.8945 -0.4640
  361MPD2    H1 5408   3.013   0.651   0.047 -0.9060  1.4280  1.9288
  361MPD2    H2 5409   2.617   0.801   0.021 -0.4991 -0.9881 -0.4795
  361MPD2    H3 5410   2.800   0.739   0.148 -0.2403  0.5377  0.1777
  361MPD2     N 5411   3.030   0.573  17.482  0.2633  0.1443 -0.4418
  361MPD2    H5 5412   3.103   0.560  17.551 -0.3654 -1.4416 -0.0854
  361MPD2    N1 5413   2.595   0.799  17.427 -1.1978 -0.3499  0.1144
  361MPD2    H7 5414   2.607   0.805  17.327  0.4231  2.0957  0.4582
  362TMC3    C1 5415   2.389   0.915  17.381 -0.1271  0.0142 -0.4578
  362TMC3    C2 5416   2.254   0.922  17.405  0.3041 -0.3429 -0.4229
  362TMC3    C3 5417   2.175   0.984  17.318 -0.7329  0.1912 -0.1614
  362TMC3    C4 5418   2.446   0.965  17.269 -0.5791  0.1694  0.6531
  362TMC3    C5 5419   2.364   1.030  17.180  0.7496 -0.6649 -0.1234
  362TMC3    C6 5420   2.229   1.038  17.204 -0.8159  0.3601  0.4307
  362TMC3     C 5421   2.475   0.848  17.480  0.0078 -0.5733  0.1768
  362TMC3     O 5422   2.421   0.828  17.586  0.0941  0.1064  0.7487
  362TMC3     H 5423   2.220   0.882  17.500 -0.0540  0.7531 -0.0809
  362TMC3    H1 5424   2.553   0.969  17.259 -0.7113  0.3365 -0.7981
  362TMC3    H2 5425   2.177   1.104  17.136 -1.4571  0.7820  1.3307
  362TMC3    C7 5426   2.413   1.132  17.094  0.3852 -0.1317 -0.2708
  362TMC3    C8 5427   2.056   1.055  17.365  0.9354 -0.6014 -0.4183
  362TMC3    O1 5428   2.343   1.227  17.063 -0.3032  0.1879 -0.1892
  362TMC3    O2 5429   2.037   1.168  17.317  0.1939 -0.3239 -0.0227
  363TMC3    C1 5430   2.322   2.715   9.968 -1.5350 -0.2496 -0.2477
  363TMC3    C2 5431   2.265   2.613  10.035 -0.1334 -0.3293 -0.2897
  363TMC3    C3 5432   2.129   2.613  10.052  0.1991  0.1132  0.0268
  363TMC3    C4 5433   2.243   2.816   9.916 -0.5002  0.5204  0.0892
  363TMC3    C5 5434   2.103   2.822   9.943 -0.4827 -0.4054 -0.9705
  363TMC3    C6 5435   2.045   2.714  10.006  0.4985  0.1447 -0.3964
  363TMC3     C 5436   2.470   2.726   9.959  0.0623  0.4593 -0.3660
  363TMC3     O 5437   2.513   2.815   9.880 -0.1084 -0.0810 -0.0571
  363TMC3     H 5438   2.317   2.530  10.082 -1.9642 -1.4823 -0.2558
  363TMC3    H1 5439   2.299   2.894   9.864  0.5984 -1.0588 -1.1096
  363TMC3    H2 5440   1.940   2.704  10.031 -0.0926  1.0271 -2.5725
  363TMC3    C7 5441   2.027   2.928   9.886  0.0296  0.5838  1.0394
  363TMC3    C8 5442   2.052   2.497  10.118 -0.7974  0.2949 -0.5220
  363TMC3    O1 5443   1.905   2.908   9.865 -0.5595 -0.0306  0.2632
  363TMC3    O2 5444   1.933   2.513  10.144  0.1481  0.3646  0.0844
  364MPD2     C 5445   0.473   1.666  11.089 -0.3526 -0.1491  0.0561
  364MPD2    C1 5446   0.555   1.688  10.985 -0.3378 -0.8011 -0.3956
  364MPD2    C2 5447   0.638   1.589  10.946 -0.4194 -0.2260 -0.7081
  364MPD2    C3 5448   0.638   1.465  10.999  0.0969  0.6087  0.4814
  364MPD2    C4 5449   0.558   1.444  11.108 -0.8574  0.5853 -0.0494
  364MPD2    C5 5450   0.472   1.544  11.152  0.0593  0.5303 -1.0078
  364MPD2     H 5451   0.706   1.606  10.862 -1.5769 -0.1352 -1.6254
  364MPD2    H1 5452   0.542   1.345  11.150  0.2256  0.2499 -0.4260
  364MPD2    H2 5453   0.404   1.743  11.122  0.0106  1.2582 -2.4955
  364MPD2    H3 5454   0.397   1.523  11.227  0.0236  0.8499 -0.9548
  364MPD2     N 5455   0.709   1.356  10.950  0.6095  0.8858  0.0495
  364MPD2    H5 5456   0.693   1.268  10.997  0.9419  0.8711  0.1339
  364MPD2    N1 5457   0.545   1.812  10.917 -0.8053 -0.0389 -0.1877
  364MPD2    H7 5458   0.498   1.875  10.982 -2.3782 -2.3680  0.9381
  365TMC3    C1 5459   0.579   1.983  10.748 -0.5963  0.3083  0.5486
  365TMC3    C2 5460   0.666   2.013  10.650 -0.2922 -0.3208 -0.2555
  365TMC3    C3 5461   0.690   2.147  10.632 -0.0706  0.2607 -0.2333
  365TMC3    C4 5462   0.504   2.075  10.825  0.5241  0.3922 -0.6382
  365TMC3    C5 5463   0.532   2.208  10.797  0.2824  0.1520 -0.2081
  365TMC3    C6 5464   0.623   2.244  10.704  0.6926 -0.5826  0.4904
  365TMC3     C 5465   0.585   1.842  10.787 -0.2964  0.0286 -0.1516
  365TMC3     O 5466   0.643   1.768  10.711 -0.4474  0.0420 -0.3615
  365TMC3     H 5467   0.719   1.936  10.595  0.6466  0.2716 -0.1703
  365TMC3    H1 5468   0.414   2.048  10.880  1.0762 -1.0344 -0.4400
  365TMC3    H2 5469   0.649   2.348  10.690  0.4330 -0.7094 -0.9749
  365TMC3    C7 5470   0.500   2.319  10.883 -0.3039  0.0339  0.4407
  365TMC3    C8 5471   0.825   2.187  10.596  0.3021  0.4550 -0.4422
  365TMC3    O1 5472   0.459   2.418  10.823 -0.1553  0.0345  0.0104
  365TMC3    O2 5473   0.869   2.289  10.649 -0.5505  0.5953  0.1837
  366MPD2     C 5474   3.115   3.428  15.331 -0.3460  0.1215  0.9750
  366MPD2    C1 5475   3.237   3.493  15.319 -0.2223  0.8868 -0.5458
  366MPD2    C2 5476   3.358   3.429  15.328  0.0624 -0.2659  0.0702
  366MPD2    C3 5477   3.361   3.294  15.352 -0.9978 -0.5954  0.2123
  366MPD2    C4 5478   3.240   3.235  15.371 -0.2359 -0.2966  0.8643
  366MPD2    C5 5479   3.117   3.296  15.362  0.1917 -0.2528 -0.3132
  366MPD2     H 5480   3.450   3.483  15.310  1.4337 -2.5340  0.2560
  366MPD2    H1 5481   3.228   3.128  15.385  1.9772 -0.9100 -1.8280
  366MPD2    H2 5482   3.017   3.474  15.328 -0.4303  0.0226  2.3259
  366MPD2    H3 5483   3.021   3.247  15.370  1.0375 -2.2369 -2.2369
  366MPD2     N 5484   3.484   3.224  15.345  0.1164 -0.5239 -0.4177
  366MPD2    H5 5485   3.567   3.283  15.343  1.0339 -1.7543  0.7318
  366MPD2    N1 5486   3.237   3.629  15.288 -0.5103  0.1312  0.6716
  366MPD2    H7 5487   3.332   3.664  15.281 -0.9289  0.9184 -1.0815
  367TMC3    C1 5488   3.174   3.844  15.209 -0.4063 -0.4905 -0.0745
  367TMC3    C2 5489   3.274   3.895  15.290  0.2581 -0.6031 -0.1766
  367TMC3    C3 5490   3.299   4.029  15.279  0.0704 -0.5247 -0.2606
  367TMC3    C4 5491   3.089   3.920  15.138  0.3136  0.3344  0.0577
  367TMC3    C5 5492   3.118   4.053  15.127  0.4179 -0.8295 -0.2232
  367TMC3    C6 5493   3.225   4.108  15.195  0.1868  0.3888 -0.2199
  367TMC3     C 5494   3.134   3.711  15.241  0.3544  0.2469 -0.5107
  367TMC3     O 5495   3.024   3.681  15.205  0.1985 -0.1887  0.1305
  367TMC3     H 5496   3.313   3.833  15.370 -0.3361 -0.3795  0.2860
  367TMC3    H1 5497   3.006   3.874  15.085 -0.2432 -0.2286  1.4084
  367TMC3    H2 5498   3.237   4.216  15.199 -1.5447  0.6365 -1.9026
  367TMC3    C7 5499   3.029   4.145  15.065 -0.5526  0.3457  0.3846
  367TMC3    C8 5500   3.418   4.077  15.345 -0.5249  0.3876  0.0838
  367TMC3    O1 5501   3.070   4.262  15.070 -0.1120  0.3731 -0.4399
  367TMC3    O2 5502   3.491   3.996  15.401 -0.2639  0.1396 -0.1095
  368MPD2     C 5503   0.004   0.750  13.347  0.2461  0.1733  0.1805
  368MPD2    C1 5504   0.059   0.778  13.230 -0.1131  0.1674 -0.6542
  368MPD2    C2 5505   0.188   0.740  13.204 -0.4001  0.2702 -0.1074
  368MPD2    C3 5506   0.258   0.657  13.296  0.4082  0.6289  0.3183
  368MPD2    C4 5507   0.198   0.637  13.419  0.2733  0.3679 -0.8023
  368MPD2    C5 5508   0.070   0.686  13.446  0.2660  0.1292  0.3987
  368MPD2     H 5509   0.237   0.770  13.112 -1.7409  1.4738 -0.4319
  368MPD2    H1 5510   0.250   0.573  13.490 -2.4027 -0.6965  0.1994
  368MPD2    H2 5511   4.616   0.765  13.357 -0.1024 -1.5824 -0.8668
  368MPD2    H3 5512   0.027   0.665  13.544 -2.5829  0.0597 -0.8652
  368MPD2     N 5513   0.381   0.595  13.268  0.7276 -0.3168 -0.3775
  368MPD2    H5 5514   0.414   0.535  13.343 -2.2834 -0.6567  0.6687
  368MPD2    N1 5515   4.700   0.859  13.151  0.1392 -0.2575  0.2981
  368MPD2    H7 5516   4.605   0.875  13.182  0.0602 -2.1595  1.0553
  369TMC3    C1 5517   4.631   0.986  12.962  0.1811  0.0135 -1.0794
  369TMC3    C2 5518   4.677   1.082  12.877 -0.0872  0.1480 -0.1963
  369TMC3    C3 5519   4.579   1.146  12.809 -0.8943  0.0622  0.5189
  369TMC3    C4 5520   4.496   0.951  12.978 -0.3878 -0.4478  1.2826
  369TMC3    C5 5521   4.405   1.007  12.893  0.5715  0.1149  0.1158
  369TMC3    C6 5522   4.445   1.111  12.807  0.2464 -0.3613 -0.4403
  369TMC3     C 5523   0.014   0.903  13.024 -0.9130  0.2379 -0.3054
  369TMC3     O 5524   0.116   0.879  12.963  0.4195 -0.6125 -0.1932
  369TMC3     H 5525   0.064   1.100  12.869  0.0698 -1.1460 -1.0444
  369TMC3    H1 5526   4.469   0.860  13.029 -3.4824 -0.6975 -0.8529
  369TMC3    H2 5527   4.371   1.168  12.751  2.2804  1.2358 -1.4879
  369TMC3    C7 5528   4.263   0.974  12.911 -0.6096 -0.0154 -0.2821
  369TMC3    C8 5529   4.620   1.247  12.724  0.1414 -0.1060 -0.2332
  369TMC3    O1 5530   4.230   0.923  13.014 -0.1729  0.2792 -0.0072
  369TMC3    O2 5531   4.550   1.278  12.630  0.0246 -0.5806  0.1474
  370TMC3    C1 5532   4.219   1.217  16.108 -0.1771 -0.0483  0.3829
  370TMC3    C2 5533   4.132   1.266  16.206 -0.1432 -0.5300  1.0411
  370TMC3    C3 5534   4.026   1.189  16.247  0.2308 -0.4991 -0.1825
  370TMC3    C4 5535   4.209   1.098  16.053  0.3816  0.2150  0.7290
  370TMC3    C5 5536   4.106   1.019  16.101  0.2276  0.8357  0.5150
  370TMC3    C6 5537   4.020   1.058  16.195 -0.0132 -0.1477  0.5225
  370TMC3     C 5538   4.293   1.314  16.019  0.9711 -0.4544  0.6043
  370TMC3     O 5539   4.367   1.265  15.936  0.3445 -0.2650 -0.1096
  370TMC3     H 5540   4.142   1.365  16.248  1.1970 -0.0417 -0.4396
  370TMC3    H1 5541   4.270   1.068  15.969  0.4622  2.4984 -0.0181
  370TMC3    H2 5542   3.947   0.986  16.228  0.8936 -0.7788  1.1475
  370TMC3    C7 5543   4.081   0.901  16.030  0.5786 -0.8816 -0.4885
  370TMC3    C8 5544   3.991   1.180  16.388  0.7505 -0.2100  0.1288
  370TMC3    O1 5545   4.024   0.924  15.924  0.4864 -0.1814 -0.0664
  370TMC3    O2 5546   3.950   1.067  16.428  0.5227  0.2926 -0.4814
  371TMC3    C1 5547   0.679   4.162  15.404  0.1136 -0.3047  0.5654
  371TMC3    C2 5548   0.542   4.159  15.439 -0.3626 -0.2100 -0.4683
  371TMC3    C3 5549   0.474   4.280  15.435  0.1719 -0.1005 -0.2672
  371TMC3    C4 5550   0.743   4.273  15.368 -0.2383  0.3802 -0.4414
  371TMC3    C5 5551   0.670   4.394  15.384  0.3605  0.1942 -0.2061
  371TMC3    C6 5552   0.541   4.399  15.416 -0.2325 -0.4949 -0.4109
  371TMC3     C 5553   0.770   4.051  15.434  0.5987  0.5644  0.9850
  371TMC3     O 5554   0.890   4.058  15.401  0.3696 -0.0057 -0.2943
  371TMC3     H 5555   0.492   4.063  15.440 -3.3078  1.3087 -0.0880
  371TMC3    H1 5556   0.841   4.270  15.321 -0.3068  0.6995 -0.6041
  371TMC3    H2 5557   0.493   4.496  15.414  0.2073 -0.2799 -0.7765
  371TMC3    C7 5558   0.732   4.517  15.343 -0.1522 -1.1457  0.0805
  371TMC3    C8 5559   0.344   4.273  15.519  0.4486  0.7136  0.1530
  371TMC3    O1 5560   0.665   4.619  15.344  0.0497  0.1850 -0.1866
  371TMC3    O2 5561   0.314   4.158  15.548 -0.1638  0.1645 -0.2119
  372MPD2     C 5562   1.055   1.205  13.539 -0.2020  0.5351  0.7265
  372MPD2    C1 5563   1.090   1.098  13.623 -0.1261  0.7859  0.1342
  372MPD2    C2 5564   0.986   1.015  13.667  0.1903  0.1383  0.0270
  372MPD2    C3 5565   0.860   1.029  13.611 -0.3059  0.3286  0.2516
  372MPD2    C4 5566   0.828   1.133  13.526  0.4000 -0.1687  0.1066
  372MPD2    C5 5567   0.932   1.218  13.494 -0.4591 -0.2541 -0.5425
  372MPD2     H 5568   1.002   0.941  13.744 -1.0015  1.7674  1.8293
  372MPD2    H1 5569   0.731   1.161  13.486 -0.1674 -0.2226  1.4384
  372MPD2    H2 5570   1.117   1.292  13.522  0.9100 -0.2129  0.8992
  372MPD2    H3 5571   0.905   1.307  13.439  0.8279 -0.1250 -0.9569
  372MPD2     N 5572   0.761   0.938  13.656 -0.2723 -0.2230  0.1724
  372MPD2    H5 5573   0.799   0.867  13.717  0.0468 -0.0412  0.1867
  372MPD2    N1 5574   1.215   1.089  13.676 -0.3207 -0.0823 -0.3284
  372MPD2    H7 5575   1.233   1.004  13.728 -0.5680  0.6637  0.9736
  373TMC3    C1 5576   0.564   0.825  13.666  0.6488  0.0794  0.4116
  373TMC3    C2 5577   0.432   0.834  13.708  0.2185  0.8732 -0.3852
  373TMC3    C3 5578   0.362   0.724  13.728  0.3739 -0.1254 -0.4699
  373TMC3    C4 5579   0.615   0.702  13.629 -0.1075 -0.4367  0.9173
  373TMC3    C5 5580   0.539   0.594  13.651 -0.5773  0.7114  0.4420
  373TMC3    C6 5581   0.411   0.604  13.701 -0.3185 -0.0385  0.2431
  373TMC3     C 5582   0.628   0.944  13.622 -0.1350  0.1935 -0.3013
  373TMC3     O 5583   0.559   1.043  13.594 -0.8816 -0.4892 -0.0650
  373TMC3     H 5584   0.393   0.928  13.745 -0.5586 -0.0931  1.2416
  373TMC3    H1 5585   0.716   0.693  13.591 -0.2539  0.8542  0.2043
  373TMC3    H2 5586   0.364   0.513  13.734  1.5530 -1.5914 -1.3909
  373TMC3    C7 5587   0.606   0.465  13.645  0.2011  0.1970  0.1672
  373TMC3    C8 5588   0.224   0.738  13.782  0.1932 -0.1247  0.2396
  373TMC3    O1 5589   0.696   0.455  13.557  0.0768  0.2686  0.1389
  373TMC3    O2 5590   0.175   0.850  13.763  0.1595 -0.0982 -0.0119
  374TMC3    C1 5591   0.986   0.144   9.787  0.2306 -0.9376  0.4028
  374TMC3    C2 5592   1.064   0.253   9.824 -0.0625 -0.4528 -0.5241
  374TMC3    C3 5593   1.078   0.357   9.735 -0.0059 -0.0005 -1.2727
  374TMC3    C4 5594   0.934   0.134   9.664 -0.2011  0.2211 -0.4375
  374TMC3    C5 5595   0.952   0.244   9.576  0.2627  0.3095  0.5568
  374TMC3    C6 5596   1.020   0.357   9.609 -0.0653  0.7875 -0.4778
  374TMC3     C 5597   0.969   0.037   9.881 -0.8859  0.2885  0.0622
  374TMC3     O 5598   1.041   0.030   9.981  0.2086  0.2209 -0.1247
  374TMC3     H 5599   1.116   0.259   9.919  1.4909  0.1893 -1.4184
  374TMC3    H1 5600   0.882   0.048   9.624  0.6375  0.5477 -2.2328
  374TMC3    H2 5601   1.041   0.437   9.538  0.8982  2.3042  1.4858
  374TMC3    C7 5602   0.927   0.220   9.441 -0.3648 -0.7856 -0.9992
  374TMC3    C8 5603   1.098   0.489   9.784  0.3217 -1.1422  0.6878
  374TMC3    O1 5604   0.939   0.102   9.406  0.5628 -0.5728 -0.0454
  374TMC3    O2 5605   1.032   0.577   9.733  0.0907  0.0492  0.4123
  375MPD2     C 5606   1.061   2.036  16.781  0.1870 -0.5989  0.1606
  375MPD2    C1 5607   0.972   1.930  16.783  1.0236 -0.4429  0.0596
  375MPD2    C2 5608   1.016   1.799  16.776  0.5046  0.6516  0.0530
  375MPD2    C3 5609   1.153   1.777  16.762 -0.6449  0.0553 -0.0382
  375MPD2    C4 5610   1.236   1.886  16.752 -0.3410 -0.4187  0.0187
  375MPD2    C5 5611   1.191   2.016  16.766 -0.1952  0.1951 -0.2196
  375MPD2     H 5612   0.935   1.727  16.782  0.8038  0.3709  0.6446
  375MPD2    H1 5613   1.342   1.866  16.740 -0.0298  1.2345  0.0129
  375MPD2    H2 5614   1.026   2.136  16.800  1.7852  0.0438 -0.3123
  375MPD2    H3 5615   1.261   2.097  16.784  0.1427  0.1310 -1.1919
  375MPD2     N 5616   1.208   1.644  16.765  0.2288  0.2686 -0.5013
  375MPD2    H5 5617   1.307   1.645  16.742  0.4084 -1.7417  0.1735
  375MPD2    N1 5618   0.832   1.950  16.792  0.0943 -0.5685 -0.1086
  375MPD2    H7 5619   0.764   1.875  16.797 -0.5935  0.1652  1.5099
  376TMC3    C1 5620   1.215   1.406  16.751 -0.2889  0.2413  0.3998
  376TMC3    C2 5621   1.351   1.400  16.775 -0.2810  0.2795 -0.1457
  376TMC3    C3 5622   1.414   1.294  16.714 -0.0450 -0.1380 -0.6106
  376TMC3    C4 5623   1.144   1.307  16.693  0.3955 -0.3144 -0.0949
  376TMC3    C5 5624   1.210   1.199  16.652  0.2937  0.3265 -0.1504
  376TMC3    C6 5625   1.342   1.195  16.652 -0.0879 -0.2668 -0.2335
  376TMC3     C 5626   1.140   1.527  16.786 -0.0065 -0.4936  0.0182
  376TMC3     O 5627   1.025   1.513  16.831 -0.2126 -0.0059 -0.2226
  376TMC3     H 5628   1.407   1.486  16.812 -1.1386  0.9080 -0.2984
  376TMC3    H1 5629   1.036   1.312  16.693  0.5062  2.1511 -3.3179
  376TMC3    H2 5630   1.390   1.115  16.598  2.6364  1.2946 -0.1301
  376TMC3    C7 5631   1.150   1.149  16.529  0.3667 -0.2206  0.4071
  376TMC3    C8 5632   1.543   1.312  16.663 -1.1093  0.0586  0.3472
  376TMC3    O1 5633   1.168   1.030  16.505  0.3799 -0.7381  0.0434
  376TMC3    O2 5634   1.568   1.258  16.557 -0.6256 -0.2579  0.3790
  377MPD2     C 5635   3.714   1.497  12.061 -0.6609 -0.1802  0.2995
  377MPD2    C1 5636   3.745   1.398  12.151 -0.1707 -0.3598 -0.2503
  377MPD2    C2 5637   3.648   1.362  12.234  0.2517 -0.8080  0.0904
  377MPD2    C3 5638   3.529   1.427  12.241 -0.1999  0.5903 -0.2391
  377MPD2    C4 5639   3.510   1.540  12.167 -0.1801  0.3201  0.1721
  377MPD2    C5 5640   3.598   1.564  12.068 -0.0112  0.5955 -0.8175
  377MPD2     H 5641   3.677   1.291  12.311 -0.4539 -1.0155  0.1617
  377MPD2    H1 5642   3.412   1.587  12.163 -0.7876 -0.9340  0.4489
  377MPD2    H2 5643   3.792   1.533  11.996 -0.9918 -2.6752 -1.4584
  377MPD2    H3 5644   3.589   1.651  12.005 -0.0423  0.5234 -0.9117
  377MPD2     N 5645   3.416   1.383  12.323 -0.4520  0.7084  1.1234
  377MPD2    H5 5646   3.336   1.446  12.320  1.0003  2.4320 -1.5200
  377MPD2    N1 5647   3.875   1.340  12.152  0.4361 -0.0210  0.1250
  377MPD2    H7 5648   3.927   1.374  12.072  2.6861  1.4326  2.1824
  378TMC3    C1 5649   4.254   1.214  12.076  0.2399 -0.4317 -0.3661
  378TMC3    C2 5650   4.126   1.248  12.089  0.3699  0.3900  0.7234
  378TMC3    C3 5651   4.068   1.216  12.210 -0.8382  0.3980  0.2167
  378TMC3    C4 5652   4.326   1.163  12.179 -0.0415 -0.0928 -0.9646
  378TMC3    C5 5653   4.269   1.132  12.296  0.1363 -0.2448 -0.2560
  378TMC3    C6 5654   4.136   1.151  12.317  0.7107 -0.9762 -0.4918
  378TMC3     C 5655   4.323   1.274  11.960 -0.3392  0.0654 -0.0154
  378TMC3     O 5656   4.257   1.345  11.891 -0.5216 -0.2395 -0.2142
  378TMC3     H 5657   4.068   1.283  12.005 -1.8581 -1.6341  1.4074
  378TMC3    H1 5658   4.434   1.172  12.178 -0.1658  1.1916 -2.9342
  378TMC3    H2 5659   4.084   1.151  12.412 -1.1881 -1.0491 -1.5225
  378TMC3    C7 5660   4.349   1.072  12.402 -0.0402 -0.0035 -0.0305
  378TMC3    C8 5661   3.928   1.257  12.248 -0.0672  0.2230 -0.3980
  378TMC3    O1 5662   4.306   1.066  12.514  0.2782 -0.5596 -0.1090
  378TMC3    O2 5663   3.865   1.183  12.323  0.1059 -0.4964 -0.1806
  379MPD2     C 5664   4.217   4.202  16.223  0.4900 -0.0152 -0.5545
  379MPD2    C1 5665   4.269   4.106  16.143  0.9787 -0.3518  0.0142
  379MPD2    C2 5666   4.336   4.001  16.204 -0.0028  0.6756 -0.5879
  379MPD2    C3 5667   4.349   3.991  16.335 -0.2630  0.6354 -0.2982
  379MPD2    C4 5668   4.309   4.095  16.415 -0.2871  0.1759  0.0289
  379MPD2    C5 5669   4.241   4.206  16.358  0.1210  0.1763 -0.3416
  379MPD2     H 5670   4.365   3.915  16.144 -1.0943  1.3089 -2.0408
  379MPD2    H1 5671   4.314   4.097  16.523 -0.4252  1.0740  0.0193
  379MPD2    H2 5672   4.176   4.291  16.177  1.7320  0.6991 -0.2682
  379MPD2    H3 5673   4.208   4.296  16.410 -2.2952  0.1050 -1.7478
  379MPD2     N 5674   4.407   3.878  16.405 -0.1137 -0.2407  0.6831
  379MPD2    H5 5675   4.405   3.879  16.506  1.4351  2.3276  0.7053
  379MPD2    N1 5676   4.233   4.113  16.011 -0.2177  0.1490 -0.3898
  379MPD2    H7 5677   4.169   4.184  15.975  1.6627  2.3560  0.6323
  380TMC3    C1 5678   4.239   4.074  15.784 -0.0504  0.8382 -0.9555
  380TMC3    C2 5679   4.242   3.959  15.702  0.7124 -0.0148 -1.0742
  380TMC3    C3 5680   4.135   3.946  15.624 -0.8571 -0.0230  0.6640
  380TMC3    C4 5681   4.131   4.163  15.780 -0.5615 -0.1160  0.5219
  380TMC3    C5 5682   4.033   4.140  15.683 -0.2734  0.3172 -0.4061
  380TMC3    C6 5683   4.024   4.028  15.612  0.2644  0.2568  0.3942
  380TMC3     C 5684   4.300   4.040  15.912 -0.2955 -0.3599 -0.0721
  380TMC3     O 5685   4.392   3.956  15.918  0.2307  0.1879 -0.1330
  380TMC3     H 5686   4.321   3.885  15.717  0.7842  0.8113  2.6076
  380TMC3    H1 5687   4.146   4.260  15.826 -1.5828 -0.9988  2.7417
  380TMC3    H2 5688   3.947   4.004  15.540 -0.1383 -0.0523  0.9275
  380TMC3    C7 5689   3.971   4.260  15.637 -0.0446  0.3671 -0.5233
  380TMC3    C8 5690   4.160   3.882  15.499 -0.5209  0.2379  0.7151
  380TMC3    O1 5691   3.999   4.369  15.689  0.2071  0.1330 -0.0428
  380TMC3    O2 5692   4.072   3.815  15.452  0.1847 -0.4840 -0.1659
  381TMC3    C1 5693   4.068   0.220  16.401  0.5396  0.1852 -0.1181
  381TMC3    C2 5694   4.114   0.329  16.341 -0.2539 -0.2557 -0.1105
  381TMC3    C3 5695   4.110   0.446  16.413 -0.7248  0.3903 -0.2634
  381TMC3    C4 5696   4.014   0.224  16.525  0.6057 -0.2921 -0.1337
  381TMC3    C5 5697   4.003   0.343  16.589 -0.0398  0.3921 -0.7402
  381TMC3    C6 5698   4.059   0.455  16.542 -0.3884 -1.6487 -0.4403
  381TMC3     C 5699   4.068   0.088  16.335  0.6634 -0.8484  0.1658
  381TMC3     O 5700   4.006   4.716  16.385 -0.3566 -0.4045  0.3053
  381TMC3     H 5701   4.140   0.340  16.236 -1.3451 -2.1582 -0.5895
  381TMC3    H1 5702   3.977   0.131  16.565 -1.3838 -0.3426 -2.0844
  381TMC3    H2 5703   4.068   0.540  16.609 -0.7892 -0.0357 -2.3917
  381TMC3    C7 5704   3.958   0.330  16.723  0.0763  0.0888  0.2250
  381TMC3    C8 5705   4.208   0.552  16.382 -0.0416 -0.3103  0.0480
  381TMC3    O1 5706   3.952   0.215  16.762  0.2644 -0.2093  0.0173
  381TMC3    O2 5707   4.295   0.520  16.302 -0.1128  0.2211  0.8750
  382MPD2     C 5708   3.618   2.978   0.026 -0.2352 -0.5553 -0.0712
  382MPD2    C1 5709   3.487   3.001  17.673  0.3141 -0.6130 -0.2486
  382MPD2    C2 5710   3.394   2.896  17.645 -0.7710  0.2506  0.8008
  382MPD2    C3 5711   3.437   2.768  17.649 -0.1961  0.6017  0.0824
  382MPD2    C4 5712   3.569   2.741   0.005  0.4861 -0.2480  0.3389
  382MPD2    C5 5713   3.659   2.845   0.023 -0.6639  0.0621  0.4661
  382MPD2     H 5714   3.293   2.925  17.619 -0.5891 -1.4591 -1.8353
  382MPD2    H1 5715   3.605   2.639   0.010 -0.4386 -0.6657 -1.7966
  382MPD2    H2 5716   3.689   3.058   0.043  1.4404 -2.5146  2.3269
  382MPD2    H3 5717   3.762   2.819   0.042 -0.7049  1.1101  2.0852
  382MPD2     N 5718   3.360   2.651  17.621 -0.5535  0.0771 -0.1237
  382MPD2    H5 5719   3.414   2.565  17.628  2.0246  1.7724  0.9335
  382MPD2    N1 5720   3.429   3.126  17.668  0.1244 -0.1315 -0.1714
  382MPD2    H7 5721   3.328   3.133  17.655  0.1588  0.7660  0.0487
  383TMC3    C1 5722   3.181   2.518  17.534 -0.1749  0.5062  0.2830
  383TMC3    C2 5723   3.057   2.510  17.468  0.2664 -0.3439  0.9611
  383TMC3    C3 5724   3.015   2.395  17.410  0.4046  0.0226 -0.1054
  383TMC3    C4 5725   3.265   2.412  17.535  0.5207 -0.8892  1.0424
  383TMC3    C5 5726   3.211   2.294  17.482  0.0016  0.4352  0.9383
  383TMC3    C6 5727   3.095   2.289  17.412  0.3042  0.0288  0.4742
  383TMC3     C 5728   3.228   2.650  17.575  0.1583 -0.0175  0.2417
  383TMC3     O 5729   3.156   2.750  17.569 -0.7356  0.4152 -0.3442
  383TMC3     H 5730   2.999   2.600  17.458  2.4658  1.0916  1.2051
  383TMC3    H1 5731   3.366   2.417  17.573  0.2211  0.8229  1.6254
  383TMC3    H2 5732   3.062   2.200  17.360 -0.3572  1.0865 -0.9367
  383TMC3    C7 5733   3.287   2.168  17.507  0.2554  0.3013 -0.5796
  383TMC3    C8 5734   2.917   2.394  17.300  0.2587 -0.3023  0.6653
  383TMC3    O1 5735   3.401   2.164  17.554  0.0215 -0.5213 -0.6313
  383TMC3    O2 5736   2.898   2.285  17.244 -0.1661 -0.3788 -0.2559
  384MPD2     C 5737   0.230   3.837  12.025  0.2120 -0.3153 -0.4592
  384MPD2    C1 5738   0.245   3.755  12.138 -0.1086  0.6392 -0.7409
  384MPD2    C2 5739   0.305   3.630  12.116 -0.5981  0.5845 -0.7584
  384MPD2    C3 5740   0.338   3.584  11.989 -0.6491  0.1167 -0.6193
  384MPD2    C4 5741   0.317   3.665  11.880 -0.8636 -0.3895 -0.3355
  384MPD2    C5 5742   0.248   3.784  11.898 -0.2634 -0.2605 -0.5118
  384MPD2     H 5743   0.307   3.559  12.199  0.0956 -0.0531 -1.3173
  384MPD2    H1 5744   0.344   3.626  11.782 -0.1319 -1.3314  0.2466
  384MPD2    H2 5745   0.188   3.936  12.034  1.0646  0.1569 -1.7414
  384MPD2    H3 5746   0.235   3.839  11.805  1.9113 -0.4563 -0.9182
  384MPD2     N 5747   0.388   3.453  11.968  0.1343 -0.4312  0.3104
  384MPD2    H5 5748   0.420   3.426  11.875  2.2283 -0.8986  1.1533
  384MPD2    N1 5749   0.225   3.800  12.269 -0.0909  0.1917  0.2405
  384MPD2    H7 5750   0.263   3.745  12.346  0.1604  0.7721  0.5318
  385TMC3    C1 5751   0.423   3.217  12.008 -0.1280  0.1569 -0.7262
  385TMC3    C2 5752   0.556   3.213  11.976  0.0281 -0.0348 -0.0794
  385TMC3    C3 5753   0.640   3.117  12.032 -0.1435  0.5010 -0.0856
  385TMC3    C4 5754   0.381   3.123  12.104  1.1512 -0.0441  0.6813
  385TMC3    C5 5755   0.469   3.038  12.167 -0.4383  0.2318  0.1036
  385TMC3    C6 5756   0.598   3.024  12.120 -0.5481  0.3329 -0.4880
  385TMC3     C 5757   0.377   3.348  12.056 -0.0342 -0.1320 -0.1493
  385TMC3     O 5758   0.332   3.343  12.168  0.2283 -0.0754  0.6041
  385TMC3     H 5759   0.600   3.283  11.905  0.6871 -0.6073 -0.2291
  385TMC3    H1 5760   0.275   3.125  12.128  1.0968  1.8516  0.3187
  385TMC3    H2 5761   0.664   2.948  12.159 -2.1431  0.6579  2.8052
  385TMC3    C7 5762   0.445   3.024  12.313  0.5289 -0.4147  0.0821
  385TMC3    C8 5763   0.751   3.087  11.944  0.4340 -0.3215  0.3434
  385TMC3    O1 5764   0.487   2.933  12.381 -0.6349 -0.3873 -0.1084
  385TMC3    O2 5765   0.783   3.169  11.860 -0.6862 -0.3777  0.1575
  386TMC3    C1 5766   1.109   0.901  11.513 -0.5665  0.4746 -0.3820
  386TMC3    C2 5767   1.053   0.891  11.385  0.1858  1.0201  0.5586
  386TMC3    C3 5768   0.916   0.893  11.368  0.1484  0.3505  0.3982
  386TMC3    C4 5769   1.029   0.923  11.624  0.2855  0.9015  0.2284
  386TMC3    C5 5770   0.895   0.934  11.603  0.3181  0.3416 -0.0051
  386TMC3    C6 5771   0.834   0.927  11.475  0.0105  0.4384 -0.0283
  386TMC3     C 5772   1.245   0.845  11.538  0.0265 -0.7365 -0.1690
  386TMC3     O 5773   1.338   0.893  11.470  0.2598 -0.1020 -0.0153
  386TMC3     H 5774   1.112   0.861  11.299  0.2108 -1.1103  1.3056
  386TMC3    H1 5775   1.087   0.938  11.714 -0.0572 -1.6344  0.8748
  386TMC3    H2 5776   0.726   0.934  11.467  0.1330 -1.5302 -3.1781
  386TMC3    C7 5777   0.799   0.948  11.713  0.8929 -0.8131  0.3729
  386TMC3    C8 5778   0.862   0.873  11.238  0.2962 -0.0168  0.2755
  386TMC3    O1 5779   0.690   0.989  11.688  0.2481  0.6126 -0.1181
  386TMC3    O2 5780   0.739   0.865  11.246 -0.1306  0.4422  0.2242
  387MPD2     C 5781   3.601   1.171   9.252  0.0179 -0.4916  0.3103
  387MPD2    C1 5782   3.577   1.114   9.377  0.4834  0.7410 -0.2080
  387MPD2    C2 5783   3.520   0.989   9.395  0.1023  0.1920  0.2069
  387MPD2    C3 5784   3.485   0.909   9.287  0.8981  0.2268  0.9325
  387MPD2    C4 5785   3.520   0.959   9.161  0.2152 -0.2067  0.4101
  387MPD2    C5 5786   3.560   1.093   9.141  0.2708 -0.1369  0.2904
  387MPD2     H 5787   3.495   0.954   9.495  3.5831  0.5331  1.1961
  387MPD2    H1 5788   3.487   0.896   9.080  0.7684 -0.8554  0.6918
  387MPD2    H2 5789   3.644   1.269   9.236 -2.9935  0.7303 -0.1214
  387MPD2    H3 5790   3.569   1.136   9.042 -0.8805 -0.4483  0.0565
  387MPD2     N 5791   3.433   0.777   9.311  0.0174 -0.2602 -0.0220
  387MPD2    H5 5792   3.433   0.745   9.407 -0.5753  0.3749  0.1811
  387MPD2    N1 5793   3.625   1.172   9.493 -0.6488  1.0366 -0.5302
  387MPD2    H7 5794   3.599   1.118   9.575 -0.5257  0.9874 -0.5231
  388TMC3    C1 5795   3.757   1.284   9.652  0.2413 -0.4005 -0.4429
  388TMC3    C2 5796   3.823   1.391   9.692  0.4173 -0.1544 -0.0743
  388TMC3    C3 5797   3.857   1.393   9.826 -0.8183  0.3252 -0.3761
  388TMC3    C4 5798   3.751   1.173   9.731 -0.4535  0.4769 -0.5249
  388TMC3    C5 5799   3.801   1.174   9.857 -0.0652 -0.7705 -0.0824
  388TMC3    C6 5800   3.845   1.286   9.913  0.3716 -0.6636 -0.0195
  388TMC3     C 5801   3.710   1.276   9.508 -0.7055  0.4756 -0.2430
  388TMC3     O 5802   3.761   1.362   9.434 -0.3093  0.2883 -0.0428
  388TMC3     H 5803   3.852   1.472   9.626  0.3378 -1.4432 -1.6823
  388TMC3    H1 5804   3.726   1.078   9.686  0.1554  0.3426 -0.5876
  388TMC3    H2 5805   3.905   1.275  10.002  0.5059  1.2958  0.1426
  388TMC3    C7 5806   3.811   1.048   9.928 -0.1696 -0.1636  0.1646
  388TMC3    C8 5807   3.909   1.520   9.881  0.5084 -0.3851 -0.7078
  388TMC3    O1 5808   3.909   1.033  10.001 -0.0901 -0.2859  0.4600
  388TMC3    O2 5809   3.929   1.611   9.800  0.2008  0.3066  0.9153
  389MPD2     C 5810   2.472   3.876  11.412 -0.2612  0.5413  0.0754
  389MPD2    C1 5811   2.496   3.798  11.301  0.4206  0.0895 -0.3216
  389MPD2    C2 5812   2.422   3.677  11.283  0.0109  0.0123  0.1427
  389MPD2    C3 5813   2.340   3.641  11.387 -0.0293 -0.3966  0.0683
  389MPD2    C4 5814   2.333   3.707  11.503  0.1818 -0.3378 -0.6982
  389MPD2    C5 5815   2.398   3.826  11.515  0.0702  0.9706 -0.0138
  389MPD2     H 5816   2.428   3.620  11.191  2.6500 -1.1394  1.0152
  389MPD2    H1 5817   2.284   3.660  11.587  1.5814 -0.0337  0.3016
  389MPD2    H2 5818   2.524   3.969  11.431  1.0566 -0.0688 -0.6084
  389MPD2    H3 5819   2.379   3.875  11.609 -1.6372 -0.2221  0.2583
  389MPD2     N 5820   2.267   3.524  11.392  0.5314 -0.8234  0.0601
  389MPD2    H5 5821   2.211   3.500  11.473 -1.4377 -1.0455 -1.3437
  389MPD2    N1 5822   2.577   3.845  11.197  0.0917  1.1713 -1.0370
  389MPD2    H7 5823   2.583   3.946  11.193 -0.4447  1.3305  2.0966
  390TMC3    C1 5824   2.151   3.342  11.315 -0.1326 -0.4386  0.2246
  390TMC3    C2 5825   2.144   3.275  11.436 -0.7978 -0.7100 -0.5112
  390TMC3    C3 5826   2.089   3.145  11.436 -1.0239 -0.2183  0.4817
  390TMC3    C4 5827   2.096   3.278  11.208  0.3903 -0.0889 -0.3018
  390TMC3    C5 5828   2.037   3.154  11.207  0.3489 -0.1542  0.3229
  390TMC3    C6 5829   2.032   3.093  11.327 -0.1933 -0.3924  0.0499
  390TMC3     C 5830   2.251   3.436  11.284  0.1505  0.1414 -0.2187
  390TMC3     O 5831   2.292   3.446  11.169 -1.0559  0.6714  0.7048
  390TMC3     H 5832   2.195   3.315  11.522 -0.2869 -2.3587 -0.0439
  390TMC3    H1 5833   2.091   3.328  11.112 -1.6321  0.2781 -0.0057
  390TMC3    H2 5834   1.998   2.990  11.330  1.5989 -1.0000 -0.1135
  390TMC3    C7 5835   1.907   3.155  11.144 -0.1453 -0.5370  0.2348
  390TMC3    C8 5836   2.025   3.089  11.555  0.5701  0.1243  0.3970
  390TMC3    O1 5837   1.887   3.189  11.024  0.0823  0.2161  0.5859
  390TMC3    O2 5838   1.984   2.973  11.551  0.6052 -0.0905 -0.6346
  391MPD2     C 5839   1.685   0.521  11.185  0.6479  0.2098 -0.5461
  391MPD2    C1 5840   1.792   0.595  11.136  1.4422 -0.2598 -0.0432
  391MPD2    C2 5841   1.810   0.598  10.997  0.1252 -0.3801 -0.1939
  391MPD2    C3 5842   1.728   0.534  10.910 -0.9747 -0.1372  0.7833
  391MPD2    C4 5843   1.616   0.462  10.965 -0.5340  0.1178  0.1150
  391MPD2    C5 5844   1.595   0.462  11.102  0.1690 -0.3889 -0.3517
  391MPD2     H 5845   1.881   0.660  10.944  0.3176  1.5090  2.2843
  391MPD2    H1 5846   1.538   0.412  10.908 -1.0336 -1.2059  1.9546
  391MPD2    H2 5847   1.665   0.514  11.291  0.9800 -0.0249 -0.4976
  391MPD2    H3 5848   1.509   0.405  11.137  1.1051  0.0721  2.7465
  391MPD2     N 5849   1.752   0.558  10.773  0.3159 -0.6471  0.4948
  391MPD2    H5 5850   1.838   0.602  10.742  1.0948  0.0656  3.5959
  391MPD2    N1 5851   1.862   0.666  11.230  0.1698  0.2138 -0.3577
  391MPD2    H7 5852   1.817   0.663  11.320 -0.7172  2.3038 -0.7449
  392TMC3    C1 5853   1.683   0.631  10.569 -1.2090  0.6123 -0.2657
  392TMC3    C2 5854   1.618   0.592  10.458 -0.6689 -0.3696  0.0301
  392TMC3    C3 5855   1.629   0.670  10.343  0.1246 -0.1019  0.1068
  392TMC3    C4 5856   1.740   0.752  10.580 -0.2939 -0.2887  0.4506
  392TMC3    C5 5857   1.743   0.830  10.469 -0.2144 -0.1107 -0.2773
  392TMC3    C6 5858   1.685   0.792  10.348  0.0696  0.1934 -0.5619
  392TMC3     C 5859   1.649   0.556  10.684  0.1353  0.2987  0.1249
  392TMC3     O 5860   1.535   0.518  10.692  0.3100 -0.0696 -0.5723
  392TMC3     H 5861   1.558   0.502  10.463  0.3063 -0.9792  0.7778
  392TMC3    H1 5862   1.769   0.791  10.678  1.4298  1.9667 -0.9490
  392TMC3    H2 5863   1.704   0.842  10.254  0.1035  2.7047  0.7908
  392TMC3    C7 5864   1.848   0.945  10.482 -0.1414 -0.4810 -0.4285
  392TMC3    C8 5865   1.539   0.626  10.238  0.3069 -0.2723 -0.7408
  392TMC3    O1 5866   1.938   0.931  10.570  0.3700 -0.4998 -0.3089
  392TMC3    O2 5867   1.515   0.503  10.231 -0.2239  0.5685  0.8241
  393TMC3    C1 5868   0.822   3.001  10.634  0.3252  0.5500 -0.0334
  393TMC3    C2 5869   0.734   2.900  10.592  0.1896 -0.2352  0.7768
  393TMC3    C3 5870   0.787   2.785  10.539 -1.5069 -0.0888 -0.9352
  393TMC3    C4 5871   0.959   2.986  10.615 -0.0715 -1.1123 -0.4513
  393TMC3    C5 5872   1.001   2.866  10.560  0.2472 -0.1611 -0.1401
  393TMC3    C6 5873   0.924   2.759  10.527  0.0710 -0.3377 -0.2529
  393TMC3     C 5874   0.761   3.133  10.605 -0.0851 -0.2585  0.1960
  393TMC3     O 5875   0.657   3.132  10.537 -0.0889 -0.2128 -0.1312
  393TMC3     H 5876   0.627   2.917  10.602  0.1596 -0.3107  0.5697
  393TMC3    H1 5877   1.025   3.070  10.631 -0.3326 -1.3776  1.9442
  393TMC3    H2 5878   0.966   2.675  10.473 -0.8513 -1.0824  0.1787
  393TMC3    C7 5879   1.107   2.873  10.456  0.4958  0.5333 -0.0630
  393TMC3    C8 5880   0.681   2.701  10.479  0.1446  0.3443 -0.6544
  393TMC3    O1 5881   1.088   2.817  10.348  0.3034 -0.3193  0.4502
  393TMC3    O2 5882   0.574   2.755  10.484  0.2174  0.2995  0.1627
  394TMC3    C1 5883   2.672   3.822  10.980 -0.7370  0.2383  0.0150
  394TMC3    C2 5884   2.586   3.917  10.932 -0.8745  0.3990 -0.0549
  394TMC3    C3 5885   2.588   3.940  10.795 -0.3716 -0.0347  0.2898
  394TMC3    C4 5886   2.757   3.754  10.897  0.3396  0.1478 -1.1132
  394TMC3    C5 5887   2.761   3.785  10.763  0.3566 -0.1208  0.0034
  394TMC3    C6 5888   2.670   3.874  10.713 -0.9404 -0.1191 -0.6969
  394TMC3     C 5889   2.644   3.758  11.114 -0.1236  0.3055  0.0035
  394TMC3     O 5890   2.645   3.640  11.119 -0.3070 -0.6930  0.1463
  394TMC3     H 5891   2.504   3.952  10.993 -0.3225  2.1729 -0.3270
  394TMC3    H1 5892   2.824   3.675  10.930 -1.5524  0.1713  2.7225
  394TMC3    H2 5893   2.666   3.914  10.612  3.8069 -0.2503 -0.9476
  394TMC3    C7 5894   2.877   3.762  10.682 -0.1596  0.2531 -0.5685
  394TMC3    C8 5895   2.467   3.993  10.750 -0.7736 -0.1161  0.1373
  394TMC3    O1 5896   2.899   3.835  10.586  0.2490 -0.0265  0.0706
  394TMC3    O2 5897   2.414   4.090  10.804  0.2712  0.4337  0.4783
  395TMC3    C1 5898   2.147   1.495  15.016  0.0571 -0.2473 -0.6879
  395TMC3    C2 5899   2.161   1.405  14.911  0.7917 -0.8400  0.7065
  395TMC3    C3 5900   2.196   1.445  14.783 -0.5775  0.5636 -0.2313
  395TMC3    C4 5901   2.190   1.623  14.994 -0.9968  0.3319 -0.2301
  395TMC3    C5 5902   2.232   1.658  14.862 -0.0844 -0.3671  0.3216
  395TMC3    C6 5903   2.238   1.568  14.763  0.0177  0.0546 -0.0364
  395TMC3     C 5904   2.069   1.467  15.137 -0.0918 -0.6408 -0.7131
  395TMC3     O 5905   2.017   1.561  15.200 -0.8520  0.0350 -0.7665
  395TMC3     H 5906   2.111   1.310  14.927 -3.0230  0.7717 -1.5313
  395TMC3    H1 5907   2.175   1.704  15.064 -1.1375 -0.3995  0.5841
  395TMC3    H2 5908   2.269   1.599  14.663 -0.6539 -0.2308 -0.3360
  395TMC3    C7 5909   2.275   1.798  14.852  0.2098  0.2885 -0.4059
  395TMC3    C8 5910   2.092   1.416  14.690  1.1322 -0.5856 -0.0017
  395TMC3    O1 5911   2.315   1.853  14.954  0.0480  0.0409 -0.0584
  395TMC3    O2 5912   2.066   1.512  14.621 -0.1028 -0.0214 -0.9183
  396MPD2     C 5913   1.692   3.024  17.400 -0.4892  0.1628 -0.3615
  396MPD2    C1 5914   1.816   3.071  17.446 -0.0031 -1.0046  0.1860
  396MPD2    C2 5915   1.888   3.166  17.374  0.2297 -0.1803  0.0903
  396MPD2    C3 5916   1.833   3.206  17.250 -0.0178 -0.5251  0.2033
  396MPD2    C4 5917   1.707   3.166  17.213  0.1002 -0.4636  0.4364
  396MPD2    C5 5918   1.637   3.071  17.285 -0.1114 -0.6924  0.6445
  396MPD2     H 5919   1.985   3.209  17.400  0.9773 -2.0343  0.3375
  396MPD2    H1 5920   1.658   3.211  17.127 -0.2175  2.2346  2.0460
  396MPD2    H2 5921   1.634   2.945  17.446  0.2451  0.3373  0.8427
  396MPD2    H3 5922   1.541   3.029  17.258  0.6778 -0.5260 -2.3456
  396MPD2     N 5923   1.915   3.287  17.168  0.3283 -0.0540  0.8042
  396MPD2    H5 5924   2.007   3.307  17.206  0.0090 -1.3874  2.3197
  396MPD2    N1 5925   1.871   3.008  17.559  0.0904 -0.1548  0.2648
  396MPD2    H7 5926   1.826   2.920  17.581 -1.2516 -0.4552 -3.6057
  397TMC3    C1 5927   2.078   2.932  17.625  0.4461  0.3275 -0.7990
  397TMC3    C2 5928   2.180   2.970  17.540 -1.0359 -0.0023  0.7965
  397TMC3    C3 5929   2.176   2.904  17.421 -0.0727 -0.1007  0.1911
  397TMC3    C4 5930   2.021   2.811  17.606 -0.2741  0.2901 -0.2440
  397TMC3    C5 5931   2.055   2.735  17.504  0.1567 -0.3576 -0.2020
  397TMC3    C6 5932   2.117   2.780  17.396  0.8187 -0.2502 -0.1933
  397TMC3     C 5933   1.988   3.041  17.612  0.3368  0.9491  0.3143
  397TMC3     O 5934   2.045   3.149  17.618  0.6086 -0.5552 -0.4968
  397TMC3     H 5935   2.231   3.064  17.557 -1.4199  0.3043  0.2442
  397TMC3    H1 5936   1.937   2.783  17.669  1.0022 -1.4331  0.6873
  397TMC3    H2 5937   2.147   2.713  17.316  0.4832  1.4026 -1.7034
  397TMC3    C7 5938   1.992   2.608  17.508 -0.3271 -0.1049 -0.4807
  397TMC3    C8 5939   2.240   2.966  17.307 -0.0918  0.2173  0.2493
  397TMC3    O1 5940   1.932   2.568  17.405  0.1928 -0.0162  0.2910
  397TMC3    O2 5941   2.328   3.048  17.337 -0.3922  0.1876  0.1578
  398MPD2     C 5942   4.226   3.358   0.200  0.1151 -0.1391 -0.1440
  398MPD2    C1 5943   4.224   3.265   0.301 -0.4243  0.3774 -0.2009
  398MPD2    C2 5944   4.315   3.275   0.404 -0.1352 -0.5786  0.5086
  398MPD2    C3 5945   4.401   3.385   0.401  0.5463 -0.5260 -0.4814
  398MPD2    C4 5946   4.399   3.480   0.306  0.3459 -0.2932 -0.0297
  398MPD2    C5 5947   4.303   3.468   0.210 -0.4105 -0.1947  0.3869
  398MPD2     H 5948   4.308   3.203   0.484 -0.1521  1.4912  2.3682
  398MPD2    H1 5949   4.458   3.571   0.308 -0.2939  0.0874  1.3336
  398MPD2    H2 5950   4.168   3.344   0.110  1.4140 -2.5726 -0.6130
  398MPD2    H3 5951   4.302   3.541   0.130 -1.0953 -0.1359  0.4444
  398MPD2     N 5952   4.474   3.390   0.524 -0.1357  0.7237 -0.0582
  398MPD2    H5 5953   4.467   3.311   0.588 -3.1367  0.1954 -1.0242
  398MPD2    N1 5954   4.135   3.152   0.304  0.1903  0.1685 -0.3486
  398MPD2    H7 5955   4.149   3.081   0.375  0.2000 -0.8110 -1.3230
  399TMC3    C1 5956   3.972   2.995   0.239  0.5586  0.4492 -0.4134
  399TMC3    C2 5957   3.840   2.992   0.273 -0.0227 -0.0796 -0.1744
  399TMC3    C3 5958   3.806   2.882   0.345 -0.2170 -0.4315 -0.6154
  399TMC3    C4 5959   4.064   2.898   0.273  0.1735 -0.1645 -0.7501
  399TMC3    C5 5960   4.013   2.788   0.334  0.5119 -0.3811 -0.1174
  399TMC3    C6 5961   3.880   2.766   0.362 -0.5301  0.2150 -0.3303
  399TMC3     C 5962   4.032   3.123   0.213  0.1103 -0.4432  0.0671
  399TMC3     O 5963   4.005   3.172   0.106 -0.3491 -0.0492  0.2038
  399TMC3     H 5964   3.778   3.081   0.263  0.7849  0.4756 -0.2164
  399TMC3    H1 5965   4.167   2.908   0.243 -0.1517  1.0772 -1.4449
  399TMC3    H2 5966   3.846   2.672   0.405 -0.0732 -0.4938 -1.5202
  399TMC3    C7 5967   4.106   2.678   0.351  0.4715 -0.2108 -0.5637
  399TMC3    C8 5968   3.665   2.867   0.381  0.1988  0.2105  0.3683
  399TMC3    O1 5969   4.092   2.613   0.451  0.3603  0.2963 -1.0409
  399TMC3    O2 5970   3.633   2.752   0.413  0.6063 -0.4205  0.3029
  400TMC3    C1 5971   3.189   1.943  17.100 -0.3202 -0.4190  0.3282
  400TMC3    C2 5972   3.083   2.000  17.036  0.0559  0.0053 -0.0439
  400TMC3    C3 5973   3.094   2.128  17.009  0.1602 -0.0624  0.0591
  400TMC3    C4 5974   3.300   2.013  17.141  0.1139  0.0039 -0.4695
  400TMC3    C5 5975   3.302   2.150  17.120 -0.5735  0.0128  0.2531
  400TMC3    C6 5976   3.190   2.208  17.056  0.3132  0.0026 -0.7390
  400TMC3     C 5977   3.184   1.804  17.126 -0.6240 -0.1274 -0.4235
  400TMC3     O 5978   3.072   1.752  17.142 -0.2077 -0.4024  0.0112
  400TMC3     H 5979   3.010   1.931  16.996  1.0020 -1.3722  0.5628
  400TMC3    H1 5980   3.382   1.966  17.195 -0.0755  0.5227  0.2664
  400TMC3    H2 5981   3.182   2.311  17.024  0.1142 -0.0358 -0.8062
  400TMC3    C7 5982   3.410   2.239  17.170 -0.1572  0.2114 -0.7228
  400TMC3    C8 5983   2.975   2.203  16.963  0.4133 -0.5472  0.0512
  400TMC3    O1 5984   3.512   2.180  17.210  0.0755  0.3731 -0.8900
  400TMC3    O2 5985   2.987   2.325  16.946 -0.2462 -0.7228 -0.8446
  401MPD2     C 5986   0.637   0.387   1.670 -0.0023 -0.1670 -0.0242
  401MPD2    C1 5987   0.691   0.326   1.559  0.4251 -0.1413 -0.0840
  401MPD2    C2 5988   0.653   0.205   1.516 -0.2640  0.8935  0.1192
  401MPD2    C3 5989   0.566   0.131   1.592  0.1497 -0.2198  0.4813
  401MPD2    C4 5990   0.516   0.181   1.711  1.0778  0.3206  0.3110
  401MPD2    C5 5991   0.554   0.314   1.745  0.2729 -0.4240  0.2100
  401MPD2     H 5992   0.697   0.168   1.424  1.2229 -2.9194  2.3413
  401MPD2    H1 5993   0.435   0.136   1.767 -0.6885 -0.5076 -2.9208
  401MPD2    H2 5994   0.651   0.493   1.682  2.6933 -0.4067 -1.0893
  401MPD2    H3 5995   0.511   0.359   1.833  3.1512  0.8055  0.9988
  401MPD2     N 5996   0.530   4.716   1.550 -0.4359  0.0778  0.0101
  401MPD2    H5 5997   0.571   4.692   1.461 -0.0004  2.1845 -0.3492
  401MPD2    N1 5998   0.802   0.385   1.494 -0.4299  0.8777  0.4908
  401MPD2    H7 5999   0.813   0.347   1.400 -1.6722  0.0785  0.6794
  402TMC3    C1 6000   0.438   4.501   1.559 -0.0022  0.3964  0.3989
  402TMC3    C2 6001   0.495   4.399   1.634  0.3108 -0.1788  0.0431
  402TMC3    C3 6002   0.560   4.296   1.576 -0.8810  0.4968 -0.7697
  402TMC3    C4 6003   0.448   4.489   1.425 -0.0996 -0.2819 -0.4427
  402TMC3    C5 6004   0.526   4.392   1.368 -0.6251  0.1206  0.4148
  402TMC3    C6 6005   0.589   4.297   1.441  0.4194  0.2698  0.3567
  402TMC3     C 6006   0.456   4.627   1.622 -0.1040  0.3635 -0.2088
  402TMC3     O 6007   0.422   4.632   1.739 -0.4671  0.1047 -0.0228
  402TMC3     H 6008   0.496   4.409   1.742 -2.6135  1.6658 -0.0992
  402TMC3    H1 6009   0.398   4.565   1.366 -0.6243 -1.5306 -1.6251
  402TMC3    H2 6010   0.634   4.208   1.400  2.1784  0.8826  0.9947
  402TMC3    C7 6011   0.526   4.376   1.225 -0.2426  0.5487  0.2040
  402TMC3    C8 6012   0.653   4.219   1.658  0.1865 -0.0658  0.5964
  402TMC3    O1 6013   0.483   4.471   1.160  0.0259  0.2019  0.2587
  402TMC3    O2 6014   0.631   4.188   1.774 -0.0185  0.3036  0.2477
  403MPD2     C 6015   4.145   3.875  13.582 -0.3033 -0.0369  0.0202
  403MPD2    C1 6016   4.238   3.778  13.599  0.6298 -0.1466  0.5570
  403MPD2    C2 6017   4.348   3.804  13.683  0.0934 -0.2225  0.2156
  403MPD2    C3 6018   4.354   3.918  13.759 -0.0936  0.0969 -0.0779
  403MPD2    C4 6019   4.261   4.017  13.735  0.0310  0.5226 -0.5879
  403MPD2    C5 6020   4.152   3.987  13.656 -0.4977 -0.3601  0.4447
  403MPD2     H 6021   4.424   3.727  13.684 -0.3735 -0.6926 -1.0532
  403MPD2    H1 6022   4.278   4.110  13.788 -1.9477 -0.4839  1.8092
  403MPD2    H2 6023   4.053   3.865  13.526  1.0915 -0.5720 -2.1799
  403MPD2    H3 6024   4.070   4.054  13.631 -1.5058 -1.4850  0.7352
  403MPD2     N 6025   4.472   3.941  13.822  0.0476 -0.3140 -0.1255
  403MPD2    H5 6026   4.545   3.871  13.811  0.6146  0.4006 -0.8598
  403MPD2    N1 6027   4.232   3.649  13.540  0.0753  0.6971  0.4366
  403MPD2    H7 6028   4.301   3.584  13.575  0.3476  1.2624  0.9339
  404TMC3    C1 6029   4.218   3.499  13.377  0.2463 -0.0871  0.4793
  404TMC3    C2 6030   4.238   3.404  13.467  0.7216  1.0120 -0.6489
  404TMC3    C3 6031   4.292   3.283  13.425 -0.3018 -0.2152  0.3347
  404TMC3    C4 6032   4.246   3.485  13.246  0.2658 -0.1103 -0.3860
  404TMC3    C5 6033   4.306   3.369  13.202 -0.0090 -0.3177  0.2984
  404TMC3    C6 6034   4.332   3.267  13.292  0.0076 -0.5935 -0.0526
  404TMC3     C 6035   4.192   3.634  13.414 -0.8560 -0.8200  0.1739
  404TMC3     O 6036   4.136   3.709  13.335 -0.0089  0.9986 -0.8188
  404TMC3     H 6037   4.211   3.420  13.571 -3.5192 -0.4543 -1.4876
  404TMC3    H1 6038   4.237   3.568  13.177 -0.3517 -0.9317 -1.2871
  404TMC3    H2 6039   4.386   3.182  13.252 -0.4092 -0.2549 -1.3477
  404TMC3    C7 6040   4.356   3.369  13.063 -0.0523 -0.4225  0.5452
  404TMC3    C8 6041   4.328   3.182  13.519 -0.0796 -0.3048 -0.1374
  404TMC3    O1 6042   4.381   3.478  13.019  0.8070  0.3576  0.2351
  404TMC3    O2 6043   4.389   3.084  13.480  0.0331 -0.3926 -0.3191
  405MPD2     C 6044   0.033   4.186  14.478 -0.9320 -0.1688 -0.6056
  405MPD2    C1 6045   4.672   4.087  14.433 -0.1078  0.0641  0.6324
  405MPD2    C2 6046   4.543   4.123  14.402 -0.3244  0.6381 -0.8499
  405MPD2    C3 6047   4.502   4.260  14.406  0.3399 -0.8963 -0.7094
  405MPD2    C4 6048   4.589   4.360  14.443 -0.2511  0.6714 -0.1062
  405MPD2    C5 6049   4.710   4.315  14.492 -1.3964  0.6293  0.3988
  405MPD2     H 6050   4.475   4.043  14.374 -0.3840  0.5689 -0.5058
  405MPD2    H1 6051   4.556   4.461  14.462 -1.7846 -0.3809  2.8443
  405MPD2    H2 6052   0.133   4.170  14.516 -1.6634 -1.1334  0.9130
  405MPD2    H3 6053   0.066   4.380  14.536 -0.6958 -0.5931  0.9822
  405MPD2     N 6054   4.364   4.274  14.384  0.0356 -0.6521 -0.1931
  405MPD2    H5 6055   4.308   4.191  14.372 -0.0966 -0.8070  1.5305
  405MPD2    N1 6056   0.001   3.955  14.434 -0.5171  0.3019  0.2592
  405MPD2    H7 6057   0.086   3.937  14.486 -1.5674 -0.5495  1.6799
  406TMC3    C1 6058   3.951   4.385  14.501 -0.2823 -0.1922  0.2299
  406TMC3    C2 6059   3.913   4.254  14.476 -0.1518  0.0553 -0.0671
  406TMC3    C3 6060   3.994   4.184  14.396  0.4785  0.1310  0.4327
  406TMC3    C4 6061   4.066   4.439  14.453  0.5757 -0.7960  0.4633
  406TMC3    C5 6062   4.149   4.358  14.379  0.1551  0.4220  0.7317
  406TMC3    C6 6063   4.118   4.231  14.348 -0.3425  0.4646 -0.0314
  406TMC3     C 6064   3.859   4.472  14.580  0.2022  1.4839 -0.1368
  406TMC3     O 6065   3.882   4.593  14.602 -0.1286 -0.7925  0.3851
  406TMC3     H 6066   3.825   4.215  14.527 -0.8448  1.0749 -0.4758
  406TMC3    H1 6067   4.107   4.537  14.473 -0.4681 -0.6101  1.6727
  406TMC3    H2 6068   4.179   4.168  14.284 -2.3788  0.0522 -1.5629
  406TMC3    C7 6069   4.286   4.388  14.392  0.1056 -0.0100 -0.0284
  406TMC3    C8 6070   3.984   4.039  14.424 -0.0512  0.0882  0.3307
  406TMC3    O1 6071   4.320   4.502  14.427 -0.1796  0.0228  0.5827
  406TMC3    O2 6072   3.898   4.006  14.504  0.1989  0.1222  0.6939
  407MPD2     C 6073   2.750   0.587   9.052 -0.2178  0.2364  1.1256
  407MPD2    C1 6074   2.877   0.630   9.087  0.3988  0.7852 -0.5815
  407MPD2    C2 6075   2.895   0.689   9.215 -0.2440 -0.6265  1.1420
  407MPD2    C3 6076   2.790   0.708   9.305 -0.4625  0.6501 -0.8323
  407MPD2    C4 6077   2.661   0.677   9.259 -0.5019  0.2783 -0.1670
  407MPD2    C5 6078   2.643   0.621   9.133 -0.1472 -0.0364 -0.6898
  407MPD2     H 6079   2.993   0.728   9.240 -0.2087  0.9071 -1.2763
  407MPD2    H1 6080   2.573   0.687   9.322 -1.3812  0.5033 -1.4223
  407MPD2    H2 6081   2.743   0.546   8.952 -2.7015 -1.1081  1.8263
  407MPD2    H3 6082   2.545   0.577   9.115 -0.3899 -0.1600  0.9714
  407MPD2     N 6083   2.805   0.744   9.439  0.6072  0.1073 -0.0923
  407MPD2    H5 6084   2.712   0.761   9.475  0.4605  1.6528 -1.2293
  407MPD2    N1 6085   2.997   0.627   9.004  0.3971 -0.4200 -0.0106
  407MPD2    H7 6086   3.076   0.683   9.032 -1.0196  1.6263 -0.1050
  408TMC3    C1 6087   3.137   0.562   8.836  0.2513  0.4831  0.2401
  408TMC3    C2 6088   3.214   0.448   8.844 -0.1740  0.1715  0.0984
  408TMC3    C3 6089   3.350   0.464   8.830  1.2905  0.5328 -0.1433
  408TMC3    C4 6090   3.191   0.685   8.813  0.0417 -0.6169 -0.4245
  408TMC3    C5 6091   3.330   0.696   8.803  0.2618  0.4967 -0.8437
  408TMC3    C6 6092   3.414   0.586   8.823  0.1851 -0.3126  0.2744
  408TMC3     C 6093   3.017   0.540   8.896 -0.1200  0.4255 -0.0523
  408TMC3     O 6094   2.963   0.432   8.870  0.2288  0.1664 -0.7059
  408TMC3     H 6095   3.174   0.350   8.866 -0.6870  1.0051  2.7887
  408TMC3    H1 6096   3.122   0.769   8.810  0.0177 -0.5753  1.1741
  408TMC3    H2 6097   3.522   0.593   8.822 -0.0135  2.2005 -3.0391
  408TMC3    C7 6098   3.374   0.833   8.795  0.5744 -0.6909  0.4106
  408TMC3    C8 6099   3.428   0.352   8.881 -0.1342  0.5999 -0.1247
  408TMC3    O1 6100   3.288   0.926   8.787 -0.4501  0.5872 -0.5002
  408TMC3    O2 6101   3.398   0.234   8.862  0.1693 -0.0691  0.1170
  409MPD2     C 6102   1.647   1.875  16.873 -0.2341  0.5140  0.3412
  409MPD2    C1 6103   1.734   1.903  16.976  0.3481 -0.2358  0.1393
  409MPD2    C2 6104   1.854   1.966  16.944 -0.5268 -0.3407 -0.1495
  409MPD2    C3 6105   1.887   1.990  16.810 -0.1434  0.2750  0.3797
  409MPD2    C4 6106   1.797   1.958  16.710  0.0519  0.3537  0.1013
  409MPD2    C5 6107   1.669   1.912  16.741 -0.0275  0.3618  0.1025
  409MPD2     H 6108   1.920   1.983  17.028 -2.4772 -1.8596  1.6899
  409MPD2    H1 6109   1.820   1.977  16.606  0.5553 -0.1288  0.1245
  409MPD2    H2 6110   1.560   1.815  16.895 -0.6375  0.6399 -0.9191
  409MPD2    H3 6111   1.592   1.894  16.667 -0.7307  0.0086  0.9237
  409MPD2     N 6112   2.008   2.056  16.778 -0.1819  0.2741 -0.3107
  409MPD2    H5 6113   2.007   2.089  16.682  1.9842  0.2449 -0.3436
  409MPD2    N1 6114   1.715   1.854  17.108  0.0187 -0.0449  0.0920
  409MPD2    H7 6115   1.796   1.877  17.165  0.6118 -2.7256  0.3162
  410TMC3    C1 6116   2.187   2.198  16.818  0.5464  0.4518 -0.5938
  410TMC3    C2 6117   2.303   2.222  16.888  0.4579  0.5896 -0.0760
  410TMC3    C3 6118   2.370   2.336  16.861 -0.5946  0.8305 -0.3170
  410TMC3    C4 6119   2.135   2.284  16.728  0.3006  0.2116  0.0607
  410TMC3    C5 6120   2.205   2.398  16.706 -0.3427  0.2996  0.6487
  410TMC3    C6 6121   2.324   2.427  16.767 -1.0492 -0.3602  0.2041
  410TMC3     C 6122   2.099   2.097  16.867 -0.0936 -0.3175  0.3643
  410TMC3     O 6123   2.131   2.040  16.971 -0.5238  0.0979 -0.0667
  410TMC3     H 6124   2.338   2.157  16.967 -5.0718 -1.0703  0.9705
  410TMC3    H1 6125   2.042   2.271  16.675 -0.2122 -0.8690  1.2384
  410TMC3    H2 6126   2.375   2.519  16.741 -1.4610 -0.0922  0.3450
  410TMC3    C7 6127   2.136   2.503  16.633  0.3216 -0.8293 -0.5368
  410TMC3    C8 6128   2.484   2.356  16.943 -0.6625  0.2505 -0.1838
  410TMC3    O1 6129   2.016   2.502  16.623 -0.4784 -0.4901 -0.3184
  410TMC3    O2 6130   2.496   2.293  17.046 -0.0838  0.6885 -0.2936
  411MPD2     C 6131   2.400   3.202  14.469 -0.2575  0.2470  0.2924
  411MPD2    C1 6132   2.375   3.208  14.603 -0.0231 -0.7162  0.1797
  411MPD2    C2 6133   2.304   3.108  14.668  0.6372 -0.2818 -0.5404
  411MPD2    C3 6134   2.259   3.002  14.581  0.2392  0.4614 -0.6273
  411MPD2    C4 6135   2.279   3.003  14.444  0.1842 -0.4811 -0.7321
  411MPD2    C5 6136   2.345   3.107  14.390 -0.0537 -0.4048 -0.0432
  411MPD2     H 6137   2.293   3.106  14.776  4.2833 -0.2503 -0.1659
  411MPD2    H1 6138   2.213   2.950  14.376  0.7995 -1.5051 -0.5311
  411MPD2    H2 6139   2.443   3.291  14.424 -1.3693  0.2751 -0.7164
  411MPD2    H3 6140   2.352   3.115  14.283  2.0930 -2.5591 -0.0587
  411MPD2     N 6141   2.192   2.892  14.625  0.6377  0.7484 -0.1599
  411MPD2    H5 6142   2.154   2.829  14.555  0.2669  1.9720 -1.0663
  411MPD2    N1 6143   2.420   3.327  14.670  0.9327  0.8354 -0.3839
  411MPD2    H7 6144   2.486   3.381  14.615 -0.7888  0.1772 -3.1163
  412TMC3    C1 6145   2.025   2.788  14.751 -0.3328  0.0115  0.0901
  412TMC3    C2 6146   1.941   2.790  14.645  0.6571  0.5130 -0.0320
  412TMC3    C3 6147   1.828   2.721  14.665  0.0188  0.0461  0.0631
  412TMC3    C4 6148   1.999   2.724  14.875 -0.5428  0.6933  0.0896
  412TMC3    C5 6149   1.894   2.637  14.874 -0.4337 -0.1229  0.5339
  412TMC3    C6 6150   1.804   2.637  14.774 -0.3384 -0.1426  0.0116
  412TMC3     C 6151   2.135   2.881  14.748 -0.0493  0.7800  0.1397
  412TMC3     O 6152   2.162   2.932  14.854 -0.0373  0.4389  0.6456
  412TMC3     H 6153   1.958   2.843  14.553  2.4342  0.0340  0.0051
  412TMC3    H1 6154   2.070   2.720  14.957 -1.5541  1.1595  0.9800
  412TMC3    H2 6155   1.714   2.579  14.782 -1.4542  1.9283  2.4251
  412TMC3    C7 6156   1.937   2.500  14.906  1.1260 -0.3795  0.7852
  412TMC3    C8 6157   1.775   2.666  14.542  0.2101  0.2886  0.0407
  412TMC3    O1 6158   2.007   2.486  15.006  0.1649 -0.2736  0.1777
  412TMC3    O2 6159   1.652   2.635  14.543 -0.0334  0.1623 -0.3803
  413MPD2     C 6160   3.672   0.627  15.598  0.1363  0.5284 -0.2861
  413MPD2    C1 6161   3.637   0.563  15.478  0.9072  0.3418  0.6100
  413MPD2    C2 6162   3.731   0.482  15.407  0.6840 -0.4896  0.3994
  413MPD2    C3 6163   3.866   0.485  15.452  0.3258 -0.6889 -0.2284
  413MPD2    C4 6164   3.902   0.559  15.563  0.5418  0.1059 -0.1342
  413MPD2    C5 6165   3.805   0.627  15.633 -0.0576 -0.2816  0.6111
  413MPD2     H 6166   3.709   0.421  15.321  0.9897  2.3465 -1.6675
  413MPD2    H1 6167   4.002   0.573  15.600  0.6104 -0.7111 -0.0196
  413MPD2    H2 6168   3.600   0.692  15.647 -0.8636 -1.4523  0.8875
  413MPD2    H3 6169   3.828   0.690  15.718 -0.7189  0.4630  0.2437
  413MPD2     N 6170   3.957   0.416  15.369 -1.0725 -0.2992 -0.5400
  413MPD2    H5 6171   3.922   0.365  15.289 -1.3909 -1.3002  0.2330
  413MPD2    N1 6172   3.502   0.579  15.442  0.0499  0.3639  0.7859
  413MPD2    H7 6173   3.441   0.638  15.497 -0.4663  0.9251 -0.3867
  414TMC3    C1 6174   4.141   0.296  15.305  0.0178  0.0838 -0.5807
  414TMC3    C2 6175   4.253   0.223  15.344  0.1412 -0.2729 -0.2534
  414TMC3    C3 6176   4.295   0.116  15.275 -0.3725 -0.2781 -0.0812
  414TMC3    C4 6177   4.070   0.255  15.195  0.4192  0.3594 -0.9104
  414TMC3    C5 6178   4.109   0.140  15.134 -0.0655  0.1393 -0.0949
  414TMC3    C6 6179   4.213   0.066  15.184  0.0978 -0.3890  0.3982
  414TMC3     C 6180   4.092   0.396  15.393  0.1556 -0.1786  0.0476
  414TMC3     O 6181   4.158   0.429  15.492 -0.1121 -0.3794  0.3096
  414TMC3     H 6182   4.323   0.264  15.416  0.8773 -1.1468 -0.4746
  414TMC3    H1 6183   4.003   0.322  15.142  1.1746  2.0797  0.2847
  414TMC3    H2 6184   4.239   4.693  15.132 -2.8029 -0.2142 -1.3892
  414TMC3    C7 6185   4.036   0.112  15.012 -0.5914 -0.4815 -1.0423
  414TMC3    C8 6186   4.423   0.054  15.286  1.1308 -0.2719  0.8697
  414TMC3    O1 6187   3.921   0.154  15.010  0.3146 -0.6526 -0.5255
  414TMC3    O2 6188   4.450   4.677  15.208 -0.6101 -0.1969  0.1256
  415TMC3    C1 6189   0.208   1.932  10.045 -0.8890 -0.4284  0.5212
  415TMC3    C2 6190   0.201   2.052   9.984  0.0448 -0.4017  0.2254
  415TMC3    C3 6191   0.147   2.052   9.856 -0.4466 -0.3859  0.1244
  415TMC3    C4 6192   0.170   1.813   9.985 -0.1898 -0.2718 -0.0163
  415TMC3    C5 6193   0.116   1.818   9.861  0.1447 -0.5176  0.2506
  415TMC3    C6 6194   0.104   1.941   9.794  0.0781 -0.5237  0.0103
  415TMC3     C 6195   0.264   1.917  10.174  0.1328 -0.2416 -0.7910
  415TMC3     O 6196   0.293   1.803  10.205 -0.0576 -0.1259  0.0233
  415TMC3     H 6197   0.238   2.146  10.026 -0.0351  0.1075 -0.8606
  415TMC3    H1 6198   0.168   1.720  10.039  1.0965  0.3268  1.0654
  415TMC3    H2 6199   0.060   1.931   9.695 -1.4533  0.4880  0.5853
  415TMC3    C7 6200   0.056   1.702   9.794  0.1181 -0.3361  0.2678
  415TMC3    C8 6201   0.109   2.176   9.794  0.2913 -0.1082 -0.7822
  415TMC3    O1 6202   4.697   1.722   9.704  0.2488  0.0482 -0.2674
  415TMC3    O2 6203   0.034   2.169   9.700  0.2122  0.2927 -0.1770
  416MPD2     C 6204   2.073   1.901  11.836  0.9623  0.4610 -0.4176
  416MPD2    C1 6205   1.951   1.877  11.775 -0.5969  0.1435  0.1480
  416MPD2    C2 6206   1.948   1.805  11.656  0.0023 -0.0849  0.0234
  416MPD2    C3 6207   2.061   1.753  11.602 -0.3238 -0.2973  0.3541
  416MPD2    C4 6208   2.184   1.786  11.662 -0.4380  0.3029 -0.7871
  416MPD2    C5 6209   2.186   1.863  11.775  0.3906 -0.3744 -0.7895
  416MPD2     H 6210   1.855   1.801  11.599 -0.9075  4.1098  1.2199
  416MPD2    H1 6211   2.278   1.742  11.630 -0.2229  1.0974 -1.2321
  416MPD2    H2 6212   2.079   1.956  11.929  1.2933 -1.1983  0.5267
  416MPD2    H3 6213   2.282   1.882  11.824 -0.9866  2.0653  0.9822
  416MPD2     N 6214   2.060   1.665  11.488  0.1193  0.1557  0.5698
  416MPD2    H5 6215   2.151   1.625  11.469  0.1085 -0.1822  1.2429
  416MPD2    N1 6216   1.839   1.937  11.834 -0.0434  0.1658 -0.4002
  416MPD2    H7 6217   1.846   2.002  11.910 -1.2166  1.9829 -1.8428
  417TMC3    C1 6218   1.616   2.008  11.866  0.8937  0.1831  0.4888
  417TMC3    C2 6219   1.637   2.038  11.995 -0.7338 -1.2354 -0.2179
  417TMC3    C3 6220   1.545   2.121  12.052  0.8221 -0.1618  0.9191
  417TMC3    C4 6221   1.512   2.053  11.789  0.2637 -0.3693 -0.7886
  417TMC3    C5 6222   1.418   2.129  11.852 -0.1398 -0.2138 -0.3864
  417TMC3    C6 6223   1.439   2.179  11.972 -0.1400  0.3275  0.4721
  417TMC3     C 6224   1.708   1.929  11.793 -0.2795  0.4270 -0.3414
  417TMC3     O 6225   1.668   1.852  11.707 -0.3384 -0.1182  0.4949
  417TMC3     H 6226   1.702   1.975  12.054  0.6681  1.2097  0.8510
  417TMC3    H1 6227   1.491   2.011  11.692 -1.8177 -0.1954 -0.4218
  417TMC3    H2 6228   1.358   2.229  12.025 -0.2070  2.3189 -1.5390
  417TMC3    C7 6229   1.314   2.186  11.760 -0.1923  0.6426 -0.1908
  417TMC3    C8 6230   1.544   2.161  12.192  0.0975 -0.4003 -0.5195
  417TMC3    O1 6231   1.293   2.308  11.756  0.5472  0.7376 -0.2675
  417TMC3    O2 6232   1.444   2.215  12.237 -0.1753 -0.2586 -0.1487
  418TMC3    C1 6233   4.623   3.346   0.884  0.4858 -0.4640  0.7282
  418TMC3    C2 6234   4.623   3.356   0.741 -0.1252  0.0257 -0.3589
  418TMC3    C3 6235   4.603   3.482   0.699  0.4107  0.7664 -0.3981
  418TMC3    C4 6236   4.588   3.444   0.973  0.5202 -0.3506  0.1564
  418TMC3    C5 6237   4.560   3.569   0.919 -0.2974  0.0565  1.1436
  418TMC3    C6 6238   4.564   3.589   0.782  0.2131  0.5029 -0.3720
  418TMC3     C 6239   4.639   3.211   0.927 -0.3307 -0.7332 -0.7251
  418TMC3     O 6240   4.706   3.141   0.853 -0.8195  0.7043  0.3381
  418TMC3     H 6241   4.637   3.267   0.681 -1.8770  0.8406 -1.9862
  418TMC3    H1 6242   4.593   3.440   1.082 -1.2864 -0.1627  0.2392
  418TMC3    H2 6243   4.540   3.685   0.738  1.5970  0.0581 -2.1042
  418TMC3    C7 6244   4.442   3.625   0.982  0.0797  0.5310  0.1027
  418TMC3    C8 6245   4.563   3.492   0.558 -0.0422 -0.4335  0.3721
  418TMC3    O1 6246   4.352   3.543   1.000 -0.1416 -0.8837  0.2725
  418TMC3    O2 6247   4.606   3.585   0.490 -0.2556 -1.0334  0.2131
  419MPD2     C 6248   4.413   2.601  12.438 -0.2539  0.3146 -0.5530
  419MPD2    C1 6249   4.300   2.519  12.461 -1.3056  0.2461 -0.4793
  419MPD2    C2 6250   4.239   2.531  12.583  0.2081 -0.0896 -0.8947
  419MPD2    C3 6251   4.282   2.626  12.679  0.6323 -0.0636  0.4830
  419MPD2    C4 6252   4.381   2.719  12.647 -0.3552 -0.2488  0.0351
  419MPD2    C5 6253   4.450   2.701  12.529  0.3610 -0.3925  0.2028
  419MPD2     H 6254   4.161   2.460  12.608 -0.4479  1.4424  1.4475
  419MPD2    H1 6255   4.405   2.806  12.707  1.9584 -0.7788 -0.1121
  419MPD2    H2 6256   4.479   2.594  12.353  0.2238 -0.1970 -0.1393
  419MPD2    H3 6257   4.534   2.767  12.515 -2.6583  2.4449 -4.5064
  419MPD2     N 6258   4.219   2.625  12.811  0.0162 -0.3009 -0.1385
  419MPD2    H5 6259   4.140   2.563  12.824 -2.1834  2.3416 -0.8312
  419MPD2    N1 6260   4.247   2.431  12.363  0.4271  1.0449 -0.8606
  419MPD2    H7 6261   4.156   2.389  12.382  1.1240  0.0127  0.2239
  420TMC3    C1 6262   4.202   2.652  13.046 -0.2767 -0.7836  0.6661
  420TMC3    C2 6263   4.063   2.623  13.026  0.0242  0.6410 -0.1719
  420TMC3    C3 6264   3.993   2.561  13.124 -0.2136 -0.1932  0.0132
  420TMC3    C4 6265   4.283   2.619  13.159  0.0282  0.6259  0.2637
  420TMC3    C5 6266   4.197   2.563  13.253 -0.3429 -0.3579  0.5078
  420TMC3    C6 6267   4.066   2.524  13.239  0.5583  0.3308  0.3035
  420TMC3     C 6268   4.279   2.674  12.924  0.1658 -0.9221 -0.6357
  420TMC3     O 6269   4.397   2.706  12.934  0.1230  0.2108  0.4562
  420TMC3     H 6270   4.007   2.648  12.936  2.1500  1.9161 -1.1533
  420TMC3    H1 6271   4.389   2.640  13.167 -0.2988  1.4652  2.5133
  420TMC3    H2 6272   4.010   2.493  13.327 -1.4439 -0.4285 -1.2324
  420TMC3    C7 6273   4.265   2.561  13.380  0.6732 -0.1840  0.0705
  420TMC3    C8 6274   3.854   2.526  13.091  0.0760  0.0688 -0.4606
  420TMC3    O1 6275   4.384   2.596  13.385 -0.4715 -0.5491  0.1874
  420TMC3    O2 6276   3.807   2.582  12.992 -0.3617  0.6573 -0.5379
  421TMC3    C1 6277   4.636   4.035  13.948  0.7775 -0.4471 -0.1727
  421TMC3    C2 6278   4.707   4.149  13.994  0.0421 -0.3085 -0.3008
  421TMC3    C3 6279   0.101   4.130  14.066  0.5352  0.1845  0.0434
  421TMC3    C4 6280   4.678   3.912  13.979 -0.2797  0.3152  0.9286
  421TMC3    C5 6281   0.089   3.901  14.043 -1.0342  0.0997  0.0346
  421TMC3    C6 6282   0.155   4.005  14.093  0.0817 -0.9321  0.3804
  421TMC3     C 6283   4.504   4.056  13.899  0.3640  0.1098 -0.2094
  421TMC3     O 6284   4.431   4.141  13.956  0.0452  0.5697  0.6036
  421TMC3     H 6285   4.676   4.246  13.957  1.5301  0.2106 -0.1705
  421TMC3    H1 6286   4.636   3.820  13.938 -0.4188  0.6123  0.4151
  421TMC3    H2 6287   0.256   3.990  14.130 -0.6584 -0.0365  2.7230
  421TMC3    C7 6288   0.172   3.783  14.006 -0.5289  0.5715  0.9528
  421TMC3    C8 6289   0.188   4.240  14.093  0.4315  0.5159  0.6568
  421TMC3    O1 6290   0.260   3.755  14.082  0.3050  0.0289  0.0147
  421TMC3    O2 6291   0.304   4.200  14.090  0.0598  0.2014  0.4180
  422TMC3    C1 6292   2.851   0.263  12.284  0.7596  0.0785 -0.2226
  422TMC3    C2 6293   2.785   0.385  12.295  0.5122 -0.1381 -0.1337
  422TMC3    C3 6294   2.656   0.382  12.324  0.1295  0.3457  0.7193
  422TMC3    C4 6295   2.793   0.145  12.301  0.2521  0.6352 -0.0666
  422TMC3    C5 6296   2.662   0.147  12.340  0.6164 -0.0686  0.6479
  422TMC3    C6 6297   2.589   0.263  12.346  0.1801  0.2894  0.5622
  422TMC3     C 6298   2.954   0.264  12.186  0.2103  0.8618  0.3168
  422TMC3     O 6299   2.954   0.361  12.113  0.1892 -0.1695 -0.5555
  422TMC3     H 6300   2.832   0.482  12.284  1.2819 -0.7914 -2.6673
  422TMC3    H1 6301   2.835   0.048  12.277 -0.5179  0.1416  0.5537
  422TMC3    H2 6302   2.481   0.251  12.349  0.2271 -0.7610 -1.5298
  422TMC3    C7 6303   2.590   0.020  12.370 -1.1068  0.6538 -0.3695
  422TMC3    C8 6304   2.585   0.506  12.339 -0.0077 -0.0515 -0.5257
  422TMC3    O1 6305   2.650   4.634  12.353  0.3920  0.4332 -0.2163
  422TMC3    O2 6306   2.656   0.609  12.335 -0.6760  0.1559  0.1768
  423MPD2     C 6307   3.478   1.785   0.337  0.1658 -0.1514 -0.6221
  423MPD2    C1 6308   3.517   1.682   0.427 -0.7568  0.1720 -0.1545
  423MPD2    C2 6309   3.564   1.563   0.371 -0.1241 -0.1915 -0.2960
  423MPD2    C3 6310   3.585   1.549   0.236 -0.3993 -0.3013 -0.4092
  423MPD2    C4 6311   3.537   1.644   0.154 -0.7361  0.0501 -0.0067
  423MPD2    C5 6312   3.494   1.758   0.205  0.0838  0.1717  0.4029
  423MPD2     H 6313   3.592   1.476   0.429 -0.2836 -1.7354 -2.5123
  423MPD2    H1 6314   3.532   1.633   0.046 -2.1170 -1.6508  0.2267
  423MPD2    H2 6315   3.441   1.880   0.373  0.2306 -0.8497  1.2954
  423MPD2    H3 6316   3.475   1.833   0.129  0.6561  0.3516  0.4331
  423MPD2     N 6317   3.654   1.444   0.170  0.1695  0.8610 -1.2284
  423MPD2    H5 6318   3.655   1.457   0.070 -1.6045  3.2495 -0.9292
  423MPD2    N1 6319   3.519   1.717   0.567  0.5356 -0.5433  0.5344
  423MPD2    H7 6320   3.479   1.809   0.587  1.1988  0.1252 -1.2177
  424TMC3    C1 6321   3.531   1.689   0.798 -0.0483 -0.1810 -0.2202
  424TMC3    C2 6322   3.593   1.641   0.908  0.1197 -0.9956  0.6389
  424TMC3    C3 6323   3.529   1.645   1.025 -0.0884 -0.1119  0.3449
  424TMC3    C4 6324   3.406   1.734   0.806 -0.3050 -0.7437  0.7127
  424TMC3    C5 6325   3.339   1.738   0.926  0.6400 -0.0439 -0.7308
  424TMC3    C6 6326   3.401   1.692   1.042 -0.1319 -0.1940  0.1231
  424TMC3     C 6327   3.579   1.643   0.666  0.8189  0.8688 -0.1191
  424TMC3     O 6328   3.659   1.550   0.655 -0.8263 -0.0047 -0.1209
  424TMC3     H 6329   3.693   1.602   0.896  0.0596 -0.5665 -1.2597
  424TMC3    H1 6330   3.358   1.783   0.721  0.1822 -0.6817  0.4720
  424TMC3    H2 6331   3.347   1.699   1.135  2.1292  0.4925  1.3806
  424TMC3    C7 6332   3.205   1.802   0.934  1.2268  0.3356  0.2008
  424TMC3    C8 6333   3.589   1.583   1.144 -0.0941  0.4933  0.2426
  424TMC3    O1 6334   3.168   1.859   0.832 -0.2118  0.2499  0.3470
  424TMC3    O2 6335   3.512   1.531   1.224 -0.1751 -0.3719  0.2850
  425MPD2     C 6336   2.447   0.476  17.597  0.8415  0.4225  0.3631
  425MPD2    C1 6337   2.460   0.424  17.475 -0.0281  0.3924 -0.2805
  425MPD2    C2 6338   2.345   0.368  17.420 -0.2592 -0.1977 -0.0948
  425MPD2    C3 6339   2.226   0.360  17.480 -0.4795 -0.3139 -0.0877
  425MPD2    C4 6340   2.213   0.421  17.604  0.0063 -0.3820 -0.3324
  425MPD2    C5 6341   2.327   0.466  17.663 -0.1954  0.5511 -0.1147
  425MPD2     H 6342   2.347   0.325  17.321  1.3934  2.5352 -1.2376
  425MPD2    H1 6343   2.115   0.428  17.651  0.7742 -0.1873  1.2461
  425MPD2    H2 6344   2.532   0.519  17.649  0.7608  1.4837 -0.3973
  425MPD2    H3 6345   2.324   0.515   0.082 -0.6691  3.0398 -1.3870
  425MPD2     N 6346   2.132   0.286  17.415 -0.0127  0.1582  0.5346
  425MPD2    H5 6347   2.150   0.254  17.320 -1.1019 -0.2609  0.4724
  425MPD2    N1 6348   2.589   0.413  17.418 -0.0834  0.7569 -0.9853
  425MPD2    H7 6349   2.668   0.422  17.481 -0.4782  0.7612 -0.4872
  426TMC3    C1 6350   2.755   0.331  17.257 -0.1535 -0.5285  0.1352
  426TMC3    C2 6351   2.769   0.272  17.135 -0.1318  0.3185  0.4139
  426TMC3    C3 6352   2.868   0.179  17.121 -0.0849  0.3503  0.2427
  426TMC3    C4 6353   2.829   0.290  17.364  0.4680  0.1686 -0.8854
  426TMC3    C5 6354   2.928   0.201  17.340 -0.0609  0.4984  0.1897
  426TMC3    C6 6355   2.956   0.152  17.220 -0.0240  0.0793  0.0884
  426TMC3     C 6356   2.620   0.368  17.286 -0.3070  0.4798  0.7993
  426TMC3     O 6357   2.542   0.366  17.193 -0.1492 -0.0318 -0.0813
  426TMC3     H 6358   2.708   0.292  17.049  0.8476  2.5978  0.2533
  426TMC3    H1 6359   2.823   0.343  17.458  1.0217  0.0591 -0.7841
  426TMC3    H2 6360   3.040   0.084  17.209 -0.3224 -0.0314 -1.4591
  426TMC3    C7 6361   3.021   0.153  17.450  0.2081  0.6302 -0.2403
  426TMC3    C8 6362   2.882   0.088  17.003 -0.1519 -0.3139 -0.4040
  426TMC3    O1 6363   3.133   0.109  17.422 -0.2495 -0.2376  0.0338
  426TMC3    O2 6364   2.979   0.012  16.993  0.2549  0.0779 -0.3253
  427MPD2     C 6365   1.290   2.902  15.229  0.4695 -0.2441 -0.0950
  427MPD2    C1 6366   1.274   2.812  15.327  0.5055  0.3580  0.2114
  427MPD2    C2 6367   1.143   2.788  15.363  0.3161  0.2352 -0.3809
  427MPD2    C3 6368   1.047   2.859  15.305  0.0456 -0.0558  0.7149
  427MPD2    C4 6369   1.066   2.950  15.202 -0.1337 -0.7814  0.2669
  427MPD2    C5 6370   1.190   2.974  15.166 -0.2699 -0.3101  0.0850
  427MPD2     H 6371   1.125   2.712  15.437  0.6784  1.5419  1.0477
  427MPD2    H1 6372   0.983   3.004  15.158  0.2768 -1.0601 -0.8401
  427MPD2    H2 6373   1.390   2.920  15.192  1.8580  1.8894  4.7891
  427MPD2    H3 6374   1.207   3.054  15.095 -1.2354 -1.2282 -1.1952
  427MPD2     N 6375   0.909   2.835  15.323 -0.2870 -0.5117  0.1467
  427MPD2    H5 6376   0.847   2.902  15.279  3.1961  1.4976 -1.6984
  427MPD2    N1 6377   1.375   2.739  15.390  0.3412  0.0873  1.1512
  427MPD2    H7 6378   1.342   2.679  15.466  1.4019 -1.4673  0.3733
  428TMC3    C1 6379   1.593   2.638  15.418  0.7092 -0.2091 -0.0698
  428TMC3    C2 6380   1.551   2.505  15.442  0.2511 -0.2678  0.0131
  428TMC3    C3 6381   1.644   2.419  15.489  0.0545 -0.2252  0.0215
  428TMC3    C4 6382   1.732   2.667  15.418 -0.0397  0.2989  0.2832
  428TMC3    C5 6383   1.825   2.580  15.456  0.5663 -0.0957  0.1827
  428TMC3    C6 6384   1.778   2.455  15.488  0.5063 -0.3938 -0.1080
  428TMC3     C 6385   1.513   2.735  15.354  0.0299  0.8428  0.6809
  428TMC3     O 6386   1.572   2.806  15.276 -0.0213  0.5122  1.1441
  428TMC3     H 6387   1.449   2.483  15.415  0.1305 -0.1924  0.3992
  428TMC3    H1 6388   1.763   2.769  15.400 -0.8577  0.1441 -2.0758
  428TMC3    H2 6389   1.844   2.372  15.511  2.4147 -0.0988 -4.5105
  428TMC3    C7 6390   1.966   2.593  15.433 -0.1134  0.3914 -0.7978
  428TMC3    C8 6391   1.606   2.290  15.540 -0.3411 -0.1924  0.4475
  428TMC3    O1 6392   2.038   2.510  15.480  0.2392 -0.2832  0.0923
  428TMC3    O2 6393   1.693   2.202  15.535 -0.4290  0.2703 -0.3784
  429MPD2     C 6394   2.630   2.906  17.486  0.7770  0.2722  0.2550
  429MPD2    C1 6395   2.641   2.875  17.351  0.4501  0.5940  0.2835
  429MPD2    C2 6396   2.731   2.943  17.276  0.8597 -0.8248 -0.0725
  429MPD2    C3 6397   2.829   3.024  17.339 -0.1647 -0.6615 -0.3858
  429MPD2    C4 6398   2.823   3.043  17.476 -0.4813  0.2001  0.1776
  429MPD2    C5 6399   2.726   2.984  17.543 -0.3961  0.0077  0.3188
  429MPD2     H 6400   2.735   2.944  17.168 -0.6531 -0.1300 -0.1094
  429MPD2    H1 6401   2.887   3.110  17.533 -0.7497  0.4663  0.1673
  429MPD2    H2 6402   2.547   2.865  17.541  0.5690 -2.3724 -1.9933
  429MPD2    H3 6403   2.706   3.009  17.646 -2.0261  0.4401 -0.1048
  429MPD2     N 6404   2.929   3.074  17.255 -0.5407  0.1836  0.4605
  429MPD2    H5 6405   2.914   3.085  17.155 -1.9510 -0.4354  0.6037
  429MPD2    N1 6406   2.564   2.782  17.282 -0.6142 -0.0531 -0.4250
  429MPD2    H7 6407   2.579   2.768  17.183 -3.6152 -0.0553 -0.8755
  430TMC3    C1 6408   3.146   3.139  17.189  0.0716 -0.2617  0.1778
  430TMC3    C2 6409   3.111   3.190  17.063 -0.4026 -0.0089 -0.6286
  430TMC3    C3 6410   3.184   3.157  16.956  0.0702 -0.1520  0.4816
  430TMC3    C4 6411   3.259   3.060  17.199 -0.0817 -0.4114  0.4512
  430TMC3    C5 6412   3.326   3.023  17.084 -0.0102  0.0647 -0.7312
  430TMC3    C6 6413   3.293   3.071  16.961 -0.0244  0.5446 -0.8904
  430TMC3     C 6414   3.051   3.120  17.293  0.0044  0.2024  0.3769
  430TMC3     O 6415   3.094   3.129  17.407 -0.6503  0.3671 -0.1256
  430TMC3     H 6416   3.020   3.245  17.045 -0.3861  0.4424  0.6976
  430TMC3    H1 6417   3.286   3.021  17.297  0.8392  1.1634  0.8204
  430TMC3    H2 6418   3.356   3.036  16.880  1.2079  0.6041  0.0401
  430TMC3    C7 6419   3.370   2.889  17.092  0.6604  0.2599 -0.0251
  430TMC3    C8 6420   3.126   3.172  16.819 -0.3172  0.0261 -0.8122
  430TMC3    O1 6421   3.386   2.827  16.987 -0.6170  0.3206 -0.5298
  430TMC3    O2 6422   3.161   3.089  16.732  0.3528 -0.3250  0.3221
  431MPD2     C 6423   3.599   2.435  12.456  0.6562  0.1489 -0.5278
  431MPD2    C1 6424   3.667   2.515  12.356 -0.0118 -0.4269 -0.2377
  431MPD2    C2 6425   3.724   2.445  12.248 -0.0285 -0.2349 -0.2463
  431MPD2    C3 6426   3.726   2.308  12.245 -0.1531 -0.5099  0.1649
  431MPD2    C4 6427   3.658   2.234  12.341  0.5005  0.3712  0.1694
  431MPD2    C5 6428   3.582   2.300  12.433 -0.8219 -0.5077  0.2416
  431MPD2     H 6429   3.783   2.498  12.174  0.7575  0.3000  0.7486
  431MPD2    H1 6430   3.660   2.126  12.346  2.4505  0.3698 -0.5237
  431MPD2    H2 6431   3.561   2.477  12.548  4.5545 -1.4302  1.7928
  431MPD2    H3 6432   3.541   2.238  12.511 -3.5878 -0.6209 -1.3272
  431MPD2     N 6433   3.817   2.234  12.165  0.4715  0.6120  0.3350
  431MPD2    H5 6434   3.854   2.149  12.206  1.2665  1.0954  0.6261
  431MPD2    N1 6435   3.711   2.649  12.370  0.5085  0.1628  0.6801
  431MPD2    H7 6436   3.777   2.664  12.294 -0.0640  0.8540  0.3237
  432TMC3    C1 6437   4.031   2.255  12.059 -0.2620  0.0425  0.3125
  432TMC3    C2 6438   4.082   2.231  11.938 -0.4841 -0.5387  0.2557
  432TMC3    C3 6439   4.221   2.244  11.926  0.3661 -0.7246  0.5409
  432TMC3    C4 6440   4.114   2.296  12.164 -0.7275 -0.3249 -0.3509
  432TMC3    C5 6441   4.246   2.312  12.151 -0.4507 -0.4819 -0.5422
  432TMC3    C6 6442   4.307   2.286  12.029  0.3897 -0.2509 -0.0206
  432TMC3     C 6443   3.891   2.290  12.061  0.3020  0.2522 -0.2265
  432TMC3     O 6444   3.860   2.382  11.987  0.3340 -0.6419 -0.6734
  432TMC3     H 6445   4.022   2.212  11.850 -1.1608  0.4863  0.5036
  432TMC3    H1 6446   4.054   2.322  12.251 -0.4454 -0.2146 -0.1894
  432TMC3    H2 6447   4.413   2.306  12.019  0.9041 -2.6903  0.7380
  432TMC3    C7 6448   4.317   2.386  12.251 -0.6670  0.7766 -0.1433
  432TMC3    C8 6449   4.287   2.261  11.795 -0.0417 -0.4465  0.5314
  432TMC3    O1 6450   4.433   2.410  12.221  0.2631 -0.3654 -0.0499
  432TMC3    O2 6451   4.209   2.292  11.704  0.5718  0.0160  0.1385
  433MPD2     C 6452   2.673   1.014  10.622  0.2848 -0.4688  0.9630
  433MPD2    C1 6453   2.713   0.884  10.656  0.6436  0.5449 -0.1695
  433MPD2    C2 6454   2.769   0.859  10.780 -0.1916  0.4603  0.3964
  433MPD2    C3 6455   2.773   0.960  10.878 -0.2588  1.3012  0.3980
  433MPD2    C4 6456   2.741   1.088  10.841  0.1457 -0.4411 -0.1722
  433MPD2    C5 6457   2.691   1.115  10.718 -0.2238  0.1178  0.5466
  433MPD2     H 6458   2.822   0.766  10.796 -1.4780 -0.7666 -2.4909
  433MPD2    H1 6459   2.744   1.164  10.919  0.4250  0.1630 -0.7759
  433MPD2    H2 6460   2.645   1.040  10.521  0.2561  1.3039  1.4288
  433MPD2    H3 6461   2.674   1.220  10.697 -0.8237  0.3800  2.3774
  433MPD2     N 6462   2.819   0.926  11.007 -0.3355 -0.1623 -0.1397
  433MPD2    H5 6463   2.822   0.827  11.027 -0.7711 -0.5162 -1.7560
  433MPD2    N1 6464   2.710   0.775  10.568 -0.1341  0.0961 -0.6359
  433MPD2    H7 6465   2.694   0.798  10.470 -0.1001  2.3120 -0.1101
  434TMC3    C1 6466   2.761   0.551  10.495 -0.0345 -0.1694 -0.1942
  434TMC3    C2 6467   2.843   0.445  10.531 -0.0854  0.4021  0.0728
  434TMC3    C3 6468   2.954   0.416  10.453  0.3472  0.3981  0.2633
  434TMC3    C4 6469   2.780   0.613  10.374 -0.4255  0.0057 -0.2913
  434TMC3    C5 6470   2.882   0.567  10.291 -0.5929  0.0752 -0.6391
  434TMC3    C6 6471   2.974   0.479  10.331  0.0048 -0.0253  0.3702
  434TMC3     C 6472   2.713   0.643  10.605 -0.7414  0.2138 -0.3214
  434TMC3     O 6473   2.697   0.598  10.721 -0.3252 -0.2424 -0.4988
  434TMC3     H 6474   2.842   0.407  10.632  0.1715 -0.0522 -0.0966
  434TMC3    H1 6475   2.716   0.691  10.336 -0.1509  1.1562  1.6374
  434TMC3    H2 6476   3.047   0.435  10.264 -0.7196  1.9346 -1.7088
  434TMC3    C7 6477   2.848   0.559  10.151  0.1950  0.0117 -0.1500
  434TMC3    C8 6478   3.065   0.344  10.520  0.3157 -0.7730  0.2845
  434TMC3    O1 6479   2.809   0.660  10.101  0.1292 -0.1550 -0.2835
  434TMC3    O2 6480   3.035   0.296  10.630 -0.2919 -0.5053  0.7734
  435MPD2     C 6481   4.130   1.120  15.480 -0.3416 -0.0352 -0.3517
  435MPD2    C1 6482   4.116   1.060  15.606  0.4296 -0.6234  0.0026
  435MPD2    C2 6483   4.223   1.032  15.676  0.2245  0.7128  0.3742
  435MPD2    C3 6484   4.349   1.067  15.642 -0.2554  0.4205 -0.2421
  435MPD2    C4 6485   4.360   1.120  15.518 -0.1404  0.4928  0.1008
  435MPD2    C5 6486   4.256   1.140  15.433  0.4869 -0.0570  0.5594
  435MPD2     H 6487   4.204   0.995  15.776  0.4557 -0.7205 -0.1199
  435MPD2    H1 6488   4.456   1.136  15.470  0.1924 -0.6635  0.3666
  435MPD2    H2 6489   4.043   1.134  15.416 -0.3653  1.2874 -0.0229
  435MPD2    H3 6490   4.268   1.184  15.335  1.0112 -3.6645 -1.0094
  435MPD2     N 6491   4.455   1.031  15.724  0.6531 -0.1020 -0.0901
  435MPD2    H5 6492   4.445   0.985  15.814 -0.1193 -0.0889 -0.1700
  435MPD2    N1 6493   3.989   1.022  15.666  0.5224 -0.3394  0.0226
  435MPD2    H7 6494   3.996   0.983  15.759 -0.6300 -2.0760 -0.6297
  436TMC3    C1 6495   3.616   1.012  15.875 -0.9930  0.3818 -0.1367
  436TMC3    C2 6496   3.739   1.012  15.816  0.6119  0.0831  0.2199
  436TMC3    C3 6497   3.748   0.995  15.678  0.3116  0.9641 -0.0146
  436TMC3    C4 6498   3.495   1.005  15.804 -0.3027  0.0153 -0.9540
  436TMC3    C5 6499   3.512   0.988  15.669 -0.1808 -0.2301 -0.1338
  436TMC3    C6 6500   3.634   0.981  15.603 -0.1238 -0.4487  0.1968
  436TMC3     C 6501   3.606   1.017  16.020  0.3529 -0.0050 -0.1881
  436TMC3     O 6502   3.690   0.948  16.081 -0.1827 -0.8310  0.1539
  436TMC3     H 6503   3.822   1.046  15.876 -1.3377  1.7416  1.9883
  436TMC3    H1 6504   3.406   1.021  15.863  1.1757  0.4387  1.1512
  436TMC3    H2 6505   3.640   0.979  15.495  1.0971 -1.9894  0.2917
  436TMC3    C7 6506   3.394   0.985  15.580 -0.9184 -0.4281 -0.2880
  436TMC3    C8 6507   3.866   1.036  15.598 -0.4884 -0.0107 -0.2682
  436TMC3    O1 6508   3.410   0.915  15.478  0.0003  0.5041 -0.3381
  436TMC3    O2 6509   3.843   1.063  15.479  0.0308  0.1664 -0.4974
  437TMC3    C1 6510   3.184   2.610  12.538 -1.0407 -0.2143 -0.2330
  437TMC3    C2 6511   3.049   2.635  12.537  0.4176 -0.1003  0.0814
  437TMC3    C3 6512   2.998   2.749  12.484 -0.3925  0.0190  0.1174
  437TMC3    C4 6513   3.270   2.703  12.488 -0.0763  0.3106  0.6777
  437TMC3    C5 6514   3.213   2.808  12.428  0.5709  0.7792 -0.2474
  437TMC3    C6 6515   3.082   2.843  12.431 -0.7543  0.5358  0.2266
  437TMC3     C 6516   3.244   2.490  12.595 -0.7262 -0.2003 -0.3956
  437TMC3     O 6517   3.348   2.516  12.660  0.2213 -0.1345  0.0051
  437TMC3     H 6518   2.985   2.556  12.576  1.0679 -1.0597 -0.8018
  437TMC3    H1 6519   3.376   2.688  12.500 -0.4632 -2.3087  0.7988
  437TMC3    H2 6520   3.050   2.939  12.393  1.4498  1.6230  1.1840
  437TMC3    C7 6521   3.299   2.908  12.366 -0.5903 -0.2441 -0.3701
  437TMC3    C8 6522   2.854   2.773  12.502 -0.1428  0.4330  0.5088
  437TMC3    O1 6523   3.264   2.956  12.255  0.0069  0.4664 -0.3714
  437TMC3    O2 6524   2.783   2.690  12.559  0.1946 -0.6140 -0.2912
  438MPD2     C 6525   0.162   3.788  16.709 -0.1032 -0.3729 -0.5335
  438MPD2    C1 6526   0.260   3.719  16.777  0.1012  0.6033 -0.3938
  438MPD2    C2 6527   0.225   3.670  16.906 -0.0917 -0.4541  0.6421
  438MPD2    C3 6528   0.113   3.704  16.972  0.0570 -0.5302  0.3107
  438MPD2    C4 6529   0.019   3.779  16.903  0.8828 -0.3715  0.0631
  438MPD2    C5 6530   0.043   3.813  16.769  0.1052 -0.7931  0.3249
  438MPD2     H 6531   0.300   3.614  16.961  1.9232  0.9532 -0.6790
  438MPD2    H1 6532   4.646   3.807  16.954 -0.7135 -1.5064 -2.1975
  438MPD2    H2 6533   0.183   3.818  16.607  0.0381 -1.6202 -0.8699
  438MPD2    H3 6534   4.690   3.864  16.707 -0.9754 -4.5593 -1.5031
  438MPD2     N 6535   0.096   3.680  17.107  0.1577  0.3078  0.5978
  438MPD2    H5 6536   0.006   3.682  17.153  0.0641 -0.5175  0.4488
  438MPD2    N1 6537   0.382   3.682  16.723  0.2102 -0.2816 -0.2449
  438MPD2    H7 6538   0.419   3.599  16.770  0.4460  0.2925  0.5831
  439TMC3    C1 6539   0.576   3.702  16.603  0.0744 -0.1898  0.4540
  439TMC3    C2 6540   0.629   3.733  16.481 -0.0511 -0.1746  0.5518
  439TMC3    C3 6541   0.763   3.744  16.472 -0.1571 -0.0614 -0.7053
  439TMC3    C4 6542   0.647   3.684  16.718 -0.2200 -0.4438  0.1995
  439TMC3    C5 6543   0.783   3.703  16.705  0.0275 -0.2240  1.4290
  439TMC3    C6 6544   0.838   3.735  16.588  0.0414 -1.0552  1.0381
  439TMC3     C 6545   0.439   3.727  16.614  0.2572  0.3394 -0.1434
  439TMC3     O 6546   0.392   3.801  16.524  0.1802 -0.3177 -0.4790
  439TMC3     H 6547   0.578   3.752  16.387 -1.9345  0.9261  1.7980
  439TMC3    H1 6548   0.607   3.684  16.819 -1.2232  0.1984 -0.1983
  439TMC3    H2 6549   0.946   3.724  16.582  0.3605  2.2775  1.0339
  439TMC3    C7 6550   0.874   3.681  16.817 -0.3180 -0.8383  0.6138
  439TMC3    C8 6551   0.838   3.774  16.356 -0.2111  0.0872  0.3962
  439TMC3    O1 6552   0.993   3.709  16.807 -0.2989 -0.5334  0.5020
  439TMC3    O2 6553   0.943   3.822  16.386  0.8171  0.3005 -0.1371
  440MPD2     C 6554   4.177   4.201  14.756 -0.5961 -0.0957  0.1579
  440MPD2    C1 6555   4.225   4.275  14.863 -0.7468 -0.0680  0.3254
  440MPD2    C2 6556   4.360   4.281  14.881 -0.5792  0.9283 -0.0548
  440MPD2    C3 6557   4.449   4.219  14.795  0.8675 -0.4416  0.2513
  440MPD2    C4 6558   4.399   4.132  14.701  0.3280 -0.2293  0.4311
  440MPD2    C5 6559   4.264   4.125  14.675  0.4766 -0.3674 -0.0541
  440MPD2     H 6560   4.409   4.348  14.951  2.7487  1.3633 -2.7814
  440MPD2    H1 6561   4.456   4.076  14.627  1.9385  1.8017  0.1398
  440MPD2    H2 6562   4.071   4.195  14.735 -0.7816  0.6959  0.8749
  440MPD2    H3 6563   4.229   4.052  14.604 -0.6301  1.5107 -1.4616
  440MPD2     N 6564   4.593   4.228  14.796 -1.1976  0.4969 -0.2475
  440MPD2    H5 6565   4.631   4.143  14.754 -1.3300  0.8842 -1.1603
  440MPD2    N1 6566   4.142   4.341  14.956 -0.0561 -0.2419 -0.1632
  440MPD2    H7 6567   4.200   4.371  15.034  0.0667  0.1017 -0.3844
  441TMC3    C1 6568   0.069   4.268  14.932  0.0377 -0.3837  0.6499
  441TMC3    C2 6569   0.129   4.364  15.014  0.2082 -0.1245  0.2152
  441TMC3    C3 6570   0.182   4.328  15.129 -0.0944  0.5858  0.3262
  441TMC3    C4 6571   0.067   4.139  14.974  0.3032  0.4222  0.5249
  441TMC3    C5 6572   0.103   4.112  15.102  0.2955  0.1355 -0.6383
  441TMC3    C6 6573   0.159   4.206  15.180  0.6242 -0.5404  0.0467
  441TMC3     C 6574   4.662   4.311  14.879  0.2325 -0.0791 -0.3265
  441TMC3     O 6575   4.626   4.419  14.926 -0.3711  0.5285  0.2220
  441TMC3     H 6576   0.142   4.464  14.976 -1.0920 -0.8218 -2.0587
  441TMC3    H1 6577   0.047   4.057  14.907  0.2758  1.4790 -0.7552
  441TMC3    H2 6578   0.200   4.182  15.277 -0.3403 -1.6805  0.1735
  441TMC3    C7 6579   4.714   4.042  15.172  0.6827  0.1980 -0.6902
  441TMC3    C8 6580   0.213   4.431  15.226 -0.1867 -0.2853 -0.1614
  441TMC3    O1 6581   4.716   4.054  15.293  0.0794  0.2921 -0.6244
  441TMC3    O2 6582   0.322   4.490  15.221 -0.1252  0.1182  0.2029
  442MPD2     C 6583   2.603   0.494  16.806 -0.1342  0.0810 -0.6256
  442MPD2    C1 6584   2.503   0.514  16.720 -0.3674  0.5307  0.0517
  442MPD2    C2 6585   2.501   0.448  16.600  0.4299 -0.5636  0.3612
  442MPD2    C3 6586   2.597   0.359  16.565  0.7985 -0.9668 -0.0329
  442MPD2    C4 6587   2.707   0.348  16.645 -0.6189  0.8594  0.8175
  442MPD2    C5 6588   2.710   0.418  16.766  0.5261  0.1321 -0.4591
  442MPD2     H 6589   2.421   0.458  16.527 -0.2371 -3.5904  0.6962
  442MPD2    H1 6590   2.775   0.266  16.627 -0.1603  1.1432  1.2784
  442MPD2    H2 6591   2.597   0.523  16.911  1.7770  0.3247 -0.5742
  442MPD2    H3 6592   2.783   0.390  16.841  0.1533  0.3905  0.0039
  442MPD2     N 6593   2.597   0.273  16.457 -0.8359  0.8036 -0.6227
  442MPD2    H5 6594   2.676   0.210  16.443 -0.1525  1.6107 -0.3676
  442MPD2    N1 6595   2.398   0.602  16.740  0.1004 -0.5580 -0.7507
  442MPD2    H7 6596   2.334   0.618  16.662 -1.4094  2.8253  1.2095
  443TMC3    C1 6597   2.276   0.781  16.827  0.0321 -0.7362 -0.6435
  443TMC3    C2 6598   2.213   0.798  16.704 -0.5429 -0.2871 -0.0034
  443TMC3    C3 6599   2.086   0.838  16.701  0.0457 -0.3857  0.4662
  443TMC3    C4 6600   2.207   0.799  16.944  0.3143  0.6633 -0.0366
  443TMC3    C5 6601   2.080   0.836  16.935 -1.3916  0.0216  0.6826
  443TMC3    C6 6602   2.010   0.867  16.817 -0.4890 -0.5548  0.3222
  443TMC3     C 6603   2.379   0.681  16.848 -0.4631 -0.3539 -1.3022
  443TMC3     O 6604   2.431   0.677  16.958  0.1039 -0.1981 -0.7398
  443TMC3     H 6605   2.252   0.766  16.608  1.9994  1.8686  0.3356
  443TMC3    H1 6606   2.251   0.793  17.043 -0.7951 -3.0278  0.2362
  443TMC3    H2 6607   1.902   0.875  16.817 -0.5553 -1.4461  0.2884
  443TMC3    C7 6608   2.002   0.785  17.040 -0.6073  0.1794 -0.0609
  443TMC3    C8 6609   1.998   0.774  16.605  0.4685 -0.2598  0.2473
  443TMC3    O1 6610   2.041   0.670  17.074 -0.5319  0.0250  0.5541
  443TMC3    O2 6611   1.920   0.690  16.646  0.5448  0.0339  0.3684
  444MPD2     C 6612   2.896   4.087  16.804 -0.4526 -0.0999 -0.0793
  444MPD2    C1 6613   2.828   4.024  16.697  0.4632  0.1504 -0.1382
  444MPD2    C2 6614   2.895   3.915  16.640  0.0529 -0.1499  0.0841
  444MPD2    C3 6615   3.021   3.866  16.677 -0.8759 -0.1983 -0.2534
  444MPD2    C4 6616   3.075   3.933  16.785  0.4025 -0.7255 -0.5503
  444MPD2    C5 6617   3.015   4.035  16.849 -0.6906  0.4324  0.1836
  444MPD2     H 6618   2.845   3.870  16.555  0.5326  1.1386 -0.8894
  444MPD2    H1 6619   3.175   3.902  16.815  0.3142  1.4276  1.9175
  444MPD2    H2 6620   2.854   4.167  16.865 -0.4701  1.6141 -2.3493
  444MPD2    H3 6621   3.063   4.082  16.933 -0.5373 -1.1868  1.0108
  444MPD2     N 6622   3.077   3.750  16.612  0.5620  0.4665  0.2040
  444MPD2    H5 6623   3.018   3.716  16.536  0.5057  2.3943 -0.6178
  444MPD2    N1 6624   2.691   4.050  16.664 -0.6965 -0.0721  1.1849
  444MPD2    H7 6625   2.640   3.973  16.624 -1.4948  1.3585 -0.5317
  445TMC3    C1 6626   3.221   3.551  16.587 -0.1526  0.3878 -0.7574
  445TMC3    C2 6627   3.128   3.493  16.498  0.9086 -0.0467  0.3061
  445TMC3    C3 6628   3.174   3.393  16.421 -1.1258  0.5702 -0.4715
  445TMC3    C4 6629   3.349   3.506  16.604  0.2168  0.0189 -1.1378
  445TMC3    C5 6630   3.394   3.405  16.523 -0.9156  0.4822 -0.0145
  445TMC3    C6 6631   3.309   3.362  16.429  0.3156  0.4769  0.5198
  445TMC3     C 6632   3.186   3.674  16.666 -0.2166 -0.1328  0.0465
  445TMC3     O 6633   3.255   3.704  16.762 -0.5241 -0.3699 -0.2387
  445TMC3     H 6634   3.023   3.521  16.495  0.5000 -1.6652 -0.7571
  445TMC3    H1 6635   3.427   3.547  16.667 -0.3442 -0.6654 -0.0104
  445TMC3    H2 6636   3.353   3.287  16.364 -1.1954  0.2369 -0.2396
  445TMC3    C7 6637   3.526   3.423  16.477 -0.3522  0.2035  0.3266
  445TMC3    C8 6638   3.112   3.351  16.296  0.1315 -0.0438 -0.0744
  445TMC3    O1 6639   3.538   3.426  16.354 -0.6911 -0.2785  0.3834
  445TMC3    O2 6640   3.018   3.419  16.251 -0.1514 -0.2154  0.6088
  446MPD2     C 6641   2.706   0.088  11.082 -0.1881 -0.0042 -0.1016
  446MPD2    C1 6642   2.657   0.208  11.029 -1.1129 -0.9000  0.2202
  446MPD2    C2 6643   2.752   0.285  10.966  1.0143 -0.2940 -0.1120
  446MPD2    C3 6644   2.891   0.265  10.976 -0.0760  0.6807 -0.3785
  446MPD2    C4 6645   2.934   0.140  11.025 -0.2960 -0.0143  0.8264
  446MPD2    C5 6646   2.842   0.058  11.085 -0.0910 -0.0786  0.0974
  446MPD2     H 6647   2.723   0.372  10.909 -2.8425 -1.1827  0.5345
  446MPD2    H1 6648   3.033   0.095  11.020 -0.1562  0.0485  2.9726
  446MPD2    H2 6649   2.638   0.018  11.128 -2.5620  3.8548  2.2790
  446MPD2    H3 6650   2.874   4.685  11.133 -0.2018  0.3267  0.9538
  446MPD2     N 6651   2.984   0.367  10.937 -0.0154  0.3324 -0.1978
  446MPD2    H5 6652   2.947   0.460  10.918  0.0031  1.0110  3.0835
  446MPD2    N1 6653   2.523   0.237  11.015  0.0039  0.3051  0.7719
  446MPD2    H7 6654   2.498   0.316  10.957 -1.6237 -0.2393  0.7226
  447TMC3    C1 6655   3.179   0.482  10.875  0.0088 -0.2835  0.2477
  447TMC3    C2 6656   3.106   0.567  10.801  0.5469  0.9552  0.1107
  447TMC3    C3 6657   3.172   0.683  10.752 -0.3984  0.2284  0.4187
  447TMC3    C4 6658   3.309   0.506  10.908  0.0525  1.0252 -0.0334
  447TMC3    C5 6659   3.367   0.626  10.865  0.4657  0.5248  0.5952
  447TMC3    C6 6660   3.294   0.715  10.789 -0.1738 -0.2176  0.2001
  447TMC3     C 6661   3.119   0.355  10.914  0.5854 -0.3293  0.5372
  447TMC3     O 6662   3.191   0.267  10.959  0.1607 -0.1246  0.3643
  447TMC3     H 6663   3.011   0.551  10.751  0.5327 -0.9552  0.7558
  447TMC3    H1 6664   3.354   0.428  10.968 -1.1801  0.0065 -0.4219
  447TMC3    H2 6665   3.334   0.810  10.756 -1.6557  0.4266  0.2686
  447TMC3    C7 6666   3.494   0.617  10.810 -0.4525  0.2190 -0.1910
  447TMC3    C8 6667   3.154   0.721  10.616 -0.0043 -0.5797 -0.3948
  447TMC3    O1 6668   3.505   0.653  10.693 -0.1569 -0.6022  0.7897
  447TMC3    O2 6669   3.036   0.736  10.580  0.3049  0.2556  0.0509
  448TMC3    C1 6670   4.699   4.479  17.305 -0.7355  0.4464  0.3689
  448TMC3    C2 6671   4.688   4.455  17.174  0.2024 -0.3741  0.1149
  448TMC3    C3 6672   0.027   4.342  17.125  0.5750 -0.3520 -0.4336
  448TMC3    C4 6673   0.026   4.391  17.397 -0.2858  0.7031 -0.7321
  448TMC3    C5 6674   0.064   4.277  17.347 -0.1446 -0.6378  0.9139
  448TMC3    C6 6675   0.065   4.243  17.211  0.5394 -0.0641 -0.1885
  448TMC3     C 6676   4.694   4.612  17.349 -0.4885  0.1705  0.9616
  448TMC3     O 6677   0.078   4.670  17.390  0.1255 -0.2339 -0.0058
  448TMC3     H 6678   4.657   4.535  17.108 -0.6447 -0.3256  0.5643
  448TMC3    H1 6679   0.029   4.410  17.504  0.6087 -0.7452 -0.5033
  448TMC3    H2 6680   0.105   4.148  17.177 -2.4876 -1.1453 -0.8091
  448TMC3    C7 6681   0.102   4.161  17.432 -1.0113  0.7186  0.1191
  448TMC3    C8 6682   0.071   4.328  16.985  0.2790  0.2406 -0.2079
  448TMC3    O1 6683   0.134   4.066  17.369 -0.3448 -0.0853  0.6331
  448TMC3    O2 6684   0.162   4.252  16.964  0.4418  0.2463 -0.5647
  449MPD2     C 6685   2.202   3.188  13.423 -0.0096  0.3955 -0.4051
  449MPD2    C1 6686   2.119   3.282  13.361  0.1904 -0.4848 -0.3268
  449MPD2    C2 6687   1.992   3.235  13.331  0.0695  0.3217 -0.0112
  449MPD2    C3 6688   1.944   3.112  13.361  0.2066  0.4709 -0.5486
  449MPD2    C4 6689   2.027   3.012  13.415 -0.7054 -0.3692 -0.2452
  449MPD2    C5 6690   2.159   3.055  13.442 -0.0614 -0.0428  0.8064
  449MPD2     H 6691   1.925   3.306  13.285  1.3205  0.8528 -1.0218
  449MPD2    H1 6692   2.010   2.906  13.432 -1.5944 -0.2643 -0.4721
  449MPD2    H2 6693   2.300   3.217  13.458  0.5911 -2.1314 -0.0053
  449MPD2    H3 6694   2.226   2.982  13.484  0.4098  0.1462  0.3828
  449MPD2     N 6695   1.811   3.074  13.329  0.1500 -0.3438  0.0187
  449MPD2    H5 6696   1.753   3.154  13.305  1.2951  0.6721  0.6454
  449MPD2    N1 6697   2.143   3.419  13.335  0.3075 -0.4068 -0.7300
  449MPD2    H7 6698   2.065   3.471  13.295  0.5122 -1.2593 -2.2426
  450TMC3    C1 6699   2.224   3.631  13.307 -0.1145  0.4244 -0.2225
  450TMC3    C2 6700   2.323   3.717  13.257 -0.3320 -0.1142 -0.3243
  450TMC3    C3 6701   2.297   3.854  13.252 -0.4635  0.8773 -0.8397
  450TMC3    C4 6702   2.103   3.682  13.337  0.5194  0.1855  0.2892
  450TMC3    C5 6703   2.085   3.821  13.316 -0.1837  0.3322  0.0970
  450TMC3    C6 6704   2.178   3.913  13.276  0.4207  0.0861 -0.1871
  450TMC3     C 6705   2.253   3.497  13.354 -0.0771 -0.8636  0.5104
  450TMC3     O 6706   2.355   3.483  13.416  0.2388 -0.0215 -0.2265
  450TMC3     H 6707   2.422   3.675  13.267  0.2568  1.3974  0.0902
  450TMC3    H1 6708   2.021   3.626  13.381  0.9031 -1.1530 -0.6837
  450TMC3    H2 6709   2.157   4.019  13.289 -1.2108 -0.3517  0.7830
  450TMC3    C7 6710   1.948   3.868  13.330 -0.0350  0.0655  0.8284
  450TMC3    C8 6711   2.392   3.944  13.203 -0.4783  0.7675  0.1094
  450TMC3    O1 6712   1.939   3.984  13.365 -0.7471  0.1523  0.3733
  450TMC3    O2 6713   2.366   4.062  13.227  0.2539 -0.4471  0.1421
  451MPD2     C 6714   3.961   3.089   1.345  0.9183 -0.6397  0.1872
  451MPD2    C1 6715   3.873   3.036   1.444 -0.8317 -0.1539 -0.0600
  451MPD2    C2 6716   3.905   2.910   1.501 -0.7817  0.2156 -0.1374
  451MPD2    C3 6717   4.017   2.846   1.462 -0.6768  0.1682  0.0105
  451MPD2    C4 6718   4.099   2.902   1.366  0.4057 -1.0099  0.3854
  451MPD2    C5 6719   4.072   3.019   1.305  0.1877 -0.2443  0.0162
  451MPD2     H 6720   3.842   2.867   1.577 -0.9257 -1.1888 -1.0526
  451MPD2    H1 6721   4.193   2.857   1.337  0.7369  1.9303 -3.1285
  451MPD2    H2 6722   3.936   3.185   1.302 -2.7247 -1.9031 -0.4858
  451MPD2    H3 6723   4.153   3.070   1.253  1.6939 -0.6778  1.9325
  451MPD2     N 6724   4.054   2.715   1.513 -0.7361 -0.1858  0.1726
  451MPD2    H5 6725   4.122   2.663   1.458  2.0045  1.3530  2.1199
  451MPD2    N1 6726   3.759   3.113   1.466  1.1962  0.0780 -0.0188
  451MPD2    H7 6727   3.736   3.189   1.403 -0.3292 -1.3818 -1.2449
  452TMC3    C1 6728   4.057   2.536   1.664  0.2680 -0.3273  0.1458
  452TMC3    C2 6729   3.979   2.428   1.693  0.3810 -0.3315 -0.0411
  452TMC3    C3 6730   4.043   2.298   1.701  0.4952 -0.2640 -0.3227
  452TMC3    C4 6731   4.188   2.518   1.622  0.0989 -0.2036  0.3564
  452TMC3    C5 6732   4.244   2.396   1.626  0.0967 -0.4608  0.2932
  452TMC3    C6 6733   4.175   2.288   1.667  0.3851  0.4853 -0.1182
  452TMC3     C 6734   3.993   2.648   1.613  0.5842 -0.0179  0.5885
  452TMC3     O 6735   3.879   2.666   1.655 -0.0831  0.4750 -0.3290
  452TMC3     H 6736   3.872   2.444   1.708  0.7317  1.5967  0.3841
  452TMC3    H1 6737   4.246   2.603   1.588  0.2448  1.2177  4.1455
  452TMC3    H2 6738   4.223   2.191   1.667 -0.3027  0.1391 -1.3114
  452TMC3    C7 6739   4.359   2.377   1.549  0.3681  0.0523 -0.5401
  452TMC3    C8 6740   3.968   2.178   1.716  0.6984 -0.8266  0.1528
  452TMC3    O1 6741   4.351   2.289   1.462 -0.3564  0.0171 -0.5195
  452TMC3    O2 6742   4.025   2.067   1.730  0.1056 -0.4209 -0.6947
  453TMC3    C1 6743   0.116   4.401  11.710  0.0232  0.3747 -0.3424
  453TMC3    C2 6744   0.028   4.321  11.781  0.1700 -0.4243 -0.8369
  453TMC3    C3 6745   0.014   4.197  11.728 -0.2112 -0.3580  0.0382
  453TMC3    C4 6746   0.184   4.359  11.602 -0.2717 -0.7058  0.3048
  453TMC3    C5 6747   0.177   4.230  11.563 -0.2416 -0.8804  0.0245
  453TMC3    C6 6748   0.079   4.144  11.616 -0.7213  0.1946 -1.1027
  453TMC3     C 6749   0.188   4.510  11.784 -0.2482 -0.4291  0.9876
  453TMC3     O 6750   0.274   4.577  11.727 -0.0761  0.4378  0.4426
  453TMC3     H 6751   4.708   4.333  11.882  1.4944 -0.7299 -0.2894
  453TMC3    H1 6752   0.254   4.433  11.565  0.3501 -2.5581 -2.2072
  453TMC3    H2 6753   0.060   4.046  11.574  2.1258 -1.4544  1.4278
  453TMC3    C7 6754   0.283   4.186  11.475  0.1905  0.5330  0.5543
  453TMC3    C8 6755   4.677   4.099  11.816 -0.5681 -0.0654 -0.7163
  453TMC3    O1 6756   0.344   4.275  11.415  0.0608  0.5024 -0.7729
  453TMC3    O2 6757   0.019   3.992  11.806 -0.3598 -0.3637  0.2230
  454MPD2     C 6758   3.575   3.849  16.431  0.0066 -0.3959 -0.1283
  454MPD2    C1 6759   3.543   3.977  16.414 -0.1071  0.3473  0.1292
  454MPD2    C2 6760   3.508   4.051  16.527 -0.1743 -0.3615  0.8941
  454MPD2    C3 6761   3.484   3.989  16.647 -0.0681  0.5070 -0.4410
  454MPD2    C4 6762   3.529   3.859  16.665 -0.6874  0.9231  0.2005
  454MPD2    C5 6763   3.586   3.797  16.556  0.1509  0.1919  0.0946
  454MPD2     H 6764   3.488   4.156  16.510 -1.1023 -0.9382 -1.6581
  454MPD2    H1 6765   3.511   3.808  16.758  0.4517  0.6797  0.2884
  454MPD2    H2 6766   3.580   3.784  16.345 -0.8805 -0.9552  0.2402
  454MPD2    H3 6767   3.608   3.692  16.569  3.6115  0.9761  0.5529
  454MPD2     N 6768   3.428   4.061  16.758 -0.1500 -0.3414  0.1912
  454MPD2    H5 6769   3.454   4.024  16.849  1.3355 -0.2354 -0.1810
  454MPD2    N1 6770   3.523   4.043  16.288 -0.6483 -0.2773 -0.0650
  454MPD2    H7 6771   3.506   4.143  16.280  2.4150  0.1332 -1.5170
  455TMC3    C1 6772   3.286   4.230  16.649 -0.2669 -0.6468 -0.6471
  455TMC3    C2 6773   3.237   4.354  16.650 -0.1675  0.3657 -0.4714
  455TMC3    C3 6774   3.144   4.392  16.556  0.0290  0.0348 -0.0339
  455TMC3    C4 6775   3.225   4.135  16.570  0.0434 -0.3085 -0.1481
  455TMC3    C5 6776   3.128   4.178  16.481  0.4497 -0.1018  0.1976
  455TMC3    C6 6777   3.093   4.305  16.464 -0.3142  0.0810 -0.4041
  455TMC3     C 6778   3.365   4.187  16.764  0.4016  0.2776 -0.1981
  455TMC3     O 6779   3.344   4.242  16.871  0.4265  0.3031 -0.6711
  455TMC3     H 6780   3.270   4.417  16.731  2.0147  1.1114 -1.9535
  455TMC3    H1 6781   3.243   4.029  16.589  1.4942 -0.0980 -0.3080
  455TMC3    H2 6782   3.023   4.331  16.386 -1.5059 -0.6402  0.4210
  455TMC3    C7 6783   3.106   4.096  16.358 -0.3278  0.1985  0.2879
  455TMC3    C8 6784   3.060   4.501  16.598 -0.6168  0.5014 -0.4493
  455TMC3    O1 6785   3.020   4.123  16.269 -0.1942  0.1711 -0.0349
  455TMC3    O2 6786   3.122   4.585  16.657  0.5267 -0.1527  0.0520
  456MPD2     C 6787   0.980   3.955  15.860 -1.1818  0.5743 -0.3307
  456MPD2    C1 6788   1.047   4.043  15.940 -0.2632  0.3098 -0.0591
  456MPD2    C2 6789   0.982   4.114  16.043 -0.9159  0.1403 -0.2086
  456MPD2    C3 6790   0.851   4.073  16.078  0.5334  0.8472  0.0562
  456MPD2    C4 6791   0.781   3.995  15.996 -0.3463  0.2587  0.1876
  456MPD2    C5 6792   0.847   3.935  15.890  0.1131  0.0332  0.7339
  456MPD2     H 6793   1.034   4.185  16.106  1.0278 -1.4308 -0.0501
  456MPD2    H1 6794   0.675   3.971  16.005 -0.6028  1.6237  0.7873
  456MPD2    H2 6795   1.021   3.917  15.767  0.3986  3.7858 -0.9178
  456MPD2    H3 6796   0.782   3.888  15.817 -1.3083 -0.5336  2.3576
  456MPD2     N 6797   0.801   4.127  16.200 -0.5120  0.5827 -0.5905
  456MPD2    H5 6798   0.864   4.176  16.263 -0.1377 -0.4746 -0.1577
  456MPD2    N1 6799   1.183   4.056  15.907  0.3859  0.1846 -0.4606
  456MPD2    H7 6800   1.228   4.004  15.832 -0.8312 -2.4028  0.5949
  457TMC3    C1 6801   0.660   4.184  16.370  0.4771 -0.0417 -0.2222
  457TMC3    C2 6802   0.543   4.257  16.394  0.2895 -0.5839  0.6846
  457TMC3    C3 6803   0.543   4.332  16.509 -0.4797  0.7151 -0.0412
  457TMC3    C4 6804   0.763   4.165  16.458  0.2433  0.0119 -0.2905
  457TMC3    C5 6805   0.744   4.216  16.583  0.4674 -0.2154 -0.5252
  457TMC3    C6 6806   0.643   4.309  16.601 -0.8720 -0.5633  0.3077
  457TMC3     C 6807   0.671   4.134  16.240  0.2902 -0.8162 -0.0994
  457TMC3     O 6808   0.568   4.110  16.178 -0.4024  0.0337  0.4875
  457TMC3     H 6809   0.470   4.263  16.314  0.7598  1.7823  0.4434
  457TMC3    H1 6810   0.839   4.089  16.440 -0.7891 -1.1171  0.1392
  457TMC3    H2 6811   0.639   4.369  16.691 -0.7161 -0.0813 -0.0041
  457TMC3    C7 6812   0.739   4.113  16.683 -0.7419  0.4920 -0.2641
  457TMC3    C8 6813   0.414   4.342  16.583  0.3557 -0.5820 -0.5658
  457TMC3    O1 6814   0.828   4.032  16.688  0.1688  0.2826  0.1451
  457TMC3    O2 6815   0.431   4.316  16.703  0.7048  0.3896 -0.4254
  458MPD2     C 6816   3.690   3.250  12.402 -0.4413 -0.3913  0.1232
  458MPD2    C1 6817   3.687   3.168  12.520 -0.0441  0.8852  0.2843
  458MPD2    C2 6818   3.592   3.069  12.531 -0.5885 -0.3255 -0.8900
  458MPD2    C3 6819   3.498   3.044  12.429 -0.4758 -0.2200  0.2262
  458MPD2    C4 6820   3.513   3.111  12.312  0.5236 -0.4989  0.0119
  458MPD2    C5 6821   3.598   3.218  12.304  0.7264 -0.0183  0.5960
  458MPD2     H 6822   3.589   3.007  12.619 -1.8500 -0.1496 -0.8160
  458MPD2    H1 6823   3.463   3.086  12.220 -0.4418  0.0446  0.3852
  458MPD2    H2 6824   3.763   3.329  12.389 -0.9936 -0.2524 -2.0109
  458MPD2    H3 6825   3.584   3.290  12.225  0.6425 -1.2912 -0.5536
  458MPD2     N 6826   3.403   2.942  12.448 -0.1853  0.0731 -0.2178
  458MPD2    H5 6827   3.404   2.890  12.534  0.7722  1.8460  0.8414
  458MPD2    N1 6828   3.783   3.196  12.621  0.0200 -0.4782  0.1558
  458MPD2    H7 6829   3.866   3.243  12.586 -0.3091 -1.0464 -1.3872
  459TMC3    C1 6830   3.899   3.197  12.829  0.1697 -0.2159  0.6976
  459TMC3    C2 6831   3.930   3.325  12.810  0.1344  0.1193 -0.5682
  459TMC3    C3 6832   3.981   3.389  12.920  0.1038  0.5550 -0.6293
  459TMC3    C4 6833   3.915   3.128  12.948  0.3654 -0.9656 -0.8327
  459TMC3    C5 6834   3.958   3.202  13.054 -0.2308 -0.5030  0.8390
  459TMC3    C6 6835   3.995   3.335  13.045  0.2826 -0.3053  1.1046
  459TMC3     C 6836   3.783   3.149  12.749 -0.3653 -0.4166  0.1241
  459TMC3     O 6837   3.695   3.089  12.809 -1.0918  0.4470  0.5761
  459TMC3     H 6838   3.908   3.383  12.721 -1.0109 -1.0245 -1.0349
  459TMC3    H1 6839   3.885   3.024  12.950 -3.0398 -0.0056 -0.9929
  459TMC3    H2 6840   4.030   3.392  13.130 -1.1735  2.6498 -0.2590
  459TMC3    C7 6841   3.963   3.137  13.178  0.1064 -0.8117 -0.4573
  459TMC3    C8 6842   4.009   3.526  12.914  0.7154  0.7536  0.4984
  459TMC3    O1 6843   4.022   3.209  13.260 -0.2711  0.2688 -0.1382
  459TMC3    O2 6844   3.939   3.612  12.968  0.1374  0.1398  0.0061
  460MPD2     C 6845   3.425   0.677  10.358  0.3381  0.8928  0.4194
  460MPD2    C1 6846   3.293   0.707  10.402 -0.3509 -0.2636  0.2676
  460MPD2    C2 6847   3.199   0.752  10.309 -0.0225 -0.0474 -0.7120
  460MPD2    C3 6848   3.223   0.747  10.172 -0.2619  0.3980 -0.2794
  460MPD2    C4 6849   3.358   0.723  10.131 -0.0809 -0.3683 -0.2635
  460MPD2    C5 6850   3.457   0.688  10.225 -0.3744  0.7923  0.1342
  460MPD2     H 6851   3.099   0.779  10.342  0.4169  0.9035 -0.1734
  460MPD2    H1 6852   3.390   0.726  10.028 -0.8132 -0.3684 -0.4939
  460MPD2    H2 6853   3.499   0.637  10.426  1.4037  1.1619 -0.5780
  460MPD2    H3 6854   3.555   0.652  10.196 -1.0906 -0.6049 -0.5711
  460MPD2     N 6855   3.122   0.767  10.083 -0.0111  0.0648 -0.3133
  460MPD2    H5 6856   3.029   0.786  10.119  0.1559 -4.1987  2.3442
  460MPD2    N1 6857   3.271   0.697  10.545  0.1769 -0.4090 -0.0827
  460MPD2    H7 6858   3.358   0.672  10.590 -0.6198  0.3464  1.8667
  461TMC3    C1 6859   3.022   0.782   9.873  0.3339  0.1788  0.5514
  461TMC3    C2 6860   3.018   0.731   9.742 -0.2119  0.0045  0.2312
  461TMC3    C3 6861   2.910   0.750   9.662 -0.1233 -0.3583  0.2778
  461TMC3    C4 6862   2.917   0.857   9.919 -0.2646  0.1321  0.3856
  461TMC3    C5 6863   2.806   0.876   9.835 -0.0084  0.0696 -0.5897
  461TMC3    C6 6864   2.804   0.827   9.707  0.1829  0.2034 -0.2722
  461TMC3     C 6865   3.142   0.773   9.945 -0.3137 -0.2145 -0.5817
  461TMC3     O 6866   3.241   0.760   9.877 -0.1092  0.0929  0.5294
  461TMC3     H 6867   3.101   0.668   9.714 -2.2434 -2.7779  0.4718
  461TMC3    H1 6868   2.925   0.913  10.011 -1.3422 -0.2776  0.7309
  461TMC3    H2 6869   2.727   0.860   9.639 -0.5530 -1.6904 -0.3789
  461TMC3    C7 6870   2.702   0.961   9.881 -0.1249  0.3644  0.7388
  461TMC3    C8 6871   2.911   0.717   9.520 -0.5729 -0.7761  0.3383
  461TMC3    O1 6872   2.643   1.029   9.802 -0.8266  0.4605  0.3855
  461TMC3    O2 6873   3.020   0.679   9.472  0.2429 -0.8604  0.0617
  462TMC3    C1 6874   2.185   0.844   0.473 -0.1046 -0.4692  0.2109
  462TMC3    C2 6875   2.224   0.953   0.393 -0.1412 -0.4730  0.4711
  462TMC3    C3 6876   2.122   1.035   0.345 -0.3664  0.0829  0.2530
  462TMC3    C4 6877   2.056   0.828   0.507  0.6235  0.2020 -0.4327
  462TMC3    C5 6878   1.967   0.935   0.481 -0.3453  0.7515 -0.1484
  462TMC3    C6 6879   1.997   1.040   0.400  0.0180 -0.0746 -0.1316
  462TMC3     C 6880   2.284   0.786   0.562  0.5218  0.8824 -0.2417
  462TMC3     O 6881   2.252   0.676   0.601 -0.0490 -0.0715  0.2900
  462TMC3     H 6882   2.330   0.963   0.371 -0.4919 -0.7444 -1.3294
  462TMC3    H1 6883   2.031   0.758   0.587 -2.4860 -0.3778 -1.8854
  462TMC3    H2 6884   1.921   1.102   0.356  1.1761  2.1349  0.9692
  462TMC3    C7 6885   1.828   0.897   0.477 -0.3796 -0.6096 -0.2381
  462TMC3    C8 6886   2.149   1.131   0.240  0.2290  0.0255  0.5983
  462TMC3    O1 6887   1.804   0.780   0.490  0.5376 -0.7771  0.2482
  462TMC3    O2 6888   2.063   1.218   0.227  0.2346  0.6928  0.0114
  463MPD2     C 6889   3.511   1.116   1.949  0.1419 -1.0296  0.6905
  463MPD2    C1 6890   3.448   1.218   1.881  0.0849 -0.1439  0.5970
  463MPD2    C2 6891   3.520   1.307   1.810  0.3635  0.5485  0.5416
  463MPD2    C3 6892   3.661   1.305   1.810 -0.5029 -0.5307 -0.2588
  463MPD2    C4 6893   3.724   1.202   1.880  0.1156 -0.2919  0.2328
  463MPD2    C5 6894   3.648   1.110   1.946  0.2892  0.4756  0.4621
  463MPD2     H 6895   3.477   1.391   1.757  2.1856  1.1004 -0.0764
  463MPD2    H1 6896   3.831   1.184   1.881  0.0629 -0.5728  1.1438
  463MPD2    H2 6897   3.456   1.036   1.998 -1.3097 -0.9212 -0.7668
  463MPD2    H3 6898   3.689   1.022   1.994  0.6597  0.5347  0.2518
  463MPD2     N 6899   3.746   1.407   1.758  0.5452 -0.1701  0.6060
  463MPD2    H5 6900   3.836   1.405   1.804 -0.2235 -2.0554  2.0148
  463MPD2    N1 6901   3.311   1.227   1.878 -0.3858  0.0531  0.6548
  463MPD2    H7 6902   3.265   1.289   1.812 -2.9615  0.9326  3.2557
  464TMC3    C1 6903   3.089   1.183   1.936  0.3505 -0.0713  0.1219
  464TMC3    C2 6904   3.037   1.273   1.846  0.0191  0.2724  0.1500
  464TMC3    C3 6905   2.897   1.262   1.819 -0.2561 -0.4029 -0.1920
  464TMC3    C4 6906   3.013   1.078   1.980 -0.0878 -0.1045 -0.1247
  464TMC3    C5 6907   2.891   1.056   1.918  0.2131 -0.2497 -0.6215
  464TMC3    C6 6908   2.829   1.151   1.843  0.1010  0.3079 -0.2433
  464TMC3     C 6909   3.227   1.157   1.960  0.0324 -0.1396 -0.0616
  464TMC3     O 6910   3.250   1.071   2.043 -0.3085 -0.2322  0.0407
  464TMC3     H 6911   3.089   1.360   1.807  0.1945 -0.4491 -1.2159
  464TMC3    H1 6912   3.060   0.995   2.031 -2.1775 -0.7822  0.7126
  464TMC3    H2 6913   2.723   1.147   1.818  0.1212  1.4544 -0.5398
  464TMC3    C7 6914   2.815   0.942   1.963  0.1691  0.2468 -0.1966
  464TMC3    C8 6915   2.832   1.360   1.743  0.3640  0.0168  0.1036
  464TMC3    O1 6916   2.835   0.894   2.074  0.0678 -0.0753  0.0333
  464TMC3    O2 6917   2.905   1.397   1.653 -0.6514 -0.4768  0.0095
  465MPD2     C 6918   4.551   3.983  17.104  0.5060 -0.2224  0.4764
  465MPD2    C1 6919   4.423   3.998  17.143  0.1968  0.2940 -0.4580
  465MPD2    C2 6920   4.341   4.073  17.061 -0.3931 -0.2307  0.0158
  465MPD2    C3 6921   4.379   4.134  16.948 -0.1286  0.3860 -0.3950
  465MPD2    C4 6922   4.511   4.118  16.913 -0.8539  0.0760 -0.4329
  465MPD2    C5 6923   4.597   4.048  16.993 -0.0003  0.4511  0.0507
  465MPD2     H 6924   4.236   4.061  17.087  0.4757  0.7746  3.9863
  465MPD2    H1 6925   4.550   4.154  16.818  2.2416  0.8417  1.1115
  465MPD2    H2 6926   4.617   3.918  17.160 -1.8828 -1.2782  2.0670
  465MPD2    H3 6927   4.695   4.024  16.953  1.0983 -0.8185  3.5010
  465MPD2     N 6928   4.279   4.194  16.871  0.2850 -0.5965  0.0641
  465MPD2    H5 6929   4.185   4.195  16.909  0.6427  1.1208  0.8930
  465MPD2    N1 6930   4.376   3.946  17.263 -0.0553 -0.2448 -0.1389
  465MPD2    H7 6931   4.445   3.892  17.315  0.9493 -0.7436 -1.9569
  466TMC3    C1 6932   4.055   4.495  16.843  0.0269  0.2161  0.0251
  466TMC3    C2 6933   4.091   4.607  16.776 -0.4793  0.5841  1.5625
  466TMC3    C3 6934   4.181   4.581  16.673 -0.1406  0.2337 -0.4283
  466TMC3    C4 6935   4.100   4.370  16.814  0.5207  0.5114 -0.5645
  466TMC3    C5 6936   4.198   4.345  16.717  0.1961  0.0445  0.4364
  466TMC3    C6 6937   4.237   4.456  16.648 -1.1598  0.1282  0.0597
  466TMC3     C 6938   4.048   4.528  16.983 -0.0577 -0.4554  0.6057
  466TMC3     O 6939   4.115   4.453  17.056 -0.0559 -0.6928 -0.4540
  466TMC3     H 6940   4.042   4.702  16.795 -0.0076  1.3830 -1.2467
  466TMC3    H1 6941   4.060   4.290  16.876  1.9446 -0.5042 -0.9630
  466TMC3    H2 6942   4.316   4.449  16.574 -1.6241 -2.1364 -0.2262
  466TMC3    C7 6943   4.307   4.258  16.750 -0.3316  0.1978 -0.3488
  466TMC3    C8 6944   4.264   4.689  16.621 -0.1064  0.0305  0.0228
  466TMC3    O1 6945   4.409   4.269  16.686 -0.5042 -0.2425 -0.8134
  466TMC3    O2 6946   4.333   4.672  16.523  0.4159 -0.0348  0.7848
  467TMC3    C1 6947   1.494   2.727  13.795  0.1922  0.5035  0.1227
  467TMC3    C2 6948   1.392   2.732  13.699 -0.2900 -0.3707 -0.7412
  467TMC3    C3 6949   1.278   2.804  13.724  0.6826 -0.4219 -0.0525
  467TMC3    C4 6950   1.484   2.792  13.916  0.9308  0.2931 -0.8794
  467TMC3    C5 6951   1.363   2.852  13.937 -0.2083  0.0882 -0.7986
  467TMC3    C6 6952   1.260   2.856  13.844  0.5051 -0.2511 -0.3055
  467TMC3     C 6953   1.608   2.645  13.756 -0.8870  0.1086 -0.1678
  467TMC3     O 6954   1.587   2.549  13.683 -0.3663  0.1319 -0.1428
  467TMC3     H 6955   1.420   2.700  13.599  2.1847  2.3958 -0.9300
  467TMC3    H1 6956   1.552   2.784  14.000  0.2978  2.6247 -0.1326
  467TMC3    H2 6957   1.174   2.919  13.864 -0.3415 -0.8113 -2.1852
  467TMC3    C7 6958   1.331   2.908  14.064 -0.2774  0.4782 -0.4748
  467TMC3    C8 6959   1.219   2.876  13.619 -0.2816 -0.3665 -0.7366
  467TMC3    O1 6960   1.429   2.963  14.122 -0.2995  0.3421  0.1116
  467TMC3    O2 6961   1.154   2.979  13.643  0.1177 -0.1815  0.3502
  468MPD2     C 6962   0.033   0.244  10.503  0.2480 -0.1849 -0.5106
  468MPD2    C1 6963   0.121   0.271  10.605 -0.2347  0.1577 -0.0913
  468MPD2    C2 6964   0.177   0.172  10.682  0.0926 -0.8054  0.2260
  468MPD2    C3 6965   0.131   0.041  10.665 -0.8349 -0.5350  0.0259
  468MPD2    C4 6966   0.036   0.017  10.572 -0.6078 -0.2644 -0.5211
  468MPD2    C5 6967   0.000   0.114  10.473 -0.3279 -0.2067 -0.7538
  468MPD2     H 6968   0.248   0.194  10.761  0.1550 -2.5174  0.6384
  468MPD2    H1 6969   4.715   4.638  10.550  0.1746 -0.7953  0.4562
  468MPD2    H2 6970   4.706   0.323  10.445  1.6422  0.5325 -0.6183
  468MPD2    H3 6971   4.653   0.088  10.391 -0.5085 -2.2534  0.0405
  468MPD2     N 6972   0.172   4.661  10.753  0.5546  0.6336 -0.6736
  468MPD2    H5 6973   0.118   4.576  10.761  1.6600 -0.0507 -0.4033
  468MPD2    N1 6974   0.159   0.400  10.633 -0.3867  0.0088  0.1471
  468MPD2    H7 6975   0.237   0.408  10.698 -1.3710 -0.3260  1.3685
  469TMC3    C1 6976   0.188   0.635  10.625 -0.6728  0.2134 -0.7671
  469TMC3    C2 6977   0.321   0.627  10.636 -0.1715  0.1668 -0.0123
  469TMC3    C3 6978   0.380   0.736  10.696  0.1805 -0.3829 -0.0039
  469TMC3    C4 6979   0.112   0.726  10.695  0.6686 -0.7877  0.0907
  469TMC3    C5 6980   0.181   0.817  10.770  0.1779 -0.5954  0.2425
  469TMC3    C6 6981   0.319   0.832  10.769 -0.9375 -0.0006  0.1415
  469TMC3     C 6982   0.113   0.519  10.578  0.6066 -0.3086  0.0108
  469TMC3     O 6983   0.020   0.544  10.502 -0.3899 -0.0137  0.3738
  469TMC3     H 6984   0.381   0.554  10.583  1.8443  3.6347 -2.5067
  469TMC3    H1 6985   0.004   0.716  10.703  0.4337 -0.1629 -2.2368
  469TMC3    H2 6986   0.368   0.920  10.809  1.2125 -1.5626  0.9717
  469TMC3    C7 6987   0.092   0.891  10.865  0.2271  0.8327 -0.1267
  469TMC3    C8 6988   0.519   0.712  10.695  0.0935 -0.4079 -0.8772
  469TMC3    O1 6989   4.690   0.865  10.866 -0.5979  0.0919 -0.8259
  469TMC3    O2 6990   0.568   0.664  10.587 -0.2534 -0.2211  0.4878
  470TMC3    C1 6991   3.106   2.232   1.129 -0.1782 -0.4557 -1.0802
  470TMC3    C2 6992   3.036   2.349   1.101 -0.7449 -0.1717 -0.2112
  470TMC3    C3 6993   2.937   2.383   1.187  0.1885  0.0807  0.3026
  470TMC3    C4 6994   3.102   2.168   1.254 -0.0822 -0.0645 -0.4990
  470TMC3    C5 6995   3.007   2.215   1.340 -0.2742 -0.1547 -0.4720
  470TMC3    C6 6996   2.929   2.319   1.307  0.0346  0.4448  0.3772
  470TMC3     C 6997   3.191   2.185   1.025 -0.6936 -0.4118  0.0086
  470TMC3     O 6998   3.163   2.217   0.910 -0.2545  0.1877 -0.0492
  470TMC3     H 6999   3.038   2.402   1.007  2.0034 -0.3711 -0.2698
  470TMC3    H1 7000   3.160   2.083   1.287 -1.1063  0.3658  2.3778
  470TMC3    H2 7001   2.864   2.363   1.382 -1.6510 -1.6027  0.1602
  470TMC3    C7 7002   3.026   2.178   1.475  0.7894  0.5974  0.0455
  470TMC3    C8 7003   2.831   2.480   1.160 -0.7046  0.1254  0.0112
  470TMC3    O1 7004   3.125   2.111   1.498  1.0062  0.1794  0.0751
  470TMC3    O2 7005   2.806   2.547   1.261  0.2089  0.1990 -0.1430
  471MPD2     C 7006   2.758   3.400  16.558 -0.6145 -0.4010  0.3374
  471MPD2    C1 7007   2.825   3.290  16.520 -0.1546 -0.9255 -0.8766
  471MPD2    C2 7008   2.919   3.242  16.610  0.1183  0.4946 -0.0472
  471MPD2    C3 7009   2.941   3.314  16.728  0.8765  0.3213  0.6798
  471MPD2    C4 7010   2.883   3.434  16.762 -0.3576  0.0511 -0.5264
  471MPD2    C5 7011   2.788   3.478  16.672  0.0265  0.1753 -0.0687
  471MPD2     H 7012   2.974   3.151  16.589 -0.3065  0.4813 -1.0894
  471MPD2    H1 7013   2.897   3.483  16.857  1.4056  0.3074 -0.9273
  471MPD2    H2 7014   2.672   3.445  16.509  0.3139 -0.8008 -1.6441
  471MPD2    H3 7015   2.728   3.566  16.688  0.1356  0.6153 -2.0795
  471MPD2     N 7016   3.030   3.269  16.822  0.6660  0.2430  0.5177
  471MPD2    H5 7017   3.018   3.320  16.908  0.6957 -1.6030  1.6190
  471MPD2    N1 7018   2.792   3.210  16.408 -0.1704 -0.3361  0.4419
  471MPD2    H7 7019   2.848   3.127  16.391  1.9071  1.0431  0.5085
  472TMC3    C1 7020   2.679   3.138  16.204  0.4368  0.6732  0.3066
  472TMC3    C2 7021   2.614   3.184  16.097  0.1470  0.6533 -0.5332
  472TMC3    C3 7022   2.537   3.095  16.024 -0.3576 -0.5797 -0.1874
  472TMC3    C4 7023   2.697   3.005  16.233 -0.7451  0.8991  0.4485
  472TMC3    C5 7024   2.618   2.920  16.167 -0.4350 -0.2911  0.1907
  472TMC3    C6 7025   2.549   2.961  16.056  0.4362 -0.1967 -0.0041
  472TMC3     C 7026   2.693   3.237  16.310 -0.1690 -0.9699  0.3932
  472TMC3     O 7027   2.624   3.335  16.303 -0.2404 -0.0410  0.4914
  472TMC3     H 7028   2.627   3.289  16.071  2.0695  0.0441 -2.0241
  472TMC3    H1 7029   2.748   2.976  16.324 -0.2132 -1.2847 -0.5598
  472TMC3    H2 7030   2.491   2.882  16.008 -0.5192  0.7630 -0.4279
  472TMC3    C7 7031   2.530   2.849  16.265  0.2291  0.2791  0.6104
  472TMC3    C8 7032   2.397   3.126  16.024 -0.2510  0.7015  0.4976
  472TMC3    O1 7033   2.575   2.827  16.376 -0.0589  0.3380  0.6314
  472TMC3    O2 7034   2.313   3.036  16.034 -0.1467 -0.2909 -0.5369
  473MPD2     C 7035   2.633   0.398  13.850  0.5248  0.1276 -0.5001
  473MPD2    C1 7036   2.602   0.508  13.770 -0.3078  0.3399 -1.2726
  473MPD2    C2 7037   2.576   0.626  13.836  0.1397 -0.4292 -0.0761
  473MPD2    C3 7038   2.586   0.640  13.979  0.3404 -0.0297 -0.2107
  473MPD2    C4 7039   2.615   0.527  14.049  0.2634 -0.3840 -0.2841
  473MPD2    C5 7040   2.638   0.409  13.988  0.4776 -0.5720  0.6463
  473MPD2     H 7041   2.553   0.707  13.767  1.6335  0.4388  0.4534
  473MPD2    H1 7042   2.631   0.532  14.156  0.8941 -0.4966 -0.3735
  473MPD2    H2 7043   2.665   0.300  13.815  0.2488  0.1331 -0.7607
  473MPD2    H3 7044   2.658   0.322  14.049 -0.0515 -1.0179  0.1796
  473MPD2     N 7045   2.550   0.758  14.045  0.4301  0.9804  0.1416
  473MPD2    H5 7046   2.526   0.746  14.143  0.2055  0.2739  0.0027
  473MPD2    N1 7047   2.581   0.497  13.631 -0.0262  0.3734 -0.5679
  473MPD2    H7 7048   2.550   0.581  13.583  0.1515  1.7243  1.6999
  474TMC3    C1 7049   2.514   0.986  14.090  0.2650 -0.1987 -0.5109
  474TMC3    C2 7050   2.481   1.111  14.046  0.0237 -0.1542  0.4795
  474TMC3    C3 7051   2.430   1.202  14.132 -0.2187 -0.0231 -0.0595
  474TMC3    C4 7052   2.508   0.958  14.227 -0.6966  0.2151  0.3597
  474TMC3    C5 7053   2.467   1.055  14.306 -0.9892 -0.2573  0.5001
  474TMC3    C6 7054   2.419   1.172  14.263 -0.3507 -0.1451  0.6515
  474TMC3     C 7055   2.552   0.887  13.994  0.0711 -0.4802  1.0545
  474TMC3     O 7056   2.578   0.929  13.882  0.3502  0.1845  0.3024
  474TMC3     H 7057   2.477   1.129  13.939 -0.6270 -0.7251  0.4048
  474TMC3    H1 7058   2.570   0.878  14.266 -0.5502  0.7176  1.1723
  474TMC3    H2 7059   2.380   1.245  14.332  0.2596  0.5225  0.2996
  474TMC3    C7 7060   2.448   1.014  14.442 -0.9876 -1.0358  0.6544
  474TMC3    C8 7061   2.320   1.268  14.070 -0.0570  0.4567 -0.2300
  474TMC3    O1 7062   2.408   0.900  14.460 -0.1876  0.1187  0.1064
  474TMC3    O2 7063   2.210   1.215  14.081 -0.7739  0.0003 -1.2701
  475MPD2     C 7064   1.423   3.189  10.207  0.7002  0.4747  0.7837
  475MPD2    C1 7065   1.419   3.224  10.340  0.8784 -0.3919 -0.4781
  475MPD2    C2 7066   1.348   3.143  10.433  0.0211  0.3961 -0.3749
  475MPD2    C3 7067   1.284   3.031  10.392 -0.0679  0.1977  0.8157
  475MPD2    C4 7068   1.308   2.987  10.262 -0.1234  0.2209 -0.2182
  475MPD2    C5 7069   1.364   3.078  10.173 -0.7458  0.0742  0.2755
  475MPD2     H 7070   1.326   3.188  10.529 -0.0254  0.1862 -0.2860
  475MPD2    H1 7071   1.258   2.899  10.223 -1.1221 -0.2018  1.9726
  475MPD2    H2 7072   1.477   3.237  10.126 -0.6710  0.9613  0.1504
  475MPD2    H3 7073   1.370   3.046  10.070  0.2035 -2.8754  1.2493
  475MPD2     N 7074   1.192   2.976  10.480 -0.1364 -0.2147  0.5064
  475MPD2    H5 7075   1.198   3.024  10.569  2.7127  0.8880 -0.2595
  475MPD2    N1 7076   1.464   3.348  10.387  0.3499  0.7583  0.2762
  475MPD2    H7 7077   1.460   3.362  10.487  3.3154  1.2933  0.3354
  476TMC3    C1 7078   1.396   3.573  10.367  0.5944  0.0444 -0.6237
  476TMC3    C2 7079   1.289   3.587  10.289 -0.2653 -0.9238  0.7559
  476TMC3    C3 7080   1.165   3.590  10.352  0.2247  0.1555  0.2902
  476TMC3    C4 7081   1.391   3.577  10.506  0.1183  0.4200 -0.4196
  476TMC3    C5 7082   1.264   3.589  10.559  0.4387  1.0201 -0.1714
  476TMC3    C6 7083   1.151   3.595  10.485 -1.0017 -0.6218  0.0382
  476TMC3     C 7084   1.476   3.462  10.312 -0.2759  0.3778 -0.2319
  476TMC3     O 7085   1.487   3.470  10.190 -0.5813 -0.1083  0.3855
  476TMC3     H 7086   1.285   3.562  10.183  0.4636  0.4170  0.4184
  476TMC3    H1 7087   1.485   3.560  10.558 -0.9074 -1.0423  0.9724
  476TMC3    H2 7088   1.052   3.585  10.528 -0.2596 -2.1938  1.3610
  476TMC3    C7 7089   1.255   3.584  10.702  0.4526  0.3523  0.4834
  476TMC3    C8 7090   1.040   3.550  10.284  0.2129 -0.5488  0.6537
  476TMC3    O1 7091   1.161   3.525  10.746 -0.2799 -0.3941  0.3737
  476TMC3    O2 7092   0.938   3.611  10.313  0.4994 -0.3746  0.1989
  477MPD2     C 7093   3.793   0.326  11.386 -0.2155  0.3885 -0.1274
  477MPD2    C1 7094   3.741   0.202  11.412  0.9785 -0.7592  0.6405
  477MPD2    C2 7095   3.725   0.158  11.546  0.1917  0.0495  0.5396
  477MPD2    C3 7096   3.763   0.235  11.647  0.3810  0.4421  0.1557
  477MPD2    C4 7097   3.828   0.355  11.614  0.4646  0.0244 -0.3592
  477MPD2    C5 7098   3.835   0.400  11.489  0.3100 -0.3925  0.0257
  477MPD2     H 7099   3.662   0.076  11.579  0.4649 -0.4931 -0.2828
  477MPD2    H1 7100   3.857   0.414  11.700  0.8687 -0.7101  0.0087
  477MPD2    H2 7101   3.780   0.374  11.289 -0.4380 -0.1677 -0.3729
  477MPD2    H3 7102   3.872   0.499  11.464 -0.9575  0.4852  1.6683
  477MPD2     N 7103   3.733   0.191  11.780 -0.1892 -0.1381 -0.3202
  477MPD2    H5 7104   3.701   0.095  11.788  0.2327 -0.1749  0.8879
  477MPD2    N1 7105   3.711   0.116  11.304  0.1798  0.1129 -0.2425
  477MPD2    H7 7106   3.698   0.150  11.210 -1.1014  0.5390  0.0870
  478TMC3    C1 7107   3.602   4.654  11.205 -0.2886 -0.2856 -0.1126
  478TMC3    C2 7108   3.479   4.614  11.234  0.5254  0.1417  0.0459
  478TMC3    C3 7109   3.375   4.657  11.163  0.5388  0.6852 -0.4392
  478TMC3    C4 7110   3.633   0.004  11.091 -0.2944 -0.1152  0.3404
  478TMC3    C5 7111   3.526   0.047  11.015  0.0600 -0.2502  0.0254
  478TMC3    C6 7112   3.394   0.019  11.054 -0.4854  0.5328  0.1301
  478TMC3     C 7113   3.672   4.703  11.322  0.1721 -0.1276  0.2998
  478TMC3     O 7114   3.680   4.627  11.421  0.7968 -0.2249  0.2724
  478TMC3     H 7115   3.458   4.558  11.325  0.1102 -1.7433 -1.2125
  478TMC3    H1 7116   3.733   0.013  11.051  0.6255  0.3878  2.7749
  478TMC3    H2 7117   3.309   0.043  10.992  0.0362  2.4410  0.1663
  478TMC3    C7 7118   3.558   0.119  10.886  0.2315 -0.6595  0.1952
  478TMC3    C8 7119   3.263   4.692  11.245  0.3990  0.1567 -0.5475
  478TMC3    O1 7120   3.667   0.102  10.842 -0.8918  0.0881 -0.1040
  478TMC3    O2 7121   3.236   4.610  11.330 -0.2594  0.5063 -0.4494
  479MPD2     C 7122   2.138   2.843  15.224  0.1165 -0.3640  0.6895
  479MPD2    C1 7123   2.114   2.759  15.329 -0.1107  0.1363  0.2661
  479MPD2    C2 7124   2.216   2.738  15.425  0.1194 -0.5017  0.6509
  479MPD2    C3 7125   2.336   2.810  15.420  0.3364  0.4235  0.0515
  479MPD2    C4 7126   2.358   2.885  15.309  0.1853  1.0631  0.5396
  479MPD2    C5 7127   2.260   2.904  15.218  0.2234  0.4547 -0.0320
  479MPD2     H 7128   2.198   2.679  15.514 -2.0157  0.5739  0.9230
  479MPD2    H1 7129   2.452   2.936  15.292  0.5424  0.5877  1.0967
  479MPD2    H2 7130   2.072   2.871  15.143 -0.3840 -2.5966  0.3269
  479MPD2    H3 7131   2.278   2.963  15.129 -2.2496 -1.7731 -1.9870
  479MPD2     N 7132   2.440   2.807  15.516 -0.1339 -0.1130  0.2150
  479MPD2    H5 7133   2.525   2.842  15.473 -0.5932 -0.4357 -0.9487
  479MPD2    N1 7134   1.988   2.692  15.341  0.2985  0.0415 -1.3047
  479MPD2    H7 7135   1.918   2.719  15.273 -1.3712  2.4820  1.3855
  480TMC3    C1 7136   2.171   2.708  15.901  0.6238  0.3786 -0.2034
  480TMC3    C2 7137   2.085   2.819  15.877 -0.3949 -0.3981  0.4417
  480TMC3    C3 7138   2.120   2.907  15.780  0.5875 -0.1654 -0.0389
  480TMC3    C4 7139   2.294   2.697  15.833 -0.1923 -0.1835 -0.3569
  480TMC3    C5 7140   2.315   2.783  15.728  0.1690  0.2859  0.0918
  480TMC3    C6 7141   2.227   2.886  15.701  0.0420  0.1987 -0.7538
  480TMC3     C 7142   2.117   2.588  15.940 -0.6000  0.5620  0.5982
  480TMC3     O 7143   2.192   2.497  15.981 -0.2959  0.1204 -0.2376
  480TMC3     H 7144   1.997   2.842  15.936 -0.7841  0.0033 -0.2957
  480TMC3    H1 7145   2.368   2.620  15.851 -1.0084 -0.8157  0.3003
  480TMC3    H2 7146   2.247   2.948  15.615  0.0932 -2.3410 -2.5690
  480TMC3    C7 7147   2.433   2.750  15.644 -0.0585 -0.1894  0.0674
  480TMC3    C8 7148   2.002   2.964  15.720  0.2435 -0.2351 -0.0720
  480TMC3    O1 7149   2.533   2.717  15.712 -0.1395 -0.0232 -0.4882
  480TMC3    O2 7150   1.890   2.920  15.756  0.0582 -0.1248  0.1733
  481MPD2     C 7151   4.169   2.221  14.500 -0.1597 -0.3389 -0.6368
  481MPD2    C1 7152   4.042   2.165  14.485  0.3290 -0.2371  0.5830
  481MPD2    C2 7153   3.971   2.146  14.600 -0.1887 -0.3789  0.1849
  481MPD2    C3 7154   4.018   2.169  14.733 -0.3379  0.0830  0.4662
  481MPD2    C4 7155   4.139   2.225  14.743  0.3201 -0.5346 -0.3566
  481MPD2    C5 7156   4.213   2.246  14.627  0.4696 -0.3628 -0.2356
  481MPD2     H 7157   3.865   2.125  14.592 -0.2262 -0.5623  1.2080
  481MPD2    H1 7158   4.182   2.264  14.835 -2.1183 -1.0756  0.9970
  481MPD2    H2 7159   4.234   2.228  14.414  1.7053  1.5259  0.9304
  481MPD2    H3 7160   4.311   2.292  14.639  1.6501 -2.8739 -0.2063
  481MPD2     N 7161   3.934   2.153  14.849 -0.1850  0.2192 -0.2312
  481MPD2    H5 7162   3.985   2.160  14.936 -0.6466  0.3551  0.0279
  481MPD2    N1 7163   4.007   2.134  14.355 -0.2590  0.1308 -0.4868
  481MPD2    H7 7164   4.074   2.159  14.283  0.3628  0.5806  0.2455
  482TMC3    C1 7165   3.896   2.052  14.163 -0.1933 -0.4538  0.1010
  482TMC3    C2 7166   3.825   1.949  14.114  0.2727 -0.3839  0.4235
  482TMC3    C3 7167   3.864   1.906  13.989  0.5195  0.6545  0.1283
  482TMC3    C4 7168   3.996   2.106  14.091 -0.2701  0.6144  0.1734
  482TMC3    C5 7169   4.039   2.057  13.972 -0.5889 -0.3357 -0.6521
  482TMC3    C6 7170   3.974   1.949  13.919  1.1495 -0.8005 -0.1943
  482TMC3     C 7171   3.896   2.070  14.305 -0.4666  0.4350  0.3190
  482TMC3     O 7172   3.814   2.012  14.375  0.2568  0.4477  0.2283
  482TMC3     H 7173   3.732   1.915  14.157 -0.0813  0.9390  0.7124
  482TMC3    H1 7174   4.054   2.191  14.123 -1.2300  1.1899  0.3624
  482TMC3    H2 7175   4.007   1.905  13.826  0.7522  0.6500 -1.0237
  482TMC3    C7 7176   4.092   2.144  13.871 -0.2989 -0.0059 -0.1277
  482TMC3    C8 7177   3.758   1.865  13.906  0.0869 -0.0506 -0.1359
  482TMC3    O1 7178   4.044   2.116  13.761 -0.0677 -0.4114  0.1361
  482TMC3    O2 7179   3.655   1.811  13.949 -0.4374 -0.2426 -0.3479
  483TMC3    C1 7180   0.952   0.541   1.424  0.2539 -0.2130  0.1537
  483TMC3    C2 7181   0.910   0.540   1.294  0.2030 -0.3751  0.0688
  483TMC3    C3 7182   1.006   0.556   1.193 -0.8790  0.2323 -0.0200
  483TMC3    C4 7183   1.077   0.578   1.460  0.0760  0.3194 -0.1875
  483TMC3    C5 7184   1.172   0.595   1.364  0.4169 -0.1055  0.1595
  483TMC3    C6 7185   1.132   0.586   1.230  0.1128  0.0725 -0.2296
  483TMC3     C 7186   0.864   0.502   1.528 -0.4764  0.3812 -0.2156
  483TMC3     O 7187   0.884   0.561   1.635 -0.6658 -0.0748 -0.0447
  483TMC3     H 7188   0.808   0.513   1.270  0.4986 -0.5921 -0.9407
  483TMC3    H1 7189   1.099   0.563   1.566  2.2122 -0.2145 -0.7008
  483TMC3    H2 7190   1.213   0.595   1.159  0.1985 -2.9232 -0.5208
  483TMC3    C7 7191   1.304   0.561   1.400  0.2758  0.3258 -0.4832
  483TMC3    C8 7192   0.975   0.522   1.056 -0.2886  0.7692  0.1599
  483TMC3    O1 7193   1.313   0.477   1.486  0.6738  1.0150 -0.4687
  483TMC3    O2 7194   1.059   0.551   0.974 -0.3559  0.0138 -0.2721
  484MPD2     C 7195   4.087   3.800  12.810  0.3958 -0.2835 -0.5794
  484MPD2    C1 7196   4.152   3.679  12.780  0.1289  0.2926  0.0495
  484MPD2    C2 7197   4.264   3.685  12.704 -0.4888 -0.3527  0.1658
  484MPD2    C3 7198   4.317   3.811  12.672 -0.5439 -0.1392 -0.0623
  484MPD2    C4 7199   4.260   3.927  12.719 -0.2535 -0.6825  0.0263
  484MPD2    C5 7200   4.140   3.924  12.783 -0.2494  0.2296 -0.1962
  484MPD2     H 7201   4.313   3.595  12.667 -0.4589 -0.0318 -0.5702
  484MPD2    H1 7202   4.292   4.027  12.693  0.3264 -0.5579  1.2377
  484MPD2    H2 7203   3.991   3.809  12.859 -0.8101 -0.9666 -2.8486
  484MPD2    H3 7204   4.096   4.012  12.827  2.4468  0.5932  1.7555
  484MPD2     N 7205   4.450   3.829  12.628 -0.6309  0.0668 -0.1033
  484MPD2    H5 7206   4.482   3.926  12.623 -0.5540 -0.0478 -1.7895
  484MPD2    N1 7207   4.104   3.549  12.820 -0.5554 -0.4319  0.0312
  484MPD2    H7 7208   4.168   3.473  12.797 -0.1104  0.3667 -1.3113
  485TMC3    C1 7209   4.671   3.774  12.581  0.2405  0.1250  0.2234
  485TMC3    C2 7210   0.048   3.689  12.636  0.2870 -0.4579  0.3117
  485TMC3    C3 7211   0.175   3.716  12.601 -0.0589 -0.3489 -0.1778
  485TMC3    C4 7212   4.708   3.877  12.498 -0.6308  0.5253  0.3793
  485TMC3    C5 7213   0.116   3.893  12.456 -0.3004 -0.0546  0.0896
  485TMC3    C6 7214   0.208   3.815  12.512  0.0413 -0.3654 -0.7196
  485TMC3     C 7215   4.539   3.729  12.602  0.9283  0.6797  0.1984
  485TMC3     O 7216   4.529   3.605  12.597 -0.0738 -0.8828  0.2463
  485TMC3     H 7217   0.018   3.614  12.708  0.3842 -0.4989  0.3095
  485TMC3    H1 7218   4.628   3.925  12.443 -0.6940 -0.5154 -0.4501
  485TMC3    H2 7219   0.313   3.841  12.510  0.2476 -0.9421  3.1334
  485TMC3    C7 7220   0.141   3.904  12.310 -0.1256  0.4952  0.1070
  485TMC3    C8 7221   0.242   3.592  12.565 -0.6860  0.2282 -0.1901
  485TMC3    O1 7222   0.075   3.975  12.236  0.1427  0.1941  0.1824
  485TMC3    O2 7223   0.311   3.601  12.463 -0.3426 -0.2933  0.2476
  486MPD2     C 7224   1.958   2.552  13.183 -0.3984  0.7051 -0.6091
  486MPD2    C1 7225   1.876   2.488  13.095  0.1703 -0.0255 -0.4607
  486MPD2    C2 7226   1.784   2.567  13.025 -0.5341  0.4074  0.1658
  486MPD2    C3 7227   1.787   2.700  13.035  0.1470 -0.3132  0.1737
  486MPD2    C4 7228   1.878   2.762  13.116  0.5327 -0.0577 -0.5008
  486MPD2    C5 7229   1.958   2.691  13.199  0.1332  0.0702 -0.4145
  486MPD2     H 7230   1.712   2.520  12.959 -1.0408  2.0262 -0.4304
  486MPD2    H1 7231   1.873   2.870  13.129  2.6696 -0.1188  0.8942
  486MPD2    H2 7232   2.022   2.487  13.241 -0.3139  2.2156  0.9765
  486MPD2    H3 7233   2.036   2.721  13.268 -0.6667  1.8772 -0.3193
  486MPD2     N 7234   1.693   2.766  12.950  0.5676  0.9397 -0.1194
  486MPD2    H5 7235   1.664   2.706  12.873  3.0155  0.0040 -0.3121
  486MPD2    N1 7236   1.890   2.345  13.086  0.3562 -0.0869  0.4967
  486MPD2    H7 7237   1.973   2.311  13.134 -0.2058 -0.3482  1.2840
  487TMC3    C1 7238   1.822   2.118  13.068 -0.4168 -0.2984 -0.0808
  487TMC3    C2 7239   1.743   2.028  13.004  0.1805 -0.1547  0.1276
  487TMC3    C3 7240   1.755   1.892  13.047  0.0152 -0.0263 -0.1467
  487TMC3    C4 7241   1.906   2.086  13.170 -0.3128 -0.1117  0.4021
  487TMC3    C5 7242   1.911   1.958  13.210 -0.1079 -0.2135 -0.3222
  487TMC3    C6 7243   1.852   1.856  13.138  0.6102 -0.3001  0.1042
  487TMC3     C 7244   1.800   2.258  13.032  0.8559 -0.5242  0.3665
  487TMC3     O 7245   1.691   2.277  12.974  0.4251  0.1989 -0.0878
  487TMC3     H 7246   1.686   2.063  12.920  1.5237  2.2626  0.2386
  487TMC3    H1 7247   1.960   2.162  13.225  0.2146 -0.5598  0.5099
  487TMC3    H2 7248   1.849   1.753  13.170  4.3379  0.0943  1.7879
  487TMC3    C7 7249   1.913   1.947  13.356 -0.3774 -0.4025 -0.2078
  487TMC3    C8 7250   1.631   1.834  13.090  0.2671  0.7519 -0.2111
  487TMC3    O1 7251   2.016   1.984  13.416 -0.3861 -0.0159 -0.3674
  487TMC3    O2 7252   1.638   1.770  13.195  0.1815 -0.0166  0.7147
  488MPD2     C 7253   1.401   4.604  16.645  0.6212  0.6865  0.0853
  488MPD2    C1 7254   1.502   4.695  16.661  0.1589 -0.3090  0.6658
  488MPD2    C2 7255   1.518   0.042  16.781  0.1901 -0.2090 -0.0190
  488MPD2    C3 7256   1.446   0.006  16.890  0.0567 -0.1413  0.0747
  488MPD2    C4 7257   1.355   4.624  16.876  0.0265  0.1355 -1.3396
  488MPD2    C5 7258   1.339   4.554  16.754 -0.3173  0.5127 -0.4283
  488MPD2     H 7259   1.587   0.124  16.794 -1.2684  1.1789 -0.9455
  488MPD2    H1 7260   1.307   4.580  16.962  0.4968 -0.0717 -1.1822
  488MPD2    H2 7261   1.376   4.570  16.545  0.6024 -1.1038  0.6967
  488MPD2    H3 7262   1.265   4.475  16.747 -0.7261  0.6469  2.6513
  488MPD2     N 7263   1.463   0.083  17.003  0.7755  0.1292  0.0986
  488MPD2    H5 7264   1.521   0.166  17.000  1.1470 -0.1050  0.7366
  488MPD2    N1 7265   1.576   0.035  16.560 -0.4871  0.4228 -0.6178
  488MPD2    H7 7266   1.638   0.113  16.578 -0.7938  0.5592 -0.1539
  489TMC3    C1 7267   1.393   0.193  17.204  0.1517 -0.4179  0.0944
  489TMC3    C2 7268   1.501   0.274  17.198  0.2924  0.0273 -0.2746
  489TMC3    C3 7269   1.494   0.389  17.267  0.2974  0.6788 -0.2894
  489TMC3    C4 7270   1.293   0.219  17.295  0.1115  0.1659  0.6651
  489TMC3    C5 7271   1.287   0.338  17.366  0.6619  0.3960  0.0890
  489TMC3    C6 7272   1.393   0.426  17.353  0.2419  0.0832 -0.4631
  489TMC3     C 7273   1.377   0.082  17.113  0.3212 -0.8031  0.2827
  489TMC3     O 7274   1.289   0.002  17.141  0.5337  0.0788  0.1547
  489TMC3     H 7275   1.592   0.239  17.151 -0.4369 -1.1615 -0.7958
  489TMC3    H1 7276   1.222   0.141  17.320 -1.1323  0.4147 -2.0900
  489TMC3    H2 7277   1.365   0.524  17.390  1.2664  0.0149  0.4874
  489TMC3    C7 7278   1.157   0.365  17.431  0.6608 -0.1007  0.2027
  489TMC3    C8 7279   1.603   0.475  17.243 -0.2371  0.8672  0.0295
  489TMC3    O1 7280   1.070   0.288  17.403 -0.4517  0.5342 -1.0902
  489TMC3    O2 7281   1.678   0.437  17.153 -0.1818 -0.3264 -0.0290
  490MPD2     C 7282   3.180   3.537   0.237  1.0673  0.3967  0.1577
  490MPD2    C1 7283   3.107   3.629   0.300  1.3541 -0.4266 -0.6700
  490MPD2    C2 7284   3.135   3.654   0.430  0.5744  0.1324  0.1044
  490MPD2    C3 7285   3.228   3.588   0.505  0.0485  1.0864 -0.1618
  490MPD2    C4 7286   3.304   3.495   0.436 -0.5861 -0.0486  0.2472
  490MPD2    C5 7287   3.276   3.468   0.304  1.0533 -0.5246  0.2981
  490MPD2     H 7288   3.090   3.745   0.467 -0.4713 -1.2410  2.1725
  490MPD2    H1 7289   3.389   3.444   0.480 -1.6502  0.6456  3.0747
  490MPD2    H2 7290   3.161   3.493   0.140  0.5239  0.0886  0.3977
  490MPD2    H3 7291   3.341   3.397   0.254  1.1630  0.3973 -0.8715
  490MPD2     N 7292   3.264   3.621   0.642  0.2804  0.1474 -0.7625
  490MPD2    H5 7293   3.337   3.566   0.686  0.5975  0.4888 -0.8572
  490MPD2    N1 7294   2.995   3.688   0.242 -0.7389  0.2972 -0.7885
  490MPD2    H7 7295   2.935   3.731   0.312  0.0196  1.6240 -0.9369
  491TMC3    C1 7296   2.847   3.769   0.076  0.0097 -0.0462 -0.0571
  491TMC3    C2 7297   2.755   3.791   0.180  0.5692  0.7250 -0.4997
  491TMC3    C3 7298   2.621   3.777   0.153  0.6902 -0.6317 -0.4105
  491TMC3    C4 7299   2.805   3.755  17.629 -0.6811 -0.4828 -0.1924
  491TMC3    C5 7300   2.668   3.757  17.601  0.0521 -0.4568 -0.3395
  491TMC3    C6 7301   2.579   3.761   0.029 -0.4153  0.2614 -0.7148
  491TMC3     C 7302   2.981   3.709   0.111 -0.4175  0.6193  0.2260
  491TMC3     O 7303   3.055   3.693   0.020 -0.4870  0.2962 -0.2173
  491TMC3     H 7304   2.801   3.811   0.276  4.3047 -2.8997 -1.5468
  491TMC3    H1 7305   2.875   3.733  17.548 -1.5221 -0.2058 -0.9988
  491TMC3    H2 7306   2.477   3.757  17.671 -0.6825 -1.9091  0.2617
  491TMC3    C7 7307   2.620   3.719  17.468 -0.1929  0.2612 -1.2736
  491TMC3    C8 7308   2.518   3.776   0.254  0.3563 -0.6922  0.1593
  491TMC3    O1 7309   2.514   3.660  17.463  0.0354  0.3211 -0.0280
  491TMC3    O2 7310   2.419   3.708   0.221 -0.4361  0.4378  0.0047
  492MPD2     C 7311   3.313   3.176  10.705 -0.3844 -0.1242 -0.3079
  492MPD2    C1 7312   3.179   3.177  10.676  0.3829 -0.0951  0.6892
  492MPD2    C2 7313   3.083   3.148  10.772 -0.2474 -0.0975 -0.1782
  492MPD2    C3 7314   3.126   3.118  10.903 -0.4968  0.7741  0.0418
  492MPD2    C4 7315   3.260   3.126  10.929  0.2490 -0.8317 -0.2588
  492MPD2    C5 7316   3.352   3.150  10.837  0.1594  0.8374 -0.2752
  492MPD2     H 7317   2.977   3.163  10.752 -0.4933 -1.1935  0.2734
  492MPD2    H1 7318   3.299   3.101  11.027 -2.6219 -1.6316  0.6508
  492MPD2    H2 7319   3.378   3.188  10.619  0.2255 -0.3925  0.1148
  492MPD2    H3 7320   3.459   3.147  10.852  0.0835  2.1296  0.4977
  492MPD2     N 7321   3.044   3.093  11.013  0.0876  1.0049  0.4613
  492MPD2    H5 7322   3.082   3.093  11.107  0.9957 -0.2342  0.0848
  492MPD2    N1 7323   3.145   3.221  10.551 -0.5277  1.1166 -0.0579
  492MPD2    H7 7324   3.218   3.237  10.482 -0.2352 -1.5086 -0.3628
  493TMC3    C1 7325   3.050   3.321  10.373  0.0778  0.6507  0.4106
  493TMC3    C2 7326   3.173   3.383  10.342  0.0650  0.4961 -0.1936
  493TMC3    C3 7327   3.185   3.445  10.220  0.0703  0.5293 -0.6398
  493TMC3    C4 7328   2.950   3.326  10.281 -0.2263  0.4483 -0.6364
  493TMC3    C5 7329   2.965   3.393  10.166 -0.6389 -0.3747 -0.6777
  493TMC3    C6 7330   3.084   3.449  10.125  0.3520 -0.1204 -0.1266
  493TMC3     C 7331   3.029   3.255  10.499 -0.4310 -0.2239  0.7291
  493TMC3     O 7332   2.912   3.236  10.533 -0.2570  0.0606  0.2247
  493TMC3     H 7333   3.255   3.386  10.413 -0.4833  0.2967  0.4500
  493TMC3    H1 7334   2.856   3.280  10.309 -0.0723 -0.3097 -1.3696
  493TMC3    H2 7335   3.098   3.474  10.021 -2.6036 -1.1151 -0.7515
  493TMC3    C7 7336   2.844   3.408  10.088 -1.1193  0.0985  0.1653
  493TMC3    C8 7337   3.319   3.452  10.170  0.1499  0.2149  0.6729
  493TMC3    O1 7338   2.750   3.332  10.113  0.1095 -0.2882 -0.5619
  493TMC3    O2 7339   3.407   3.410  10.244  0.0761 -0.2783 -0.4719
  494TMC3    C1 7340   3.415   1.240   0.759  0.0490 -0.1033 -0.7905
  494TMC3    C2 7341   3.452   1.118   0.810 -0.3175  0.5494  0.5935
  494TMC3    C3 7342   3.494   1.019   0.727 -0.0760  0.8617 -0.0481
  494TMC3    C4 7343   3.420   1.265   0.624  0.2281 -0.6287 -0.5570
  494TMC3    C5 7344   3.466   1.163   0.545  0.4953 -0.5430  0.3967
  494TMC3    C6 7345   3.496   1.041   0.593  0.2447  0.1778  0.2529
  494TMC3     C 7346   3.348   1.338   0.842 -0.5410  0.2652 -0.2817
  494TMC3     O 7347   3.276   1.410   0.773 -0.3308 -0.4275 -0.1926
  494TMC3     H 7348   3.414   1.088   0.907  0.6884 -2.9141 -0.0705
  494TMC3    H1 7349   3.417   1.367   0.587  1.3497 -0.0375  0.9520
  494TMC3    H2 7350   3.555   0.981   0.525 -0.0219 -0.7769  0.8752
  494TMC3    C7 7351   3.438   1.164   0.402  0.2712  0.2610  1.0466
  494TMC3    C8 7352   3.457   0.888   0.768  0.7070 -0.6849 -0.6984
  494TMC3    O1 7353   3.500   1.075   0.345 -0.9516  0.2281  0.5564
  494TMC3    O2 7354   3.477   0.854   0.885 -0.4767  0.2540 -0.0225
  495TMC3    C1 7355   2.244   3.334  14.840 -0.4387 -0.2796  0.4637
  495TMC3    C2 7356   2.142   3.344  14.751  0.7065 -0.7869 -0.3060
  495TMC3    C3 7357   2.016   3.337  14.794  0.5149  0.3342 -0.3073
  495TMC3    C4 7358   2.224   3.320  14.977  0.2989 -0.6321 -0.3312
  495TMC3    C5 7359   2.096   3.339  15.015  0.4615 -0.9967  0.2838
  495TMC3    C6 7360   1.991   3.342  14.927 -0.6738  0.4310  0.3417
  495TMC3     C 7361   2.382   3.368  14.792 -0.5437 -0.0720  0.9986
  495TMC3     O 7362   2.446   3.444  14.864 -0.5370 -0.4014 -0.2097
  495TMC3     H 7363   2.159   3.357  14.644  0.9652 -1.4519 -0.3481
  495TMC3    H1 7364   2.306   3.331  15.047 -1.0815  0.3308  1.1166
  495TMC3    H2 7365   1.887   3.341  14.957 -1.4095  0.2260 -2.1802
  495TMC3    C7 7366   2.075   3.305  15.158  0.0064 -0.8028 -0.1573
  495TMC3    C8 7367   1.922   3.246  14.725 -0.3975  0.0531  0.6274
  495TMC3    O1 7368   2.149   3.338  15.247  0.2617  0.1737  0.1531
  495TMC3    O2 7369   1.842   3.190  14.796 -0.3296 -0.0749  0.1712
  496MPD2     C 7370   4.478   2.381  15.288 -0.6647  0.2369 -0.3115
  496MPD2    C1 7371   4.486   2.262  15.354 -0.1808  0.3089  0.2884
  496MPD2    C2 7372   4.380   2.219  15.437  0.0090 -0.4701 -0.1610
  496MPD2    C3 7373   4.271   2.302  15.443  0.3651 -0.5714 -1.0188
  496MPD2    C4 7374   4.262   2.428  15.377 -0.5459 -0.4476 -0.0934
  496MPD2    C5 7375   4.368   2.461  15.293 -0.1864 -0.4986 -0.2313
  496MPD2     H 7376   4.386   2.123  15.488  1.2965  0.6128  1.7232
  496MPD2    H1 7377   4.175   2.493  15.380 -1.5145 -1.6593 -1.8460
  496MPD2    H2 7378   4.556   2.397  15.214  0.8768 -0.8334  1.0820
  496MPD2    H3 7379   4.358   2.554  15.239 -3.3088 -0.7632 -0.0721
  496MPD2     N 7380   4.165   2.254  15.521  0.1167 -0.0035 -0.0383
  496MPD2    H5 7381   4.193   2.165  15.560  0.7434 -0.2868 -1.1380
  496MPD2    N1 7382   4.594   2.185  15.329 -0.5890  0.4217 -0.7172
  496MPD2    H7 7383   4.661   2.225  15.264  2.4852 -0.1855  2.1218
  497TMC3    C1 7384   3.960   2.258  15.642 -1.0050 -0.4753  0.3241
  497TMC3    C2 7385   3.940   2.121  15.639  0.1344 -0.1996 -0.4079
  497TMC3    C3 7386   3.867   2.063  15.746  0.1576  0.3119 -0.2277
  497TMC3    C4 7387   3.899   2.341  15.735  0.0559  0.9100 -0.6111
  497TMC3    C5 7388   3.837   2.273  15.833  0.2590 -0.3775  0.7997
  497TMC3    C6 7389   3.822   2.140  15.844 -0.5640  0.1010  0.8372
  497TMC3     C 7390   4.046   2.317  15.542 -0.5193  0.1933  0.1653
  497TMC3     O 7391   4.004   2.421  15.498 -0.2925  0.8340 -0.4793
  497TMC3     H 7392   3.992   2.061  15.566 -2.2002 -1.1579 -1.2724
  497TMC3    H1 7393   3.891   2.449  15.732 -1.9950  0.8670  3.0798
  497TMC3    H2 7394   3.779   2.098  15.934 -0.0187 -4.6219 -1.0835
  497TMC3    C7 7395   3.782   2.351  15.943 -0.3439  0.1108 -0.8133
  497TMC3    C8 7396   3.893   1.921  15.784  0.4490 -0.4827 -0.1410
  497TMC3    O1 7397   3.703   2.295  16.018  0.1505 -0.0002 -0.1585
  497TMC3    O2 7398   3.887   1.896  15.907  0.1941 -0.2024  0.7778
  498MPD2     C 7399   0.190   2.673   9.716  0.6439 -0.4199  0.2717
  498MPD2    C1 7400   0.298   2.621   9.787 -0.9467  0.4502 -0.1421
  498MPD2    C2 7401   0.290   2.495   9.835 -0.0412 -0.6607  0.2366
  498MPD2    C3 7402   0.184   2.409   9.800  0.4325  0.2990  0.0802
  498MPD2    C4 7403   0.079   2.459   9.731  0.7793 -0.0630  0.4080
  498MPD2    C5 7404   0.084   2.590   9.690  0.4727  0.1018 -0.2973
  498MPD2     H 7405   0.371   2.443   9.885  0.9348  1.1182  0.5159
  498MPD2    H1 7406   4.704   2.409   9.711 -0.4554  2.0811  0.8076
  498MPD2    H2 7407   0.183   2.775   9.680  0.9515 -0.9770 -1.3273
  498MPD2    H3 7408   0.008   2.628   9.623  0.3757 -2.8687 -1.8900
  498MPD2     N 7409   0.192   2.277   9.834 -0.1526 -0.8055  0.5643
  498MPD2    H5 7410   0.270   2.246   9.892 -2.0551 -2.1783  2.3624
  498MPD2    N1 7411   0.417   2.692   9.816  0.9526 -0.4825  0.1859
  498MPD2    H7 7412   0.482   2.637   9.872 -1.3317 -2.9640  0.4155
  499TMC3    C1 7413   0.590   2.857   9.780  0.1427  0.3275 -0.6348
  499TMC3    C2 7414   0.683   2.755   9.773  0.2158 -0.0452  0.0394
  499TMC3    C3 7415   0.815   2.791   9.765 -0.0446  0.6614 -0.0149
  499TMC3    C4 7416   0.627   2.991   9.790  0.0153 -0.5000 -0.2395
  499TMC3    C5 7417   0.764   3.016   9.772  0.0391  0.1162  0.4584
  499TMC3    C6 7418   0.858   2.918   9.764  0.1004 -0.3756  0.9690
  499TMC3     C 7419   0.449   2.822   9.775 -0.0057 -0.8420 -0.2196
  499TMC3     O 7420   0.372   2.914   9.744  0.6619  0.1743  0.2982
  499TMC3     H 7421   0.658   2.650   9.779 -0.2965 -0.0211 -1.6225
  499TMC3    H1 7422   0.548   3.065   9.798  1.0125  0.4641  0.6475
  499TMC3    H2 7423   0.963   2.935   9.743  0.3356 -1.5862  1.1865
  499TMC3    C7 7424   0.813   3.151   9.779 -0.2236  0.4091 -0.3739
  499TMC3    C8 7425   0.914   2.685   9.763 -0.1683 -0.3150  0.3108
  499TMC3    O1 7426   0.733   3.243   9.761  0.1939 -0.0260  0.3878
  499TMC3    O2 7427   1.030   2.715   9.779 -0.4406  0.6027  0.7317
  500MPD2     C 7428   2.519   4.018   9.964  0.0338  0.7139  0.0070
  500MPD2    C1 7429   2.531   4.154   9.946 -0.4980 -0.3470  0.1596
  500MPD2    C2 7430   2.413   4.231   9.961  0.3127  0.4113 -0.2252
  500MPD2    C3 7431   2.295   4.172  10.008  0.4706 -0.5414 -0.0615
  500MPD2    C4 7432   2.285   4.029  10.035 -0.2780 -0.1316  0.4753
  500MPD2    C5 7433   2.400   3.954  10.006 -0.3510 -0.0431  0.1637
  500MPD2     H 7434   2.420   4.338   9.947  1.4744  0.1561 -1.6388
  500MPD2    H1 7435   2.195   3.975  10.062 -1.0621  0.5111 -0.8452
  500MPD2    H2 7436   2.608   3.956   9.954  1.0032  2.4063 -1.7595
  500MPD2    H3 7437   2.402   3.848  10.028  0.4528  0.3625  1.9737
  500MPD2     N 7438   2.174   4.239  10.023 -0.2619 -0.4789 -0.5768
  500MPD2    H5 7439   2.089   4.193  10.054  0.1989 -1.0256 -0.1228
  500MPD2    N1 7440   2.656   4.205   9.926  0.2685  0.1594 -0.0998
  500MPD2    H7 7441   2.731   4.140   9.948  0.3388  0.2461 -0.0861
  501TMC3    C1 7442   2.833   4.359   9.858  0.8049  0.6484 -0.3635
  501TMC3    C2 7443   2.847   4.489   9.829 -0.1552  0.6115  0.2575
  501TMC3    C3 7444   2.962   4.552   9.869  0.2512  0.1529  0.0423
  501TMC3    C4 7445   2.926   4.307   9.947 -0.1918 -0.3591  0.2422
  501TMC3    C5 7446   3.038   4.370   9.983  0.8779 -0.6837 -0.5284
  501TMC3    C6 7447   3.066   4.496   9.940  0.1791 -0.1131 -0.1343
  501TMC3     C 7448   2.685   4.326   9.883 -0.8747  0.5478  0.2701
  501TMC3     O 7449   2.603   4.410   9.853 -0.5456 -0.2187 -0.3203
  501TMC3     H 7450   2.767   4.548   9.785  2.2874  1.7807 -2.6339
  501TMC3    H1 7451   2.899   4.214   9.994 -3.4658  0.6774  0.3927
  501TMC3    H2 7452   3.154   4.547   9.978 -1.7168  3.3873 -0.4503
  501TMC3    C7 7453   3.127   4.309  10.076 -0.0983  0.4844 -0.8138
  501TMC3    C8 7454   2.938   4.690   9.902 -0.3033  0.0300  0.0361
  501TMC3    O1 7455   3.093   4.207  10.135  0.6402  0.1913 -0.2442
  501TMC3    O2 7456   2.970   4.714  10.018  0.4256  0.0231  0.1952
  502TMC3    C1 7457   1.526   3.870  15.123  0.5154  0.2891 -0.0430
  502TMC3    C2 7458   1.460   3.979  15.081 -0.2095  0.3880  0.0830
  502TMC3    C3 7459   1.324   3.968  15.052  0.0781  0.6881  0.0125
  502TMC3    C4 7460   1.467   3.743  15.122  0.0894  0.6313 -0.6040
  502TMC3    C5 7461   1.338   3.730  15.082  1.3930  0.7269 -0.4874
  502TMC3    C6 7462   1.262   3.837  15.053 -0.0759 -0.0190 -0.0507
  502TMC3     C 7463   1.656   3.899  15.185 -0.0554 -0.5195 -0.1772
  502TMC3     O 7464   1.719   3.995  15.140  0.3331  0.1897 -0.2968
  502TMC3     H 7465   1.512   4.074  15.076  0.5530 -0.0745 -0.6315
  502TMC3    H1 7466   1.520   3.655  15.156 -0.7310  0.5428  0.4326
  502TMC3    H2 7467   1.161   3.832  15.015 -0.0467 -1.3165  0.0471
  502TMC3    C7 7468   1.274   3.608  15.131  0.0630  0.1946  0.8385
  502TMC3    C8 7469   1.253   4.094  15.027 -0.1696  0.1665  0.6501
  502TMC3    O1 7470   1.341   3.525  15.195  0.2640 -0.2067 -0.7110
  502TMC3    O2 7471   1.321   4.188  14.988  0.0084 -0.3886  0.8029
  503MPD2     C 7472   3.400   0.019  16.888  0.1566 -0.6952 -0.4712
  503MPD2    C1 7473   3.413   4.719  17.024  0.6843 -0.5145  0.1430
  503MPD2    C2 7474   3.471   4.600  17.070 -0.5732 -0.1078 -0.5548
  503MPD2    C3 7475   3.526   4.511  16.983  0.2010  0.2230  0.0063
  503MPD2    C4 7476   3.507   4.533  16.847  0.1631  0.5372 -0.2028
  503MPD2    C5 7477   3.449   4.644  16.801  0.9223 -0.6502 -0.9786
  503MPD2     H 7478   3.474   4.584  17.177 -0.5141  2.4633 -0.1729
  503MPD2    H1 7479   3.558   4.470  16.775 -0.7358  1.7575 -1.8969
  503MPD2    H2 7480   3.362   0.110  16.843 -0.2247 -0.8053 -0.3762
  503MPD2    H3 7481   3.432   4.650  16.694  0.7846 -4.4615 -1.1718
  503MPD2     N 7482   3.601   4.402  17.041  0.9056  0.0481 -0.2763
  503MPD2    H5 7483   3.604   4.405  17.142  1.4020 -0.5812 -0.2699
  503MPD2    N1 7484   3.380   0.097  17.123 -0.1859  0.4468  0.3906
  503MPD2    H7 7485   3.388   0.076  17.222  1.9637 -0.9545 -0.0607
  504TMC3    C1 7486   3.738   4.210  17.069 -0.1717  0.2953  0.4744
  504TMC3    C2 7487   3.700   4.180  17.196  0.2943  0.3934 -0.1855
  504TMC3    C3 7488   3.774   4.092  17.267 -0.7393  0.9424  0.0468
  504TMC3    C4 7489   3.855   4.168  17.022 -0.4393  0.6472  0.0211
  504TMC3    C5 7490   3.921   4.071  17.092  0.1653  0.2008 -0.6756
  504TMC3    C6 7491   3.882   4.025  17.215 -0.6322 -0.0990  0.5969
  504TMC3     C 7492   3.674   4.303  16.976  0.1666 -1.1736  0.5862
  504TMC3     O 7493   3.705   4.299  16.856  0.2837  0.2734  0.2348
  504TMC3     H 7494   3.607   4.217  17.239  0.3234 -0.1610  0.3534
  504TMC3    H1 7495   3.889   4.184  16.921  0.3453 -1.1104  0.0021
  504TMC3    H2 7496   3.949   3.965  17.275 -0.0282 -0.3820 -0.3595
  504TMC3    C7 7497   3.995   3.972  17.017  0.1389 -0.4526  0.2456
  504TMC3    C8 7498   3.753   4.101  17.412  0.4462 -1.0545  0.6465
  504TMC3    O1 7499   4.033   4.005  16.908  0.3354 -0.1658 -0.4757
  504TMC3    O2 7500   3.688   4.198  17.444  0.6924 -0.0544 -0.2574
  505MPD2     C 7501   4.457   1.073  10.583  0.8543  0.0594 -0.4129
  505MPD2    C1 7502   4.590   1.041  10.569  0.0489  0.1041 -0.3877
  505MPD2    C2 7503   4.684   1.104  10.648 -0.4252 -0.5902  0.1274
  505MPD2    C3 7504   4.654   1.196  10.745 -0.1050  0.0291  0.1623
  505MPD2    C4 7505   4.516   1.221  10.765 -0.1110  0.5498  0.2271
  505MPD2    C5 7506   4.422   1.154  10.688 -0.3450  0.1703  0.5276
  505MPD2     H 7507   0.070   1.083  10.632 -0.7552 -0.1200 -2.5879
  505MPD2    H1 7508   4.490   1.300  10.835 -0.1180  1.2405 -0.5552
  505MPD2    H2 7509   4.383   1.039  10.511 -1.7043 -0.7221  2.5706
  505MPD2    H3 7510   4.315   1.175  10.693 -0.6478 -1.2282 -0.0194
  505MPD2     N 7511   0.034   1.275  10.806  0.7277  0.0097 -0.4832
  505MPD2    H5 7512   0.125   1.246  10.770  0.7281  0.6451 -1.0124
  505MPD2    N1 7513   4.614   0.942  10.471 -0.1135  0.4424  0.3847
  505MPD2    H7 7514   4.541   0.903  10.413 -1.2511 -0.3387  2.3699
  506TMC3    C1 7515   0.026   0.805  10.320  0.3919  0.1222  0.6719
  506TMC3    C2 7516   4.690   0.877  10.211 -0.2765  0.0838 -0.1561
  506TMC3    C3 7517   0.043   0.924  10.108  0.0539 -0.2712 -0.5221
  506TMC3    C4 7518   0.165   0.793  10.317 -0.0562  0.3671  0.1567
  506TMC3    C5 7519   0.235   0.848  10.209  0.1103  0.0465  0.3281
  506TMC3    C6 7520   0.180   0.910  10.102 -0.0236  0.7121  0.5519
  506TMC3     C 7521   0.016   0.893  10.434 -0.5372 -0.7918 -0.7733
  506TMC3     O 7522   0.127   0.933  10.469  0.5050 -0.2140  1.1575
  506TMC3     H 7523   4.583   0.895  10.203 -0.2543  1.5297  2.7053
  506TMC3    H1 7524   0.215   0.738  10.396 -0.2353  0.1772  0.1358
  506TMC3    H2 7525   0.237   0.953  10.021 -2.8593  0.1525 -1.7319
  506TMC3    C7 7526   0.376   0.878  10.235  0.0805 -0.2064 -0.3145
  506TMC3    C8 7527   4.695   1.008  10.011 -0.2398  0.1843  0.3312
  506TMC3    O1 7528   0.463   0.874  10.146  0.6242  0.1211 -0.0493
  506TMC3    O2 7529   4.583   0.970   9.976 -0.5015  0.4530 -0.2326
  507TMC3    C1 7530   0.010   3.588  14.596 -0.2214  0.2827  0.3636
  507TMC3    C2 7531   4.671   3.481  14.532 -0.2440 -0.0724  0.3789
  507TMC3    C3 7532   4.617   3.507  14.406  0.6727  0.1892  0.7227
  507TMC3    C4 7533   0.026   3.707  14.529 -0.1007  0.8184  0.1467
  507TMC3    C5 7534   4.703   3.722  14.402 -1.1178 -0.1261 -0.1188
  507TMC3    C6 7535   4.642   3.623  14.332  0.4107 -0.7772 -0.3266
  507TMC3     C 7536   4.682   3.598  14.731  0.8887 -0.4574 -0.3272
  507TMC3     O 7537   0.008   3.690  14.792  0.0683  0.4247  0.2763
  507TMC3     H 7538   4.665   3.379  14.568  1.0441  0.1419  1.1963
  507TMC3    H1 7539   0.044   3.793  14.592 -0.5668  0.4197  0.8225
  507TMC3    H2 7540   4.605   3.629  14.230  0.8723 -1.5917 -0.5418
  507TMC3    C7 7541   4.657   3.854  14.364 -0.5811  0.4012  0.3617
  507TMC3    C8 7542   4.472   3.497  14.431 -0.3348  0.7028  0.2260
  507TMC3    O1 7543   4.580   3.860  14.268  0.4966  0.6953  0.6792
  507TMC3    O2 7544   4.448   3.418  14.519 -0.0773  0.2607  1.0105
  508MPD2     C 7545   0.947   1.133  16.308 -0.2911  0.3381  0.0535
  508MPD2    C1 7546   1.026   1.243  16.339  0.0147  0.0644  0.6979
  508MPD2    C2 7547   1.007   1.369  16.273  0.9420 -0.4604  0.3736
  508MPD2    C3 7548   0.910   1.378  16.176  0.9745  0.5449 -0.3687
  508MPD2    C4 7549   0.832   1.270  16.152 -0.0376 -0.6823 -0.6194
  508MPD2    C5 7550   0.847   1.151  16.216 -0.5164  0.0903 -0.1785
  508MPD2     H 7551   1.062   1.459  16.300 -0.5952  0.9142 -1.1047
  508MPD2    H1 7552   0.770   1.279  16.064  0.3674 -1.0176 -0.9433
  508MPD2    H2 7553   0.955   1.041  16.364  0.9381  0.2270 -0.3236
  508MPD2    H3 7554   0.782   1.071  16.183  0.3683 -1.6704  2.4071
  508MPD2     N 7555   0.881   1.512  16.139  0.0387 -0.2973  0.0253
  508MPD2    H5 7556   0.950   1.583  16.158 -1.3932  1.3227 -0.8428
  508MPD2    N1 7557   1.106   1.253  16.451 -0.1986  0.0908 -0.1207
  508MPD2    H7 7558   1.127   1.343  16.493 -0.7834 -0.4196  1.2623
  509TMC3    C1 7559   0.627   1.885  15.980 -0.1194 -0.2849 -0.0022
  509TMC3    C2 7560   0.733   1.970  15.983  0.0021  0.4069  0.8389
  509TMC3    C3 7561   0.856   1.921  16.025 -0.0013  0.1187 -0.0996
  509TMC3    C4 7562   0.647   1.750  16.015 -0.1247  0.7567 -0.2576
  509TMC3    C5 7563   0.768   1.702  16.055  0.2735 -0.4347  0.3658
  509TMC3    C6 7564   0.875   1.788  16.056 -0.6208  0.5481 -0.4707
  509TMC3     C 7565   0.498   1.919  15.913  0.0603  0.2397  0.2676
  509TMC3     O 7566   0.401   1.850  15.938  0.1320 -0.3991  0.4030
  509TMC3     H 7567   0.726   2.069  15.939 -1.9477 -0.3596 -0.6210
  509TMC3    H1 7568   0.565   1.680  16.012  1.3494 -0.9495 -0.5381
  509TMC3    H2 7569   0.971   1.748  16.084 -1.5242 -1.9556 -0.9563
  509TMC3    C7 7570   0.769   1.559  16.074  0.1086  0.1298 -0.0748
  509TMC3    C8 7571   0.982   1.997  15.997 -0.9698 -0.4713  0.3387
  509TMC3    O1 7572   0.669   1.497  16.037 -0.4531  0.5554 -0.3203
  509TMC3    O2 7573   1.084   1.934  15.978  0.4358 -0.5271 -0.5573
  510MPD2     C 7574   3.279   3.203  14.390  0.0762 -0.0088 -0.1126
  510MPD2    C1 7575   3.303   3.095  14.471 -0.1871 -0.0359 -0.8221
  510MPD2    C2 7576   3.422   3.038  14.458  0.1830 -0.5400 -0.4170
  510MPD2    C3 7577   3.520   3.069  14.366 -0.2150 -0.2002 -0.0442
  510MPD2    C4 7578   3.489   3.174  14.279 -0.0996  0.3942 -0.1663
  510MPD2    C5 7579   3.373   3.240  14.295 -0.3083 -0.2274  0.0919
  510MPD2     H 7580   3.433   2.944  14.511 -0.5832 -1.5922 -2.1140
  510MPD2    H1 7581   3.554   3.209  14.200  1.7062  1.3381  1.7372
  510MPD2    H2 7582   3.185   3.257  14.394  0.2389  0.2139  0.6612
  510MPD2    H3 7583   3.353   3.320  14.225  0.7571  0.7174  0.8719
  510MPD2     N 7584   3.639   2.998  14.375  0.0805  0.2770  0.3567
  510MPD2    H5 7585   3.645   2.928  14.449 -1.7545  0.2493  0.4849
  510MPD2    N1 7586   3.200   3.069  14.565 -0.3045  0.1565 -0.0415
  510MPD2    H7 7587   3.120   3.131  14.571 -1.6087 -1.4654 -0.5037
  511TMC3    C1 7588   3.090   2.956  14.728  0.2150 -0.0673 -0.6050
  511TMC3    C2 7589   3.053   3.057  14.808 -0.1293  0.4768 -0.4197
  511TMC3    C3 7590   2.959   3.030  14.904 -0.1377 -0.5285 -0.2317
  511TMC3    C4 7591   3.034   2.831  14.737  0.5343 -0.7050  0.8064
  511TMC3    C5 7592   2.939   2.812  14.829 -0.0536  0.7189  0.3901
  511TMC3    C6 7593   2.903   2.905  14.920 -0.2819  0.6691  0.1008
  511TMC3     C 7594   3.198   2.957  14.639  0.5669 -0.1174 -0.1563
  511TMC3     O 7595   3.272   2.861  14.638 -0.2846  0.0621  0.2851
  511TMC3     H 7596   3.099   3.155  14.801  0.6132  0.1364 -0.3225
  511TMC3    H1 7597   3.064   2.748  14.674  0.9873  2.6461 -3.3862
  511TMC3    H2 7598   2.838   2.875  15.002  1.0099 -0.1345  0.8189
  511TMC3    C7 7599   2.872   2.684  14.813 -0.7146 -0.7498  0.3491
  511TMC3    C8 7600   2.920   3.140  14.992 -0.6547  0.4479 -0.4763
  511TMC3    O1 7601   2.860   2.648  14.699  0.2641 -0.2778 -0.0986
  511TMC3    O2 7602   2.988   3.245  14.987 -0.1373 -0.0604  0.4621
  512TMC3    C1 7603   2.573   2.355  13.151  0.1514  0.4593 -0.4076
  512TMC3    C2 7604   2.702   2.320  13.166 -0.3812  0.2404  0.1577
  512TMC3    C3 7605   2.736   2.194  13.140  0.0781 -0.0295  0.4556
  512TMC3    C4 7606   2.478   2.273  13.109 -0.7865 -0.2819 -0.6761
  512TMC3    C5 7607   2.518   2.149  13.079 -0.5517 -0.3878  0.4149
  512TMC3    C6 7608   2.641   2.102  13.107  0.2085  0.3510 -0.3960
  512TMC3     C 7609   2.541   2.495  13.195 -0.0465  0.0034 -0.1955
  512TMC3     O 7610   2.617   2.535  13.283 -0.5477 -0.5291  0.1901
  512TMC3     H 7611   2.780   2.395  13.169 -1.8716  1.7412  1.3540
  512TMC3    H1 7612   2.375   2.307  13.103 -0.8200 -0.2470  0.0987
  512TMC3    H2 7613   2.668   1.998  13.093 -0.8084 -0.1746  1.5574
  512TMC3    C7 7614   2.413   2.056  13.106 -0.4584  0.6290  0.7431
  512TMC3    C8 7615   2.864   2.144  13.187  0.0823  0.4825  0.2549
  512TMC3    O1 7616   2.310   2.095  13.158 -0.0607 -0.1369 -0.3134
  512TMC3    O2 7617   2.857   2.022  13.198  0.1223 -0.5707 -0.3551
  513MPD2     C 7618   4.403   1.753  13.094 -0.0048  0.6375 -0.5290
  513MPD2    C1 7619   4.513   1.834  13.047 -0.4670  0.5648  0.4367
  513MPD2    C2 7620   4.531   1.951  13.107  0.2501 -0.0763 -0.6097
  513MPD2    C3 7621   4.458   1.996  13.211 -0.2791  0.4862  0.0545
  513MPD2    C4 7622   4.360   1.920  13.259  0.5096 -0.5082  0.5594
  513MPD2    C5 7623   4.329   1.798  13.200 -0.6961  0.3119 -0.4556
  513MPD2     H 7624   4.616   2.004  13.066  0.6708 -0.9245 -0.8507
  513MPD2    H1 7625   4.290   1.958  13.333 -1.9351 -1.9562 -0.9957
  513MPD2    H2 7626   4.382   1.661  13.041 -0.3383  0.1530  0.4279
  513MPD2    H3 7627   4.246   1.734  13.230  0.3373 -0.2232  1.2765
  513MPD2     N 7628   4.494   2.118  13.262  0.2138 -0.2855 -0.5100
  513MPD2    H5 7629   4.565   2.172  13.214  1.5949 -2.3136 -0.7061
  513MPD2    N1 7630   4.590   1.798  12.932 -0.3049  0.1580 -0.4385
  513MPD2    H7 7631   4.658   1.871  12.915 -0.8112  0.7282 -0.0000
  514TMC3    C1 7632   4.683   1.707  12.747 -0.0635 -0.2027  0.0618
  514TMC3    C2 7633   4.647   1.720  12.619  0.6302 -0.0988  0.0277
  514TMC3    C3 7634   4.712   1.812  12.544  0.3822 -0.5464  0.0544
  514TMC3    C4 7635   0.069   1.777  12.800 -0.8805 -0.0456  0.5079
  514TMC3    C5 7636   0.117   1.881  12.728 -0.2732 -0.4615 -0.3586
  514TMC3    C6 7637   0.087   1.893  12.596  0.2247 -0.3010 -0.2896
  514TMC3     C 7638   4.573   1.696  12.839  0.4236 -0.1998  0.4958
  514TMC3     O 7639   4.482   1.618  12.818 -0.2922  0.0039  0.1435
  514TMC3     H 7640   4.559   1.667  12.583 -0.1821  0.3962  1.2968
  514TMC3    H1 7641   0.089   1.767  12.906 -1.4883 -1.4615  0.4893
  514TMC3    H2 7642   0.113   1.986  12.545  0.4973 -0.6425 -0.7709
  514TMC3    C7 7643   0.106   2.015  12.788 -0.5073  0.1320 -0.0682
  514TMC3    C8 7644   4.674   1.818  12.406  0.1296  0.5997 -0.1409
  514TMC3    O1 7645   0.037   2.011  12.889  0.0276 -0.0263 -0.1274
  514TMC3    O2 7646   4.566   1.764  12.372 -0.2701  0.5450 -0.9423
  515MPD2     C 7647   2.256   4.322  15.307 -0.0964  0.2124  0.3970
  515MPD2    C1 7648   2.240   4.354  15.171 -1.0029 -0.1163 -0.0839
  515MPD2    C2 7649   2.261   4.476  15.123 -0.2347  0.0267 -0.0658
  515MPD2    C3 7650   2.328   4.567  15.201 -0.1575  0.0451  0.0871
  515MPD2    C4 7651   2.338   4.545  15.334  1.0022  0.8469 -0.3059
  515MPD2    C5 7652   2.293   4.428  15.387 -0.0922 -0.3402 -0.6228
  515MPD2     H 7653   2.241   4.492  15.018 -0.3505 -1.9450 -0.3375
  515MPD2    H1 7654   2.397   4.610  15.397 -1.1293 -0.4821  3.0142
  515MPD2    H2 7655   2.229   4.229  15.358 -1.1003  0.0272 -0.4645
  515MPD2    H3 7656   2.312   4.409  15.492  1.1626  0.5817 -0.6904
  515MPD2     N 7657   2.376   4.691  15.147  0.6589  0.2625  0.3071
  515MPD2    H5 7658   2.403   0.043  15.214 -2.7563 -1.2111  3.2750
  515MPD2    N1 7659   2.200   4.252  15.086  0.1147 -0.5388 -0.6889
  515MPD2    H7 7660   2.167   4.276  14.993  1.7302 -3.0597 -1.9236
  516TMC3    C1 7661   2.115   4.040  15.023 -0.5721  0.5474 -0.5472
  516TMC3    C2 7662   2.001   4.085  14.954  0.0878 -0.0394 -0.0597
  516TMC3    C3 7663   1.925   3.988  14.884  0.4192 -1.1285 -0.1554
  516TMC3    C4 7664   2.152   3.911  15.010  0.0292 -0.1108 -0.5148
  516TMC3    C5 7665   2.073   3.822  14.948  0.1163  0.0409  0.3217
  516TMC3    C6 7666   1.964   3.857  14.869 -0.6177  0.1453  0.4163
  516TMC3     C 7667   2.181   4.120  15.125 -0.5661 -0.0518 -0.1273
  516TMC3     O 7668   2.226   4.057  15.218 -0.4977  0.5061 -0.1283
  516TMC3     H 7669   1.961   4.178  14.992  0.7714 -0.3886  1.5205
  516TMC3    H1 7670   2.241   3.883  15.065 -0.2716 -2.3173 -1.1584
  516TMC3    H2 7671   1.909   3.791  14.803 -2.0196  0.8798  0.8301
  516TMC3    C7 7672   2.039   3.714  15.040 -0.1679  0.1917 -0.4121
  516TMC3    C8 7673   1.802   4.024  14.820  0.3046  0.1506  0.0084
  516TMC3    O1 7674   2.103   3.712  15.144 -0.3073  0.1050  0.4425
  516TMC3    O2 7675   1.722   3.934  14.795  0.3411  0.7331  0.1147
  517MPD2     C 7676   1.359   4.630  17.495 -0.5680 -0.4030 -0.1955
  517MPD2    C1 7677   1.445   0.018  17.541 -0.5189 -0.5757 -0.4861
  517MPD2    C2 7678   1.386   0.114  17.614 -0.1721  0.0660  0.0103
  517MPD2    C3 7679   1.252   0.110  17.651 -0.1741 -0.1081 -0.3653
  517MPD2    C4 7680   1.168   0.007  17.606 -0.2512 -0.7172 -0.7545
  517MPD2    C5 7681   1.224   4.626  17.527  0.6160  0.7927 -0.1115
  517MPD2     H 7682   1.448   0.192  17.655  1.0610 -0.6297 -0.5405
  517MPD2    H1 7683   1.066   4.712  17.638 -0.8457 -0.9596 -2.7324
  517MPD2    H2 7684   1.402   4.547  17.440 -1.7862 -1.1771  0.0230
  517MPD2    H3 7685   1.155   4.548  17.496  1.2829  0.4845 -0.8227
  517MPD2     N 7686   1.192   0.205   0.054 -0.4172 -0.5891 -0.0828
  517MPD2    H5 7687   1.099   0.191   0.091 -0.4146  0.6288  0.3926
  517MPD2    N1 7688   1.581   0.030  17.509  0.1356  0.9210  0.0775
  517MPD2    H7 7689   1.623   0.116  17.542  0.3908  0.6768  0.3992
  518TMC3    C1 7690   1.765   0.010  17.366 -0.4628  0.3703 -0.8077
  518TMC3    C2 7691   1.773   4.718  17.232 -0.6088  0.2216  0.0928
  518TMC3    C3 7692   1.861   0.081  17.169 -1.0141 -0.0873 -0.1944
  518TMC3    C4 7693   1.838   0.103  17.436 -0.1209  0.1391  0.0797
  518TMC3    C5 7694   1.932   0.176  17.367 -0.4696 -0.4476 -0.4174
  518TMC3    C6 7695   1.947   0.168  17.233  0.8692 -0.3612 -0.4268
  518TMC3     C 7696   1.649   4.663  17.427  0.3018  0.0944 -0.0430
  518TMC3     O 7697   1.613   4.564  17.366 -0.1423  0.4230  0.1939
  518TMC3     H 7698   1.716   4.647  17.174 -2.6097  2.3420 -0.5519
  518TMC3    H1 7699   1.823   0.116  17.543  0.9700  1.2598  0.0923
  518TMC3    H2 7700   2.017   0.236  17.185  1.1679 -0.3615  0.0118
  518TMC3    C7 7701   1.996   0.282  17.444  0.2047  0.0050  0.4052
  518TMC3    C8 7702   1.909   0.026  17.047  1.0413 -0.0293 -0.6728
  518TMC3    O1 7703   1.935   0.326  17.541 -0.0386  0.1691 -0.2560
  518TMC3    O2 7704   1.889   4.624  17.030 -0.5652  0.1854 -0.0224
  519MPD2     C 7705   4.015   4.528  14.052  0.4944 -0.9053  0.3962
  519MPD2    C1 7706   3.903   4.450  14.075  0.5180 -0.9114  0.4215
  519MPD2    C2 7707   3.913   4.311  14.051  0.3329  0.7662 -0.3339
  519MPD2    C3 7708   4.034   4.249  14.021 -0.0806  0.3737  0.0402
  519MPD2    C4 7709   4.142   4.328  14.001  0.5665  0.0743  0.3040
  519MPD2    C5 7710   4.128   4.462  14.011 -0.3174  0.1360  0.2143
  519MPD2     H 7711   3.825   4.250  14.066  0.3327  1.3067  1.9271
  519MPD2    H1 7712   4.234   4.282  13.969 -0.4359 -1.6454 -0.1323
  519MPD2    H2 7713   4.001   4.635  14.059  0.0190 -1.0181  1.1353
  519MPD2    H3 7714   4.210   4.530  13.991  0.4368 -1.2040 -1.3010
  519MPD2     N 7715   4.052   4.105  14.003 -0.6757 -0.0591 -0.0679
  519MPD2    H5 7716   4.139   4.056  13.982 -0.2162 -0.5025  2.8845
  519MPD2    N1 7717   3.778   4.507  14.090 -0.1415 -0.0256 -0.0361
  519MPD2    H7 7718   3.770   4.598  14.047  2.1181  0.0650 -0.2918
  520TMC3    C1 7719   3.974   3.877  13.976 -0.0483  0.3736 -0.6964
  520TMC3    C2 7720   3.893   3.800  13.905  0.8284 -0.3460 -0.2618
  520TMC3    C3 7721   3.936   3.672  13.876  0.2149  0.4949  0.1930
  520TMC3    C4 7722   4.095   3.832  14.009 -0.1161  0.2385  1.0129
  520TMC3    C5 7723   4.127   3.703  13.993 -0.0896 -0.1151 -0.0289
  520TMC3    C6 7724   4.052   3.616  13.922 -0.0800  0.3594 -0.3727
  520TMC3     C 7725   3.943   4.018  13.986 -0.4645  0.0351 -0.1251
  520TMC3     O 7726   3.824   4.040  13.989  0.1443 -0.1255 -0.0482
  520TMC3     H 7727   3.808   3.839  13.850  0.3309 -2.0089 -0.6685
  520TMC3    H1 7728   4.160   3.891  14.073  0.9041 -0.9552  1.0636
  520TMC3    H2 7729   4.073   3.510  13.910 -2.0232 -0.0505 -0.1966
  520TMC3    C7 7730   4.266   3.674  14.012  0.9265 -0.1608  0.5625
  520TMC3    C8 7731   3.886   3.616  13.750 -0.1239 -0.5199  0.4275
  520TMC3    O1 7732   4.343   3.759  14.043 -0.0963  0.1973  0.0577
  520TMC3    O2 7733   3.968   3.552  13.686 -0.8375  0.2867 -0.1082
  521MPD2     C 7734   0.064   2.198  17.455 -1.0307 -0.2662 -0.4181
  521MPD2    C1 7735   0.000   2.123  17.356 -0.1706  0.1502  0.3079
  521MPD2    C2 7736   0.068   2.103  17.236  0.8563 -0.0418 -0.4914
  521MPD2    C3 7737   0.194   2.145  17.212 -0.0040 -0.6325  0.1342
  521MPD2    C4 7738   0.250   2.223  17.311  0.5970 -0.7445 -0.0789
  521MPD2    C5 7739   0.186   2.246  17.430  0.3861  0.0145  0.0619
  521MPD2     H 7740   0.019   2.043  17.160 -0.8038  0.1894  0.4108
  521MPD2    H1 7741   0.348   2.269  17.305 -0.5966  1.7590 -0.5738
  521MPD2    H2 7742   0.026   2.226  17.552 -1.0349 -0.2993 -0.4102
  521MPD2    H3 7743   0.243   2.305  17.501 -1.2859  0.8194  0.7423
  521MPD2     N 7744   0.256   2.101  17.092 -0.3147 -0.3579  0.3375
  521MPD2    H5 7745   0.196   2.049  17.028  1.6313 -1.4770 -0.5884
  521MPD2    N1 7746   4.589   2.078  17.388  0.2745  0.5003 -0.6047
  521MPD2    H7 7747   4.559   2.100  17.482 -0.1229 -0.1669 -0.5773
  522TMC3    C1 7748   0.453   2.053  16.953 -0.9910  0.3192  0.3990
  522TMC3    C2 7749   0.564   2.122  16.893  0.1854  0.4766  0.1512
  522TMC3    C3 7750   0.623   2.062  16.789 -0.2330  0.2442 -0.1684
  522TMC3    C4 7751   0.392   1.940  16.896  0.4195 -0.0830  0.8980
  522TMC3    C5 7752   0.456   1.885  16.789  0.5445 -0.0489 -0.0779
  522TMC3    C6 7753   0.569   1.941  16.737 -0.3946  0.6148  0.3053
  522TMC3     C 7754   0.385   2.133  17.058  0.5006 -0.2473  0.3361
  522TMC3     O 7755   0.453   2.225  17.108  0.3677 -0.1761 -0.8092
  522TMC3     H 7756   0.613   2.206  16.940 -1.5951  0.7610  1.4511
  522TMC3    H1 7757   0.315   1.885  16.947  1.9818 -1.5244  1.6913
  522TMC3    H2 7758   0.608   1.889  16.651 -0.7085  0.1968  0.4150
  522TMC3    C7 7759   0.408   1.757  16.734 -0.2433 -0.3576  0.3906
  522TMC3    C8 7760   0.769   2.077  16.801 -0.4511  0.3149  0.6312
  522TMC3    O1 7761   0.488   1.683  16.683 -0.2295 -0.3131  0.4657
  522TMC3    O2 7762   0.814   2.183  16.838  0.2860 -0.7886  0.2008
  523MPD2     C 7763   2.547   0.993  10.206 -0.0634 -0.5851 -0.7916
  523MPD2    C1 7764   2.559   1.021  10.072 -0.5486  0.6424  0.6469
  523MPD2    C2 7765   2.481   1.126  10.022  0.7624 -0.6894  0.8045
  523MPD2    C3 7766   2.406   1.215  10.101 -0.2660 -0.8890 -0.4729
  523MPD2    C4 7767   2.402   1.187  10.237  0.2783 -0.3134 -0.0685
  523MPD2    C5 7768   2.471   1.071  10.286  0.1976  0.5397  0.3427
  523MPD2     H 7769   2.488   1.151   9.917 -2.1597 -0.1496  0.7446
  523MPD2    H1 7770   2.353   1.257  10.304 -0.7212  0.0975 -1.2493
  523MPD2    H2 7771   2.585   0.902  10.251  0.4662 -0.0990 -0.2695
  523MPD2    H3 7772   2.464   1.056  10.393 -1.8554  0.7801  0.2474
  523MPD2     N 7773   2.345   1.334  10.056  0.3752  0.0012  0.4621
  523MPD2    H5 7774   2.309   1.394  10.130 -0.6084  0.6250 -0.5198
  523MPD2    N1 7775   2.657   0.941  10.010  0.1541  0.3437  0.4433
  523MPD2    H7 7776   2.691   0.862  10.065  0.3044 -0.2577 -0.5192
  524TMC3    C1 7777   2.272   1.499   9.894  0.5159  0.4179 -0.6288
  524TMC3    C2 7778   2.288   1.536   9.764  0.0777  0.3760  0.2155
  524TMC3    C3 7779   2.250   1.663   9.735  0.6641  0.9614 -0.3890
  524TMC3    C4 7780   2.198   1.564   9.991 -0.5211  0.4628 -0.0032
  524TMC3    C5 7781   2.163   1.687   9.957  0.3909  0.5409 -0.6944
  524TMC3    C6 7782   2.188   1.743   9.831  0.4078 -0.3183  0.1049
  524TMC3     C 7783   2.322   1.365   9.923 -0.1510 -0.2751  0.4012
  524TMC3     O 7784   2.340   1.292   9.828 -0.2899  0.2359  0.0085
  524TMC3     H 7785   2.352   1.489   9.691 -0.3933  0.7060 -0.4032
  524TMC3    H1 7786   2.192   1.544  10.097  0.8947 -1.1263 -0.2413
  524TMC3    H2 7787   2.159   1.843   9.799  0.6759 -0.1769  0.3039
  524TMC3    C7 7788   2.093   1.763  10.059 -0.3496  0.0842  0.0293
  524TMC3    C8 7789   2.265   1.716   9.598 -0.0320  0.3130 -0.5100
  524TMC3    O1 7790   2.048   1.716  10.163 -0.3538  0.4266  0.4272
  524TMC3    O2 7791   2.278   1.629   9.516  0.2718 -0.6157 -0.6776
  525MPD2     C 7792   0.287   3.297  14.457 -0.2742 -0.6108  0.2424
  525MPD2    C1 7793   0.376   3.369  14.537 -0.2560  0.2066 -0.4678
  525MPD2    C2 7794   0.438   3.479  14.483  0.6892 -0.2315 -0.3103
  525MPD2    C3 7795   0.398   3.532  14.359 -0.1637  0.2018  0.4195
  525MPD2    C4 7796   0.303   3.465  14.284  0.2621 -0.3315  0.3413
  525MPD2    C5 7797   0.257   3.342  14.331 -0.0236  0.1060  0.1605
  525MPD2     H 7798   0.510   3.530  14.546 -0.1593  1.1647 -0.4633
  525MPD2    H1 7799   0.260   3.501  14.192 -1.5483 -1.8062  0.6266
  525MPD2    H2 7800   0.244   3.200  14.478  0.3401 -1.2219 -1.2784
  525MPD2    H3 7801   0.189   3.291  14.263  1.1147 -0.3606 -0.6135
  525MPD2     N 7802   0.448   3.650  14.310 -0.0324 -0.1195  0.2612
  525MPD2    H5 7803   0.415   3.678  14.218  0.0454  0.3203  0.3707
  525MPD2    N1 7804   0.411   3.337  14.667 -0.0249  0.3091 -0.1415
  525MPD2    H7 7805   0.500   3.372  14.699 -0.2714 -0.4171  1.3326
  526TMC3    C1 7806   0.393   3.218  14.866  0.0790 -0.1473  0.0513
  526TMC3    C2 7807   0.312   3.148  14.957  0.2935  0.4019 -0.5962
  526TMC3    C3 7808   0.384   3.097  15.061  0.0324 -0.3242 -0.6697
  526TMC3    C4 7809   0.529   3.231  14.885 -0.8249 -0.0741 -0.5270
  526TMC3    C5 7810   0.584   3.160  14.984 -0.6078 -0.9016 -0.7482
  526TMC3    C6 7811   0.519   3.088  15.072 -0.5023 -0.0372 -0.3945
  526TMC3     C 7812   0.331   3.252  14.740  0.5118  0.2389  0.2835
  526TMC3     O 7813   0.216   3.218  14.710 -0.8399  0.1231  0.3145
  526TMC3     H 7814   0.204   3.151  14.946  0.4907 -1.3949 -3.0535
  526TMC3    H1 7815   0.602   3.270  14.815  0.2874 -0.9095  0.1558
  526TMC3    H2 7816   0.568   3.020  15.140  0.5945 -1.1313 -2.2716
  526TMC3    C7 7817   0.730   3.169  15.001  0.9285 -0.0599  0.4163
  526TMC3    C8 7818   0.331   3.059  15.190  0.3965  0.0526  0.1989
  526TMC3    O1 7819   0.780   3.067  15.051 -0.0510  0.3250 -1.0153
  526TMC3    O2 7820   0.409   3.030  15.278 -0.8613 -0.0106  0.4251
  527MPD2     C 7821   2.778   1.974   1.170 -0.2114 -0.2205  0.1114
  527MPD2    C1 7822   2.854   1.903   1.260  0.4763  0.4453  0.2589
  527MPD2    C2 7823   2.976   1.861   1.223  0.7042 -0.1773 -0.4187
  527MPD2    C3 7824   3.021   1.862   1.093  0.2233 -0.0420  0.2766
  527MPD2    C4 7825   2.937   1.932   0.998 -0.0824  0.0714 -0.2020
  527MPD2    C5 7826   2.824   1.987   1.041  0.3804 -1.0570  0.1528
  527MPD2     H 7827   3.047   1.829   1.298 -0.2202  0.4469  0.7279
  527MPD2    H1 7828   2.965   1.959   0.897  3.9489  0.0994  0.9099
  527MPD2    H2 7829   2.697   2.040   1.199 -0.4424 -0.8101  0.7840
  527MPD2    H3 7830   2.770   2.059   0.980  1.3478  0.0179  0.5662
  527MPD2     N 7831   3.140   1.792   1.060  0.3690 -0.4995 -0.0046
  527MPD2    H5 7832   3.179   1.734   1.134  0.4898 -1.1841 -0.5961
  527MPD2    N1 7833   2.822   1.886   1.397  0.1718  0.1145 -0.1468
  527MPD2    H7 7834   2.882   1.827   1.453  3.0622  2.0574 -1.2234
  528TMC3    C1 7835   2.700   1.892   1.597  0.1957 -0.7729 -0.6082
  528TMC3    C2 7836   2.800   1.830   1.664 -0.1677 -0.1477 -0.5792
  528TMC3    C3 7837   2.772   1.793   1.796  0.3253  0.0920  0.1187
  528TMC3    C4 7838   2.593   1.948   1.662 -0.3932 -0.8399  0.4609
  528TMC3    C5 7839   2.565   1.899   1.788  0.8169  0.4084  1.1749
  528TMC3    C6 7840   2.653   1.831   1.859  0.7870  0.0651  0.0778
  528TMC3     C 7841   2.707   1.931   1.452  0.0249 -0.1594  0.0089
  528TMC3     O 7842   2.618   2.002   1.406 -0.5515 -0.3330 -0.0426
  528TMC3     H 7843   2.893   1.792   1.622 -0.0614 -0.4641 -0.0547
  528TMC3    H1 7844   2.528   2.015   1.605  1.9231  1.5497  0.6250
  528TMC3    H2 7845   2.628   1.793   1.957 -1.8635  3.8877  0.8533
  528TMC3    C7 7846   2.434   1.904   1.844  0.3759 -0.1217  0.6256
  528TMC3    C8 7847   2.882   1.729   1.874  0.3188  0.1927  0.5282
  528TMC3    O1 7848   2.412   1.889   1.965 -0.0399 -0.6911 -0.6819
  528TMC3    O2 7849   2.995   1.758   1.837 -0.8528  0.5234 -0.2706
  529MPD2     C 7850   0.403   4.035   1.440  0.3597  0.0646  1.2057
  529MPD2    C1 7851   0.441   3.959   1.330 -0.4580  0.4616 -0.1159
  529MPD2    C2 7852   0.392   3.982   1.207 -0.8146 -0.1744 -0.3541
  529MPD2    C3 7853   0.301   4.083   1.187  0.3055 -0.1545  0.1534
  529MPD2    C4 7854   0.259   4.156   1.299  0.0130 -0.9748 -0.3294
  529MPD2    C5 7855   0.301   4.126   1.427  0.6476 -0.4969 -0.0456
  529MPD2     H 7856   0.438   3.927   1.126 -2.7974 -2.2216 -0.0775
  529MPD2    H1 7857   0.195   4.242   1.286  2.7926  0.9509 -1.1034
  529MPD2    H2 7858   0.434   4.017   1.542 -1.0602  2.3079  2.0503
  529MPD2    H3 7859   0.251   4.183   1.504 -1.6008 -3.0968  0.4277
  529MPD2     N 7860   0.270   4.125   1.061 -0.5164 -0.1277 -0.1253
  529MPD2    H5 7861   0.232   4.219   1.057 -1.0401 -0.3267  0.1840
  529MPD2    N1 7862   0.528   3.855   1.350 -0.0406 -0.2393 -0.5640
  529MPD2    H7 7863   0.550   3.798   1.269 -0.8680 -0.4125 -0.6673
  530TMC3    C1 7864   0.680   3.710   1.459  0.6042 -0.2952  0.4511
  530TMC3    C2 7865   0.783   3.692   1.541  1.0408 -0.5717 -0.5281
  530TMC3    C3 7866   0.805   3.567   1.597 -0.4485  0.4058 -0.2563
  530TMC3    C4 7867   0.607   3.603   1.411 -0.7193 -0.1035  0.3870
  530TMC3    C5 7868   0.633   3.480   1.465  0.6303 -0.3402 -0.6693
  530TMC3    C6 7869   0.735   3.459   1.554  0.0294  0.6803 -0.3146
  530TMC3     C 7870   0.618   3.842   1.456 -0.2949  0.3288 -0.1741
  530TMC3     O 7871   0.630   3.913   1.553  0.4569 -0.8578  0.7426
  530TMC3     H 7872   0.844   3.771   1.583  0.5115  0.8153 -2.3538
  530TMC3    H1 7873   0.530   3.620   1.336  1.4921  1.0597 -1.6268
  530TMC3    H2 7874   0.755   3.365   1.605  1.5560  1.1716 -0.0014
  530TMC3    C7 7875   0.523   3.380   1.458  0.4844  0.0279 -0.6924
  530TMC3    C8 7876   0.892   3.550   1.707 -0.2394 -0.1921  0.3494
  530TMC3    O1 7877   0.555   3.266   1.466 -0.3159  0.3792 -0.1105
  530TMC3    O2 7878   0.855   3.484   1.806 -0.3013  0.3491 -0.0990
  531MPD2     C 7879   0.182   2.508  12.878 -0.5335  0.3210  0.3593
  531MPD2    C1 7880   0.139   2.402  12.963  0.1886 -0.0864 -0.5767
  531MPD2    C2 7881   0.141   2.269  12.910  0.3809 -0.1866  0.2739
  531MPD2    C3 7882   0.190   2.246  12.780  0.7382  0.7845  0.0879
  531MPD2    C4 7883   0.245   2.349  12.706 -0.5102 -0.5097  1.1108
  531MPD2    C5 7884   0.239   2.479  12.752 -0.9111 -0.1561  0.0717
  531MPD2     H 7885   0.099   2.190  12.970 -0.2776 -0.8814 -1.1173
  531MPD2    H1 7886   0.290   2.337  12.608  0.3597 -0.1839  1.4659
  531MPD2    H2 7887   0.182   2.612  12.909 -1.3927  0.4049  0.0868
  531MPD2    H3 7888   0.268   2.568  12.698 -1.2922  0.6705  1.2235
  531MPD2     N 7889   0.184   2.113  12.729 -0.3361  0.2776  0.1289
  531MPD2    H5 7890   0.238   2.088  12.647  0.6713  1.0698  0.5504
  531MPD2    N1 7891   0.089   2.433  13.093  0.4923  0.1514  0.1259
  531MPD2    H7 7892   0.081   2.531  13.117  2.2791  0.8516 -2.2322
  532TMC3    C1 7893   4.704   2.399  13.297  0.1978  0.3198  0.8568
  532TMC3    C2 7894   4.577   2.352  13.305 -0.3732  0.1220  1.2394
  532TMC3    C3 7895   4.535   2.278  13.413  0.0955 -0.4006  0.8801
  532TMC3    C4 7896   0.071   2.379  13.396  0.2146  0.2286 -0.1641
  532TMC3    C5 7897   0.026   2.300  13.499  0.2511 -0.3485 -0.3437
  532TMC3    C6 7898   4.616   2.247  13.517  0.1187 -0.2617  0.0723
  532TMC3     C 7899   0.037   2.344  13.176 -0.2080 -0.6460  0.0929
  532TMC3     O 7900   0.004   2.226  13.156  0.1144  0.4832 -0.0614
  532TMC3     H 7901   4.514   2.370  13.219  2.5435  0.4241 -0.8581
  532TMC3    H1 7902   0.179   2.389  13.390  0.3789 -1.6044 -0.1593
  532TMC3    H2 7903   4.600   2.178  13.598 -2.5977  0.7926  0.4458
  532TMC3    C7 7904   0.129   2.228  13.569 -0.3229  0.0269 -0.3436
  532TMC3    C8 7905   4.453   2.166  13.381  0.2772 -0.1333  0.0077
  532TMC3    O1 7906   0.206   2.300  13.634  0.0568  0.4516 -0.1606
  532TMC3    O2 7907   4.378   2.116  13.462  0.2923 -0.0597 -0.0439
  533TMC3    C1 7908   0.499   3.866  14.306 -0.1033 -0.0399  0.4310
  533TMC3    C2 7909   0.605   3.954  14.302  0.9166 -0.0710  0.1752
  533TMC3    C3 7910   0.582   4.085  14.332 -0.2523 -0.8042 -0.1668
  533TMC3    C4 7911   0.379   3.908  14.358  0.3268 -1.0754 -0.6776
  533TMC3    C5 7912   0.366   4.038  14.402  0.6722 -0.4466 -0.1718
  533TMC3    C6 7913   0.461   4.127  14.374  0.1749 -0.0999 -0.4526
  533TMC3     C 7914   0.530   3.739  14.368 -0.4115 -0.5473 -0.3633
  533TMC3     O 7915   0.587   3.735  14.477  0.2163 -0.5800 -0.0091
  533TMC3     H 7916   0.701   3.920  14.262  0.0137 -1.5922 -0.7054
  533TMC3    H1 7917   0.308   3.830  14.385 -1.7477  1.3073  0.8358
  533TMC3    H2 7918   0.437   4.231  14.394 -0.5706 -0.4750  0.5798
  533TMC3    C7 7919   0.325   4.035  14.549  0.4024 -0.0244 -0.0914
  533TMC3    C8 7920   0.677   4.194  14.307  0.1066 -0.2132 -0.1851
  533TMC3    O1 7921   0.260   3.935  14.579  0.6058  0.0606 -0.0917
  533TMC3    O2 7922   0.646   4.312  14.323 -0.3251  0.5123  0.3176
  534MPD2     C 7923   2.601   0.751   2.006 -0.1404  0.5570  0.1588
  534MPD2    C1 7924   2.635   0.803   1.881 -0.6845  0.1086 -0.2452
  534MPD2    C2 7925   2.571   0.753   1.771  0.4188 -0.3480  0.1996
  534MPD2    C3 7926   2.482   0.645   1.782 -0.5169  0.3421 -0.0991
  534MPD2    C4 7927   2.459   0.595   1.907 -0.4653  0.4502 -0.7447
  534MPD2    C5 7928   2.516   0.648   2.021 -0.0550 -0.3722  0.6345
  534MPD2     H 7929   2.600   0.777   1.669 -0.4003  0.6339  0.2034
  534MPD2    H1 7930   2.382   0.519   1.909 -0.7321  0.7023 -1.5815
  534MPD2    H2 7931   2.629   0.792   2.103  0.0710  2.5503 -0.7462
  534MPD2    H3 7932   2.485   0.608   2.117 -0.2707 -0.1235  0.6671
  534MPD2     N 7933   2.428   0.569   1.679 -0.7830 -0.4690  0.2798
  534MPD2    H5 7934   2.369   0.491   1.707 -0.2342 -0.7809  0.5670
  534MPD2    N1 7935   2.734   0.905   1.862 -0.0415 -0.3696 -0.4450
  534MPD2    H7 7936   2.736   0.951   1.772 -0.9675 -0.0309 -0.2958
  535TMC3    C1 7937   2.402   0.476   1.460 -0.5630 -0.0033 -0.0891
  535TMC3    C2 7938   2.275   0.430   1.494  0.7011 -0.5308  0.9021
  535TMC3    C3 7939   2.221   0.340   1.407  0.0996 -0.8660 -0.2184
  535TMC3    C4 7940   2.471   0.429   1.350 -0.2882 -0.4777  0.0990
  535TMC3    C5 7941   2.408   0.337   1.270 -0.5833 -0.1421  0.6173
  535TMC3    C6 7942   2.284   0.289   1.297  0.0657  0.8377  0.2817
  535TMC3     C 7943   2.466   0.570   1.548  0.1396 -0.0762 -0.3148
  535TMC3     O 7944   2.563   0.624   1.493  0.1581 -0.0891 -0.3176
  535TMC3     H 7945   2.230   0.464   1.586 -1.1532  0.0682 -0.2239
  535TMC3    H1 7946   2.569   0.469   1.326 -1.8472  1.9322 -2.3373
  535TMC3    H2 7947   2.232   0.218   1.233  0.5936  0.8352 -0.1504
  535TMC3    C7 7948   2.457   0.331   1.133 -0.2903  0.1741  0.0105
  535TMC3    C8 7949   2.097   0.271   1.440  1.0763  0.1132  0.4845
  535TMC3    O1 7950   2.546   0.410   1.112 -0.1283 -0.1216  0.1220
  535TMC3    O2 7951   2.068   0.179   1.374 -0.2110 -0.0798  0.6368
  536MPD2     C 7952   2.236   3.838  16.488  0.0263  0.3439  1.0969
  536MPD2    C1 7953   2.123   3.779  16.529  0.4280  0.0411  0.1574
  536MPD2    C2 7954   2.004   3.806  16.463  0.2045  0.4546 -0.2122
  536MPD2    C3 7955   2.007   3.876  16.343 -0.3177  0.1177 -0.6867
  536MPD2    C4 7956   2.123   3.926  16.295  0.2255 -0.1665  0.1307
  536MPD2    C5 7957   2.237   3.912  16.374  0.3011  0.3955  0.3551
  536MPD2     H 7958   1.909   3.761  16.490  0.5273 -0.4209 -0.5363
  536MPD2    H1 7959   2.122   3.991  16.208 -1.5069  0.6823  0.7858
  536MPD2    H2 7960   2.327   3.844  16.547 -0.3894  1.7527  1.5946
  536MPD2    H3 7961   2.332   3.951  16.338 -0.1454  0.0736 -1.2013
  536MPD2     N 7962   1.898   3.890  16.259 -0.0563  0.7078  0.1283
  536MPD2    H5 7963   1.920   3.945  16.177 -0.4203  1.9923  0.9027
  536MPD2    N1 7964   2.135   3.689  16.642 -0.9437 -0.6427  0.8282
  536MPD2    H7 7965   2.230   3.671  16.672 -0.6239  0.1570  0.2943
  537TMC3    C1 7966   2.071   3.542  16.815  0.0674  0.7639 -0.0473
  537TMC3    C2 7967   2.193   3.562  16.871  0.0245 -0.5109  0.9923
  537TMC3    C3 7968   2.223   3.474  16.976  0.8003 -0.3649  0.1523
  537TMC3    C4 7969   1.980   3.446  16.860  0.3480 -0.3726  0.5069
  537TMC3    C5 7970   2.013   3.367  16.970  0.3608 -0.6192  0.3130
  537TMC3    C6 7971   2.136   3.386  17.034  0.1003  0.3428  0.2239
  537TMC3     C 7972   2.033   3.627  16.702 -0.1273  0.0632  0.4978
  537TMC3     O 7973   1.913   3.638  16.681 -0.0974 -0.2671  0.0854
  537TMC3     H 7974   2.259   3.645  16.848 -0.1622  0.0276  2.3598
  537TMC3    H1 7975   1.879   3.453  16.821 -0.8469  0.4476  3.7444
  537TMC3    H2 7976   2.174   3.318  17.109  1.6628  1.7071  0.6573
  537TMC3    C7 7977   1.892   3.335  17.042 -0.5478 -0.5702  0.2017
  537TMC3    C8 7978   2.342   3.502  17.055 -0.7496 -0.3185 -0.4406
  537TMC3    O1 7979   1.788   3.328  16.978 -0.1456  0.7631 -0.0405
  537TMC3    O2 7980   2.345   3.460  17.170 -0.1002  0.4620  0.4704
  538TMC3    C1 7981   3.544   1.254  10.896  0.3614  0.0425  0.8712
  538TMC3    C2 7982   3.654   1.233  10.824 -0.2169 -0.4776 -0.0138
  538TMC3    C3 7983   3.643   1.257  10.686  0.1732  0.0479 -0.2927
  538TMC3    C4 7984   3.426   1.288  10.846 -0.3988 -0.0683  0.2924
  538TMC3    C5 7985   3.419   1.316  10.712  0.4417 -0.0877  0.8013
  538TMC3    C6 7986   3.527   1.307  10.630 -0.8139 -0.9056  0.6902
  538TMC3     C 7987   3.560   1.273  11.037  0.8271 -0.2045  0.1708
  538TMC3     O 7988   3.466   1.249  11.115 -0.1375 -0.0092 -0.1866
  538TMC3     H 7989   3.750   1.206  10.866 -0.7827 -0.0281  1.5444
  538TMC3    H1 7990   3.344   1.305  10.915 -2.0081  1.3008 -1.9072
  538TMC3    H2 7991   3.518   1.314  10.522 -1.1052 -0.8512  0.7174
  538TMC3    C7 7992   3.285   1.328  10.648 -0.0357 -0.0687 -0.4624
  538TMC3    C8 7993   3.764   1.246  10.601  0.3730 -0.9427 -0.1971
  538TMC3    O1 7994   3.197   1.269  10.711  0.3156 -0.2779 -0.1090
  538TMC3    O2 7995   3.772   1.329  10.511  0.3599 -0.1632 -0.3222
  539MPD2     C 7996   3.070   0.102  11.440 -0.5102  0.1276 -0.2693
  539MPD2    C1 7997   3.132   0.169  11.332  0.0291 -0.6050 -0.1514
  539MPD2    C2 7998   3.116   0.308  11.315 -0.2037  0.5946 -0.8508
  539MPD2    C3 7999   3.025   0.376  11.400 -0.0562  0.6917 -0.5274
  539MPD2    C4 8000   2.970   0.315  11.509  0.6550 -0.2915 -0.5243
  539MPD2    C5 8001   2.992   0.177  11.523 -0.5327  0.2075  0.6777
  539MPD2     H 8002   3.179   0.351  11.238  1.3945  0.0033  0.1254
  539MPD2    H1 8003   2.911   0.366  11.584  0.8929  1.4412 -1.5062
  539MPD2    H2 8004   3.101   0.001  11.468 -0.4022  0.8037  2.0318
  539MPD2    H3 8005   2.949   0.120  11.604 -1.8198  0.6973  0.3470
  539MPD2     N 8006   2.985   0.509  11.380  0.4758  0.1712  0.1720
  539MPD2    H5 8007   2.903   0.536  11.434 -0.6095 -1.0413 -0.8686
  539MPD2    N1 8008   3.213   0.102  11.237  0.1876 -0.2037 -0.1932
  539MPD2    H7 8009   3.265   0.162  11.174  1.0054  0.0997  0.7711
  540TMC3    C1 8010   2.964   0.725  11.300  0.6148 -1.2809 -0.9252
  540TMC3    C2 8011   2.952   0.803  11.195 -0.3843 -0.2934 -0.0333
  540TMC3    C3 8012   2.913   0.931  11.218  0.3256  0.5728 -0.1774
  540TMC3    C4 8013   2.917   0.757  11.424  0.4293 -0.7734 -0.5194
  540TMC3    C5 8014   2.881   0.883  11.451  0.2462  0.3496 -0.1435
  540TMC3    C6 8015   2.876   0.974  11.345  0.6292 -0.0265 -0.0540
  540TMC3     C 8016   3.028   0.595  11.283 -0.5552 -0.0340 -0.4760
  540TMC3     O 8017   3.117   0.580  11.199 -0.6988  0.1178 -0.0277
  540TMC3     H 8018   2.992   0.780  11.097  0.5774  1.2109  0.0029
  540TMC3    H1 8019   2.944   0.707  11.517 -1.1283 -2.1531 -0.7957
  540TMC3    H2 8020   2.835   1.073  11.360  2.1144  0.6399 -0.4768
  540TMC3    C7 8021   2.836   0.919  11.582  0.0859 -0.1004  0.2870
  540TMC3    C8 8022   2.861   1.008  11.106  0.5770  1.0260 -0.5653
  540TMC3    O1 8023   2.795   0.825  11.649  0.2022 -0.0348 -0.5210
  540TMC3    O2 8024   2.885   1.130  11.108 -0.1013  0.3667  0.8754
  541MPD2     C 8025   1.612   2.171  13.560 -0.0220 -0.8513 -0.1069
  541MPD2    C1 8026   1.478   2.147  13.526  0.1869  0.5828  0.3252
  541MPD2    C2 8027   1.429   2.191  13.404 -0.1924  0.8312 -0.4224
  541MPD2    C3 8028   1.510   2.259  13.316  0.7637  0.9811  0.7207
  541MPD2    C4 8029   1.639   2.288  13.355  1.2323  0.0899  0.7570
  541MPD2    C5 8030   1.689   2.252  13.480  0.2924  0.3513  0.0061
  541MPD2     H 8031   1.324   2.173  13.382  0.1583 -2.2603  0.4424
  541MPD2    H1 8032   1.698   2.349  13.289 -0.9337  2.0941  0.6721
  541MPD2    H2 8033   1.659   2.123  13.646 -0.5993 -3.0043 -0.9911
  541MPD2    H3 8034   1.791   2.282  13.503  1.5580 -2.8121 -1.4682
  541MPD2     N 8035   1.463   2.310  13.188 -0.2514  0.6850  0.2425
  541MPD2    H5 8036   1.529   2.356  13.127 -1.0852  0.6797 -0.6645
  541MPD2    N1 8037   1.394   2.058  13.599 -0.0893 -0.3513 -0.1028
  541MPD2    H7 8038   1.311   2.021  13.554  0.5101 -1.4559 -0.2912
  542TMC3    C1 8039   1.316   2.391  13.035  0.5841 -0.1005 -0.3107
  542TMC3    C2 8040   1.386   2.343  12.932 -0.1088 -0.2494 -0.2265
  542TMC3    C3 8041   1.365   2.403  12.806  0.2962 -0.0296  0.0228
  542TMC3    C4 8042   1.236   2.501  13.022  0.4782  0.8630  0.0816
  542TMC3    C5 8043   1.204   2.546  12.894  0.0084  0.2614 -0.7582
  542TMC3    C6 8044   1.272   2.501  12.785  0.0137  0.7328  0.0138
  542TMC3     C 8045   1.328   2.331  13.171 -0.2510  0.2815 -0.0649
  542TMC3     O 8046   1.243   2.361  13.255 -0.0119  0.0633 -0.2089
  542TMC3     H 8047   1.457   2.262  12.941 -0.2812 -0.4846 -0.9662
  542TMC3    H1 8048   1.192   2.549  13.109  0.4494 -1.3617  1.2863
  542TMC3    H2 8049   1.266   2.550  12.689  1.3989  0.0065 -0.4417
  542TMC3    C7 8050   1.143   2.674  12.885 -0.6957  0.1146 -0.1209
  542TMC3    C8 8051   1.438   2.355  12.687  0.2238 -0.0811  0.3683
  542TMC3    O1 8052   1.117   2.724  12.997  0.2656 -0.3426  0.3513
  542TMC3    O2 8053   1.378   2.359  12.577 -0.3833 -0.3323  0.0389
  543TMC3    C1 8054   0.152   3.625  17.334  0.4929 -0.0408 -0.8012
  543TMC3    C2 8055   0.192   3.527  17.426 -0.2229  0.1311 -0.4230
  543TMC3    C3 8056   0.149   3.533  17.554 -0.2481 -0.8880 -0.2894
  543TMC3    C4 8057   0.068   3.728  17.372  0.5569 -0.3154  0.5608
  543TMC3    C5 8058   0.028   3.724  17.505 -0.0457  0.5619 -0.0585
  543TMC3    C6 8059   0.063   3.625  17.601  0.0151  0.3036  0.2533
  543TMC3     C 8060   0.189   3.622  17.191 -0.7314  0.3317 -0.1662
  543TMC3     O 8061   0.306   3.604  17.181  0.3187 -0.5280 -0.3123
  543TMC3     H 8062   0.249   3.444  17.386  1.9812  1.6918 -0.5484
  543TMC3    H1 8063   0.027   3.805  17.308  1.2939  0.0072  0.4764
  543TMC3    H2 8064   0.014   3.626   0.019 -0.9158  1.0478 -0.2219
  543TMC3    C7 8065   4.643   3.813  17.537 -0.2946 -0.3993  0.0861
  543TMC3    C8 8066   0.214   3.442  17.641 -0.1652  0.4563 -0.7332
  543TMC3    O1 8067   4.562   3.838  17.447 -0.0463 -0.2811 -0.0837
  543TMC3    O2 8068   0.304   3.380  17.592 -0.2795 -0.3840  0.4986
  544MPD2     C 8069   0.221   3.142   0.386  1.0835 -0.5408 -0.6581
  544MPD2    C1 8070   0.292   3.136   0.267  0.1446 -0.2528  0.5805
  544MPD2    C2 8071   0.284   3.234   0.168 -0.3142  0.3874  0.0917
  544MPD2    C3 8072   0.192   3.337   0.187  0.2761  0.4188 -0.1147
  544MPD2    C4 8073   0.120   3.339   0.304 -0.1939  0.4354 -0.8592
  544MPD2    C5 8074   0.133   3.247   0.402 -0.4517  0.0632  0.4230
  544MPD2     H 8075   0.360   3.237   0.091 -1.5200  1.5419 -1.0501
  544MPD2    H1 8076   0.061   3.427   0.328  1.3365  1.2850 -0.1406
  544MPD2    H2 8077   0.225   3.067   0.464 -1.4306  2.3105  2.2042
  544MPD2    H3 8078   0.072   3.263   0.490 -0.4846  1.3074  0.1679
  544MPD2     N 8079   0.167   3.438   0.094 -0.2120 -0.3916 -0.6153
  544MPD2    H5 8080   0.097   3.506   0.119  0.4849  0.5226 -1.1443
  544MPD2    N1 8081   0.395   3.038   0.264 -0.9434 -0.1873 -0.2306
  544MPD2    H7 8082   0.410   2.988   0.351  2.4091  1.2965  0.0344
  545TMC3    C1 8083   0.582   2.912   0.188 -0.2234 -0.7251  0.4543
  545TMC3    C2 8084   0.683   2.924   0.106  0.1663  0.0794  0.5705
  545TMC3    C3 8085   0.783   2.842   0.137 -0.3353 -0.1081 -0.1844
  545TMC3    C4 8086   0.564   2.822   0.287  0.4908 -0.1897 -0.2723
  545TMC3    C5 8087   0.678   2.750   0.323  0.8756  0.1247 -0.1910
  545TMC3    C6 8088   0.789   2.764   0.249 -0.5124 -0.3880 -0.3760
  545TMC3     C 8089   0.474   3.007   0.157  0.1209  0.5890  0.6197
  545TMC3     O 8090   0.462   3.042   0.043  0.0248 -0.3018 -0.0201
  545TMC3     H 8091   0.694   2.989   0.020  0.2117 -1.2224 -0.3958
  545TMC3    H1 8092   0.472   2.817   0.344  1.1473  1.6498  0.9531
  545TMC3    H2 8093   0.880   2.709   0.267 -0.4570 -0.9530 -2.4037
  545TMC3    C7 8094   0.670   2.666   0.437  0.2203 -0.2516  0.4704
  545TMC3    C8 8095   0.914   2.859   0.083  0.4909 -0.3196 -0.3786
  545TMC3    O1 8096   0.557   2.638   0.479 -0.2345 -0.0496 -0.2742
  545TMC3    O2 8097   1.006   2.841   0.162 -0.2792  0.6063 -0.1656
  546MPD2     C 8098   2.084   3.730  17.299  1.2375 -0.0726  0.4898
  546MPD2    C1 8099   1.994   3.723  17.195 -0.3096 -0.2618 -0.5332
  546MPD2    C2 8100   2.018   3.796  17.076 -0.8799  0.2604 -0.4316
  546MPD2    C3 8101   2.139   3.851  17.047  0.4592 -0.2736 -0.1283
  546MPD2    C4 8102   2.225   3.851  17.159 -0.6221 -0.6717  0.4948
  546MPD2    C5 8103   2.203   3.784  17.272  0.3239 -0.6651  0.3067
  546MPD2     H 8104   1.941   3.802  17.000 -1.3935 -1.0767 -0.0145
  546MPD2    H1 8105   2.317   3.908  17.153 -0.2352 -1.5111 -1.6286
  546MPD2    H2 8106   2.061   3.689  17.397 -1.9545 -0.5600 -0.4756
  546MPD2    H3 8107   2.269   3.787  17.358 -0.9215 -1.9014  1.2971
  546MPD2     N 8108   2.169   3.916  16.926  0.3682  0.4296  0.3839
  546MPD2    H5 8109   2.099   3.915  16.853  0.5571 -0.3404  0.2081
  546MPD2    N1 8110   1.877   3.659  17.230  0.9622 -1.0827  0.3272
  546MPD2    H7 8111   1.882   3.598  17.311  0.3179 -0.5035  0.8014
  547TMC3    C1 8112   1.658   3.571  17.212  0.4450 -0.4042  0.3488
  547TMC3    C2 8113   1.543   3.574  17.142 -0.3423  0.0783 -0.0040
  547TMC3    C3 8114   1.430   3.510  17.193  0.3450 -1.0793  0.7962
  547TMC3    C4 8115   1.675   3.504  17.329 -0.8881  0.5943  0.0462
  547TMC3    C5 8116   1.563   3.445  17.377  0.0421  0.5466 -0.6296
  547TMC3    C6 8117   1.442   3.449  17.314  0.0420 -0.3348 -0.3386
  547TMC3     C 8118   1.763   3.656  17.149  0.0419 -0.0290 -0.2252
  547TMC3     O 8119   1.736   3.704  17.040 -0.0288 -0.3115  0.2522
  547TMC3     H 8120   1.537   3.616  17.042  0.7477  0.4778  0.1053
  547TMC3    H1 8121   1.766   3.489  17.385  1.2779  1.6489 -3.2109
  547TMC3    H2 8122   1.359   3.400  17.363  1.1080 -1.9532 -0.1620
  547TMC3    C7 8123   1.569   3.360  17.496 -0.6546 -0.5891 -0.3812
  547TMC3    C8 8124   1.303   3.513  17.118  0.3889  0.2793 -0.2431
  547TMC3    O1 8125   1.481   3.276  17.518 -0.3403  0.2882 -0.1621
  547TMC3    O2 8126   1.299   3.577  17.014 -0.5900  0.1559  0.1387
  548MPD2     C 8127   1.974   4.363  12.261 -0.0183 -0.6222 -0.4407
  548MPD2    C1 8128   1.938   4.231  12.273 -0.0974  0.5883  0.6109
  548MPD2    C2 8129   2.033   4.132  12.237  0.5322 -0.5822 -0.0285
  548MPD2    C3 8130   2.162   4.170  12.194  0.2319  0.7553  0.1625
  548MPD2    C4 8131   2.188   4.303  12.175 -0.1155  0.3931  0.8695
  548MPD2    C5 8132   2.094   4.396  12.210  0.1494  0.2037  0.4338
  548MPD2     H 8133   2.014   4.030  12.269 -1.3367 -0.0481  0.6119
  548MPD2    H1 8134   2.284   4.326  12.131  0.3099  0.3809  1.7785
  548MPD2    H2 8135   1.902   4.439  12.289 -1.3139 -1.1648 -2.2787
  548MPD2    H3 8136   2.125   4.499  12.195 -0.4048  0.1979 -0.7997
  548MPD2     N 8137   2.262   4.067  12.170  0.0625  0.8784  0.3748
  548MPD2    H5 8138   2.227   3.971  12.173  0.8332  0.6405  1.3842
  548MPD2    N1 8139   1.811   4.211  12.329 -1.5556 -0.1627 -0.3216
  548MPD2    H7 8140   1.750   4.290  12.349 -2.7457 -0.6760 -1.9274
  549TMC3    C1 8141   1.621   4.093  12.400  0.5068  0.0988  0.0276
  549TMC3    C2 8142   1.551   4.206  12.380 -0.8324  0.8228 -0.2361
  549TMC3    C3 8143   1.419   4.202  12.423  0.0911  0.7466  0.8839
  549TMC3    C4 8144   1.572   3.980  12.461 -0.2237 -0.2420  0.2102
  549TMC3    C5 8145   1.441   3.982  12.502  0.1535 -0.3386  0.1613
  549TMC3    C6 8146   1.366   4.093  12.482  0.1690 -0.1709  0.3372
  549TMC3     C 8147   1.759   4.084  12.355 -0.0643 -0.1658 -0.5043
  549TMC3     O 8148   1.802   3.973  12.330 -0.3485  0.1352  0.1602
  549TMC3     H 8149   1.589   4.296  12.333 -0.2424  0.0263 -1.2708
  549TMC3    H1 8150   1.643   3.903  12.490 -0.9404 -0.1053  2.3031
  549TMC3    H2 8151   1.260   4.094  12.508  0.0743 -0.5415 -0.0552
  549TMC3    C7 8152   1.430   3.922  12.632  0.0039  0.9201 -0.5565
  549TMC3    C8 8153   1.333   4.316  12.403  0.2009 -0.2674 -0.5266
  549TMC3    O1 8154   1.411   4.004  12.719  0.1176  0.0037  0.2079
  549TMC3    O2 8155   1.214   4.301  12.376 -0.2114 -0.1630 -0.5732
  550TMC3    C1 8156   0.513   2.147  12.874  0.6244  0.2185 -0.4757
  550TMC3    C2 8157   0.532   2.240  12.975 -0.6137 -0.3044  1.1257
  550TMC3    C3 8158   0.561   2.368  12.933  0.0717 -0.3133  0.3275
  550TMC3    C4 8159   0.529   2.168  12.741  0.2240  0.3640  0.5354
  550TMC3    C5 8160   0.580   2.294  12.706  0.5180  0.3916 -0.3390
  550TMC3    C6 8161   0.582   2.398  12.802  0.1500  0.4011  0.5389
  550TMC3     C 8162   0.485   2.007  12.910 -0.1316  0.3727  0.2988
  550TMC3     O 8163   0.420   1.983  13.007 -0.1894  0.4525 -0.1175
  550TMC3     H 8164   0.502   2.202  13.072  0.0724  0.0437  1.4719
  550TMC3    H1 8165   0.506   2.094  12.665 -1.5896 -0.8012  2.1884
  550TMC3    H2 8166   0.583   2.501  12.768  0.9095  0.0218 -0.5847
  550TMC3    C7 8167   0.598   2.316  12.566 -0.3786  0.3474  0.1692
  550TMC3    C8 8168   0.565   2.482  13.025 -0.5432 -0.1476 -0.4985
  550TMC3    O1 8169   0.539   2.236  12.493 -0.8296 -0.0165  0.7604
  550TMC3    O2 8170   0.587   2.593  12.974  1.1263  0.1561 -0.1654
  551TMC3    C1 8171   2.887   0.201  13.133  0.1638 -0.5081  0.2746
  551TMC3    C2 8172   2.966   0.263  13.036  0.5640  0.6894 -0.1065
  551TMC3    C3 8173   3.020   0.387  13.065  0.4174 -0.6835 -0.3579
  551TMC3    C4 8174   2.864   0.252  13.256 -0.1703  0.6424  0.0542
  551TMC3    C5 8175   2.926   0.370  13.284 -0.1338  0.5180  0.0997
  551TMC3    C6 8176   3.000   0.441  13.189 -0.9486  0.1602  0.3258
  551TMC3     C 8177   2.811   0.084  13.085  0.4594  0.0641  0.4834
  551TMC3     O 8178   2.801   0.079  12.962 -0.1119 -0.4474  0.5367
  551TMC3     H 8179   2.998   0.200  12.954 -1.6078 -1.0297  0.3588
  551TMC3    H1 8180   2.821   0.194  13.337  2.4924 -0.6993  0.5244
  551TMC3    H2 8181   3.061   0.529  13.207 -1.8209  0.7007  0.6227
  551TMC3    C7 8182   2.935   0.408  13.422 -0.0093 -0.7251  0.0485
  551TMC3    C8 8183   3.136   0.407  12.989 -0.8690 -0.0598  0.0689
  551TMC3    O1 8184   2.924   0.323  13.508 -0.0054  0.3761 -0.4637
  551TMC3    O2 8185   3.195   0.317  12.937  0.1835  0.0142  0.1554
  552MPD2     C 8186   0.093   2.205  13.989 -0.4303  0.0095  0.7025
  552MPD2    C1 8187   0.029   2.124  14.079 -0.4242 -0.2364 -0.0307
  552MPD2    C2 8188   0.093   2.098  14.203 -0.2483 -0.1612 -0.3713
  552MPD2    C3 8189   0.201   2.176  14.238  0.2353 -0.0532 -1.1799
  552MPD2    C4 8190   0.249   2.273  14.154 -0.1714 -0.0105  0.7857
  552MPD2    C5 8191   0.197   2.282  14.031 -0.8817  0.5425 -0.1929
  552MPD2     H 8192   0.062   2.017  14.268  3.5052 -1.3742 -0.1177
  552MPD2    H1 8193   0.331   2.334  14.189 -2.4753  2.4932  1.8145
  552MPD2    H2 8194   0.049   2.239  13.896 -0.5961 -0.6841  0.5301
  552MPD2    H3 8195   0.243   2.349  13.959  1.7264 -0.7401  0.3220
  552MPD2     N 8196   0.271   2.160  14.354  0.2488  0.2112 -0.4202
  552MPD2    H5 8197   0.343   2.225  14.384  1.0972 -0.8351 -0.1957
  552MPD2    N1 8198   4.627   2.059  14.055 -0.0334  0.3651 -0.0525
  552MPD2    H7 8199   4.594   2.002  14.132 -0.0645  0.4895  0.0254
  553TMC3    C1 8200   4.437   1.986  13.928  0.1783 -0.2972  0.2028
  553TMC3    C2 8201   4.390   1.969  13.798 -0.2337  0.2186 -0.3304
  553TMC3    C3 8202   4.306   1.869  13.770 -0.2718 -0.6758 -0.5699
  553TMC3    C4 8203   4.398   1.905  14.028  0.0160  0.1788  0.0663
  553TMC3    C5 8204   4.311   1.806  13.992  0.1206  0.5446 -0.1996
  553TMC3    C6 8205   4.256   1.790  13.868 -0.4282 -0.1945  0.0126
  553TMC3     C 8206   4.564   2.062  13.930 -0.3823 -0.4837  0.2821
  553TMC3     O 8207   4.593   2.120  13.828  0.4503 -0.2230 -0.3459
  553TMC3     H 8208   4.436   2.021  13.715  0.0374  0.9095  0.2536
  553TMC3    H1 8209   4.434   1.913  14.130 -1.5713 -2.0538  0.8075
  553TMC3    H2 8210   4.184   1.711  13.854 -0.1020 -0.7258  1.3913
  553TMC3    C7 8211   4.286   1.701  14.091 -0.6226  0.0979  0.0154
  553TMC3    C8 8212   4.363   1.800  13.665  0.4553  0.6256 -0.0057
  553TMC3    O1 8213   4.168   1.679  14.114  0.0103 -0.1332 -0.6198
  553TMC3    O2 8214   4.484   1.800  13.659  0.3442  0.2614 -0.3879
  554TMC3    C1 8215   2.085   0.815  11.538  0.6099 -0.4329 -0.1259
  554TMC3    C2 8216   1.993   0.778  11.441  0.0872  0.0409  0.8820
  554TMC3    C3 8217   2.015   0.828  11.314 -0.2792 -0.6157  0.0411
  554TMC3    C4 8218   2.191   0.906  11.513  0.4255 -0.5773 -0.0811
  554TMC3    C5 8219   2.213   0.937  11.385  0.2929 -0.4019 -0.0140
  554TMC3    C6 8220   2.130   0.901  11.281  1.0205 -0.3647 -1.3079
  554TMC3     C 8221   2.115   0.718  11.645 -0.4131  0.2451  0.2070
  554TMC3     O 8222   2.026   0.687  11.724  0.3436  0.7585  0.2293
  554TMC3     H 8223   1.925   0.698  11.468  1.9650 -1.1688  1.9980
  554TMC3    H1 8224   2.266   0.936  11.585 -0.7206 -0.4276  1.0427
  554TMC3    H2 8225   2.144   0.936  11.179  0.0510  2.3746 -0.4910
  554TMC3    C7 8226   2.336   0.986  11.329  0.4915  0.2270  0.2062
  554TMC3    C8 8227   1.972   0.748  11.200 -0.0337 -0.1890  0.0525
  554TMC3    O1 8228   2.371   0.948  11.217 -0.3980 -0.1160 -0.1611
  554TMC3    O2 8229   2.027   0.765  11.094  0.0686 -0.0588  0.6139
  555TMC3    C1 8230   0.807   0.609  15.040 -0.5551 -0.7080 -0.9235
  555TMC3    C2 8231   0.738   0.667  15.141 -0.9702  0.5580  0.6928
  555TMC3    C3 8232   0.754   0.618  15.272 -0.1114 -0.7358  0.3803
  555TMC3    C4 8233   0.884   0.497  15.058  0.0881 -0.3761 -1.1733
  555TMC3    C5 8234   0.886   0.441  15.184 -0.1474  0.1634 -1.0075
  555TMC3    C6 8235   0.825   0.502  15.288  0.2392 -0.6009  0.2691
  555TMC3     C 8236   0.774   0.631  14.900  0.0171 -0.4838 -0.5398
  555TMC3     O 8237   0.862   0.593  14.819 -0.1488  0.1322 -0.6248
  555TMC3     H 8238   0.696   0.766  15.123  2.7721  1.5914 -2.1872
  555TMC3    H1 8239   0.937   0.443  14.980 -2.3940 -3.1463 -0.9175
  555TMC3    H2 8240   0.820   0.443  15.379 -0.5865 -2.6125 -1.0639
  555TMC3    C7 8241   0.873   0.302  15.186 -0.7916 -0.3747  0.3469
  555TMC3    C8 8242   0.714   0.713  15.385  0.5580  0.2057  0.6847
  555TMC3    O1 8243   0.766   0.253  15.224  0.0649  0.4077  0.1588
  555TMC3    O2 8244   0.646   0.817  15.354 -0.2091  0.2603 -0.0486
  556MPD2     C 8245   4.615   2.122  10.350  0.7222  0.1277  0.0337
  556MPD2    C1 8246   4.552   2.047  10.447  0.6432 -0.1377  0.3810
  556MPD2    C2 8247   4.510   1.923  10.417 -0.7186 -0.5896  0.1933
  556MPD2    C3 8248   4.526   1.878  10.282 -0.3687  0.1040  0.0414
  556MPD2    C4 8249   4.576   1.960  10.184 -0.8625  0.6587  0.0292
  556MPD2    C5 8250   4.621   2.083  10.221  0.5787 -0.3298  0.3764
  556MPD2     H 8251   4.462   1.861  10.493  1.1925 -1.7839  0.4222
  556MPD2    H1 8252   4.568   1.939  10.078 -1.3346 -2.6419  0.7376
  556MPD2    H2 8253   4.655   2.221  10.364 -0.9758  0.7545  0.4159
  556MPD2    H3 8254   4.661   2.154  10.150 -0.7467 -0.5331 -0.5904
  556MPD2     N 8255   4.488   1.743  10.257  0.0905 -0.1345 -0.0356
  556MPD2    H5 8256   4.475   1.682  10.336  2.7400  1.4756  1.6489
  556MPD2    N1 8257   4.531   2.097  10.577 -0.1031  0.1368  0.1932
  556MPD2    H7 8258   4.497   2.022  10.636  1.8324  0.0021  1.1469
  557TMC3    C1 8259   4.428   1.553  10.131  0.4917 -0.5121 -0.0459
  557TMC3    C2 8260   4.406   1.498  10.001  0.6057 -0.1502  0.2542
  557TMC3    C3 8261   4.309   1.397   9.988  0.3825  0.1845 -0.5150
  557TMC3    C4 8262   4.367   1.500  10.241  0.4998 -0.0516  0.3270
  557TMC3    C5 8263   4.280   1.395  10.223 -0.4677 -0.0228  0.0673
  557TMC3    C6 8264   4.250   1.349  10.101  0.4751 -0.2990 -0.6538
  557TMC3     C 8265   4.488   1.688  10.134 -0.0855  0.1735 -0.0356
  557TMC3     O 8266   4.534   1.728  10.024  0.0840 -0.6153  0.2882
  557TMC3     H 8267   4.447   1.550   9.915  0.8540  1.7712  1.5155
  557TMC3    H1 8268   4.392   1.536  10.340  0.0168  1.4433 -0.1041
  557TMC3    H2 8269   4.161   1.286  10.097 -1.3006  2.2914 -1.9512
  557TMC3    C7 8270   4.213   1.333  10.337 -0.1924 -0.1290  0.0233
  557TMC3    C8 8271   4.249   1.370   9.858 -0.7377 -0.0007 -0.0471
  557TMC3    O1 8272   4.199   1.390  10.447 -0.2976 -0.1355  0.5476
  557TMC3    O2 8273   4.236   1.462   9.776  0.3528  0.9324  0.0615
  558TMC3    C1 8274   2.004   4.408  10.003 -0.0818  0.1073  0.2347
  558TMC3    C2 8275   1.938   4.345  10.105  0.1272 -0.0057 -0.0466
  558TMC3    C3 8276   1.798   4.324  10.090  0.8373 -0.3977 -0.1132
  558TMC3    C4 8277   1.937   4.468   9.900 -1.4761  0.8173  0.1912
  558TMC3    C5 8278   1.801   4.456   9.891  0.5571 -0.4131 -1.3189
  558TMC3    C6 8279   1.731   4.381   9.984 -0.2923  0.0441  0.2741
  558TMC3     C 8280   2.146   4.370   9.986 -0.3309  0.0670  0.6250
  558TMC3     O 8281   2.217   4.450   9.929 -0.5577  1.0295 -0.4131
  558TMC3     H 8282   1.984   4.294  10.188  0.0225 -2.7530 -1.6813
  558TMC3    H1 8283   1.990   4.522   9.823 -1.2246  0.1626 -0.0991
  558TMC3    H2 8284   1.623   4.371   9.983 -0.4711  2.0523 -0.7439
  558TMC3    C7 8285   1.750   4.470   9.750  0.1099 -0.4542 -0.4349
  558TMC3    C8 8286   1.729   4.247  10.188 -0.3928  0.3407  0.5307
  558TMC3    O1 8287   1.800   4.551   9.672 -0.0689 -0.4301  0.0026
  558TMC3    O2 8288   1.626   4.192  10.140  0.2074 -0.6858  0.0718
  559MPD2     C 8289   1.751   0.314  10.416  0.2823 -0.2343 -0.3886
  559MPD2    C1 8290   1.706   0.229  10.512  0.0676  0.2177 -0.1390
  559MPD2    C2 8291   1.778   0.223  10.632  0.8373 -0.1348 -0.4223
  559MPD2    C3 8292   1.897   0.297  10.653 -0.1332  0.2476 -0.1206
  559MPD2    C4 8293   1.938   0.383  10.559 -0.6832  1.0289  0.1704
  559MPD2    C5 8294   1.866   0.383  10.444 -0.5186  0.1827 -0.5262
  559MPD2     H 8295   1.757   0.155  10.714  0.7344 -1.0600 -1.2099
  559MPD2    H1 8296   2.025   0.446  10.568  0.9228 -0.9685 -1.4194
  559MPD2    H2 8297   1.706   0.316  10.318 -1.5408  1.5772  0.4890
  559MPD2    H3 8298   1.900   0.443  10.360  2.1143 -0.3820  0.1300
  559MPD2     N 8299   1.968   0.272  10.770 -0.0632  0.2534 -0.6293
  559MPD2    H5 8300   1.918   0.215  10.838 -0.5907 -0.9676 -2.0110
  559MPD2    N1 8301   1.591   0.149  10.491  0.3035  0.3158 -0.0240
  559MPD2    H7 8302   1.530   0.169  10.412  0.9406 -0.3048 -0.6675
  560TMC3    C1 8303   2.123   0.301  10.939 -0.2500  0.8489  0.2618
  560TMC3    C2 8304   2.026   0.279  11.039 -0.4631 -0.5873 -0.3667
  560TMC3    C3 8305   2.070   0.234  11.160  0.3438  0.2545 -0.0544
  560TMC3    C4 8306   2.254   0.282  10.958  0.1186 -0.6324  0.2909
  560TMC3    C5 8307   2.287   0.232  11.085 -0.6217  0.2616  0.4832
  560TMC3    C6 8308   2.199   0.192  11.178 -0.9359 -0.0129 -0.5190
  560TMC3     C 8309   2.091   0.328  10.801 -0.2783 -0.1702  0.8741
  560TMC3     O 8310   2.179   0.362  10.722  0.1656 -0.8466  0.0282
  560TMC3     H 8311   1.920   0.299  11.023  0.5598  4.1938 -1.2229
  560TMC3    H1 8312   2.330   0.279  10.882 -0.0713 -2.5840  0.1666
  560TMC3    H2 8313   2.241   0.151  11.269 -1.2892 -3.1091 -1.7386
  560TMC3    C7 8314   2.424   0.179  11.097 -0.2624 -0.5557  1.0875
  560TMC3    C8 8315   1.980   0.134  11.213  0.2821 -0.3878 -0.3600
  560TMC3    O1 8316   2.444   0.117  11.199  0.2471 -0.3059  0.3171
  560TMC3    O2 8317   2.029   0.026  11.235  0.0376  0.3568 -0.5570
  561TMC3    C1 8318   4.284   3.872  11.647  0.6025 -0.1996  0.6628
  561TMC3    C2 8319   4.183   3.897  11.732  0.8748  0.5863 -0.1338
  561TMC3    C3 8320   4.137   4.024  11.764 -0.3862  0.5259 -0.6558
  561TMC3    C4 8321   4.343   3.981  11.588  0.0422  0.1237  0.1699
  561TMC3    C5 8322   4.291   4.104  11.614 -0.2592  0.2093 -0.4986
  561TMC3    C6 8323   4.196   4.131  11.697  0.9488 -0.3806 -0.5552
  561TMC3     C 8324   4.331   3.738  11.628  0.1083  0.0701 -0.1881
  561TMC3     O 8325   4.284   3.650  11.694 -0.1096 -0.0026  0.3204
  561TMC3     H 8326   4.145   3.814  11.791  0.1228  0.3669 -0.9460
  561TMC3    H1 8327   4.438   3.973  11.536  0.2747 -0.3691  0.6832
  561TMC3    H2 8328   4.172   4.235  11.717  1.4457 -0.1503 -1.1506
  561TMC3    C7 8329   4.383   4.215  11.616  0.6160  0.2855 -0.5418
  561TMC3    C8 8330   4.042   4.039  11.870  0.1293  0.4199  0.1261
  561TMC3    O1 8331   4.395   4.278  11.719 -0.0510  0.3019 -0.0725
  561TMC3    O2 8332   4.039   3.947  11.955 -0.1210 -0.2371  0.6700
  562TMC3    C1 8333   0.415   0.673  16.382 -0.2135 -0.0431 -0.2407
  562TMC3    C2 8334   0.411   0.799  16.327  0.0492 -0.2275 -0.1897
  562TMC3    C3 8335   0.449   0.808  16.199  0.0483 -1.2661  0.1057
  562TMC3    C4 8336   0.445   0.561  16.307 -0.3027 -0.4675 -0.2599
  562TMC3    C5 8337   0.476   0.580  16.179  0.0744 -0.3530 -0.4129
  562TMC3    C6 8338   0.478   0.697  16.120 -0.0498 -0.5542 -0.2060
  562TMC3     C 8339   0.372   0.655  16.517  0.1431  0.9016 -0.1595
  562TMC3     O 8340   0.275   0.712  16.556  0.1975  0.2320 -0.3213
  562TMC3     H 8341   0.385   0.883  16.390 -1.8818 -0.0727 -1.1713
  562TMC3    H1 8342   0.438   0.461  16.348 -1.6369 -1.1116 -2.0025
  562TMC3    H2 8343   0.505   0.704  16.015 -0.3449  0.6281 -0.1998
  562TMC3    C7 8344   0.484   0.456  16.105  0.7122 -0.3566  0.1114
  562TMC3    C8 8345   0.475   0.940  16.144  0.4942 -0.5410  0.1889
  562TMC3    O1 8346   0.582   0.390  16.129  0.5331 -0.0615 -0.4183
  562TMC3    O2 8347   0.516   1.024  16.224 -0.0582  0.7064 -0.4100
  563MPD2     C 8348   2.630   2.105  15.947  0.4349 -0.1157  0.2922
  563MPD2    C1 8349   2.703   2.222  15.945  0.0391  1.1874  0.2674
  563MPD2    C2 8350   2.839   2.219  15.946  0.3812  0.1591  0.4023
  563MPD2    C3 8351   2.907   2.103  15.933  0.2365 -0.8370 -0.0598
  563MPD2    C4 8352   2.840   1.981  15.942  0.2341 -0.0406  0.3393
  563MPD2    C5 8353   2.703   1.990  15.948 -0.0540  0.1856 -0.2311
  563MPD2     H 8354   2.907   2.303  15.958 -1.3401  1.5581  0.4250
  563MPD2    H1 8355   2.885   1.883  15.956 -0.8331 -0.5956 -0.1654
  563MPD2    H2 8356   2.522   2.103  15.955  0.3926 -0.2125 -0.3138
  563MPD2    H3 8357   2.641   1.903  15.967 -1.6494  1.0146 -1.6710
  563MPD2     N 8358   3.050   2.120  15.930  0.0803  0.5124  0.1918
  563MPD2    H5 8359   3.094   2.211  15.927 -0.7023  0.7932 -2.2546
  563MPD2    N1 8360   2.630   2.338  15.967  0.2635 -0.2477 -0.0392
  563MPD2    H7 8361   2.529   2.334  15.980  0.4278 -0.8244  1.0433
  564TMC3    C1 8362   2.616   2.532  16.067 -0.5590  0.4655 -0.5664
  564TMC3    C2 8363   2.485   2.488  16.090 -0.2064 -0.3076  0.3984
  564TMC3    C3 8364   2.444   2.468  16.219  0.2080  0.2578  0.7817
  564TMC3    C4 8365   2.704   2.541  16.173  0.2403 -0.0676 -0.1984
  564TMC3    C5 8366   2.669   2.489  16.288  0.4775  0.4242  0.3171
  564TMC3    C6 8367   2.533   2.476  16.319  0.0154 -0.4612 -0.2532
  564TMC3     C 8368   2.675   2.465  15.954 -0.2150 -0.2910  0.1346
  564TMC3     O 8369   2.784   2.504  15.920  0.3345 -0.1341  0.3377
  564TMC3     H 8370   2.430   2.481  15.997 -0.5313 -0.8100  0.6284
  564TMC3    H1 8371   2.809   2.551  16.149  1.0171 -1.4864  2.6557
  564TMC3    H2 8372   2.521   2.458  16.425  0.9457  3.1602  0.4648
  564TMC3    C7 8373   2.740   2.372  16.331 -0.1336 -0.3120  1.1447
  564TMC3    C8 8374   2.371   2.339  16.244 -0.3591  0.0056  0.5967
  564TMC3    O1 8375   2.858   2.394  16.341  0.4226 -0.3168  0.2163
  564TMC3    O2 8376   2.385   2.290  16.356 -0.5800 -0.0876  0.3246
  565TMC3    C1 8377   3.725   3.155   9.913  0.1133 -0.7259 -0.0287
  565TMC3    C2 8378   3.786   3.186  10.028  0.5659 -0.0690 -0.6814
  565TMC3    C3 8379   3.710   3.185  10.147  0.1794  0.4598 -0.3045
  565TMC3    C4 8380   3.590   3.131   9.908  0.4062 -0.0929 -0.8873
  565TMC3    C5 8381   3.520   3.141  10.027 -0.6488 -0.2449 -0.5773
  565TMC3    C6 8382   3.574   3.182  10.145 -0.4636 -0.3975  0.2126
  565TMC3     C 8383   3.787   3.184   9.786  0.3734 -0.2412 -0.3645
  565TMC3     O 8384   3.738   3.132   9.687  0.3414  0.0215 -0.3336
  565TMC3     H 8385   3.891   3.210  10.036  0.0188  1.8351  1.0171
  565TMC3    H1 8386   3.536   3.110   9.816 -2.8498 -0.2373  1.0497
  565TMC3    H2 8387   3.513   3.183  10.235 -0.4128 -1.5798  0.2720
  565TMC3    C7 8388   3.375   3.128  10.025 -0.4723 -0.6578 -0.2977
  565TMC3    C8 8389   3.776   3.181  10.275  0.1714  0.2396 -0.5641
  565TMC3    O1 8390   3.327   3.114  10.138 -0.0816  0.2865 -0.0033
  565TMC3    O2 8391   3.707   3.201  10.378  0.4030  0.0053 -0.3058
  566MPD2     C 8392   0.294   0.334  14.108 -1.0191 -0.2398  0.3447
  566MPD2    C1 8393   0.383   0.434  14.079 -0.2267 -0.4617 -0.0816
  566MPD2    C2 8394   0.338   0.531  13.983 -0.4205  0.4073  0.3847
  566MPD2    C3 8395   0.208   0.531  13.920  0.5471 -0.8092  0.0312
  566MPD2    C4 8396   0.126   0.415  13.943 -0.4607 -0.2115  0.0786
  566MPD2    C5 8397   0.169   0.326  14.036 -0.8227  0.4152 -0.5168
  566MPD2     H 8398   0.400   0.619  13.969 -1.3872  1.3192  1.8278
  566MPD2    H1 8399   0.033   0.404  13.887  0.8963 -2.2218 -1.7654
  566MPD2    H2 8400   0.312   0.259  14.184  0.5539 -0.4759 -0.2624
  566MPD2    H3 8401   0.105   0.240  14.050  0.3392 -0.5281 -0.9960
  566MPD2     N 8402   0.159   0.629  13.833 -0.1538  0.4351 -0.1854
  566MPD2    H5 8403   0.058   0.618  13.822 -0.4847  1.7956  1.5572
  566MPD2    N1 8404   0.507   0.433  14.139  1.2105  0.1918  0.1424
  566MPD2    H7 8405   0.522   0.366  14.213  1.5782 -0.7387 -0.7768
  567TMC3    C1 8406   0.717   0.525  14.214  0.0304  0.1533  0.1858
  567TMC3    C2 8407   0.816   0.624  14.191  1.0158 -0.0372 -0.0898
  567TMC3    C3 8408   0.924   0.621  14.274 -0.0335 -0.2998 -0.2411
  567TMC3    C4 8409   0.743   0.414  14.286  0.9545  0.5381 -0.0312
  567TMC3    C5 8410   0.857   0.418  14.371  0.3640  0.0235  0.3954
  567TMC3    C6 8411   0.943   0.528  14.372 -0.5215  0.3200  0.0078
  567TMC3     C 8412   0.602   0.533  14.117 -0.0124  0.2160  0.2096
  567TMC3     O 8413   0.600   0.636  14.056 -0.1646  0.4513  0.4723
  567TMC3     H 8414   0.802   0.702  14.117  0.0510  0.0776  0.2137
  567TMC3    H1 8415   0.684   0.324  14.279  2.6354 -0.3204 -2.7881
  567TMC3    H2 8416   1.039   0.525  14.422 -0.0131 -0.1431 -1.0102
  567TMC3    C7 8417   0.852   0.351  14.492 -0.2576  0.4444 -0.4903
  567TMC3    C8 8418   1.039   0.703  14.233  0.8237 -0.5844 -0.3176
  567TMC3    O1 8419   0.959   0.332  14.543 -0.5578  0.6385  0.4328
  567TMC3    O2 8420   1.021   0.770  14.132 -0.0400  0.2220  0.4583
  568MPD2     C 8421   2.706   1.089  16.880  0.6204  0.0865 -0.3381
  568MPD2    C1 8422   2.594   1.156  16.931  0.0956  0.1195  1.2713
  568MPD2    C2 8423   2.555   1.276  16.879 -0.5018  0.5365 -0.3840
  568MPD2    C3 8424   2.626   1.325  16.769 -0.7381  0.1817 -0.7447
  568MPD2    C4 8425   2.737   1.264  16.717 -0.1224  0.3683  0.2370
  568MPD2    C5 8426   2.774   1.142  16.773 -0.1624 -0.6032  0.2725
  568MPD2     H 8427   2.468   1.333  16.908 -1.0834  0.2255 -1.5337
  568MPD2    H1 8428   2.799   1.306  16.639  0.1993 -1.8878 -0.7182
  568MPD2    H2 8429   2.739   0.993  16.920  1.0233  0.3694  0.0163
  568MPD2    H3 8430   2.860   1.086  16.738 -0.3783 -2.4505  2.7210
  568MPD2     N 8431   2.571   1.441  16.720  0.0648  0.6929  0.2082
  568MPD2    H5 8432   2.503   1.491  16.776 -0.4468  0.4183 -0.1689
  568MPD2    N1 8433   2.530   1.090  17.036 -0.8030 -0.2042  0.0433
  568MPD2    H7 8434   2.574   1.004  17.069  1.0580  0.8409  0.2742
  569TMC3    C1 8435   2.494   1.587  16.554 -0.1444 -0.2641 -0.3295
  569TMC3    C2 8436   2.478   1.675  16.645  0.0642 -0.8159 -0.1878
  569TMC3    C3 8437   2.367   1.764  16.631 -0.1596  0.0324  0.0292
  569TMC3    C4 8438   2.409   1.564  16.448 -0.6285 -0.4358 -0.7103
  569TMC3    C5 8439   2.294   1.643  16.442 -0.5529  0.0288  0.1572
  569TMC3    C6 8440   2.272   1.744  16.535  0.0599 -0.4869  0.1154
  569TMC3     C 8441   2.580   1.475  16.583 -0.4730  0.2887  0.2121
  569TMC3     O 8442   2.640   1.424  16.488  0.2913 -0.2566 -0.2023
  569TMC3     H 8443   2.555   1.686  16.721  0.6834 -2.0412 -0.6307
  569TMC3    H1 8444   2.421   1.484  16.376 -0.0022 -1.3183  0.3762
  569TMC3    H2 8445   2.183   1.807  16.538 -0.5616 -1.2982 -1.2055
  569TMC3    C7 8446   2.259   1.693  16.313  0.6679 -0.1888  0.0711
  569TMC3    C8 8447   2.397   1.903  16.637 -1.2035 -0.4047  0.9752
  569TMC3    O1 8448   2.248   1.618  16.223 -0.0861 -0.6778  0.0400
  569TMC3    O2 8449   2.352   1.978  16.552  0.0554  0.3644  0.4119
  570TMC3    C1 8450   1.662   0.079  16.348 -0.5498  0.2933 -0.1818
  570TMC3    C2 8451   1.747   0.031  16.251 -0.2429 -0.5761  0.0555
  570TMC3    C3 8452   1.822   0.113  16.178  0.0434 -0.1385 -0.4023
  570TMC3    C4 8453   1.657   0.212  16.376 -0.0126 -0.5592 -0.1058
  570TMC3    C5 8454   1.720   0.293  16.288 -0.2165 -0.1026  0.1804
  570TMC3    C6 8455   1.810   0.248  16.193  0.2298 -0.1697 -0.3221
  570TMC3     C 8456   1.590   4.702  16.433  0.7983 -0.1038  0.2639
  570TMC3     O 8457   1.572   4.590  16.389  0.1992 -0.1925  0.2814
  570TMC3     H 8458   1.751   4.642  16.240 -1.9770 -0.5094 -1.3558
  570TMC3    H1 8459   1.586   0.255  16.446 -0.5827 -0.3335 -0.8181
  570TMC3    H2 8460   1.860   0.316  16.124 -2.1297  2.6937  0.8063
  570TMC3    C7 8461   1.745   0.423  16.343 -0.5413  0.0746  0.4387
  570TMC3    C8 8462   1.908   0.051  16.081  0.0963 -0.2075 -0.0698
  570TMC3    O1 8463   1.743   0.437  16.463  0.8546  0.2091  0.1120
  570TMC3    O2 8464   1.883   4.658  16.040 -0.5754 -0.8087 -0.1608
  571MPD2     C 8465   0.330   1.784  17.296 -0.6047  0.6199  0.1614
  571MPD2    C1 8466   0.243   1.807  17.400  0.4943 -0.7585  0.2464
  571MPD2    C2 8467   0.278   1.902  17.490 -0.5334  0.3244 -0.4214
  571MPD2    C3 8468   0.398   1.971  17.492 -0.3641  0.0865  0.4374
  571MPD2    C4 8469   0.487   1.939  17.391 -0.0489 -0.3643 -0.2700
  571MPD2    C5 8470   0.452   1.851  17.295 -0.8555 -0.9213 -0.4155
  571MPD2     H 8471   0.213   1.911  17.577  1.9732  1.0405  1.3872
  571MPD2    H1 8472   0.586   1.983  17.397 -0.0922 -0.2932 -0.0860
  571MPD2    H2 8473   0.310   1.707  17.222  0.0535  0.3625  0.2517
  571MPD2    H3 8474   0.521   1.829  17.214  1.4036  2.0926  0.6846
  571MPD2     N 8475   0.434   2.065  17.592  0.0506 -0.3282 -0.2711
  571MPD2    H5 8476   0.530   2.098  17.587 -0.6940  1.8551 -0.2248
  571MPD2    N1 8477   0.129   1.728  17.408 -0.6931 -0.1513  0.1168
  571MPD2    H7 8478   0.121   1.645  17.350  0.0070 -1.7619  2.3503
  572TMC3    C1 8479   0.415   2.205   0.099  1.2019 -0.4646  0.3755
  572TMC3    C2 8480   0.520   2.165   0.182  0.3802 -0.4500 -0.5303
  572TMC3    C3 8481   0.518   2.229   0.301  0.8266 -0.1581 -0.2430
  572TMC3    C4 8482   0.327   2.305   0.130 -0.2525  0.0564 -1.0989
  572TMC3    C5 8483   0.337   2.361   0.255  1.3568 -0.0401 -0.2750
  572TMC3    C6 8484   0.429   2.317   0.342 -0.1658  0.1490  0.1117
  572TMC3     C 8485   0.355   2.109   0.010 -0.5503 -0.5966  0.2021
  572TMC3     O 8486   0.241   2.088   0.037 -0.8398  0.5191  0.0480
  572TMC3     H 8487   0.571   2.071   0.166 -0.3498 -0.8675 -0.3880
  572TMC3    H1 8488   0.249   2.331   0.059 -1.3847  3.2329  1.2374
  572TMC3    H2 8489   0.450   2.378   0.429 -0.0311 -2.2745  1.7521
  572TMC3    C7 8490   0.248   2.476   0.276 -0.9902  0.4140 -0.9932
  572TMC3    C8 8491   0.609   2.175   0.400 -0.4709 -0.0113 -0.3276
  572TMC3    O1 8492   0.189   2.512   0.175  1.3366  0.1731  0.1647
  572TMC3    O2 8493   0.719   2.131   0.373  0.3596  0.2002  0.2987
  573MPD2     C 8494   1.201   2.770   1.786 -0.3307  0.0778  0.0002
  573MPD2    C1 8495   1.328   2.754   1.749 -0.4774  0.2833 -0.0684
  573MPD2    C2 8496   1.356   2.752   1.614  0.9759 -0.0188  0.2626
  573MPD2    C3 8497   1.258   2.745   1.520  0.1227 -0.3096 -0.5934
  573MPD2    C4 8498   1.128   2.768   1.567  0.0798  0.1943 -0.2307
  573MPD2    C5 8499   1.104   2.788   1.697  0.3234  0.3202 -0.4640
  573MPD2     H 8500   1.460   2.748   1.584  0.7264 -1.8314 -0.4047
  573MPD2    H1 8501   1.042   2.770   1.500 -1.2299 -1.1356  1.3968
  573MPD2    H2 8502   1.160   2.771   1.886  1.7561 -0.0166  0.8600
  573MPD2    H3 8503   1.004   2.806   1.736  1.6448  0.7061  2.7052
  573MPD2     N 8504   1.269   2.713   1.382 -0.0167  0.4953 -0.2269
  573MPD2    H5 8505   1.185   2.717   1.326 -0.9922 -1.6754  1.0924
  573MPD2    N1 8506   1.432   2.724   1.844  0.1264 -0.2070 -0.1125
  573MPD2    H7 8507   1.398   2.713   1.939 -0.2245 -0.5545 -0.2758
  574TMC3    C1 8508   1.369   2.621   1.189 -0.0520 -0.1202 -0.4204
  574TMC3    C2 8509   1.241   2.578   1.151 -0.8753  0.5683 -0.1416
  574TMC3    C3 8510   1.236   2.524   1.031 -0.2070  0.3122 -0.5435
  574TMC3    C4 8511   1.473   2.619   1.097  0.1153  0.3997 -0.1764
  574TMC3    C5 8512   1.459   2.568   0.971 -0.4541 -0.8591  0.3516
  574TMC3    C6 8513   1.336   2.512   0.937  0.1034 -0.2253 -0.5013
  574TMC3     C 8514   1.389   2.675   1.320 -0.2105  0.0033 -0.1375
  574TMC3     O 8515   1.507   2.700   1.351  0.5907  0.6867 -0.5354
  574TMC3     H 8516   1.165   2.557   1.225 -0.9807  4.6030  0.8972
  574TMC3    H1 8517   1.571   2.656   1.126  0.7436 -1.4311  0.0568
  574TMC3    H2 8518   1.308   2.472   0.840  0.3694 -1.4031 -0.0907
  574TMC3    C7 8519   1.573   2.559   0.882 -0.1419 -0.3223  0.2566
  574TMC3    C8 8520   1.098   2.498   0.983  0.0871 -0.3804  0.7317
  574TMC3    O1 8521   1.683   2.591   0.930  0.8470 -0.1011  0.4843
  574TMC3    O2 8522   1.013   2.450   1.060  0.5122 -0.3237 -0.2278
  575TMC3    C1 8523   3.866   3.410  11.094  0.0801 -0.1003 -0.3463
  575TMC3    C2 8524   3.893   3.311  11.190 -1.2405  0.4686 -0.2973
  575TMC3    C3 8525   3.949   3.201  11.140 -0.9456  0.1962  0.2200
  575TMC3    C4 8526   3.903   3.400  10.967  0.1679  0.2191 -0.0943
  575TMC3    C5 8527   3.956   3.282  10.922  0.3458 -0.1804 -0.7431
  575TMC3    C6 8528   3.983   3.182  11.013  0.1199  0.0149 -0.1123
  575TMC3     C 8529   3.814   3.529  11.139  0.4085 -0.3643 -0.7672
  575TMC3     O 8530   3.845   3.631  11.073  0.0791 -0.2935 -0.4838
  575TMC3     H 8531   3.895   3.329  11.297  1.4774  2.5754 -0.7138
  575TMC3    H1 8532   3.878   3.481  10.899 -0.9934 -0.0646 -0.0192
  575TMC3    H2 8533   4.010   3.084  10.975  1.8066  0.1791  0.6547
  575TMC3    C7 8534   3.976   3.273  10.780  0.5099 -0.0293  0.0124
  575TMC3    C8 8535   3.979   3.092  11.228 -0.8734 -0.1416 -0.1763
  575TMC3    O1 8536   3.922   3.367  10.719  0.0271 -0.0969  0.0840
  575TMC3    O2 8537   4.078   3.026  11.202 -0.1332 -0.2074  0.0514
  576MPD2     C 8538   3.226   0.232  12.536 -0.4447  0.4951 -0.4983
  576MPD2    C1 8539   3.265   0.304  12.424  0.5273 -0.0937  0.8743
  576MPD2    C2 8540   3.200   0.427  12.387 -0.1591  0.2888 -0.7260
  576MPD2    C3 8541   3.103   0.477  12.467 -0.3754  0.2090  0.5526
  576MPD2    C4 8542   3.072   0.410  12.581 -0.0485  0.2970 -0.2395
  576MPD2    C5 8543   3.132   0.291  12.616 -0.6668  1.1242 -1.3150
  576MPD2     H 8544   3.222   0.481  12.296  1.4704  0.0579 -0.4791
  576MPD2    H1 8545   2.998   0.442  12.653 -1.4940 -2.7908 -0.3674
  576MPD2    H2 8546   3.270   0.140  12.571 -0.7330  0.2931 -0.6625
  576MPD2    H3 8547   3.106   0.230  12.702 -0.4547 -0.3114 -2.2664
  576MPD2     N 8548   3.042   0.593  12.427 -0.2234  0.1310  0.2814
  576MPD2    H5 8549   3.077   0.630  12.339  0.5171 -0.7697  0.1884
  576MPD2    N1 8550   3.381   0.249  12.363  0.2136  0.7238  0.2401
  576MPD2    H7 8551   3.428   0.167  12.398 -0.6346  0.0053 -0.3069
  577TMC3    C1 8552   3.535   0.220  12.179 -0.0516 -0.1695 -0.1113
  577TMC3    C2 8553   3.534   0.084  12.197 -0.1448  0.6763  0.1935
  577TMC3    C3 8554   3.623   0.004  12.127  0.2435 -0.8230 -0.3768
  577TMC3    C4 8555   3.626   0.278  12.098  0.2946  0.4080  0.6924
  577TMC3    C5 8556   3.699   0.196  12.010 -0.3953 -0.7598 -0.0902
  577TMC3    C6 8557   3.701   0.064  12.031  0.0460 -0.4252 -0.8833
  577TMC3     C 8558   3.440   0.305  12.254  0.1262 -0.1397 -0.2225
  577TMC3     O 8559   3.413   0.412  12.200  0.2331 -0.1521  0.1040
  577TMC3     H 8560   3.462   0.039  12.264  0.0157 -0.1059 -0.1623
  577TMC3    H1 8561   3.622   0.385  12.081 -2.1891  0.0557 -1.0245
  577TMC3    H2 8562   3.787   0.016  11.987  1.0662 -0.0119  0.6411
  577TMC3    C7 8563   3.749   0.268  11.894  0.2522 -0.1032  0.7516
  577TMC3    C8 8564   3.645   4.586  12.150 -0.3159  0.1022  0.3004
  577TMC3    O1 8565   3.783   0.382  11.906  0.4316  0.7037 -0.4124
  577TMC3    O2 8566   3.566   4.533  12.230  0.0345  0.3742 -0.0829
  578MPD2     C 8567   0.904   4.076   1.743  0.0341  1.1225  0.1715
  578MPD2    C1 8568   0.899   4.190   1.655 -0.1001 -0.4154  0.2147
  578MPD2    C2 8569   1.018   4.251   1.616  0.1384 -0.1286 -0.1919
  578MPD2    C3 8570   1.138   4.201   1.656  0.0337 -1.6188 -0.1186
  578MPD2    C4 8571   1.136   4.087   1.735  0.5740  0.2764 -0.3822
  578MPD2    C5 8572   1.027   4.031   1.781 -0.6221 -0.2836 -0.7601
  578MPD2     H 8573   1.010   4.334   1.547 -0.8731 -0.0964 -0.0351
  578MPD2    H1 8574   1.228   4.036   1.764  1.3017  1.2010 -1.0484
  578MPD2    H2 8575   0.813   4.033   1.784  0.9923  2.5877  3.8785
  578MPD2    H3 8576   1.034   3.948   1.851  3.0040 -1.0071 -2.0052
  578MPD2     N 8577   1.263   4.267   1.612  0.1758 -0.2215  0.4720
  578MPD2    H5 8578   1.263   4.364   1.581  0.0232 -0.6619 -0.9076
  578MPD2    N1 8579   0.775   4.242   1.606 -0.0545  0.0592  0.1048
  578MPD2    H7 8580   0.776   4.317   1.537 -1.9064  1.2647  1.3901
  579TMC3    C1 8581   1.487   4.290   1.571  0.1378 -0.5349  0.3724
  579TMC3    C2 8582   1.510   4.395   1.652 -0.0350  0.0452  0.2065
  579TMC3    C3 8583   1.607   4.483   1.608 -0.4521  0.2085 -0.5928
  579TMC3    C4 8584   1.556   4.254   1.457 -0.7254  0.3519  0.3069
  579TMC3    C5 8585   1.667   4.330   1.435 -0.2164 -0.2466  0.5834
  579TMC3    C6 8586   1.689   4.452   1.502  0.2746 -0.9632 -0.2601
  579TMC3     C 8587   1.382   4.203   1.618  0.4089 -0.0701 -0.3073
  579TMC3     O 8588   1.404   4.084   1.601 -0.3078 -0.3727  0.3663
  579TMC3     H 8589   1.429   4.416   1.721  0.0394 -0.4213  0.4333
  579TMC3    H1 8590   1.516   4.172   1.399  2.0217 -0.0805 -0.9914
  579TMC3    H2 8591   1.769   4.518   1.472 -0.2678  0.0465  0.5479
  579TMC3    C7 8592   1.779   4.274   1.373  0.5044  0.7407 -0.6238
  579TMC3    C8 8593   1.618   4.610   1.680  0.4175 -0.4450  0.3898
  579TMC3    O1 8594   1.891   4.308   1.414  0.2128  0.2588 -0.0014
  579TMC3    O2 8595   1.520   4.651   1.735 -0.7701  0.4758  0.4827
  580TMC3    C1 8596   1.205   3.305  11.739 -0.2565 -0.3907  1.0817
  580TMC3    C2 8597   1.223   3.249  11.615 -0.0852  0.6979 -0.0456
  580TMC3    C3 8598   1.233   3.112  11.613  0.2149 -0.2065  0.3847
  580TMC3    C4 8599   1.170   3.232  11.846 -0.1233 -0.7498 -0.1100
  580TMC3    C5 8600   1.195   3.099  11.840  0.0607 -0.1487  0.6272
  580TMC3    C6 8601   1.230   3.039  11.727 -0.3381  0.5165 -0.0867
  580TMC3     C 8602   1.251   3.440  11.755  0.5161 -0.2102  0.1531
  580TMC3     O 8603   1.323   3.497  11.670 -0.2834  0.7177 -0.5385
  580TMC3     H 8604   1.232   3.311  11.526  0.6643 -1.7558 -1.6865
  580TMC3    H1 8605   1.146   3.277  11.941 -0.4880 -2.8310  0.7773
  580TMC3    H2 8606   1.264   2.936  11.724 -2.1047 -0.0281 -1.7479
  580TMC3    C7 8607   1.240   3.049  11.969 -0.1022 -0.0252 -0.0884
  580TMC3    C8 8608   1.285   3.046  11.502 -0.5499  0.2390 -0.9903
  580TMC3    O1 8609   1.283   3.133  12.042 -0.6187 -0.3945  0.0335
  580TMC3    O2 8610   1.234   2.943  11.458 -0.3765  0.0089  0.0847
  581MPD2     C 8611   4.096   3.190  14.826 -0.8960  0.4721  0.4842
  581MPD2    C1 8612   3.961   3.195  14.854  0.2588 -0.0387  0.5675
  581MPD2    C2 8613   3.874   3.234  14.750 -0.5584 -0.0569  0.7187
  581MPD2    C3 8614   3.924   3.262  14.629 -0.3594 -0.1721 -0.2239
  581MPD2    C4 8615   4.062   3.246  14.607  0.8250 -0.1524 -0.0775
  581MPD2    C5 8616   4.145   3.210  14.704 -0.6921  0.3655  0.7643
  581MPD2     H 8617   3.768   3.239  14.771 -1.4736 -3.9111 -3.0698
  581MPD2    H1 8618   4.105   3.273  14.512  1.2323 -2.1526 -0.4488
  581MPD2    H2 8619   4.173   3.154  14.893 -1.6631  0.1956  1.2083
  581MPD2    H3 8620   4.249   3.205  14.672 -0.2960 -2.3026  2.4550
  581MPD2     N 8621   3.834   3.322  14.539 -0.0722 -0.1999 -0.2073
  581MPD2    H5 8622   3.736   3.331  14.564 -0.7276 -3.2471 -1.6111
  581MPD2    N1 8623   3.915   3.164  14.981 -0.1691 -0.1103 -0.7327
  581MPD2    H7 8624   3.988   3.146  15.048 -2.4029 -0.8455  1.4827
  582TMC3    C1 8625   3.781   3.117  15.160  0.0616 -0.5277  0.0593
  582TMC3    C2 8626   3.862   3.188  15.246  0.5173  0.3176 -0.4823
  582TMC3    C3 8627   3.823   3.190  15.377 -0.1533 -0.4099  0.4595
  582TMC3    C4 8628   3.661   3.066  15.197 -0.2048 -0.8484 -0.3023
  582TMC3    C5 8629   3.632   3.067  15.326  0.6774 -0.5419 -0.2314
  582TMC3    C6 8630   3.707   3.133  15.422  0.0207  0.1037 -0.1402
  582TMC3     C 8631   3.787   3.138  15.021  0.2346 -0.2191  0.2495
  582TMC3     O 8632   3.691   3.110  14.954  0.2564 -0.0562 -0.1839
  582TMC3     H 8633   3.957   3.223  15.206  0.1972  1.8463  0.0977
  582TMC3    H1 8634   3.595   3.019  15.125  0.5106 -1.6846 -0.4109
  582TMC3    H2 8635   3.673   3.150  15.523  4.6749 -0.8355  1.5825
  582TMC3    C7 8636   3.494   3.087  15.342 -0.2448  0.9354 -0.3444
  582TMC3    C8 8637   3.898   3.270  15.476 -0.0156 -0.2814 -0.1206
  582TMC3    O1 8638   3.420   3.003  15.294  0.1492  0.2547 -0.4586
  582TMC3    O2 8639   3.841   3.301  15.581  0.3938  0.5514 -0.0356
  583MPD2     C 8640   3.929   0.372  17.023 -0.4872  0.7207  0.0745
  583MPD2    C1 8641   3.896   0.466  16.925 -0.2312  0.6848 -0.1092
  583MPD2    C2 8642   3.850   0.591  16.974  0.2623  0.1409 -0.4032
  583MPD2    C3 8643   3.815   0.616  17.105 -1.2044 -0.0300 -0.4458
  583MPD2    C4 8644   3.855   0.526  17.198  0.4144  0.5043 -0.2304
  583MPD2    C5 8645   3.916   0.413  17.158 -0.3631  0.2822  0.5119
  583MPD2     H 8646   3.839   0.672  16.902  1.1021  1.1554  0.5944
  583MPD2    H1 8647   3.836   0.546  17.303 -0.6732 -2.8453  0.2148
  583MPD2    H2 8648   3.987   0.284  16.998 -0.3608  0.4098  1.4436
  583MPD2    H3 8649   3.957   0.346  17.233  0.6888  1.5444  1.0648
  583MPD2     N 8650   3.773   0.747  17.136 -0.0055  0.0666 -0.4440
  583MPD2    H5 8651   3.762   0.817  17.063  2.9207 -0.8433 -1.7718
  583MPD2    N1 8652   3.935   0.452  16.787 -1.0838 -0.3421 -0.2347
  583MPD2    H7 8653   3.922   0.540  16.739 -0.7348 -0.3801 -0.3947
  584TMC3    C1 8654   3.722   0.927  17.292  0.3866 -0.3504  0.5834
  584TMC3    C2 8655   3.752   1.029  17.209 -0.2960 -0.4701  0.0205
  584TMC3    C3 8656   3.728   1.152  17.258  0.3418 -0.4089  0.7638
  584TMC3    C4 8657   3.669   0.950  17.420  1.0235  0.0856 -0.2655
  584TMC3    C5 8658   3.649   1.079  17.467 -0.0227 -0.0738  0.7276
  584TMC3    C6 8659   3.675   1.185  17.385  0.3659 -0.2385  0.2683
  584TMC3     C 8660   3.726   0.785  17.258  0.0889  0.2572 -0.6283
  584TMC3     O 8661   3.682   0.711  17.345  0.5662 -0.2013  0.6903
  584TMC3     H 8662   3.801   1.015  17.113 -1.5796  0.1159 -0.7256
  584TMC3    H1 8663   3.649   0.867  17.487  1.8294 -1.2349 -1.6480
  584TMC3    H2 8664   3.654   1.283  17.425 -2.2333  0.1439 -1.9683
  584TMC3    C7 8665   3.558   1.089  17.584  0.1221 -0.1768  0.6654
  584TMC3    C8 8666   3.752   1.256  17.162 -0.6984  0.6878  0.0835
  584TMC3    O1 8667   3.572   1.008  17.673  0.3339 -0.6239  0.1620
  584TMC3    O2 8668   3.785   1.220  17.048 -0.8563  0.1176  0.4755
  585MPD2     C 8669   3.024   4.514   1.075 -0.5867 -0.7507 -0.3967
  585MPD2    C1 8670   3.064   4.508   0.947  0.4186  0.1122  0.5101
  585MPD2    C2 8671   3.111   4.387   0.898  0.7311 -0.2401  0.3242
  585MPD2    C3 8672   3.111   4.274   0.977 -0.3075  0.1848  0.1412
  585MPD2    C4 8673   3.053   4.274   1.106  0.5735  0.3695  0.9016
  585MPD2    C5 8674   3.014   4.395   1.155 -0.9123  0.1005  0.1700
  585MPD2     H 8675   3.137   4.373   0.793  0.8583 -2.9412  0.6947
  585MPD2    H1 8676   3.047   4.191   1.174  1.5826  1.2658  2.0902
  585MPD2    H2 8677   2.970   4.595   1.124 -0.4588 -1.1136  0.3525
  585MPD2    H3 8678   2.970   4.390   1.254 -3.5145  0.0901 -0.9928
  585MPD2     N 8679   3.175   4.152   0.934 -0.2847  0.5119  0.6801
  585MPD2    H5 8680   3.162   4.067   0.987  0.0066  1.5167  2.3620
  585MPD2    N1 8681   3.043   4.617   0.862 -0.4985 -0.5526 -0.5175
  585MPD2    H7 8682   2.982   4.691   0.895  0.0489 -0.7296  0.8722
  586TMC3    C1 8683   3.323   4.022   0.797 -0.8779  0.4603 -0.1083
  586TMC3    C2 8684   3.439   4.018   0.736  0.5694 -0.4305  0.5519
  586TMC3    C3 8685   3.508   3.899   0.716 -0.5665 -0.0142 -0.5397
  586TMC3    C4 8686   3.257   3.908   0.843  0.0630  0.6100  0.4297
  586TMC3    C5 8687   3.309   3.790   0.789  0.0348 -0.1475  0.2647
  586TMC3    C6 8688   3.435   3.787   0.740 -0.2744 -0.5814  0.0249
  586TMC3     C 8689   3.278   4.154   0.842 -0.0256 -0.0156  0.5986
  586TMC3     O 8690   3.350   4.250   0.810 -0.8662  0.2916  0.1331
  586TMC3     H 8691   3.491   4.109   0.708 -0.7235  0.4750  1.1590
  586TMC3    H1 8692   3.153   3.914   0.872 -0.2708  1.9270 -1.0335
  586TMC3    H2 8693   3.480   3.691   0.715  2.0570  0.9449 -1.7016
  586TMC3    C7 8694   3.202   3.722   0.719 -0.7342 -0.1779  0.1192
  586TMC3    C8 8695   3.566   3.887   0.583 -0.2293 -0.8924  0.2455
  586TMC3    O1 8696   3.108   3.787   0.687  0.1169  0.4831  0.1001
  586TMC3    O2 8697   3.607   3.773   0.563 -0.6902  0.0809  0.4469
  587TMC3    C1 8698   0.652   3.044  16.810  0.0355  0.6926 -0.1232
  587TMC3    C2 8699   0.641   3.128  16.702  0.1576  0.6584  0.4328
  587TMC3    C3 8700   0.745   3.213  16.672 -0.7398 -0.1934  0.3560
  587TMC3    C4 8701   0.774   3.040  16.879 -0.3380  0.6115  0.4113
  587TMC3    C5 8702   0.879   3.125  16.847 -0.3360 -0.8502  0.1961
  587TMC3    C6 8703   0.860   3.221  16.746  0.3231 -0.5527  0.4305
  587TMC3     C 8704   0.546   2.947  16.849  0.6293 -0.0774  0.0777
  587TMC3     O 8705   0.562   2.888  16.956  0.2521  0.3855 -0.4772
  587TMC3     H 8706   0.556   3.121  16.634 -0.6634  1.3568  1.3909
  587TMC3    H1 8707   0.786   2.967  16.957  0.6736 -0.9411 -1.2039
  587TMC3    H2 8708   0.945   3.278  16.709 -2.6328  2.7930 -1.2281
  587TMC3    C7 8709   1.006   3.095  16.912  0.7620  0.4075 -0.6649
  587TMC3    C8 8710   0.730   3.301  16.549  0.7827 -0.3339 -0.0094
  587TMC3    O1 8711   1.003   3.004  16.992  0.2118  0.0586 -0.3273
  587TMC3    O2 8712   0.823   3.330  16.475  0.1327 -0.0848  0.3394
  588TMC3    C1 8713   3.429   0.549   9.288 -0.1823 -0.4779 -0.0962
  588TMC3    C2 8714   3.371   0.434   9.236  0.3435  0.8206 -0.0511
  588TMC3    C3 8715   3.369   0.326   9.323  0.6123 -0.5317  0.4807
  588TMC3    C4 8716   3.493   0.547   9.414 -0.0135  0.6493 -0.2779
  588TMC3    C5 8717   3.478   0.439   9.502  0.4586  0.0756  0.9075
  588TMC3    C6 8718   3.420   0.325   9.451  0.4453  0.0796 -0.0371
  588TMC3     C 8719   3.407   0.676   9.223 -0.3241 -0.1758  0.1467
  588TMC3     O 8720   3.395   0.673   9.096  0.2355 -0.0099  0.2297
  588TMC3     H 8721   3.309   0.444   9.148  0.2543  0.9225  0.0226
  588TMC3    H1 8722   3.567   0.622   9.439 -0.1377  1.2238 -1.6173
  588TMC3    H2 8723   3.394   0.248   9.522 -0.0888 -0.1724 -0.5086
  588TMC3    C7 8724   3.526   0.447   9.641  0.0454 -0.2760  0.2902
  588TMC3    C8 8725   3.309   0.203   9.278 -0.3386  0.0565  0.5973
  588TMC3    O1 8726   3.558   0.340   9.698  0.4201 -0.2857  0.0150
  588TMC3    O2 8727   3.217   0.210   9.199  0.3179  0.4075  0.4307
  589TMC3    C1 8728   2.250   3.120   1.383 -0.2818 -0.7062  0.5608
  589TMC3    C2 8729   2.319   3.185   1.479 -0.3097 -0.1890  0.6301
  589TMC3    C3 8730   2.456   3.181   1.484 -0.1117  0.3633 -0.0988
  589TMC3    C4 8731   2.320   3.046   1.293  0.8893  0.2823  0.7069
  589TMC3    C5 8732   2.454   3.035   1.298 -0.4139 -0.4793 -0.0731
  589TMC3    C6 8733   2.522   3.102   1.394 -0.1231 -0.1372  0.0326
  589TMC3     C 8734   2.104   3.139   1.369  0.0965 -0.3986  0.2772
  589TMC3     O 8735   2.052   3.091   1.268 -0.2028 -0.5302  0.4432
  589TMC3     H 8736   2.265   3.233   1.560 -0.1530 -1.4366  1.4855
  589TMC3    H1 8737   2.270   2.991   1.214 -1.3542  3.4605 -0.0604
  589TMC3    H2 8738   2.630   3.095   1.386 -0.3252 -1.2854 -1.5487
  589TMC3    C7 8739   2.525   2.922   1.231  0.2180 -0.1488  0.0604
  589TMC3    C8 8740   2.521   3.231   1.602  0.3220 -0.7051  0.3224
  589TMC3    O1 8741   2.616   2.878   1.296 -0.1951  0.5042  0.4415
  589TMC3    O2 8742   2.450   3.232   1.698  0.0692  0.4775  0.0233
  590MPD2     C 8743   1.813   1.532  16.776  0.8370  0.8982 -0.1007
  590MPD2    C1 8744   1.731   1.470  16.687 -0.3719 -0.7928 -0.7300
  590MPD2    C2 8745   1.750   1.495  16.552  0.1299 -0.7288  0.4486
  590MPD2    C3 8746   1.853   1.579  16.514 -0.1359  1.2113  0.3655
  590MPD2    C4 8747   1.937   1.641  16.601 -0.0350 -0.3209  0.4036
  590MPD2    C5 8748   1.908   1.616  16.733  0.3800  0.5008 -0.5734
  590MPD2     H 8749   1.684   1.454  16.477  0.1821  1.5024 -0.8316
  590MPD2    H1 8750   2.025   1.700  16.577 -0.6849  0.7449  0.6155
  590MPD2    H2 8751   1.811   1.509  16.882 -1.3016  0.4552 -0.2357
  590MPD2    H3 8752   1.960   1.672  16.810  0.5090 -0.7893  0.2792
  590MPD2     N 8753   1.869   1.601  16.370  0.3023 -0.3155  0.1661
  590MPD2    H5 8754   1.817   1.539  16.309 -1.9322  3.0642 -1.3804
  590MPD2    N1 8755   1.621   1.400  16.734  0.0298 -0.3523 -0.2081
  590MPD2    H7 8756   1.595   1.411  16.832 -1.3963  0.9006 -0.7314
  591TMC3    C1 8757   1.891   1.737  16.179  0.0879 -0.1431  0.6547
  591TMC3    C2 8758   1.913   1.631  16.097 -0.5544 -0.6232  0.3951
  591TMC3    C3 8759   1.894   1.659  15.970  0.5148  0.3483 -0.2736
  591TMC3    C4 8760   1.873   1.866  16.134 -0.6721  0.7176 -0.2664
  591TMC3    C5 8761   1.860   1.887  15.997 -0.1091  0.6148 -0.0316
  591TMC3    C6 8762   1.853   1.779  15.916  0.6414 -0.2947 -0.1665
  591TMC3     C 8763   1.924   1.722  16.324  0.1317  0.3778  0.2049
  591TMC3     O 8764   1.965   1.820  16.386  0.9941  0.2450  0.3608
  591TMC3     H 8765   1.953   1.535  16.128  0.5486 -0.2017  0.2738
  591TMC3    H1 8766   1.902   1.950  16.197 -1.6726 -0.3133  1.5756
  591TMC3    H2 8767   1.838   1.782  15.808  0.0755  0.8888 -0.0581
  591TMC3    C7 8768   1.797   2.011  15.949  0.2532  0.1080  0.3959
  591TMC3    C8 8769   1.978   1.574  15.884 -0.6313 -0.0575  0.4737
  591TMC3    O1 8770   1.714   1.988  15.862  0.7166 -0.1298  0.5946
  591TMC3    O2 8771   2.020   1.465  15.920 -0.9896 -0.4893  0.0500
  592MPD2     C 8772   2.497   3.188  11.301  0.7753  0.0882 -0.3415
  592MPD2    C1 8773   2.517   3.236  11.425  0.7330 -1.0610 -0.0579
  592MPD2    C2 8774   2.483   3.169  11.540 -0.0953  0.2240  0.9780
  592MPD2    C3 8775   2.416   3.051  11.522  0.2676  0.7257 -0.4323
  592MPD2    C4 8776   2.396   2.998  11.397  0.0288  0.2353  0.4636
  592MPD2    C5 8777   2.437   3.067  11.289 -0.5655 -0.5546 -0.1428
  592MPD2     H 8778   2.520   3.210  11.634 -0.4898  1.9979  0.3644
  592MPD2    H1 8779   2.350   2.902  11.373  2.0723 -0.6359  0.0573
  592MPD2    H2 8780   2.526   3.240  11.210  2.4367 -0.9880 -0.4323
  592MPD2    H3 8781   2.406   3.029  11.193  1.4768 -0.4635 -0.8433
  592MPD2     N 8782   2.370   2.988  11.639  0.0059  0.0175 -0.5637
  592MPD2    H5 8783   2.383   3.036  11.728 -1.1613 -1.0940  0.2036
  592MPD2    N1 8784   2.586   3.363  11.429  0.2220  0.1275 -0.7638
  592MPD2    H7 8785   2.606   3.398  11.336 -0.4579  1.5386 -0.3770
  593TMC3    C1 8786   2.689   3.558  11.505 -0.4255  0.7140 -0.2083
  593TMC3    C2 8787   2.695   3.665  11.590  0.3032  0.4815 -0.0050
  593TMC3    C3 8788   2.769   3.778  11.555  0.4353 -0.6364 -0.4551
  593TMC3    C4 8789   2.777   3.559  11.393 -0.0888  0.2365 -0.5514
  593TMC3    C5 8790   2.866   3.667  11.382 -0.1373 -0.4251 -0.0909
  593TMC3    C6 8791   2.854   3.783  11.447 -0.5067 -0.0226 -0.2349
  593TMC3     C 8792   2.605   3.443  11.539  0.0826 -0.0861 -0.4254
  593TMC3     O 8793   2.560   3.433  11.651  0.2691 -0.3554  0.2426
  593TMC3     H 8794   2.653   3.663  11.690 -0.6766 -2.1280 -0.4644
  593TMC3    H1 8795   2.777   3.479  11.319  1.4425 -0.0659 -0.2473
  593TMC3    H2 8796   2.910   3.874  11.427 -1.2980  0.4811 -0.1550
  593TMC3    C7 8797   2.953   3.667  11.268  0.5400  0.3161  0.1414
  593TMC3    C8 8798   2.772   3.894  11.642  0.0515 -0.5420 -0.1054
  593TMC3    O1 8799   2.972   3.776  11.214 -0.4335  0.9393  0.2102
  593TMC3    O2 8800   2.672   3.943  11.684 -0.6311 -0.1306  0.1749
  594MPD2     C 8801   0.873   2.228  14.288 -0.5549  0.0522  0.1342
  594MPD2    C1 8802   0.842   2.254  14.422 -0.2468  0.1539 -0.6915
  594MPD2    C2 8803   0.920   2.346  14.485 -0.0876 -0.2480 -0.4032
  594MPD2    C3 8804   1.011   2.429  14.416 -0.2525 -0.0058  0.1351
  594MPD2    C4 8805   1.037   2.397  14.280 -0.4197 -0.3715  0.6002
  594MPD2    C5 8806   0.969   2.300  14.225 -0.6062  0.4517 -0.1301
  594MPD2     H 8807   0.908   2.363  14.591  0.8607 -0.3903 -0.2717
  594MPD2    H1 8808   1.111   2.452  14.223  0.2581 -1.0828  0.8022
  594MPD2    H2 8809   0.831   2.137  14.246  0.1471 -0.5592  0.7607
  594MPD2    H3 8810   1.002   2.268  14.126  0.1258  0.2099  0.1912
  594MPD2     N 8811   1.088   2.522  14.486  0.0710 -0.0150  0.4750
  594MPD2    H5 8812   1.061   2.523  14.584  0.7017 -1.2859  0.6671
  594MPD2    N1 8813   0.734   2.186  14.473 -0.6340 -0.2916 -0.2553
  594MPD2    H7 8814   0.674   2.136  14.407 -1.0135  1.0314 -0.9095
  595TMC3    C1 8815   1.403   2.824  14.623  0.0310 -0.0049  0.2551
  595TMC3    C2 8816   1.352   2.764  14.513 -0.1659  0.2576 -0.0717
  595TMC3    C3 8817   1.225   2.711  14.532 -0.0979  0.1503 -0.0927
  595TMC3    C4 8818   1.344   2.843  14.745 -0.2001  0.3254 -0.6435
  595TMC3    C5 8819   1.216   2.797  14.755  0.1239 -0.6180 -0.0676
  595TMC3    C6 8820   1.153   2.730  14.650  0.4023 -0.9192 -0.3724
  595TMC3     C 8821   1.529   2.887  14.612 -0.1850  0.1709  0.2145
  595TMC3     O 8822   1.588   2.918  14.716  0.6819  0.1767  0.0386
  595TMC3     H 8823   1.404   2.751  14.419  1.1874 -2.5099  1.0429
  595TMC3    H1 8824   1.401   2.873  14.832  0.1344  2.9378 -1.7802
  595TMC3    H2 8825   1.046   2.714  14.660  0.6290 -2.0176  0.2521
  595TMC3    C7 8826   1.130   2.897  14.808 -0.1516 -0.1207  0.4395
  595TMC3    C8 8827   1.178   2.618  14.435  0.4599 -1.0203  0.0058
  595TMC3    O1 8828   1.010   2.874  14.809  0.1491  0.0302 -0.1566
  595TMC3    O2 8829   1.241   2.618  14.331  0.6183 -0.2735 -0.7301
  596MPD2     C 8830   4.707   0.347  16.814  0.3734 -0.0862 -0.3997
  596MPD2    C1 8831   0.021   0.464  16.738 -0.8634 -0.0904  0.7191
  596MPD2    C2 8832   0.064   0.443  16.604 -0.8466  0.0477 -0.2269
  596MPD2    C3 8833   0.047   0.310  16.551  0.1089 -0.1644 -0.0010
  596MPD2    C4 8834   0.001   0.203  16.629  0.0058  0.7507  0.1911
  596MPD2    C5 8835   4.701   0.220  16.763 -0.2006  0.0222  0.3712
  596MPD2     H 8836   0.088   0.526  16.540 -2.6990  2.0068  1.6144
  596MPD2    H1 8837   4.700   0.109  16.579 -0.2025  1.1128 -0.3984
  596MPD2    H2 8838   4.677   0.353  16.919 -0.0853  0.8107 -0.5745
  596MPD2    H3 8839   4.673   0.137  16.826  0.1628 -0.2524  0.1716
  596MPD2     N 8840   0.057   0.281  16.411 -0.5422 -0.2439 -0.1566
  596MPD2    H5 8841   0.006   0.201  16.375  2.3305 -2.3465  0.5492
  596MPD2    N1 8842   0.001   0.599  16.771 -0.2748  0.2337  0.4608
  596MPD2    H7 8843   0.027   0.671  16.705  1.4665 -1.4642 -0.7237
  597TMC3    C1 8844   4.639   0.779  16.902 -0.3508 -0.1179 -0.0379
  597TMC3    C2 8845   4.698   0.870  16.815 -0.3072  1.0088  0.1656
  597TMC3    C3 8846   4.659   0.999  16.823 -0.3360 -0.0132 -0.0609
  597TMC3    C4 8847   4.567   0.828  17.006  0.1139  0.6552  0.0052
  597TMC3    C5 8848   4.547   0.959  17.017 -0.3631  0.0250  0.3085
  597TMC3    C6 8849   4.592   1.049  16.921 -0.9636 -0.2499 -0.1591
  597TMC3     C 8850   4.658   0.634  16.886  1.1603 -0.1197 -0.0425
  597TMC3     O 8851   4.637   0.561  16.983  0.8120  0.7670 -0.8559
  597TMC3     H 8852   0.031   0.840  16.724 -1.9771  0.0754 -0.4861
  597TMC3    H1 8853   4.528   0.761  17.081  0.1518 -0.6759 -1.1810
  597TMC3    H2 8854   4.562   1.153  16.914 -0.6897 -0.0393  1.9763
  597TMC3    C7 8855   4.454   1.006  17.120 -0.2850  0.2856 -0.1351
  597TMC3    C8 8856   4.655   1.064  16.696  0.7351 -0.7204  0.1748
  597TMC3    O1 8857   4.415   0.925  17.205 -0.0421  0.4046 -0.0913
  597TMC3    O2 8858   4.561   1.137  16.677 -0.5712  0.2665 -0.1961
  598TMC3    C1 8859   2.939   2.025  15.468 -0.3388  0.1637  0.1687
  598TMC3    C2 8860   2.887   1.915  15.537 -0.2887  0.4351 -0.1347
  598TMC3    C3 8861   2.753   1.892  15.510  1.4343  0.2482 -0.1019
  598TMC3    C4 8862   2.874   2.102  15.377 -0.3476  0.2176 -0.1788
  598TMC3    C5 8863   2.744   2.063  15.352 -0.1375 -0.1978  0.4687
  598TMC3    C6 8864   2.681   1.955  15.414  0.6033 -0.2711 -0.1678
  598TMC3     C 8865   3.082   2.046  15.478  0.0547 -0.4210 -1.3867
  598TMC3     O 8866   3.125   2.153  15.432  0.5080 -0.0698  0.5014
  598TMC3     H 8867   2.936   1.865  15.620 -1.0460  1.1059  0.7226
  598TMC3    H1 8868   2.916   2.196  15.344 -1.2416 -0.2425 -2.6316
  598TMC3    H2 8869   2.573   1.959  15.407  0.6068  2.1750  1.2418
  598TMC3    C7 8870   2.683   2.123  15.230  0.3612 -1.1109  0.6191
  598TMC3    C8 8871   2.664   1.814  15.601 -0.5160 -0.1466  0.0971
  598TMC3    O1 8872   2.593   2.062  15.174  0.9374 -0.0734  0.4680
  598TMC3    O2 8873   2.548   1.849  15.601  0.3066 -0.1685 -0.4451
  599MPD2     C 8874   3.279   4.563  16.205  0.1762 -0.5780 -0.1952
  599MPD2    C1 8875   3.185   4.483  16.153 -0.3565  0.0213 -0.5484
  599MPD2    C2 8876   3.050   4.515  16.153 -0.0915  0.2842 -0.3971
  599MPD2    C3 8877   3.015   4.633  16.222  0.1023 -0.6323  0.0433
  599MPD2    C4 8878   3.112   0.000  16.278 -0.1726  0.1729 -0.9567
  599MPD2    C5 8879   3.245   4.684  16.261 -0.1140  0.2668 -0.7196
  599MPD2     H 8880   2.990   4.440  16.103 -0.6106  0.0236  0.6116
  599MPD2    H1 8881   3.082   0.092  16.328 -1.3244 -0.4313 -0.5270
  599MPD2    H2 8882   3.383   4.533  16.205  0.7370  1.3847 -2.0280
  599MPD2    H3 8883   3.316   0.025  16.316 -0.5797  0.3779 -0.2430
  599MPD2     N 8884   2.880   4.672  16.235  0.1507  0.4225 -0.3216
  599MPD2    H5 8885   2.862   0.039  16.285  3.3369  0.1882  1.2473
  599MPD2    N1 8886   3.234   4.365  16.094  0.2322  0.6930  0.0226
  599MPD2    H7 8887   3.334   4.349  16.097 -0.0692 -1.7111 -2.0288
  600TMC3    C1 8888   2.648   4.660  16.221  0.5562  0.0701 -0.3996
  600TMC3    C2 8889   2.541   4.573  16.224 -0.4242  0.0705  0.3389
  600TMC3    C3 8890   2.419   4.625  16.240  0.2369  0.5876  0.2539
  600TMC3    C4 8891   2.632   0.075  16.249  0.7693 -0.0537  0.2540
  600TMC3    C5 8892   2.506   0.117  16.293 -0.1567 -0.1522 -0.8495
  600TMC3    C6 8893   2.402   0.033  16.293 -0.7871  0.1695  0.1178
  600TMC3     C 8894   2.775   4.602  16.187 -0.7209 -0.2578  0.1028
  600TMC3     O 8895   2.773   4.494  16.130  0.1848  0.3888 -0.3278
  600TMC3     H 8896   2.554   4.466  16.213 -0.7940  0.0661 -0.0600
  600TMC3    H1 8897   2.703   0.155  16.231  2.1131 -0.9747  1.5375
  600TMC3    H2 8898   2.307   0.066  16.333 -1.0630 -1.8564  1.1321
  600TMC3    C7 8899   2.494   0.247  16.366  0.0101 -0.1811 -0.2766
  600TMC3    C8 8900   2.340   4.523  16.310  0.2880  0.2002  0.1680
  600TMC3    O1 8901   2.388   0.302  16.357  0.3299  0.0982 -0.0878
  600TMC3    O2 8902   2.370   4.487  16.422  0.4185 -0.0353 -0.2570
  601MPD2     C 8903   0.059   2.882   0.546 -0.1005  0.1453  0.0994
  601MPD2    C1 8904   0.031   2.839   0.419 -0.1878 -0.4253  0.5281
  601MPD2    C2 8905   0.096   2.726   0.361 -0.2237 -0.8983  0.2916
  601MPD2    C3 8906   0.194   2.658   0.431 -0.5424 -0.7215 -0.1332
  601MPD2    C4 8907   0.232   2.715   0.551  0.3429 -0.4095 -0.8152
  601MPD2    C5 8908   0.167   2.823   0.609 -0.6739  0.1234  0.7613
  601MPD2     H 8909   0.066   2.681   0.268 -1.5829 -0.4760  0.5214
  601MPD2    H1 8910   0.313   2.679   0.614  1.0350  0.8730 -0.9834
  601MPD2    H2 8911   0.011   2.966   0.596 -4.6547 -1.6428 -1.2656
  601MPD2    H3 8912   0.214   2.857   0.700  0.4670 -0.9594  0.5758
  601MPD2     N 8913   0.265   2.544   0.394  0.5533  0.0796  0.2686
  601MPD2    H5 8914   0.335   2.517   0.462 -1.5909 -0.1182  2.3549
  601MPD2    N1 8915   4.649   2.897   0.337 -0.8567  0.0377  0.3010
  601MPD2    H7 8916   4.644   2.850   0.247 -1.5797 -0.5015  0.6229
  602TMC3    C1 8917   4.507   3.039   0.234 -0.1922  0.7803  0.5019
  602TMC3    C2 8918   4.544   3.157   0.179  0.0683 -0.1513 -0.0935
  602TMC3    C3 8919   4.495   3.173   0.052  0.2561 -1.1045 -0.2542
  602TMC3    C4 8920   4.433   2.942   0.172 -0.7358 -0.1659 -0.3749
  602TMC3    C5 8921   4.387   2.962   0.046  0.6712  0.4545  0.0396
  602TMC3    C6 8922   4.419   3.081  17.666 -0.5590  1.3487 -0.0952
  602TMC3     C 8923   4.571   3.009   0.356  0.2479  0.0318  0.3079
  602TMC3     O 8924   4.580   3.094   0.441 -0.4704  0.0589  0.3127
  602TMC3     H 8925   4.608   3.225   0.234  1.0670 -0.5577 -0.7553
  602TMC3    H1 8926   4.415   2.844   0.214 -0.0625 -0.4798 -0.8251
  602TMC3    H2 8927   4.381   3.100  17.566 -1.0186  2.0714  0.2101
  602TMC3    C7 8928   4.334   2.856  17.646 -0.4203 -0.1717 -0.9264
  602TMC3    C8 8929   4.536   3.293  17.662  0.4006  0.0489  0.6257
  602TMC3    O1 8930   4.225   2.823   0.012 -0.4032  0.2552  0.3186
  602TMC3    O2 8931   4.560   3.402   0.035 -1.0228  0.1674 -0.2420
  603TMC3    C1 8932   4.124   2.618  10.595  0.2276  0.4215  0.7910
  603TMC3    C2 8933   4.105   2.689  10.710  0.1100 -0.5807  0.4962
  603TMC3    C3 8934   3.988   2.764  10.723  0.2338  0.2893  0.0919
  603TMC3    C4 8935   4.053   2.647  10.484  0.2609 -0.5115  0.0180
  603TMC3    C5 8936   3.946   2.734  10.497 -0.7288 -0.1455 -0.3603
  603TMC3    C6 8937   3.906   2.785  10.617  0.8132 -0.0256  0.0895
  603TMC3     C 8938   4.156   2.482  10.624  0.8196 -0.1836 -0.8896
  603TMC3     O 8939   4.213   2.454  10.727 -0.6697  0.5031 -0.2626
  603TMC3     H 8940   4.164   2.673  10.799 -0.1649 -1.5545  0.5084
  603TMC3    H1 8941   4.073   2.611  10.384 -3.2084  0.7652 -1.1102
  603TMC3    H2 8942   3.841   2.871  10.626 -0.6781 -0.9242 -2.1871
  603TMC3    C7 8943   3.869   2.768  10.386  0.8305 -0.2761  0.0518
  603TMC3    C8 8944   3.946   2.796  10.862  0.6781  0.5163  0.1489
  603TMC3    O1 8945   3.925   2.769  10.276  0.3638  0.1910  0.3518
  603TMC3    O2 8946   3.997   2.714  10.942 -0.1245 -0.2272 -0.0332
  604MPD2     C 8947   3.531   1.296  16.442  0.9548  0.4195 -0.2133
  604MPD2    C1 8948   3.450   1.351  16.343 -0.4516  0.4963  0.5077
  604MPD2    C2 8949   3.450   1.295  16.217 -0.0814 -0.2432  0.6215
  604MPD2    C3 8950   3.521   1.175  16.192  0.1665 -0.3483  0.0324
  604MPD2    C4 8951   3.592   1.122  16.298 -0.1611 -0.2306 -0.2702
  604MPD2    C5 8952   3.593   1.180  16.419  0.7285 -1.4794 -0.2301
  604MPD2     H 8953   3.396   1.342  16.136  1.0167 -2.9544 -1.6745
  604MPD2    H1 8954   3.668   1.048  16.275  0.6758  0.3512  0.6262
  604MPD2    H2 8955   3.552   1.350  16.534 -0.6353  1.3833 -0.4223
  604MPD2    H3 8956   3.659   1.143  16.496  0.8589 -1.4794 -0.3418
  604MPD2     N 8957   3.525   1.118  16.064 -0.0383  0.1293 -0.3018
  604MPD2    H5 8958   3.478   1.171  15.991 -0.1819  1.4231  0.7218
  604MPD2    N1 8959   3.392   1.474  16.372 -0.1205 -0.1219  0.7469
  604MPD2    H7 8960   3.417   1.514  16.461  2.4067  1.6123 -0.7296
  605TMC3    C1 8961   3.341   1.684  16.320 -0.2444 -0.4204  0.2033
  605TMC3    C2 8962   3.458   1.726  16.381 -0.4162 -0.0193 -0.4801
  605TMC3    C3 8963   3.460   1.861  16.405 -0.4226  0.2052 -0.9256
  605TMC3    C4 8964   3.228   1.758  16.291 -0.3205  0.5692 -0.1021
  605TMC3    C5 8965   3.239   1.888  16.325 -0.2514  0.0742 -0.7522
  605TMC3    C6 8966   3.353   1.943  16.379  0.1119  0.1545 -0.5146
  605TMC3     C 8967   3.327   1.554  16.280  0.2419  0.3493  1.3317
  605TMC3     O 8968   3.265   1.525  16.182 -0.3404  0.0179 -0.7831
  605TMC3     H 8969   3.532   1.661  16.427  2.0936  0.6025 -3.7134
  605TMC3    H1 8970   3.148   1.712  16.235  0.1765  0.9436 -1.1267
  605TMC3    H2 8971   3.350   2.041  16.425  0.0411 -0.4946  0.8627
  605TMC3    C7 8972   3.122   1.972  16.317  0.0356 -0.6261  0.6218
  605TMC3    C8 8973   3.575   1.911  16.481  0.0761 -0.0735  0.6389
  605TMC3    O1 8974   3.141   2.093  16.315  0.0544  0.0119 -0.2233
  605TMC3    O2 8975   3.641   1.830  16.549 -0.4707 -0.2096  0.1662
  606TMC3    C1 8976   0.562   0.607   0.523  0.2975 -0.1895 -0.1076
  606TMC3    C2 8977   0.503   0.570   0.634  0.0098 -0.7178 -0.9071
  606TMC3    C3 8978   0.407   0.482   0.625  0.5166  0.0751 -0.4132
  606TMC3    C4 8979   0.528   0.553   0.407  0.3372  0.1746  0.1929
  606TMC3    C5 8980   0.419   0.469   0.393  0.8347 -0.1696  0.6855
  606TMC3    C6 8981   0.357   0.433   0.505  0.1101 -0.1994 -1.5123
  606TMC3     C 8982   0.674   0.698   0.520 -0.0111 -0.5707 -0.2306
  606TMC3     O 8983   0.715   0.734   0.410  0.5629  0.2519  0.3924
  606TMC3     H 8984   0.533   0.604   0.732 -0.3305 -2.4320 -0.2081
  606TMC3    H1 8985   0.585   0.577   0.318  0.5693 -0.5159  0.1489
  606TMC3    H2 8986   0.271   0.366   0.506 -0.0204 -0.0259 -1.2500
  606TMC3    C7 8987   0.398   0.391   0.271 -0.2482 -0.0876  0.2121
  606TMC3    C8 8988   0.370   0.408   0.744 -0.2698  0.6426 -0.3393
  606TMC3    O1 8989   0.496   0.372   0.199 -0.3290 -0.0647  0.1030
  606TMC3    O2 8990   0.357   0.482   0.839 -0.0643  0.1913  0.7101
  607MPD2     C 8991   2.538   2.559  11.514  0.0365  0.0784  0.3784
  607MPD2    C1 8992   2.626   2.660  11.556  0.4762 -0.6675 -0.2901
  607MPD2    C2 8993   2.660   2.680  11.691  0.4203 -0.2127  0.2979
  607MPD2    C3 8994   2.615   2.596  11.783 -0.1664 -0.0959 -0.3573
  607MPD2    C4 8995   2.543   2.479  11.747 -0.2323  0.8066  0.9436
  607MPD2    C5 8996   2.502   2.467  11.614  0.0270 -0.1472  0.2026
  607MPD2     H 8997   2.724   2.764  11.718 -1.0918  1.3467 -0.9415
  607MPD2    H1 8998   2.488   2.418  11.818  0.3300  0.8780  1.4468
  607MPD2    H2 8999   2.515   2.533  11.411 -0.3165  0.6837  0.3076
  607MPD2    H3 9000   2.439   2.380  11.600  1.4318 -0.5881 -3.3742
  607MPD2     N 9001   2.640   2.624  11.917 -0.2104 -0.0204 -0.2050
  607MPD2    H5 9002   2.689   2.713  11.926  0.6101 -0.4916 -0.0237
  607MPD2    N1 9003   2.695   2.742  11.462 -0.0586  0.5185  0.0078
  607MPD2    H7 9004   2.766   2.802  11.501  0.3679  0.1670 -0.2280
  608TMC3    C1 9005   2.752   2.888  11.284 -0.4492  0.7128 -0.0344
  608TMC3    C2 9006   2.770   2.987  11.380 -0.5988  0.0324 -1.1594
  608TMC3    C3 9007   2.838   3.099  11.344  0.2941 -0.0404  0.3941
  608TMC3    C4 9008   2.796   2.898  11.158  0.1099  0.0251 -0.2483
  608TMC3    C5 9009   2.863   3.014  11.130  0.1634 -0.8045  0.4242
  608TMC3    C6 9010   2.882   3.115  11.217  0.0275  0.0306  0.1710
  608TMC3     C 9011   2.676   2.768  11.332 -0.4951  0.0565  0.2818
  608TMC3     O 9012   2.608   2.703  11.249  0.3079 -0.0739 -0.3928
  608TMC3     H 9013   2.729   2.968  11.478  2.2875 -0.7101 -0.0995
  608TMC3    H1 9014   2.797   2.815  11.088 -0.2513  0.2603 -0.5330
  608TMC3    H2 9015   2.933   3.205  11.185  3.3229 -2.6927 -2.2427
  608TMC3    C7 9016   2.928   3.031  11.001  0.1805 -0.1077 -0.4288
  608TMC3    C8 9017   2.883   3.194  11.442  0.0618 -0.5192 -0.1334
  608TMC3    O1 9018   2.894   2.946  10.920  0.0437 -0.8768 -0.1428
  608TMC3    O2 9019   2.928   3.296  11.392  0.7720 -0.0551  0.1374
  609TMC3    C1 9020   1.162   1.245   9.211  0.1670 -0.4483 -0.4034
  609TMC3    C2 9021   1.103   1.200   9.097  0.4097 -0.1599  0.0871
  609TMC3    C3 9022   1.139   1.074   9.051 -0.2652 -0.0543  0.4425
  609TMC3    C4 9023   1.231   1.162   9.296  0.5366 -0.0366  0.2617
  609TMC3    C5 9024   1.262   1.036   9.251  0.2553  0.3188  0.0210
  609TMC3    C6 9025   1.217   0.993   9.133 -0.1057  0.2329 -0.6063
  609TMC3     C 9026   1.120   1.380   9.245  0.0941  0.4378  0.8100
  609TMC3     O 9027   1.023   1.432   9.196 -0.1151  0.2129  0.1287
  609TMC3     H 9028   1.048   1.269   9.033 -0.2844 -0.0523  0.8009
  609TMC3    H1 9029   1.268   1.198   9.392 -0.8212  1.9773  0.0291
  609TMC3    H2 9030   1.244   0.896   9.094 -0.5417 -0.0690 -0.1456
  609TMC3    C7 9031   1.391   0.985   9.302  0.4152 -0.3369 -0.0655
  609TMC3    C8 9032   1.035   1.013   8.969 -0.1693  0.1468  0.3431
  609TMC3    O1 9033   1.463   1.060   9.364 -0.4608 -0.1199 -0.5637
  609TMC3    O2 9034   0.931   1.077   8.950 -0.4484  0.0829 -0.5459
  610TMC3    C1 9035   2.979   2.533  12.892 -0.0271 -0.8523 -0.0559
  610TMC3    C2 9036   2.967   2.670  12.864  0.0029 -0.3872  0.4144
  610TMC3    C3 9037   3.071   2.757  12.876 -0.2048  0.0914  0.4959
  610TMC3    C4 9038   3.099   2.484  12.931  0.4472  0.6974  0.4060
  610TMC3    C5 9039   3.204   2.573  12.958  0.0500  0.1198 -0.6843
  610TMC3    C6 9040   3.186   2.711  12.927  0.8952 -0.0314  0.1804
  610TMC3     C 9041   2.863   2.442  12.878 -0.4180  0.0505 -0.1585
  610TMC3     O 9042   2.888   2.323  12.884 -0.1102 -0.5766  0.1487
  610TMC3     H 9043   2.883   2.707  12.806 -0.3013 -0.5504  0.7511
  610TMC3    H1 9044   3.113   2.378  12.947  2.0168  1.0705  1.4894
  610TMC3    H2 9045   3.264   2.783  12.949  2.6347 -2.3836  1.7576
  610TMC3    C7 9046   3.336   2.533  12.977 -0.3494  0.4372 -0.0129
  610TMC3    C8 9047   3.076   2.875  12.798  0.4896 -0.1941 -0.6931
  610TMC3    O1 9048   3.407   2.624  13.012 -0.1112 -0.1498 -0.0598
  610TMC3    O2 9049   2.968   2.915  12.753 -0.0185 -0.1610 -0.2946
  611MPD2     C 9050   2.325   2.977  10.270  0.4451 -0.7340 -0.0349
  611MPD2    C1 9051   2.322   2.850  10.325 -0.2823  0.1084 -0.0329
  611MPD2    C2 9052   2.441   2.784  10.344 -0.3263 -0.5678 -0.0283
  611MPD2    C3 9053   2.559   2.828  10.283  0.5066  0.3297 -0.3693
  611MPD2    C4 9054   2.557   2.952  10.218  0.1851 -0.0877  0.7489
  611MPD2    C5 9055   2.441   3.020  10.209  0.0302  0.3605  0.0885
  611MPD2     H 9056   2.431   2.693  10.403  1.5719 -0.8856 -0.2033
  611MPD2    H1 9057   2.648   2.990  10.173 -0.2474  1.0171  0.7962
  611MPD2    H2 9058   2.231   3.028  10.251  0.0724 -1.3346  0.2020
  611MPD2    H3 9059   2.452   3.113  10.153 -1.0645  2.4974  3.4044
  611MPD2     N 9060   2.683   2.754  10.282 -0.2065  0.7462  0.0973
  611MPD2    H5 9061   2.756   2.805  10.234 -0.6700 -0.1218 -1.5334
  611MPD2    N1 9062   2.191   2.802  10.367  0.2280  0.4073  1.1443
  611MPD2    H7 9063   2.112   2.865  10.357  0.3315  0.2485 -0.6663
  612TMC3    C1 9064   2.820   2.564  10.312 -0.6579  0.1443  0.6463
  612TMC3    C2 9065   2.926   2.648  10.292 -0.4163 -0.0638  0.1505
  612TMC3    C3 9066   3.054   2.594  10.304  0.0658 -0.9129 -0.1989
  612TMC3    C4 9067   2.836   2.443  10.365 -0.2645 -0.4771 -0.0680
  612TMC3    C5 9068   2.969   2.398  10.384  0.6144  0.0761  0.0165
  612TMC3    C6 9069   3.081   2.463  10.352 -0.0875 -0.3315 -0.4591
  612TMC3     C 9070   2.691   2.626  10.329 -0.7111 -0.0298  0.2831
  612TMC3     O 9071   2.609   2.559  10.396  0.3318  0.0175 -0.0515
  612TMC3     H 9072   2.914   2.742  10.239  0.0027  0.3339  0.7648
  612TMC3    H1 9073   2.749   2.391  10.404  0.7665 -0.3155  2.4423
  612TMC3    H2 9074   3.178   2.415  10.353 -1.0262 -2.1213  1.7141
  612TMC3    C7 9075   2.972   2.263  10.437 -0.2485 -0.2337  0.1888
  612TMC3    C8 9076   3.168   2.658  10.237 -0.5781  1.2413  0.5446
  612TMC3    O1 9077   2.866   2.201  10.445  0.2589 -0.2240 -0.2252
  612TMC3    O2 9078   3.145   2.724  10.138 -0.2508  0.0354  0.3214
  613MPD2     C 9079   0.518   0.209  16.442  0.7694  0.3317 -0.7264
  613MPD2    C1 9080   0.635   0.174  16.376  0.5438  0.1899  0.6461
  613MPD2    C2 9081   0.626   0.054  16.311 -0.2017  0.9627 -0.1635
  613MPD2    C3 9082   0.518   4.693  16.307  0.1893  0.0595 -0.1295
  613MPD2    C4 9083   0.400   0.021  16.367 -0.1849  0.3104 -0.1880
  613MPD2    C5 9084   0.397   0.148  16.426 -0.0620  0.4365  0.3212
  613MPD2     H 9085   0.717   0.026  16.260 -0.6932  1.3420 -1.2433
  613MPD2    H1 9086   0.308   4.684  16.362  0.5169 -0.9918  1.4303
  613MPD2    H2 9087   0.510   0.300  16.501 -0.0931 -0.9971  1.1857
  613MPD2    H3 9088   0.306   0.191  16.465 -0.7375 -0.4979 -0.2488
  613MPD2     N 9089   0.511   4.575  16.235  0.1915 -0.1467 -0.1518
  613MPD2    H5 9090   0.419   4.538  16.211  0.2060 -0.1130 -0.2623
  613MPD2    N1 9091   0.758   0.240  16.378 -0.6504 -0.0035 -0.1834
  613MPD2    H7 9092   0.837   0.196  16.332  0.6343  0.2684  1.7515
  614TMC3    C1 9093   0.893   0.434  16.383  0.0070  0.2134 -0.2667
  614TMC3    C2 9094   0.979   0.348  16.322  0.1251  0.3050  0.7010
  614TMC3    C3 9095   1.039   0.378  16.199  1.0692  0.0679  0.5467
  614TMC3    C4 9096   0.872   0.554  16.318 -0.5434 -0.2244  0.0516
  614TMC3    C5 9097   0.920   0.584  16.194  0.2208 -1.0914 -0.2221
  614TMC3    C6 9098   1.013   0.497  16.136  0.0514 -0.1342 -0.3522
  614TMC3     C 9099   0.777   0.370  16.427 -0.2117 -0.3761 -0.3863
  614TMC3     O 9100   0.688   0.441  16.477 -0.4943  0.2101 -0.1654
  614TMC3     H 9101   1.019   0.266  16.380 -0.2057 -0.0717  0.3966
  614TMC3    H1 9102   0.789   0.622  16.338 -0.5737  0.3226 -1.9416
  614TMC3    H2 9103   1.052   0.508  16.035  1.7882 -0.6774  0.2547
  614TMC3    C7 9104   0.854   0.679  16.112 -0.2495  0.2437  0.0651
  614TMC3    C8 9105   1.053   0.254  16.121 -0.3677  0.4252  0.3131
  614TMC3    O1 9106   0.820   0.785  16.167 -0.2597 -0.6179 -0.2306
  614TMC3    O2 9107   1.005   0.154  16.178 -0.0970 -1.0247 -0.0662
  615MPD2     C 9108   0.953   1.682  16.479 -0.6530  0.4133  0.1806
  615MPD2    C1 9109   0.914   1.808  16.433  0.1111 -0.3807  0.5649
  615MPD2    C2 9110   0.775   1.819  16.394 -0.0471  0.0845  0.3081
  615MPD2    C3 9111   0.686   1.717  16.402  0.0107 -0.4632 -0.3863
  615MPD2    C4 9112   0.731   1.600  16.463 -0.8993 -0.0849 -0.2144
  615MPD2    C5 9113   0.856   1.595  16.510  0.4539 -0.1027  0.0222
  615MPD2     H 9114   0.752   1.909  16.338  0.1763  0.0453  0.1559
  615MPD2    H1 9115   0.664   1.523  16.499  0.5047 -0.7866  0.9029
  615MPD2    H2 9116   1.053   1.661  16.515 -0.1321  2.3657 -0.1491
  615MPD2    H3 9117   0.884   1.511  16.573 -1.1020 -0.5176  0.1701
  615MPD2     N 9118   0.555   1.721  16.357  0.1023 -0.0624  0.4360
  615MPD2    H5 9119   0.497   1.637  16.352 -1.8370  1.4018 -1.6595
  615MPD2    N1 9120   0.998   1.916  16.404  0.1768 -0.0269 -0.1057
  615MPD2    H7 9121   0.959   2.009  16.395  2.3046  0.8805  0.0830
  616TMC3    C1 9122   1.217   2.016  16.379  0.9517  0.3216 -0.1158
  616TMC3    C2 9123   1.176   2.131  16.440 -0.2095 -0.1258 -0.6396
  616TMC3    C3 9124   1.261   2.234  16.455 -0.1003  0.1578  0.6723
  616TMC3    C4 9125   1.346   2.001  16.331 -0.1531 -0.4894  0.2881
  616TMC3    C5 9126   1.436   2.111  16.347  0.8713  0.0060 -0.3955
  616TMC3    C6 9127   1.393   2.223  16.419 -0.2314  0.4523 -0.9342
  616TMC3     C 9128   1.132   1.898  16.406 -0.4527  0.2164  0.1653
  616TMC3     O 9129   1.198   1.798  16.381 -0.8551 -0.2336 -0.2312
  616TMC3     H 9130   1.079   2.130  16.489 -0.3014  0.3396 -0.8094
  616TMC3    H1 9131   1.386   1.914  16.279 -0.8011 -1.0507  0.7356
  616TMC3    H2 9132   1.461   2.299  16.455 -0.3505 -0.6248  1.5451
  616TMC3    C7 9133   1.576   2.081  16.314  0.1568 -0.5111  0.3642
  616TMC3    C8 9134   1.221   2.349  16.534 -0.5146  0.3971 -0.2885
  616TMC3    O1 9135   1.610   1.966  16.287  0.1255 -0.1455  0.3054
  616TMC3    O2 9136   1.130   2.329  16.614 -0.9417  0.2135 -0.4601
  617MPD2     C 9137   3.596   0.253  14.472 -0.1108 -0.4453 -0.1506
  617MPD2    C1 9138   3.621   0.201  14.344 -0.4158  0.5098  0.3558
  617MPD2    C2 9139   3.518   0.129  14.286 -0.6842 -0.0611  0.0545
  617MPD2    C3 9140   3.402   0.098  14.363  0.2078 -0.9087  0.2884
  617MPD2    C4 9141   3.387   0.136  14.492 -0.3845 -0.4694 -0.5336
  617MPD2    C5 9142   3.489   0.214  14.547 -0.5723 -0.2132  0.0777
  617MPD2     H 9143   3.527   0.092  14.185 -0.9727 -1.0594  0.3988
  617MPD2    H1 9144   3.304   0.100  14.553 -1.0170  0.0865 -1.0594
  617MPD2    H2 9145   3.668   0.322  14.515 -0.3992 -0.5522  0.4944
  617MPD2    H3 9146   3.481   0.255  14.647  2.9145 -0.5962  0.5331
  617MPD2     N 9147   3.301   0.013  14.314 -0.2775  0.8020  0.1237
  617MPD2    H5 9148   3.243   4.688  14.384 -0.1990  0.3718 -0.0808
  617MPD2    N1 9149   3.745   0.238  14.284  0.1615  0.0712  0.0849
  617MPD2    H7 9150   3.814   0.288  14.338  0.8782 -0.2225 -0.5514
  618TMC3    C1 9151   3.944   0.207  14.156  0.1602  0.0708  1.2981
  618TMC3    C2 9152   4.006   0.188  14.035  0.3489  0.0415 -0.0608
  618TMC3    C3 9153   4.141   0.183  14.019  0.2208 -0.4411 -0.0961
  618TMC3    C4 9154   4.024   0.221  14.264  0.6195 -1.2202 -0.3035
  618TMC3    C5 9155   4.157   0.210  14.249 -0.2377  0.1978  0.2760
  618TMC3    C6 9156   4.220   0.172  14.133  0.0734  0.3721  0.0806
  618TMC3     C 9157   3.796   0.202  14.159 -0.2973 -0.0606 -0.7283
  618TMC3     O 9158   3.730   0.150  14.071 -0.2964  0.2898 -0.0562
  618TMC3     H 9159   3.944   0.186  13.945 -1.0881 -0.1790  0.9308
  618TMC3    H1 9160   3.984   0.231  14.364 -1.1153 -1.4302 -0.9629
  618TMC3    H2 9161   4.327   0.188  14.130 -0.0060  0.9139  0.0235
  618TMC3    C7 9162   4.232   0.225  14.381 -0.8093 -0.2950 -0.3420
  618TMC3    C8 9163   4.189   0.223  13.886  0.5198 -0.4952 -0.0720
  618TMC3    O1 9164   4.180   0.158  14.468 -0.2817  0.2003  0.1203
  618TMC3    O2 9165   4.108   0.249  13.798  0.1593 -0.1342  0.6329
  619MPD2     C 9166   4.465   1.327  14.147  0.7475  0.0960  0.1399
  619MPD2    C1 9167   4.452   1.313  14.012 -0.2671  0.1024  0.4380
  619MPD2    C2 9168   4.329   1.328  13.956 -0.1037  0.2815 -0.7779
  619MPD2    C3 9169   4.223   1.342  14.034 -0.1362 -0.4824  0.1308
  619MPD2    C4 9170   4.232   1.333  14.171 -0.3837 -0.2251 -0.0232
  619MPD2    C5 9171   4.352   1.328  14.226  0.3396  0.7515 -0.4529
  619MPD2     H 9172   4.309   1.335  13.850 -2.2556 -1.1996 -0.4536
  619MPD2    H1 9173   4.143   1.345  14.231 -0.1868  1.2313 -0.0180
  619MPD2    H2 9174   4.560   1.343  14.197 -0.1887 -0.6417  2.1914
  619MPD2    H3 9175   4.368   1.340  14.332  2.8835 -4.0603 -0.2903
  619MPD2     N 9176   4.101   1.371  13.968  0.0688  0.3282 -0.7783
  619MPD2    H5 9177   4.102   1.384  13.868  0.4623  0.8677 -0.7039
  619MPD2    N1 9178   4.559   1.303  13.917 -0.1416  0.5667  0.1934
  619MPD2    H7 9179   4.537   1.300  13.818  0.8183  0.0027 -0.0034
  620TMC3    C1 9180   0.043   1.287  13.831  0.6685 -0.4355 -0.0801
  620TMC3    C2 9181   4.698   1.286  13.713  0.0811 -0.6217  0.8319
  620TMC3    C3 9182   0.040   1.336  13.600  0.6482  0.3171  0.2993
  620TMC3    C4 9183   0.164   1.342  13.831 -0.1498  0.3686 -0.1584
  620TMC3    C5 9184   0.231   1.390  13.717  0.2501  0.6478  0.1861
  620TMC3    C6 9185   0.166   1.384  13.594 -0.6277 -0.5992 -0.0404
  620TMC3     C 9186   4.691   1.300  13.950 -0.1431  0.3236 -0.0174
  620TMC3     O 9187   0.033   1.311  14.058  0.4654  0.5047  0.2435
  620TMC3     H 9188   4.606   1.229  13.709 -1.3540  1.6995  0.6464
  620TMC3    H1 9189   0.221   1.346  13.923  1.5406  1.8975 -1.2754
  620TMC3    H2 9190   0.214   1.403  13.499  1.9558 -0.3044  1.3022
  620TMC3    C7 9191   0.284   1.518  13.740  0.4950  0.0547 -0.3258
  620TMC3    C8 9192   4.681   1.408  13.502 -0.3826  0.1229 -0.0331
  620TMC3    O1 9193   0.374   1.517  13.823  0.8581  0.6074  0.2011
  620TMC3    O2 9194   0.012   1.513  13.460 -0.0146  0.4409 -0.7520
  621MPD2     C 9195   0.843   1.025   9.940  0.5744 -0.0339  0.2487
  621MPD2    C1 9196   0.890   0.986  10.064  0.5987  0.1261 -0.0555
  621MPD2    C2 9197   0.965   1.079  10.137 -0.3907  0.4946 -0.3621
  621MPD2    C3 9198   1.000   1.199  10.086  0.3540  0.4494  0.5491
  621MPD2    C4 9199   0.939   1.247   9.970 -0.6849  0.0251  0.3519
  621MPD2    C5 9200   0.858   1.156   9.902 -0.5424 -0.1918 -0.4221
  621MPD2     H 9201   1.015   1.043  10.226  1.1154 -0.4831 -1.6000
  621MPD2    H1 9202   0.958   1.341   9.919 -1.7293  0.5321  0.9065
  621MPD2    H2 9203   0.787   0.961   9.874 -0.7728 -0.0445  1.3924
  621MPD2    H3 9204   0.830   1.173   9.799  3.0880 -1.1252 -1.5612
  621MPD2     N 9205   1.099   1.275  10.160 -0.0671 -0.2630  0.0021
  621MPD2    H5 9206   1.132   1.242  10.250 -2.6134 -0.2573  0.9514
  621MPD2    N1 9207   0.880   0.852  10.118 -0.0509 -0.2335  0.2878
  621MPD2    H7 9208   0.919   0.835  10.210  2.8160 -0.5696 -1.0037
  622TMC3    C1 9209   0.817   0.636  10.141  0.4165  0.0671 -0.2228
  622TMC3    C2 9210   0.730   0.645  10.244  0.7447  0.1123 -0.0970
  622TMC3    C3 9211   0.699   0.532  10.306  0.7408  0.3314  0.0251
  622TMC3    C4 9212   0.860   0.511  10.095 -0.2856 -0.1074  0.1715
  622TMC3    C5 9213   0.827   0.402  10.165 -0.4489  0.0831  0.7572
  622TMC3    C6 9214   0.755   0.403  10.277 -0.3316  0.5422  0.5819
  622TMC3     C 9215   0.836   0.743  10.050  0.0093 -0.1860 -0.0304
  622TMC3     O 9216   0.802   0.727   9.934  0.1177  0.0198  0.3092
  622TMC3     H 9217   0.692   0.742  10.274  2.9339  0.9745 -0.0838
  622TMC3    H1 9218   0.926   0.512  10.009 -1.2768 -0.6799 -0.5888
  622TMC3    H2 9219   0.721   0.315  10.330  0.6978 -1.0109 -1.3516
  622TMC3    C7 9220   0.792   0.284  10.084  0.0872  0.1889 -0.1063
  622TMC3    C8 9221   0.562   0.500  10.333  0.2558 -0.0029  0.2044
  622TMC3    O1 9222   0.772   0.175  10.140 -0.0311  0.4855  0.3290
  622TMC3    O2 9223   0.543   0.420  10.421  0.5177  0.0354 -0.4427
  623MPD2     C 9224   3.692   1.605  16.176 -0.0633  0.3968 -0.0222
  623MPD2    C1 9225   3.739   1.737  16.156 -0.0732  0.0745 -0.0247
  623MPD2    C2 9226   3.865   1.779  16.186  0.9916  0.2956  0.4891
  623MPD2    C3 9227   3.947   1.688  16.253 -0.2155 -0.5746  0.0934
  623MPD2    C4 9228   3.907   1.556  16.278  0.7981  0.4457  0.1069
  623MPD2    C5 9229   3.779   1.516  16.237  0.5310 -0.2869 -0.1795
  623MPD2     H 9230   3.900   1.879  16.163  2.1549  0.1726  1.6805
  623MPD2    H1 9231   3.972   1.493  16.338  1.9304  0.8038 -0.7423
  623MPD2    H2 9232   3.594   1.568  16.147  0.3811 -0.2660 -0.7115
  623MPD2    H3 9233   3.746   1.416  16.262  0.7705  0.0790  1.6267
  623MPD2     N 9234   4.076   1.731  16.301 -0.0122 -0.5205  0.0818
  623MPD2    H5 9235   4.096   1.828  16.276  0.5244 -1.2614 -2.3764
  623MPD2    N1 9236   3.655   1.832  16.093 -0.3696  0.6755 -0.0950
  623MPD2    H7 9237   3.695   1.922  16.071 -0.9694  0.5674 -1.6417
  624TMC3    C1 9238   4.357   1.745  16.670 -0.3291 -0.1969 -0.0850
  624TMC3    C2 9239   4.298   1.864  16.710 -0.5777  0.0668  0.4842
  624TMC3    C3 9240   4.202   1.916  16.627  0.2438 -0.2302  0.9834
  624TMC3    C4 9241   4.331   1.691  16.549 -0.6563  0.5098  0.4118
  624TMC3    C5 9242   4.242   1.750  16.467 -0.5848 -0.3091 -0.4290
  624TMC3    C6 9243   4.164   1.853  16.510  0.1242  0.2757  0.9773
  624TMC3     C 9244   4.475   1.701  16.744 -0.0780 -0.4383 -0.1487
  624TMC3     O 9245   4.513   1.767  16.842 -0.6408  0.2471  0.0932
  624TMC3     H 9246   4.330   1.906  16.805  1.1687  2.7904 -1.3384
  624TMC3    H1 9247   4.383   1.613  16.494  1.0122 -0.1522  2.9909
  624TMC3    H2 9248   4.075   1.894  16.463  0.4748  1.2638  1.1923
  624TMC3    C7 9249   4.166   1.661  16.380  0.1275  0.4222 -0.0468
  624TMC3    C8 9250   4.075   1.947  16.700 -0.1203 -0.2139  0.0043
  624TMC3    O1 9251   4.187   1.540  16.389 -0.0511 -0.4731 -0.1207
  624TMC3    O2 9252   3.997   1.854  16.707  0.2148 -0.7063  0.0454
  625MPD2     C 9253   3.534   3.356   0.718 -0.2979  0.0601 -0.1611
  625MPD2    C1 9254   3.659   3.414   0.732  0.1451  0.6662 -0.3063
  625MPD2    C2 9255   3.684   3.497   0.838 -0.0395 -0.7038 -0.6138
  625MPD2    C3 9256   3.588   3.517   0.936  0.3338  0.1561 -0.5549
  625MPD2    C4 9257   3.462   3.471   0.918 -0.8477 -0.3394 -0.4262
  625MPD2    C5 9258   3.439   3.389   0.812  0.4504 -0.0008  0.1826
  625MPD2     H 9259   3.773   3.558   0.846  0.0283 -0.8183 -0.5035
  625MPD2    H1 9260   3.393   3.490   0.999 -0.1953 -3.2394  0.8279
  625MPD2    H2 9261   3.519   3.278   0.644 -1.4003 -2.8226  3.0769
  625MPD2    H3 9262   3.339   3.350   0.798  0.8420  0.0102 -2.5989
  625MPD2     N 9263   3.624   3.605   1.043  0.0143  0.0702  0.5025
  625MPD2    H5 9264   3.719   3.635   1.057  0.1540 -0.6461  1.0891
  625MPD2    N1 9265   3.761   3.401   0.632  0.0432 -0.3959 -0.4293
  625MPD2    H7 9266   3.845   3.457   0.646  0.3467 -1.1385  0.7451
  626TMC3    C1 9267   3.874   3.370   0.434 -0.0888 -0.0333 -0.0556
  626TMC3    C2 9268   3.843   3.413   0.307 -0.0366 -1.0714 -0.2526
  626TMC3    C3 9269   3.916   3.515   0.247  0.1529 -0.3099  0.2624
  626TMC3    C4 9270   3.981   3.427   0.502  0.1715  0.1977 -0.0170
  626TMC3    C5 9271   4.051   3.530   0.446 -0.3132 -0.2499  0.1945
  626TMC3    C6 9272   4.014   3.576   0.326  0.0559  0.5324 -0.0317
  626TMC3     C 9273   3.754   3.343   0.511  0.0855 -0.1631  0.0157
  626TMC3     O 9274   3.665   3.285   0.460 -0.0712  0.0024  0.6935
  626TMC3     H 9275   3.749   3.378   0.266 -0.5579 -1.1178  0.9959
  626TMC3    H1 9276   4.009   3.376   0.593 -1.5036  1.4258  1.1746
  626TMC3    H2 9277   4.083   3.651   0.287 -0.1277  0.7776  0.1140
  626TMC3    C7 9278   4.130   3.612   0.533  0.7069 -0.3378  0.6750
  626TMC3    C8 9279   3.846   3.602   0.155 -0.6181  0.1182  0.1274
  626TMC3    O1 9280   4.126   3.589   0.652 -0.3377  0.1418  0.2573
  626TMC3    O2 9281   3.783   3.554   0.064 -0.3222 -0.0444 -0.5798
  627MPD2     C 9282   3.423   3.445  13.830 -0.0456 -0.4087  0.2154
  627MPD2    C1 9283   3.386   3.472  13.963  0.0698  0.3573  0.6106
  627MPD2    C2 9284   3.260   3.434  14.004 -0.2658 -0.5361 -0.3143
  627MPD2    C3 9285   3.172   3.372  13.913 -0.0898  0.3969 -0.0346
  627MPD2    C4 9286   3.207   3.359  13.780  0.0329  0.9483 -0.1520
  627MPD2    C5 9287   3.334   3.392  13.741 -0.2740 -0.1203 -0.0686
  627MPD2     H 9288   3.229   3.447  14.107 -0.0259 -0.5649 -0.2398
  627MPD2    H1 9289   3.142   3.314  13.706  0.8751  0.0526 -0.3513
  627MPD2    H2 9290   3.522   3.459  13.787  1.1555 -1.0589  2.7358
  627MPD2    H3 9291   3.372   3.384  13.640  5.4102 -1.4743  2.1819
  627MPD2     N 9292   3.047   3.328  13.964 -0.4953  0.1979  0.1200
  627MPD2    H5 9293   3.031   3.332  14.064 -0.4029  1.1058  0.1054
  627MPD2    N1 9294   3.478   3.502  14.062 -0.7835  0.5550 -0.5044
  627MPD2    H7 9295   3.447   3.527  14.156  0.3453  0.7741 -0.1818
  628TMC3    C1 9296   3.678   3.563  14.175 -0.2871  0.4111  0.3678
  628TMC3    C2 9297   3.766   3.474  14.227  0.3630 -0.5749  0.2324
  628TMC3    C3 9298   3.761   3.462  14.363  0.2421  0.0867 -0.2174
  628TMC3    C4 9299   3.605   3.654  14.249  0.1336 -0.3065  0.6869
  628TMC3    C5 9300   3.606   3.643  14.386 -0.0439  0.0771  0.6071
  628TMC3    C6 9301   3.690   3.548  14.448 -0.4524  0.2473 -0.0712
  628TMC3     C 9302   3.614   3.522  14.048 -0.3791  0.1352 -0.0953
  628TMC3     O 9303   3.690   3.479  13.964  0.2731  0.0687  0.1354
  628TMC3     H 9304   3.793   3.384  14.171  1.9796  1.0191 -1.5540
  628TMC3    H1 9305   3.531   3.712  14.196  2.3867  0.2684 -1.8444
  628TMC3    H2 9306   3.661   3.521  14.549 -0.0287  0.1513  0.0217
  628TMC3    C7 9307   3.478   3.659  14.455  0.5665 -0.1747  0.1945
  628TMC3    C8 9308   3.859   3.363  14.413  0.6120  0.2324  0.1224
  628TMC3    O1 9309   3.410   3.567  14.496 -0.1486  0.3414 -0.0762
  628TMC3    O2 9310   3.952   3.330  14.342  0.2093 -0.7802  0.2521
  629MPD2     C 9311   1.284   2.840  16.692  0.4121  0.2185 -0.4264
  629MPD2    C1 9312   1.387   2.813  16.596 -0.2703  0.2835 -0.0244
  629MPD2    C2 9313   1.387   2.685  16.534  0.0576  0.4065  0.3833
  629MPD2    C3 9314   1.292   2.585  16.565  0.3494  0.4755  0.3493
  629MPD2    C4 9315   1.192   2.624  16.655 -0.2117  0.4238  0.3675
  629MPD2    C5 9316   1.186   2.750  16.714  0.2839  0.1967  0.1342
  629MPD2     H 9317   1.467   2.665  16.464 -1.3122 -1.0704 -0.7722
  629MPD2    H1 9318   1.114   2.553  16.677 -0.7131  0.8636  0.0284
  629MPD2    H2 9319   1.289   2.923  16.761 -0.7197  0.2830 -0.4178
  629MPD2    H3 9320   1.111   2.774  16.789  1.5088  0.5250  1.2614
  629MPD2     N 9321   1.302   2.460  16.508  0.1708 -0.3033  0.3780
  629MPD2    H5 9322   1.372   2.456  16.435  2.6849 -0.5524  2.8323
  629MPD2    N1 9323   1.483   2.912  16.565 -0.2060  0.6038 -0.5403
  629MPD2    H7 9324   1.490   2.988  16.632  1.0196  0.2536 -0.2603
  630TMC3    C1 9325   1.678   3.008  16.463  0.1383  0.7261 -0.2859
  630TMC3    C2 9326   1.735   3.059  16.349  1.2116  0.5426 -0.5715
  630TMC3    C3 9327   1.842   3.137  16.363 -0.3142  0.8052 -0.3902
  630TMC3    C4 9328   1.732   3.025  16.585  0.3294 -0.2479  0.2291
  630TMC3    C5 9329   1.850   3.089  16.598 -0.5332 -0.2018  0.6169
  630TMC3    C6 9330   1.909   3.149  16.489  0.6037 -0.9480 -0.4932
  630TMC3     C 9331   1.564   2.914  16.454  0.3993  0.3577 -0.4853
  630TMC3     O 9332   1.559   2.841  16.357 -0.2819 -0.0247 -0.2248
  630TMC3     H 9333   1.684   3.050  16.253 -0.7421  2.3433  0.2935
  630TMC3    H1 9334   1.689   2.978  16.673 -0.7512  1.9876  0.9065
  630TMC3    H2 9335   1.999   3.210  16.502 -0.1458  0.3688 -1.4212
  630TMC3    C7 9336   1.903   3.076  16.733  0.8002 -0.1576 -0.0566
  630TMC3    C8 9337   1.918   3.175  16.254  0.0276  0.9303  0.1477
  630TMC3    O1 9338   1.830   3.033  16.819  0.2164  0.1471 -0.3262
  630TMC3    O2 9339   1.923   3.103  16.156  0.3085 -0.3640 -0.4260
  631MPD2     C 9340   0.070   1.501  15.634  0.4660 -0.4870  0.0762
  631MPD2    C1 9341   0.163   1.607  15.633  0.0667  0.3797  0.0533
  631MPD2    C2 9342   0.215   1.640  15.755 -0.0262 -0.0173 -0.1012
  631MPD2    C3 9343   0.167   1.582  15.871  0.2024 -0.7086 -0.2714
  631MPD2    C4 9344   0.067   1.488  15.859 -0.8958 -0.6341 -0.5113
  631MPD2    C5 9345   0.017   1.450  15.746 -0.0613 -0.6362 -0.2304
  631MPD2     H 9346   0.291   1.717  15.759  0.7215 -0.8558  1.5981
  631MPD2    H1 9347   0.016   1.445  15.944  3.4548 -1.9758  1.4256
  631MPD2    H2 9348   0.027   1.456  15.545  2.0261 -0.9345 -0.4635
  631MPD2    H3 9349   4.659   1.373  15.743  0.8497 -1.4700 -2.2703
  631MPD2     N 9350   0.205   1.638  15.989 -0.7035  0.1902 -0.4087
  631MPD2    H5 9351   0.275   1.711  15.995 -2.8233  2.1086  0.8513
  631MPD2    N1 9352   0.178   1.677  15.513 -0.5436  0.7475 -0.4628
  631MPD2    H7 9353   0.108   1.672  15.439 -0.9120 -0.5856 -0.0335
  632TMC3    C1 9354   0.220   1.877  15.410  0.5912 -0.4562 -0.2167
  632TMC3    C2 9355   0.093   1.924  15.435  0.2367  0.3189  0.7241
  632TMC3    C3 9356   0.042   2.022  15.358 -0.1172 -0.5653 -0.1668
  632TMC3    C4 9357   0.299   1.937  15.323  0.4329  0.1965  0.8746
  632TMC3    C5 9358   0.247   2.037  15.244  0.0088  0.1409  0.5620
  632TMC3    C6 9359   0.116   2.081  15.255  0.3869  0.0620  0.2788
  632TMC3     C 9360   0.272   1.774  15.504 -0.1035 -0.0574 -0.7526
  632TMC3     O 9361   0.389   1.776  15.546  0.0366 -0.0737  0.1194
  632TMC3     H 9362   0.026   1.876  15.505 -0.9043  0.6549 -0.1309
  632TMC3    H1 9363   0.404   1.911  15.311  0.1193  0.9698 -3.4330
  632TMC3    H2 9364   0.082   2.158  15.187 -1.4157 -0.9823 -0.0153
  632TMC3    C7 9365   0.335   2.131  15.178 -0.1280 -0.0273  0.6045
  632TMC3    C8 9366   4.626   2.068  15.395  0.0474 -0.0719 -0.2603
  632TMC3    O1 9367   0.283   2.210  15.103  0.3164  0.3779 -0.2090
  632TMC3    O2 9368   4.574   2.016  15.491  0.0604  0.3442  0.0873
  633MPD2     C 9369   4.215   0.771  17.596 -0.5331 -0.1811  0.5343
  633MPD2    C1 9370   4.144   0.672  17.525 -1.1594  0.2024  0.1928
  633MPD2    C2 9371   4.129   0.547  17.580  0.2419 -0.0787 -0.7262
  633MPD2    C3 9372   4.180   0.522   0.025  0.3520 -0.6156  0.2351
  633MPD2    C4 9373   4.231   0.626   0.098  1.3177 -0.0909 -0.2600
  633MPD2    C5 9374   4.255   0.751   0.045  0.2127 -1.0687 -0.7033
  633MPD2     H 9375   4.085   0.469  17.519 -0.3249  1.3070 -2.0612
  633MPD2    H1 9376   4.276   0.606   0.194 -1.1491  0.6193  1.0437
  633MPD2    H2 9377   4.239   0.864  17.544 -2.2184 -0.0126  0.0668
  633MPD2    H3 9378   4.311   0.821   0.107  0.2270 -1.2666 -0.4942
  633MPD2     N 9379   4.198   0.390   0.078 -0.1793 -0.0727 -0.6299
  633MPD2    H5 9380   4.247   0.381   0.167  1.3993 -0.6207 -1.5644
  633MPD2    N1 9381   4.116   0.693  17.393 -0.2557 -0.3254  0.4323
  633MPD2    H7 9382   4.119   0.608  17.338 -1.3867  1.2995 -2.1410
  634TMC3    C1 9383   4.135   0.799  17.191 -0.4768  0.6521 -0.4813
  634TMC3    C2 9384   4.207   0.687  17.152 -0.1664  0.1937 -0.3336
  634TMC3    C3 9385   4.190   0.650  17.023 -0.4155 -0.5787  0.7032
  634TMC3    C4 9386   4.068   0.882  17.107 -0.1091 -0.3380 -0.2051
  634TMC3    C5 9387   4.077   0.842  16.972  0.0714  0.0698  0.2168
  634TMC3    C6 9388   4.124   0.722  16.935 -0.4441  0.2035 -0.3571
  634TMC3     C 9389   4.095   0.812  17.332  0.5486  0.2713  0.0304
  634TMC3     O 9390   4.057   0.924  17.370 -0.0388 -0.0847 -0.0012
  634TMC3     H 9391   4.267   0.624  17.217  2.3988  0.7408 -2.1712
  634TMC3    H1 9392   4.035   0.982  17.134  0.3112 -0.1269 -0.4663
  634TMC3    H2 9393   4.121   0.693  16.830 -3.9775  0.3895 -0.3009
  634TMC3    C7 9394   4.057   0.942  16.870  0.3824  0.4645  0.1366
  634TMC3    C8 9395   4.250   0.522  16.985 -0.6457  1.3631 -0.2213
  634TMC3    O1 9396   4.073   0.896  16.760 -0.4089  0.1526  0.2592
  634TMC3    O2 9397   4.286   0.442  17.065 -0.3839  0.6821  0.3054
  635TMC3    C1 9398   4.657   1.622  17.494 -0.7478  0.5713  0.0221
  635TMC3    C2 9399   4.700   1.499  17.448  0.4907 -0.2454  1.1711
  635TMC3    C3 9400   4.613   1.388  17.467  0.5752 -0.6320  0.4061
  635TMC3    C4 9401   4.546   1.633  17.568  0.2869 -0.3108  0.0634
  635TMC3    C5 9402   4.469   1.520  17.595  0.4318 -0.0686  0.5440
  635TMC3    C6 9403   4.499   1.400  17.545  0.3798  0.2084 -0.4001
  635TMC3     C 9404   0.025   1.741  17.494 -0.5506  0.0381 -0.7057
  635TMC3     O 9405   0.018   1.821  17.589  0.1550  0.6405  0.2533
  635TMC3     H 9406   0.080   1.488  17.405 -0.2931 -0.6499 -0.5305
  635TMC3    H1 9407   4.510   1.723  17.617  0.1547 -0.8027  0.8668
  635TMC3    H2 9408   4.427   1.319  17.549 -1.4448  1.8955  0.4506
  635TMC3    C7 9409   4.342   1.542  17.652  0.2145  0.6991  0.4095
  635TMC3    C8 9410   4.644   1.250  17.408 -0.2186  0.1902 -0.5922
  635TMC3    O1 9411   4.298   1.650  17.622  0.2975 -0.0749  0.6532
  635TMC3    O2 9412   4.593   1.152  17.459 -0.3556  0.6639  0.1953
  636MPD2     C 9413   0.296   0.363  15.812  0.4245 -0.4614  0.0644
  636MPD2    C1 9414   0.389   0.350  15.912 -0.4294 -0.4242  0.5380
  636MPD2    C2 9415   0.441   0.226  15.926  0.0791  0.4792 -0.3071
  636MPD2    C3 9416   0.426   0.129  15.833  0.5485 -0.4717  0.2915
  636MPD2    C4 9417   0.340   0.148  15.726 -0.3081  0.2150  0.3689
  636MPD2    C5 9418   0.270   0.268  15.726  0.4063 -0.3075 -0.1270
  636MPD2     H 9419   0.515   0.209  16.004 -1.2354 -0.0126  0.8186
  636MPD2    H1 9420   0.320   0.068  15.656  1.0078  0.0927  0.1349
  636MPD2    H2 9421   0.237   0.453  15.810  0.1417 -0.5769  3.3707
  636MPD2    H3 9422   0.190   0.283  15.655  0.1776 -0.7728  0.0331
  636MPD2     N 9423   0.490   0.007  15.861  0.3282 -0.1700 -0.2062
  636MPD2    H5 9424   0.552   4.714  15.941 -0.9156 -2.4218  0.4116
  636MPD2    N1 9425   0.408   0.465  15.990  0.7272  0.0622 -0.1169
  636MPD2    H7 9426   0.362   0.548  15.954  1.0391 -0.3450 -1.4796
  637TMC3    C1 9427   0.580   4.519  15.847 -0.2426 -0.1567  0.2524
  637TMC3    C2 9428   0.533   4.485  15.974  0.0100  0.0552 -0.4870
  637TMC3    C3 9429   0.623   4.440  16.065 -0.0320 -0.4182  0.3646
  637TMC3    C4 9430   0.710   4.511  15.810  0.6538 -0.4720  0.5994
  637TMC3    C5 9431   0.798   4.455  15.897 -0.4530  0.5008  0.6279
  637TMC3    C6 9432   0.754   4.421  16.021  0.6760  0.4774  0.3260
  637TMC3     C 9433   0.499   4.620  15.780 -0.4594  0.0420  0.0100
  637TMC3     O 9434   0.481   4.598  15.660 -0.2502 -0.2932  0.4033
  637TMC3     H 9435   0.432   4.514  16.002  0.2815  0.1756  0.3821
  637TMC3    H1 9436   0.736   4.556  15.715 -2.7328 -0.8043 -0.4737
  637TMC3    H2 9437   0.825   4.377  16.090 -0.3542 -1.6973  0.0223
  637TMC3    C7 9438   0.928   4.520  15.905 -0.1750 -0.1366  0.2167
  637TMC3    C8 9439   0.627   4.515  16.194  0.9447  0.3455 -0.5688
  637TMC3    O1 9440   0.989   4.528  16.010  0.3312 -0.6075 -0.0953
  637TMC3    O2 9441   0.741   4.525  16.246 -0.4094  0.0171 -0.1873
  638MPD2     C 9442   0.415   4.259  14.830 -0.0410 -0.1311  0.4536
  638MPD2    C1 9443   0.372   4.145  14.763 -0.2869  0.2303  0.0165
  638MPD2    C2 9444   0.356   4.031  14.842  0.4208 -0.7503  0.0411
  638MPD2    C3 9445   0.376   4.029  14.977  0.0980  0.3797  0.2363
  638MPD2    C4 9446   0.426   4.146  15.037 -0.2640  0.1975  0.0439
  638MPD2    C5 9447   0.447   4.258  14.960 -0.0839  0.3536  0.0339
  638MPD2     H 9448   0.310   3.938  14.809  0.0677 -1.1233  1.6015
  638MPD2    H1 9449   0.442   4.145  15.144 -1.3491  2.3265  0.2072
  638MPD2    H2 9450   0.428   4.354  14.780  1.3186  1.4108  3.7312
  638MPD2    H3 9451   0.491   4.346  15.006 -0.2214  1.1242 -1.3123
  638MPD2     N 9452   0.357   3.900  15.040 -0.3856 -0.2033  0.4860
  638MPD2    H5 9453   0.322   3.831  14.975 -0.2901  0.1443  0.0650
  638MPD2    N1 9454   0.351   4.151  14.621 -0.3181  0.8065  0.1264
  638MPD2    H7 9455   0.379   4.236  14.574  1.8815  1.0465  1.8597
  639TMC3    C1 9456   0.382   3.727  15.196 -0.6405 -0.6101  0.1654
  639TMC3    C2 9457   0.265   3.666  15.161  0.1833  0.5585  0.0747
  639TMC3    C3 9458   0.243   3.537  15.194  0.1624  0.1294  0.2304
  639TMC3    C4 9459   0.471   3.664  15.279  0.2115  0.9810  0.2461
  639TMC3    C5 9460   0.453   3.529  15.297  0.6040 -0.0532  1.0951
  639TMC3    C6 9461   0.341   3.470  15.257  0.3311  0.1751  0.2889
  639TMC3     C 9462   0.404   3.867  15.164  0.1746 -0.0295 -0.2674
  639TMC3     O 9463   0.473   3.924  15.244  0.3921 -0.7927  0.9903
  639TMC3     H 9464   0.186   3.726  15.117  0.2568 -0.9836 -2.1237
  639TMC3    H1 9465   0.551   3.714  15.332  0.1902 -0.0364  1.2318
  639TMC3    H2 9466   0.335   3.362  15.266  3.1622  0.0179  0.4737
  639TMC3    C7 9467   0.574   3.446  15.298 -0.1314  0.4325  0.1701
  639TMC3    C8 9468   0.169   3.459  15.100 -0.2546 -0.0717  0.1120
  639TMC3    O1 9469   0.561   3.326  15.325 -0.0016 -0.3905 -0.4718
  639TMC3    O2 9470   0.212   3.459  14.985 -0.5745 -0.5619 -0.4886
  640MPD2     C 9471   1.623   2.556  10.261  0.5330  0.7341  0.0019
  640MPD2    C1 9472   1.573   2.463  10.167  0.3196  0.4853  0.3655
  640MPD2    C2 9473   1.439   2.463  10.143  0.4916  0.4048  0.4626
  640MPD2    C3 9474   1.366   2.576  10.201  0.1245  0.3816  0.1129
  640MPD2    C4 9475   1.418   2.654  10.304  0.7252 -0.5507 -0.2813
  640MPD2    C5 9476   1.552   2.653  10.327 -0.1242  0.5285 -0.0015
  640MPD2     H 9477   1.400   2.399  10.064  0.0864 -0.9914  1.7904
  640MPD2    H1 9478   1.374   2.736  10.359  1.4757  0.6179 -1.4415
  640MPD2    H2 9479   1.726   2.570  10.290 -0.4952  2.2319  2.8797
  640MPD2    H3 9480   1.598   2.726  10.392 -1.2406  0.6914  0.6204
  640MPD2     N 9481   1.233   2.610  10.177  0.8008 -0.2981  0.0441
  640MPD2    H5 9482   1.193   2.696  10.213  1.9703  0.4663 -0.4817
  640MPD2    N1 9483   1.666   2.374  10.095  0.5634  0.2501  0.0729
  640MPD2    H7 9484   1.762   2.405  10.106  1.3365 -2.0014 -0.4538
  641TMC3    C1 9485   1.747   2.210   9.954 -0.1999  0.3113 -0.1863
  641TMC3    C2 9486   1.746   2.079   9.924 -0.0710 -0.2133  0.9779
  641TMC3    C3 9487   1.840   2.032   9.839 -0.8202  0.0150  0.2921
  641TMC3    C4 9488   1.839   2.298   9.906  0.3057 -0.0655 -0.1428
  641TMC3    C5 9489   1.930   2.245   9.818  0.0743 -0.2025 -0.2951
  641TMC3    C6 9490   1.924   2.114   9.770 -0.1043  0.3608  0.9612
  641TMC3     C 9491   1.640   2.259  10.035  0.5457  0.0324 -0.1963
  641TMC3     O 9492   1.534   2.194  10.038 -0.1777 -0.1148 -0.3028
  641TMC3     H 9493   1.675   2.010   9.969 -0.4840  0.4611  1.3714
  641TMC3    H1 9494   1.859   2.400   9.939 -1.8952  1.0605 -2.2956
  641TMC3    H2 9495   2.009   2.075   9.716 -0.0052  3.8718 -1.4101
  641TMC3    C7 9496   2.031   2.327   9.759  0.5820 -0.5921  0.5471
  641TMC3    C8 9497   1.850   1.887   9.809  0.5802 -0.0319 -0.6705
  641TMC3    O1 9498   2.129   2.264   9.729 -0.0139 -1.2773  0.1538
  641TMC3    O2 9499   1.920   1.850   9.715  0.3294 -0.0438  0.1859
  642TMC3    C1 9500   2.457   3.958  12.088 -0.2023  0.0188  0.3952
  642TMC3    C2 9501   2.592   3.956  12.061  0.5133  0.2647  0.4020
  642TMC3    C3 9502   2.638   3.843  12.004  0.3015 -0.1215 -0.1898
  642TMC3    C4 9503   2.378   3.852  12.051  0.1435  0.6846  0.2892
  642TMC3    C5 9504   2.426   3.745  11.979 -0.3236 -0.0104  0.6605
  642TMC3    C6 9505   2.557   3.743  11.953 -0.3369 -0.6194 -0.6931
  642TMC3     C 9506   2.398   4.083  12.142 -0.2667 -0.2307 -0.7596
  642TMC3     O 9507   2.471   4.180  12.162  0.1882  0.0024  0.2999
  642TMC3     H 9508   2.649   4.041  12.096  0.8621  0.3089 -0.2741
  642TMC3    H1 9509   2.271   3.847  12.063 -0.0415 -0.5593 -1.8473
  642TMC3    H2 9510   2.599   3.671  11.883 -2.7655 -2.0195 -0.7053
  642TMC3    C7 9511   2.369   3.614  11.997  1.0972 -0.6712  0.0010
  642TMC3    C8 9512   2.779   3.807  12.029 -0.4603 -0.5434 -0.1819
  642TMC3    O1 9513   2.399   3.530  11.911 -0.4265 -0.3218  0.1149
  642TMC3    O2 9514   2.810   3.690  12.020 -0.5608 -0.6329 -0.5006
  643TMC3    C1 9515   1.258   3.069   0.619 -0.1603 -1.1226  0.0396
  643TMC3    C2 9516   1.130   3.051   0.586  0.1464 -0.3662  0.0012
  643TMC3    C3 9517   1.099   3.043   0.450  0.1996  0.8753  0.2244
  643TMC3    C4 9518   1.364   3.074   0.527  0.5565 -0.5248 -0.1483
  643TMC3    C5 9519   1.329   3.052   0.397 -0.1422 -0.6186  0.2657
  643TMC3    C6 9520   1.197   3.056   0.357 -0.4101 -0.4086 -0.2678
  643TMC3     C 9521   1.291   3.040   0.759 -0.3260  0.4377 -0.1956
  643TMC3     O 9522   1.205   2.980   0.821 -0.2659  0.4719 -0.4624
  643TMC3     H 9523   1.050   3.054   0.658  1.6645 -1.2532  1.7150
  643TMC3    H1 9524   1.466   3.089   0.560  0.0475  0.6430  0.8776
  643TMC3    H2 9525   1.170   3.027   0.256 -2.2576  0.1510  0.0743
  643TMC3    C7 9526   1.405   3.122   0.295  0.1386  0.3552  0.2738
  643TMC3    C8 9527   0.975   3.099   0.411 -0.2825  0.1171 -0.5961
  643TMC3    O1 9528   1.347   3.171   0.199  0.3236 -0.7736 -0.2536
  643TMC3    O2 9529   0.883   3.088   0.489 -0.0101  0.4619 -0.2414
  644MPD2     C 9530   2.164   3.229   9.720 -0.0110 -0.1172  0.6481
  644MPD2    C1 9531   2.065   3.149   9.773 -0.2332 -0.1865  0.8565
  644MPD2    C2 9532   1.936   3.173   9.738  0.4468 -0.3511 -0.5745
  644MPD2    C3 9533   1.901   3.276   9.657 -0.1589 -0.1798  0.4724
  644MPD2    C4 9534   1.999   3.358   9.617  0.1688  0.2429  0.1482
  644MPD2    C5 9535   2.126   3.338   9.647  0.4178 -0.6522 -0.0713
  644MPD2     H 9536   1.858   3.114   9.785  1.1525  1.4225  2.8408
  644MPD2    H1 9537   1.979   3.437   9.545  0.4449  0.8200  0.6991
  644MPD2    H2 9538   2.269   3.212   9.736  0.3226 -1.1870 -2.6451
  644MPD2    H3 9539   2.203   3.402   9.605 -0.0371  0.2399  0.4642
  644MPD2     N 9540   1.767   3.292   9.620 -0.5645  0.0641 -0.4202
  644MPD2    H5 9541   1.700   3.231   9.666 -0.4535 -0.2860 -0.7276
  644MPD2    N1 9542   2.105   3.038   9.855  0.2296 -0.6100  0.4094
  644MPD2    H7 9543   2.200   3.035   9.891  1.0533  0.2665 -1.7003
  645TMC3    C1 9544   1.563   3.393   9.539  0.2855  0.4853 -0.3721
  645TMC3    C2 9545   1.504   3.513   9.508 -0.1128 -0.3680 -0.2877
  645TMC3    C3 9546   1.368   3.521   9.493  0.1427 -0.1765 -0.4332
  645TMC3    C4 9547   1.482   3.281   9.548  0.4600 -0.1361 -0.2118
  645TMC3    C5 9548   1.349   3.291   9.532 -0.5648 -0.1867 -0.2750
  645TMC3    C6 9549   1.286   3.411   9.498 -0.0858 -1.0175  1.1852
  645TMC3     C 9550   1.710   3.397   9.546 -0.0525  0.0829 -0.3409
  645TMC3     O 9551   1.756   3.508   9.541 -0.7491 -0.5933 -0.1712
  645TMC3     H 9552   1.555   3.608   9.505  1.2584 -1.0791  0.5583
  645TMC3    H1 9553   1.527   3.185   9.571 -0.5960 -0.6699 -0.3809
  645TMC3    H2 9554   1.179   3.429   9.504 -0.0473 -0.9354  1.5989
  645TMC3    C7 9555   1.266   3.170   9.527 -0.4026 -0.1409 -0.5239
  645TMC3    C8 9556   1.319   3.641   9.427  0.2244 -0.0648  0.2127
  645TMC3    O1 9557   1.320   3.063   9.531 -0.2269  0.3356  0.0811
  645TMC3    O2 9558   1.389   3.745   9.436 -0.5008 -0.5666  0.3020
  646MPD2     C 9559   0.656   2.882  14.807 -0.3117 -0.9767 -0.1243
  646MPD2    C1 9560   0.547   2.824  14.874 -0.5743 -0.5070  0.4196
  646MPD2    C2 9561   0.421   2.816  14.816  0.9281 -0.4152 -0.3323
  646MPD2    C3 9562   0.405   2.868  14.693 -0.1010 -0.2753  0.4268
  646MPD2    C4 9563   0.513   2.930  14.630 -0.3249 -0.4737 -0.4125
  646MPD2    C5 9564   0.639   2.935  14.685  0.6778  0.4626  0.0372
  646MPD2     H 9565   0.334   2.778  14.868 -0.2540  0.6263 -1.5293
  646MPD2    H1 9566   0.492   2.985  14.538 -0.4811 -0.3081 -0.2778
  646MPD2    H2 9567   0.743   2.912  14.864 -1.1934  2.0192 -0.3245
  646MPD2    H3 9568   0.722   2.997  14.651  0.0684  2.1109  1.5054
  646MPD2     N 9569   0.280   2.854  14.629  0.6213  0.2050  0.4629
  646MPD2    H5 9570   0.211   2.800  14.680  1.4042  0.8202  2.1483
  646MPD2    N1 9571   0.576   2.773  15.002  0.0110  0.5143 -0.3405
  646MPD2    H7 9572   0.673   2.778  15.033  0.8739 -3.4859 -2.4938
  647TMC3    C1 9573   0.556   2.667  15.214  0.2977  0.0192  0.0250
  647TMC3    C2 9574   0.507   2.560  15.286 -0.6101 -0.8566  0.7426
  647TMC3    C3 9575   0.566   2.530  15.409  0.2033  0.4997 -0.2932
  647TMC3    C4 9576   0.660   2.749  15.263  0.1534 -0.3474 -0.2909
  647TMC3    C5 9577   0.715   2.710  15.386  0.1442 -0.1648 -0.5109
  647TMC3    C6 9578   0.663   2.611  15.459  0.4041  0.3479  0.3341
  647TMC3     C 9579   0.492   2.698  15.089  0.1066  0.2954 -0.3939
  647TMC3     O 9580   0.377   2.668  15.067 -0.0091  0.2623  0.5868
  647TMC3     H 9581   0.421   2.502  15.254 -0.3576 -0.5797 -0.4458
  647TMC3    H1 9582   0.715   2.815  15.198 -1.3219  0.0467 -1.1253
  647TMC3    H2 9583   0.703   2.582  15.556  1.5521 -0.8758 -0.4980
  647TMC3    C7 9584   0.855   2.725  15.400 -0.1306 -0.2270 -0.3009
  647TMC3    C8 9585   0.546   2.409  15.485  0.5577 -0.2945  0.3696
  647TMC3    O1 9586   0.905   2.636  15.468  0.3301 -0.2390  0.4304
  647TMC3    O2 9587   0.646   2.347  15.518  0.0580 -0.6474 -0.1169
  648TMC3    C1 9588   0.081   0.312  16.183 -0.4373 -0.3224 -0.7248
  648TMC3    C2 9589   0.096   0.176  16.163 -0.9654 -0.1843  0.2022
  648TMC3    C3 9590   0.059   0.133  16.034 -0.4142  0.3530 -0.2290
  648TMC3    C4 9591   0.040   0.401  16.085 -0.3802 -0.2102 -0.0961
  648TMC3    C5 9592   4.718   0.350  15.962 -0.2382  0.5535 -0.9073
  648TMC3    C6 9593   0.010   0.215  15.934 -0.8924 -0.2832 -0.2560
  648TMC3     C 9594   0.096   0.366  16.317 -0.3283  0.4818 -0.1030
  648TMC3     O 9595   0.132   0.484  16.325 -0.2331  0.0710 -0.4541
  648TMC3     H 9596   0.129   0.107  16.240  0.1693  0.6924  0.5000
  648TMC3    H1 9597   0.024   0.504  16.116  2.3579  0.7114 -1.7453
  648TMC3    H2 9598   4.700   0.172  15.839  1.0289 -0.1911 -0.8745
  648TMC3    C7 9599   4.624   0.426  15.879  0.2229  0.5420  0.4772
  648TMC3    C8 9600   0.064   4.703  16.021  0.1416 -0.4878 -0.3128
  648TMC3    O1 9601   4.593   0.372  15.775  0.1906 -0.3005  0.1804
  648TMC3    O2 9602   0.075   4.640  16.125 -0.3573 -0.2503 -0.3955
  649TMC3    C1 9603   4.157   1.404  12.719  0.1925  0.1535  0.0487
  649TMC3    C2 9604   4.268   1.403  12.801 -1.2718 -0.4058 -0.0353
  649TMC3    C3 9605   4.239   1.418  12.932 -0.1523  0.0197  0.1736
  649TMC3    C4 9606   4.027   1.411  12.762 -0.0668 -0.5440 -0.2438
  649TMC3    C5 9607   4.012   1.405  12.896  0.3720  0.2058  0.1851
  649TMC3    C6 9608   4.114   1.411  12.983  0.0069 -0.3471 -0.4525
  649TMC3     C 9609   4.181   1.437  12.579 -0.7745  0.6064  0.1930
  649TMC3     O 9610   4.076   1.472  12.523  0.2262  0.5065 -0.1367
  649TMC3     H 9611   4.370   1.407  12.766 -1.0893  0.3472  0.6049
  649TMC3    H1 9612   3.945   1.412  12.692  0.8177 -0.4479 -1.2812
  649TMC3    H2 9613   4.091   1.436  13.086 -1.2965  2.4057 -1.4108
  649TMC3    C7 9614   3.882   1.378  12.962  0.3912 -0.3204 -0.0267
  649TMC3    C8 9615   4.338   1.367  13.028  0.1079  0.2458 -0.3672
  649TMC3    O1 9616   3.873   1.405  13.080  0.3948  0.0075  0.1960
  649TMC3    O2 9617   4.295   1.277  13.098  0.1019 -0.3989 -0.2530
  650TMC3    C1 9618   1.561   2.943  12.869 -0.9028 -0.1160  0.7901
  650TMC3    C2 9619   1.539   3.078  12.863  0.3862  0.6743  0.9730
  650TMC3    C3 9620   1.473   3.134  12.758 -0.4658 -0.4606 -0.2615
  650TMC3    C4 9621   1.504   2.861  12.775  0.6516  0.1301 -0.5933
  650TMC3    C5 9622   1.435   2.919  12.679 -0.1402 -0.1857 -0.5654
  650TMC3    C6 9623   1.424   3.058  12.662  0.0553 -0.1370  0.2973
  650TMC3     C 9624   1.652   2.894  12.969  0.3367  0.1118  0.1905
  650TMC3     O 9625   1.677   2.970  13.062 -0.0146  0.1920 -0.1434
  650TMC3     H 9626   1.600   3.141  12.926  1.1421  1.1381 -0.2260
  650TMC3    H1 9627   1.511   2.753  12.784  0.5328  0.0654 -1.3359
  650TMC3    H2 9628   1.363   3.102  12.584 -0.8797  1.7014  2.0834
  650TMC3    C7 9629   1.394   2.830  12.574 -0.2643 -0.2177  0.3018
  650TMC3    C8 9630   1.478   3.276  12.737  0.1693  0.3153 -0.7580
  650TMC3    O1 9631   1.386   2.710  12.595  0.4671 -0.6022 -0.0388
  650TMC3    O2 9632   1.431   3.316  12.632  0.3490 -0.0358 -0.1493
  651MPD2     C 9633   0.854   4.281  11.050  0.4265  0.2067  0.3615
  651MPD2    C1 9634   0.791   4.364  10.961 -0.2148  0.3497  0.0079
  651MPD2    C2 9635   0.868   4.431  10.863  1.0343 -0.7302 -1.2827
  651MPD2    C3 9636   1.005   4.416  10.859 -0.0525  0.5892  0.0679
  651MPD2    C4 9637   1.059   4.342  10.960 -0.1890  0.0369 -0.7012
  651MPD2    C5 9638   0.985   4.284  11.055 -0.5503  0.2346  0.0446
  651MPD2     H 9639   0.818   4.492  10.788  2.4523  1.3108 -0.5610
  651MPD2    H1 9640   1.167   4.330  10.964 -0.2795 -0.5234  0.1377
  651MPD2    H2 9641   0.798   4.212  11.111 -0.6446 -2.4165 -3.5727
  651MPD2    H3 9642   1.043   4.225  11.125 -0.2397 -0.5167 -0.8379
  651MPD2     N 9643   1.079   4.468  10.749  0.5809  0.4130 -0.3590
  651MPD2    H5 9644   1.020   4.505  10.674  0.0650 -2.5556 -1.4117
  651MPD2    N1 9645   0.652   4.378  10.955  0.4306 -0.1135 -0.1108
  651MPD2    H7 9646   0.610   4.430  10.879  0.5936  3.1276  2.0093
  652TMC3    C1 9647   1.424   4.711  10.564 -0.2591 -0.0060  0.3998
  652TMC3    C2 9648   1.392   4.593  10.621  0.2247  0.0382 -0.3997
  652TMC3    C3 9649   1.257   4.557  10.616  0.4421 -0.2467  0.6043
  652TMC3    C4 9650   1.332   0.086  10.528  0.0657  0.0711  1.1263
  652TMC3    C5 9651   1.203   0.052  10.526 -0.3368 -0.1220 -0.4548
  652TMC3    C6 9652   1.162   4.644  10.558  1.0370 -0.2885  0.4412
  652TMC3     C 9653   1.555   0.041  10.575 -0.2273 -0.3095  0.4796
  652TMC3     O 9654   1.629   4.697  10.652 -0.7362  0.6052  0.8057
  652TMC3     H 9655   1.458   4.529  10.679 -2.7315 -2.8447 -0.2611
  652TMC3    H1 9656   1.358   0.178  10.476 -2.3185 -1.2984 -2.4956
  652TMC3    H2 9657   1.055   4.624  10.562  1.4718 -2.4649  0.9371
  652TMC3    C7 9658   1.115   0.159  10.574  0.3902  0.3874  0.2492
  652TMC3    C8 9659   1.214   4.478  10.728  0.3562  0.1860  0.2423
  652TMC3    O1 9660   0.999   0.131  10.584  0.4871 -0.1950 -0.6714
  652TMC3    O2 9661   1.309   4.429  10.791 -0.0118  0.0049  0.0985
  653MPD2     C 9662   3.852   0.614   0.116  0.0514 -0.0610 -0.1036
  653MPD2    C1 9663   3.769   0.706   0.058  0.2212  0.5669  0.1706
  653MPD2    C2 9664   3.660   0.663  17.664 -0.0098 -0.3271 -0.4045
  653MPD2    C3 9665   3.632   0.531  17.639 -0.5714  0.1672  0.3885
  653MPD2    C4 9666   3.711   0.438   0.030  0.0089  0.2568  0.4859
  653MPD2    C5 9667   3.820   0.479   0.103  0.2503 -0.0458  0.2467
  653MPD2     H 9668   3.590   0.736  17.625  2.1436  1.7554 -0.3597
  653MPD2    H1 9669   3.704   0.334  17.677  0.5908  0.2775  0.2744
  653MPD2    H2 9670   3.949   0.628   0.162  0.6471 -0.7388 -1.1866
  653MPD2    H3 9671   3.883   0.401   0.145  0.3432 -0.9486 -1.5963
  653MPD2     N 9672   3.515   0.499  17.574  0.2792 -0.1115 -0.5882
  653MPD2    H5 9673   3.451   0.572  17.546  0.7299  1.0481  1.4176
  653MPD2    N1 9674   3.795   0.844   0.072  0.3865 -0.1279 -0.3549
  653MPD2    H7 9675   3.732   0.906   0.022 -1.3262 -0.6311  1.1936
  654TMC3    C1 9676   3.380   0.364  17.429 -0.0573  0.1746 -0.5673
  654TMC3    C2 9677   3.273   0.446  17.444  0.4589  0.1313  0.4695
  654TMC3    C3 9678   3.189   0.467  17.336 -0.1880  0.3807  0.1336
  654TMC3    C4 9679   3.388   0.277  17.325 -0.4274  0.7642 -0.8235
  654TMC3    C5 9680   3.292   0.287  17.225  0.2695 -0.0533 -0.0287
  654TMC3    C6 9681   3.203   0.390  17.222  0.5563  0.1920  0.0463
  654TMC3     C 9682   3.501   0.372  17.511  0.2189 -0.0527  0.1983
  654TMC3     O 9683   3.569   0.271  17.512 -0.1469  0.1969 -0.5826
  654TMC3     H 9684   3.261   0.486  17.544  1.8160 -1.7499  1.3849
  654TMC3    H1 9685   3.471   0.208  17.309 -0.0322  0.4501  2.5702
  654TMC3    H2 9686   3.135   0.390  17.138 -1.8986 -1.1800  2.0406
  654TMC3    C7 9687   3.309   0.215  17.106 -0.5190  0.3254  0.5579
  654TMC3    C8 9688   3.060   0.530  17.355 -0.0746 -0.2539  0.1690
  654TMC3    O1 9689   3.279   0.275  17.003 -0.0166  0.6303 -0.3116
  654TMC3    O2 9690   2.992   0.544  17.251  0.1551  0.4173 -0.3773
  655MPD2     C 9691   0.377   0.585  15.611 -0.3607  0.2613  0.2477
  655MPD2    C1 9692   0.249   0.628  15.587  0.7504  0.5229 -0.9676
  655MPD2    C2 9693   0.186   0.591  15.466 -0.3226 -0.2367 -0.1136
  655MPD2    C3 9694   0.253   0.513  15.376  0.2176  0.7756 -0.7769
  655MPD2    C4 9695   0.385   0.474  15.403  0.0661  0.0887 -1.1113
  655MPD2    C5 9696   0.435   0.494  15.532  0.0123 -0.2994  0.3570
  655MPD2     H 9697   0.085   0.625  15.449 -0.1152 -1.3879 -3.4810
  655MPD2    H1 9698   0.450   0.425  15.332  0.8291  0.1651 -0.4606
  655MPD2    H2 9699   0.426   0.608  15.704  1.6589 -1.7514 -0.3129
  655MPD2    H3 9700   0.534   0.462  15.560  0.9818  2.5405  0.1776
  655MPD2     N 9701   0.207   0.480  15.251 -0.1889 -0.2484  0.1083
  655MPD2    H5 9702   0.260   0.416  15.192  0.4625 -0.1534  0.5892
  655MPD2    N1 9703   0.171   0.709  15.675  0.3274 -0.4632 -0.2644
  655MPD2    H7 9704   0.089   0.748  15.630  0.1925 -1.1801 -0.6271
  656TMC3    C1 9705   0.116   0.835  15.858 -0.0423  0.5102 -0.2601
  656TMC3    C2 9706   0.060   0.818  15.983  0.7084  0.4865 -0.4694
  656TMC3    C3 9707   4.673   0.892  16.024  0.3925 -0.2349  0.0589
  656TMC3    C4 9708   0.060   0.925  15.776 -0.0084 -0.0899 -0.6370
  656TMC3    C5 9709   4.662   0.988  15.806  0.3373 -0.0854 -0.4959
  656TMC3    C6 9710   4.608   0.975  15.937 -0.2571 -0.6455 -0.3519
  656TMC3     C 9711   0.206   0.738  15.803  0.0270  0.2508  0.4354
  656TMC3     O 9712   0.300   0.688  15.869 -0.2055  0.2746 -0.4252
  656TMC3     H 9713   0.102   0.757  16.063 -0.0307  1.2430  0.4920
  656TMC3    H1 9714   0.104   0.955  15.682  1.5293  0.7171  0.3363
  656TMC3    H2 9715   4.521   1.031  15.967  0.8493  1.3725 -0.9463
  656TMC3    C7 9716   4.583   1.053  15.704 -0.6595 -0.3523  0.3830
  656TMC3    C8 9717   4.606   0.843  16.143 -0.0961 -0.4126  0.8156
  656TMC3    O1 9718   4.639   1.073  15.597 -0.0659 -0.2700  0.2802
  656TMC3    O2 9719   4.613   0.722  16.159 -0.2542 -0.0747  0.5707
  657TMC3    C1 9720   3.948   4.425  15.072 -0.5642 -0.4619 -0.1277
  657TMC3    C2 9721   4.025   4.483  15.159  0.3541  0.4210  0.2697
  657TMC3    C3 9722   3.965   4.561  15.255  0.2842  0.1999 -0.1206
  657TMC3    C4 9723   3.814   4.455  15.067 -0.6784 -0.1235 -0.1756
  657TMC3    C5 9724   3.761   4.543  15.156  0.1948  0.2160 -0.1583
  657TMC3    C6 9725   3.833   4.595  15.259 -0.2807  0.3957 -0.2092
  657TMC3     C 9726   4.007   4.350  14.953 -0.3721 -0.6421 -0.6396
  657TMC3     O 9727   3.931   4.299  14.873 -0.2674  0.2155  0.2124
  657TMC3     H 9728   4.132   4.466  15.171  0.7463  1.3004 -1.8803
  657TMC3    H1 9729   3.751   4.416  14.988 -0.2264 -1.5326  0.1605
  657TMC3    H2 9730   3.788   4.664  15.329  0.3160  1.4695 -0.8878
  657TMC3    C7 9731   3.617   4.551  15.149 -0.1074 -0.1603 -0.4498
  657TMC3    C8 9732   4.042   4.597  15.375 -0.1022  1.1625 -0.0804
  657TMC3    O1 9733   3.566   4.447  15.116  0.3144 -0.5326  0.5973
  657TMC3    O2 9734   3.995   4.691  15.435 -0.1892  0.1767  0.2159
  658MPD2     C 9735   0.615   0.233  14.931  0.2476  0.0502 -0.4229
  658MPD2    C1 9736   0.514   0.283  14.844  0.3120  0.5067  0.3296
  658MPD2    C2 9737   0.553   0.313  14.711 -0.2851 -0.2327 -0.3476
  658MPD2    C3 9738   0.682   0.285  14.665  0.2603 -0.1466 -0.0747
  658MPD2    C4 9739   0.773   0.225  14.751 -0.2605  0.5775  0.3955
  658MPD2    C5 9740   0.734   0.194  14.878  0.9144 -0.5987 -0.1165
  658MPD2     H 9741   0.492   0.375  14.647  0.0327  0.3182 -0.1229
  658MPD2    H1 9742   0.872   0.195  14.720  0.2812  1.9764  0.7713
  658MPD2    H2 9743   0.599   0.236  15.039 -3.0695 -1.6179 -0.8807
  658MPD2    H3 9744   0.809   0.158  14.948 -1.0668  1.2655  2.9560
  658MPD2     N 9745   0.727   0.338  14.542 -0.0592 -0.5456  0.3146
  658MPD2    H5 9746   0.654   0.370  14.479  1.6609 -1.9157 -2.3912
  658MPD2    N1 9747   0.382   0.312  14.886 -0.4517 -0.4009 -0.0909
  658MPD2    H7 9748   0.363   0.301  14.985 -1.3793 -0.6944 -0.3087
  659TMC3    C1 9749   0.164   0.368  14.875  0.6246 -0.1873  0.4406
  659TMC3    C2 9750   0.179   0.435  14.995  0.2984  0.1986 -0.0843
  659TMC3    C3 9751   0.070   0.462  15.066 -0.2097 -0.0012 -0.2783
  659TMC3    C4 9752   0.035   0.337  14.831  0.0713  1.2734 -0.2651
  659TMC3    C5 9753   4.647   0.370  14.912  0.4167  0.3103 -0.3543
  659TMC3    C6 9754   4.657   0.447  15.024 -0.1325  0.5620  0.2513
  659TMC3     C 9755   0.281   0.341  14.801  0.4644  0.5632  0.7138
  659TMC3     O 9756   0.262   0.317  14.684  0.7916  0.4508  0.1354
  659TMC3     H 9757   0.269   0.492  15.013 -1.2992  2.5403  0.4229
  659TMC3    H1 9758   0.024   0.269  14.747 -0.5172  0.1267  0.7392
  659TMC3    H2 9759   4.568   0.475  15.079  0.7993  4.4995 -0.2141
  659TMC3    C7 9760   4.518   0.304  14.898 -0.2576  0.3975 -0.0909
  659TMC3    C8 9761   0.085   0.519  15.200  0.4487  0.4923 -0.0625
  659TMC3    O1 9762   4.427   0.355  14.967  0.5831  0.2711  0.5210
  659TMC3    O2 9763   4.715   0.585  15.253  0.0837 -0.0044  0.0781
  660MPD2     C 9764   3.809   3.723  12.438 -1.5075 -0.0729 -0.4327
  660MPD2    C1 9765   3.712   3.816  12.430 -0.5492 -0.4387  0.4121
  660MPD2    C2 9766   3.617   3.815  12.529 -0.1871  0.6577  0.5627
  660MPD2    C3 9767   3.630   3.737  12.636  0.2971  0.3316  0.7591
  660MPD2    C4 9768   3.738   3.649  12.651  0.5455 -0.4447  0.8685
  660MPD2    C5 9769   3.829   3.643  12.550 -0.0836 -0.2280 -0.2875
  660MPD2     H 9770   3.539   3.889  12.519  0.1937  1.0627  0.5676
  660MPD2    H1 9771   3.749   3.595  12.745  1.6480 -1.7995 -0.0461
  660MPD2    H2 9772   3.874   3.724  12.352 -0.7258 -0.5451  0.1459
  660MPD2    H3 9773   3.916   3.578  12.557  0.9521  0.7797 -3.9145
  660MPD2     N 9774   3.524   3.717  12.730 -0.4973 -0.0906 -0.1145
  660MPD2    H5 9775   3.540   3.671  12.819 -2.1635 -0.0608  0.1895
  660MPD2    N1 9776   3.699   3.885  12.312  0.0636  0.1300  0.0036
  660MPD2    H7 9777   3.774   3.868  12.246  1.7019  1.3965  1.5390
  661TMC3    C1 9778   3.605   4.008  12.149  0.4788 -0.3300  0.0196
  661TMC3    C2 9779   3.653   3.919  12.051  0.8928 -0.3225 -0.5563
  661TMC3    C3 9780   3.608   3.930  11.922 -0.7939  0.2270  0.1271
  661TMC3    C4 9781   3.528   4.114  12.109 -0.1804  0.0879  0.2924
  661TMC3    C5 9782   3.487   4.127  11.981 -0.1037 -0.0536 -0.1138
  661TMC3    C6 9783   3.528   4.034  11.881  0.4787 -0.3536  0.1078
  661TMC3     C 9784   3.615   3.988  12.286 -0.7853  0.0325  0.6587
  661TMC3     O 9785   3.540   4.042  12.365  0.4549 -0.3704 -0.5441
  661TMC3     H 9786   3.717   3.838  12.085  0.0057 -0.1910  1.3849
  661TMC3    H1 9787   3.492   4.184  12.184 -0.5783  2.3992 -2.0384
  661TMC3    H2 9788   3.478   4.040  11.785 -0.4130 -3.4570  0.3821
  661TMC3    C7 9789   3.359   4.198  11.961 -0.2396 -0.8395 -0.0614
  661TMC3    C8 9790   3.678   3.863  11.815  0.1606 -0.7910  0.5674
  661TMC3    O1 9791   3.349   4.311  12.007 -0.5204 -0.4285  0.0052
  661TMC3    O2 9792   3.723   3.748  11.843  0.2417  0.4454  0.1051
  662MPD2     C 9793   3.461   3.983   0.091  0.8816  0.8041  0.0037
  662MPD2    C1 9794   3.467   3.865   0.160 -0.3688 -0.0832  0.6055
  662MPD2    C2 9795   3.496   3.862   0.294  0.4075  0.2674 -0.5743
  662MPD2    C3 9796   3.510   3.982   0.360 -0.1177  0.2471 -0.7008
  662MPD2    C4 9797   3.497   4.103   0.290  0.9331 -0.2419 -0.7681
  662MPD2    C5 9798   3.472   4.104   0.156  0.5305 -0.0984 -0.4368
  662MPD2     H 9799   3.496   3.768   0.350 -1.5522 -0.6582 -2.1062
  662MPD2    H1 9800   3.504   4.199   0.340 -0.0530 -0.2625 -0.6001
  662MPD2    H2 9801   3.447   3.992  17.662  3.4472  0.2151 -0.3703
  662MPD2    H3 9802   3.479   4.200   0.107  1.0658  0.0635 -0.0460
  662MPD2     N 9803   3.529   3.987   0.498  0.4049 -0.3381 -0.0039
  662MPD2    H5 9804   3.530   4.082   0.533  2.9098 -0.8988  1.4254
  662MPD2    N1 9805   3.448   3.742   0.091 -0.3309 -0.1853  0.1939
  662MPD2    H7 9806   3.470   3.665   0.154  0.1516  1.5208  2.0945
  663TMC3    C1 9807   3.390   3.587  17.605  0.5674 -0.3014  0.3663
  663TMC3    C2 9808   3.298   3.565  17.502 -0.9035 -0.1436  0.0471
  663TMC3    C3 9809   3.248   3.438  17.490 -0.4831  0.5495 -0.0270
  663TMC3    C4 9810   3.437   3.487   0.010  0.0072  0.4395 -0.2020
  663TMC3    C5 9811   3.408   3.354  17.649 -0.4710  0.0068  0.2898
  663TMC3    C6 9812   3.299   3.338  17.571  0.2612  0.5841 -0.0651
  663TMC3     C 9813   3.420   3.721  17.637  0.2866  0.0870  0.1709
  663TMC3     O 9814   3.409   3.801  17.544  0.1009 -0.2273 -0.3419
  663TMC3     H 9815   3.235   3.647  17.469 -0.0800 -0.1432 -1.5229
  663TMC3    H1 9816   3.516   3.514   0.079 -2.1184  1.7748  1.7241
  663TMC3    H2 9817   3.275   3.239  17.534 -1.7073  1.6464 -1.6366
  663TMC3    C7 9818   3.489   3.247   0.016 -0.0879 -0.0022  0.3184
  663TMC3    C8 9819   3.107   3.449  17.486  0.1695 -0.2521  0.9697
  663TMC3    O1 9820   3.602   3.276   0.062 -0.4193 -0.5436  0.1444
  663TMC3    O2 9821   3.056   3.504  17.390  0.4746 -0.0204 -0.0296
  664MPD2     C 9822   1.875   2.348  17.589  0.1814 -0.1399 -0.1734
  664MPD2    C1 9823   1.936   2.444  17.671  0.0409  0.2812 -0.6604
  664MPD2    C2 9824   1.939   2.412   0.123 -0.4789 -0.8460 -0.1158
  664MPD2    C3 9825   1.892   2.298   0.187 -0.6198 -0.0058 -0.3474
  664MPD2    C4 9826   1.832   2.208   0.103  0.4117  0.2833 -0.3823
  664MPD2    C5 9827   1.826   2.234  17.651 -0.2747 -0.0143  1.1255
  664MPD2     H 9828   1.993   2.482   0.184 -1.2715  1.4640 -2.0707
  664MPD2    H1 9829   1.782   2.122   0.147  3.2626 -0.1349  2.0393
  664MPD2    H2 9830   1.860   2.358  17.482  1.0193 -1.3673 -0.3973
  664MPD2    H3 9831   1.778   2.158  17.591 -0.8860  1.0833  0.2067
  664MPD2     N 9832   1.907   2.289   0.327  0.0087  0.1322 -0.0501
  664MPD2    H5 9833   1.957   2.364   0.373  1.0794  1.0978 -2.7938
  664MPD2    N1 9834   2.002   2.556  17.630 -0.1246  0.7833 -0.7958
  664MPD2    H7 9835   2.041   2.614   0.025 -0.5806 -1.1417  0.9494
  665TMC3    C1 9836   1.886   2.197   0.546  0.3329  0.0842  0.1859
  665TMC3    C2 9837   1.776   2.208   0.634 -0.7022  0.1184  0.1456
  665TMC3    C3 9838   1.806   2.256   0.762 -0.0552  0.0942  0.0730
  665TMC3    C4 9839   2.012   2.238   0.575  0.0451 -0.1988  0.2126
  665TMC3    C5 9840   2.035   2.284   0.700  0.0250  0.2067 -0.4699
  665TMC3    C6 9841   1.935   2.287   0.798  0.3530  0.3809  0.2182
  665TMC3     C 9842   1.840   2.197   0.406 -0.4917  0.3895  0.0777
  665TMC3     O 9843   1.736   2.137   0.382  0.2488 -0.0227  0.3646
  665TMC3     H 9844   1.675   2.199   0.596 -0.8289  0.6403  0.3668
  665TMC3    H1 9845   2.098   2.235   0.508 -1.0280 -1.2895 -1.0921
  665TMC3    H2 9846   1.962   2.300   0.902  2.5048  0.9753 -0.4289
  665TMC3    C7 9847   2.165   2.325   0.737  0.2642  0.1373 -0.1586
  665TMC3    C8 9848   1.712   2.227   0.873  0.2925 -0.3354 -0.2127
  665TMC3    O1 9849   2.264   2.294   0.677  0.4813 -0.2477  0.2359
  665TMC3    O2 9850   1.755   2.231   0.989  0.2683  0.1257 -0.2159
  666TMC3    C1 9851   1.242   1.452  10.222  0.0744  0.3514  0.6491
  666TMC3    C2 9852   1.332   1.365  10.275 -0.7299 -0.3304  0.2610
  666TMC3    C3 9853   1.451   1.407  10.325 -0.2474  0.1066  0.5427
  666TMC3    C4 9854   1.257   1.585  10.230 -0.6507 -0.3075  0.6516
  666TMC3    C5 9855   1.373   1.628  10.291 -0.2750  0.0552 -0.2278
  666TMC3    C6 9856   1.476   1.544  10.335 -0.3512 -0.3163 -0.1677
  666TMC3     C 9857   1.141   1.405  10.130 -0.0714  0.0179 -0.3009
  666TMC3     O 9858   1.106   1.475  10.036  0.0630  0.6432 -0.9039
  666TMC3     H 9859   1.321   1.261  10.249  2.0157 -0.6198  0.2935
  666TMC3    H1 9860   1.198   1.660  10.179  1.0872  1.7136  1.6008
  666TMC3    H2 9861   1.564   1.582  10.386 -0.1192 -2.4666  1.0431
  666TMC3    C7 9862   1.371   1.756  10.359  0.0220 -0.1489 -0.3603
  666TMC3    C8 9863   1.532   1.311  10.392  0.5631 -0.5195  0.2028
  666TMC3    O1 9864   1.470   1.791  10.420  0.1991 -0.1034  0.0010
  666TMC3    O2 9865   1.495   1.195  10.387  0.1863 -0.0389 -0.0312
  667MPD2     C 9866   2.339   2.233  14.584 -0.7503 -0.3753 -0.1391
  667MPD2    C1 9867   2.328   2.217  14.722 -0.1381  0.6696 -0.0658
  667MPD2    C2 9868   2.322   2.088  14.773 -0.4746  0.3681 -0.1295
  667MPD2    C3 9869   2.312   1.979  14.682 -0.0364 -0.1948 -0.5101
  667MPD2    C4 9870   2.308   1.998  14.543  0.0257  0.0796  0.1586
  667MPD2    C5 9871   2.335   2.124  14.496 -0.5270 -0.1946  0.6274
  667MPD2     H 9872   2.318   2.068  14.879  0.7127  1.5748  0.1309
  667MPD2    H1 9873   2.301   1.917  14.472  1.3615 -1.0207  1.2687
  667MPD2    H2 9874   2.364   2.329  14.541  0.8406 -0.2435  1.0961
  667MPD2    H3 9875   2.341   2.129  14.387 -0.1633  0.6590  0.6896
  667MPD2     N 9876   2.279   1.847  14.722  0.3091 -0.4081  0.1574
  667MPD2    H5 9877   2.249   1.789  14.644  0.2368  0.3156 -0.3452
  667MPD2    N1 9878   2.335   2.328  14.810  0.5374 -0.2295 -0.0745
  667MPD2    H7 9879   2.359   2.309  14.907 -2.5477 -0.6075  0.6251
  668TMC3    C1 9880   2.363   2.557  14.875  1.2998 -0.1363 -0.9013
  668TMC3    C2 9881   2.406   2.677  14.824 -0.0624  0.3524 -0.1710
  668TMC3    C3 9882   2.483   2.755  14.899 -0.1086  0.5330  0.1470
  668TMC3    C4 9883   2.397   2.523  15.002 -0.8664 -0.3812 -0.1294
  668TMC3    C5 9884   2.460   2.619  15.083  0.2273 -0.3078 -0.2884
  668TMC3    C6 9885   2.506   2.728  15.030 -0.0738 -0.2748 -0.2858
  668TMC3     C 9886   2.315   2.459  14.780 -0.4020 -0.7443  0.0828
  668TMC3     O 9887   2.261   2.506  14.681 -0.2483  0.0687 -1.1126
  668TMC3     H 9888   2.376   2.702  14.722 -0.0486  0.0765 -0.2422
  668TMC3    H1 9889   2.365   2.427  15.042 -2.0383  0.2619  0.4621
  668TMC3    H2 9890   2.578   2.790  15.082 -0.6193  0.2021 -0.1042
  668TMC3    C7 9891   2.519   2.568  15.210 -0.2253 -0.4536  0.3307
  668TMC3    C8 9892   2.549   2.868  14.850  0.3737 -0.0780 -0.3020
  668TMC3    O1 9893   2.627   2.623  15.239  0.4832 -0.3974 -0.0157
  668TMC3    O2 9894   2.609   2.943  14.930 -0.0657 -0.3825  0.1129
  669TMC3    C1 9895   0.435   2.003  14.770  0.0464 -0.9545  0.5571
  669TMC3    C2 9896   0.345   2.001  14.672 -0.2939 -0.0655 -0.3120
  669TMC3    C3 9897   0.357   2.075  14.559 -0.7716 -0.7679  0.5008
  669TMC3    C4 9898   0.547   2.073  14.751 -0.6877 -0.3649  0.5318
  669TMC3    C5 9899   0.565   2.138  14.631 -0.0653 -0.4067 -0.5988
  669TMC3    C6 9900   0.475   2.148  14.532 -0.8414 -0.0416  0.3111
  669TMC3     C 9901   0.412   1.911  14.885  0.4845 -0.0499  0.1326
  669TMC3     O 9902   0.327   1.822  14.873 -0.1272  0.2211 -0.0889
  669TMC3     H 9903   0.258   1.942  14.698 -0.2486 -1.0735 -2.4089
  669TMC3    H1 9904   0.632   2.066  14.818 -0.7422  2.3728  0.9229
  669TMC3    H2 9905   0.495   2.201  14.439 -1.2270  0.8139  0.7138
  669TMC3    C7 9906   0.698   2.190  14.606  0.2603  0.2683 -0.6652
  669TMC3    C8 9907   0.261   2.061  14.448 -0.3479  0.1789 -0.3517
  669TMC3    O1 9908   0.768   2.210  14.706  0.0734 -0.1912 -0.2350
  669TMC3    O2 9909   0.183   1.971  14.455 -0.2646 -0.3991  0.4998
  670MPD2     C 9910   3.700   0.347  13.496 -0.1180  0.3644 -0.8779
  670MPD2    C1 9911   3.778   0.330  13.614  0.3753 -1.0254  0.1697
  670MPD2    C2 9912   3.743   0.231  13.712  0.3274  0.3330 -0.3978
  670MPD2    C3 9913   3.628   0.154  13.688  0.7278  0.3399 -0.3175
  670MPD2    C4 9914   3.561   0.176  13.571 -0.6852 -0.4266 -0.3764
  670MPD2    C5 9915   3.586   0.276  13.477 -0.0684  0.0321 -0.1652
  670MPD2     H 9916   3.804   0.226  13.801 -0.7938 -2.4635  0.2089
  670MPD2    H1 9917   3.469   0.126  13.542 -2.3295  2.0305  0.6189
  670MPD2    H2 9918   3.716   0.421  13.419  0.5642  0.7358 -0.3894
  670MPD2    H3 9919   3.525   0.293  13.389 -0.6828 -0.0925  0.2349
  670MPD2     N 9920   3.586   0.055  13.784  0.0544 -0.3258 -0.1699
  670MPD2    H5 9921   3.657   0.040  13.854 -0.7787 -1.9507  0.3265
  670MPD2    N1 9922   3.892   0.414  13.648 -0.3762  0.8868  0.2680
  670MPD2    H7 9923   3.936   0.393  13.736  1.0929  1.6259 -0.2958
  671TMC3    C1 9924   3.496   4.577  13.860 -0.5763  0.0178 -0.3515
  671TMC3    C2 9925   3.563   4.588  13.980 -0.3996 -0.1538 -0.5402
  671TMC3    C3 9926   3.548   4.479  14.065 -0.3921  0.4455  0.7096
  671TMC3    C4 9927   3.422   4.468  13.827 -0.1919 -0.6389  0.0813
  671TMC3    C5 9928   3.412   4.360  13.907  0.4546 -0.0517 -0.5382
  671TMC3    C6 9929   3.484   4.359  14.034 -0.0142  0.1212  0.3163
  671TMC3     C 9930   3.486   4.682  13.768  0.1552 -0.1382  0.2089
  671TMC3     O 9931   3.386   4.680  13.694  0.0512 -0.1150 -0.1673
  671TMC3     H 9932   3.593   4.680  14.029  0.4200 -0.1286 -1.0987
  671TMC3    H1 9933   3.371   4.464  13.731 -0.9055 -1.9399  0.5052
  671TMC3    H2 9934   3.495   4.272  14.097 -0.8886  0.0027  0.3050
  671TMC3    C7 9935   3.355   4.242  13.856  0.1861 -0.7768  0.4403
  671TMC3    C8 9936   3.670   4.446  14.137 -0.4523  0.8338  0.5192
  671TMC3    O1 9937   3.335   4.222  13.738 -0.0230  0.3564  0.3447
  671TMC3    O2 9938   3.659   4.350  14.215 -0.1617  0.1657 -0.0200
  672MPD2     C 9939   2.937   0.946   1.506 -0.6730 -0.4544  0.3578
  672MPD2    C1 9940   3.020   0.840   1.477  0.0619  0.4380  0.2970
  672MPD2    C2 9941   3.142   0.845   1.540  0.4092  0.3039 -0.2577
  672MPD2    C3 9942   3.196   0.954   1.600 -0.6288 -0.2953  0.1366
  672MPD2    C4 9943   3.118   1.064   1.612 -0.4684 -0.2665 -0.5634
  672MPD2    C5 9944   2.991   1.054   1.567 -0.9327 -0.4876  0.1214
  672MPD2     H 9945   3.208   0.761   1.524 -1.3526 -0.8214 -1.6057
  672MPD2    H1 9946   3.152   1.160   1.650 -3.2985  1.3803 -2.1814
  672MPD2    H2 9947   2.831   0.947   1.481 -1.2437 -0.4859  2.7115
  672MPD2    H3 9948   2.927   1.140   1.587 -2.1117 -1.2752 -0.2495
  672MPD2     N 9949   3.327   0.966   1.653  0.8452  0.0457 -0.6636
  672MPD2    H5 9950   3.356   1.056   1.689  1.5490 -0.2480 -0.5039
  672MPD2    N1 9951   2.981   0.718   1.421  0.3183  0.3863 -0.3450
  672MPD2    H7 9952   3.044   0.643   1.446 -0.1165  0.3015  0.5171
  673TMC3    C1 9953   2.875   0.572   1.265  0.2304 -0.2348 -0.6073
  673TMC3    C2 9954   2.879   0.457   1.333 -0.3203  0.6145  1.0650
  673TMC3    C3 9955   2.909   0.350   1.261  0.2238 -0.6895  0.7418
  673TMC3    C4 9956   2.906   0.585   1.133 -0.4465  0.3860  0.1167
  673TMC3    C5 9957   2.932   0.470   1.062  0.1776  0.3859 -0.0964
  673TMC3    C6 9958   2.933   0.350   1.123  0.2296 -0.0186  0.0938
  673TMC3     C 9959   2.877   0.694   1.337  0.5038  0.5060 -0.2018
  673TMC3     O 9960   2.807   0.782   1.291  0.0847  0.4277  0.1021
  673TMC3     H 9961   2.871   0.445   1.441 -2.8911 -2.0652  0.5782
  673TMC3    H1 9962   2.907   0.682   1.084  0.1657  1.0703  1.4740
  673TMC3    H2 9963   2.942   0.261   1.063 -1.6058 -1.0111  1.2681
  673TMC3    C7 9964   2.968   0.478   0.921  0.3530 -0.0297  0.1193
  673TMC3    C8 9965   2.925   0.221   1.318  0.0382  0.1869  0.9174
  673TMC3    O1 9966   2.929   0.390   0.846  0.1216 -0.7669  0.4588
  673TMC3    O2 9967   2.842   0.196   1.403  0.0969 -0.3006 -0.4380
  674MPD2     C 9968   3.609   0.532   0.441  0.5594 -0.7261  0.7854
  674MPD2    C1 9969   3.585   0.481   0.570  0.2349  0.2251  0.7442
  674MPD2    C2 9970   3.481   0.390   0.585  0.4038 -0.2531  0.0206
  674MPD2    C3 9971   3.403   0.351   0.478 -0.6670  0.4810 -0.3632
  674MPD2    C4 9972   3.431   0.394   0.348  0.3813 -0.8925 -0.5841
  674MPD2    C5 9973   3.531   0.485   0.335  0.1628 -0.1923 -0.0371
  674MPD2     H 9974   3.443   0.351   0.679  0.6042  0.6850  0.4939
  674MPD2    H1 9975   3.376   0.362   0.261 -2.1029  2.0003 -0.0858
  674MPD2    H2 9976   3.691   0.603   0.428  1.5711 -2.2169 -1.0556
  674MPD2    H3 9977   3.559   0.511   0.234 -0.9450  1.7875  0.1701
  674MPD2     N 9978   3.289   0.269   0.503 -0.8860  0.7130  0.2102
  674MPD2    H5 9979   3.270   0.233   0.596  0.9556  0.8724  0.6519
  674MPD2    N1 9980   3.663   0.522   0.686  0.1087  0.1773  0.4129
  674MPD2    H7 9981   3.743   0.582   0.668 -1.7599  1.8679 -2.3007
  675TMC3    C1 9982   3.768   0.528   0.894  0.2804  0.5760  0.1399
  675TMC3    C2 9983   3.820   0.447   0.992  0.7032  0.0066  0.1251
  675TMC3    C3 9984   3.876   0.504   1.106  0.3393  0.4980  0.5753
  675TMC3    C4 9985   3.767   0.663   0.899  0.8003 -0.0916  0.8503
  675TMC3    C5 9986   3.807   0.712   1.016 -0.4903 -0.1468  0.6390
  675TMC3    C6 9987   3.873   0.641   1.119 -0.1950 -0.2617 -0.1363
  675TMC3     C 9988   3.666   0.465   0.811  0.7357 -0.2967 -0.5087
  675TMC3     O 9989   3.612   0.361   0.852  0.5291  0.1839  0.0464
  675TMC3     H 9990   3.819   0.339   0.979 -0.2513 -0.0505  0.6770
  675TMC3    H1 9991   3.729   0.713   0.811 -1.0613  0.1414  1.7731
  675TMC3    H2 9992   3.914   0.687   1.208 -0.6940 -0.7645  0.3551
  675TMC3    C7 9993   3.818   0.859   1.024 -0.0471  0.0810 -0.0897
  675TMC3    C8 9994   3.988   0.433   1.176 -0.2323 -0.1023 -0.4749
  675TMC3    O1 9995   3.814   0.903   1.139  0.6113 -0.1808  0.2541
  675TMC3    O2 9996   4.064   0.504   1.239 -0.3369 -0.8030 -0.3979
  676MPD2     C 9997   1.408   2.648  11.454 -0.1504 -0.3881  0.2543
  676MPD2    C1 9998   1.425   2.543  11.545 -0.1246 -0.6004 -0.1400
  676MPD2    C2 9999   1.454   2.415  11.490  0.8748 -0.5903 -0.0595
  676MPD2    C310000   1.465   2.401  11.354 -0.1767 -0.1612  0.5261
  676MPD2    C410001   1.455   2.507  11.269 -0.0087  0.0322  0.5476
  676MPD2    C510002   1.428   2.631  11.318  0.2804  0.1920  0.6791
  676MPD2     H10003   1.466   2.332  11.559 -2.8263 -0.6109  0.5554
  676MPD2    H110004   1.455   2.499  11.161  2.5576  2.0726  0.3867
  676MPD2    H210005   1.376   2.748  11.482  1.5689 -0.0803  1.1321
  676MPD2    H310006   1.406   2.713  11.251 -0.8285 -1.0300 -0.4450
  676MPD2     N10007   1.481   2.273  11.292  0.2835  0.4801  0.3773
  676MPD2    H510008   1.493   2.278  11.191  2.7693  0.6679  0.6665
  676MPD2    N110009   1.436   2.565  11.686  0.2875 -0.2056 -0.0519
  676MPD2    H710010   1.453   2.483  11.742 -1.4628  0.6879  1.8126
  677TMC3    C110011   1.479   2.681  11.889 -0.6330  0.1809  0.3240
  677TMC3    C210012   1.503   2.560  11.957 -0.9821 -0.1560  1.1565
  677TMC3    C310013   1.565   2.569  12.076  0.4254  0.2662  0.4888
  677TMC3    C410014   1.525   2.804  11.939  1.0875 -0.0958  0.6813
  677TMC3    C510015   1.581   2.803  12.061  0.5082 -0.0352  0.4461
  677TMC3    C610016   1.601   2.687  12.135 -0.4013 -0.2853  0.1265
  677TMC3     C10017   1.452   2.688  11.742 -0.0682  0.0345 -0.3884
  677TMC3     O10018   1.470   2.801  11.699 -0.1447  0.1964 -0.3392
  677TMC3     H10019   1.486   2.468  11.902 -0.5518 -0.3373  1.3284
  677TMC3    H110020   1.503   2.898  11.891  2.1126  0.9809  2.3088
  677TMC3    H210021   1.654   2.687  12.230 -1.2549 -4.0599  0.6051
  677TMC3    C710022   1.677   2.899  12.088 -0.6210  0.4779  0.5581
  677TMC3    C810023   1.653   2.456  12.107 -0.4263 -0.8307  0.5133
  677TMC3    O110024   1.700   2.925  12.206  0.0893 -0.0309 -0.6346
  677TMC3    O210025   1.685   2.396  12.005 -0.0048  0.8594  0.2560
  678MPD2     C10026   2.976   3.339   1.833 -0.0477 -0.7492  0.5121
  678MPD2    C110027   2.996   3.312   1.695  0.0602  0.0847  0.6447
  678MPD2    C210028   2.885   3.287   1.618 -0.3220 -0.3085 -0.8687
  678MPD2    C310029   2.757   3.283   1.669  0.1606  0.2498  0.2880
  678MPD2    C410030   2.738   3.307   1.799  0.4470 -0.4936 -0.3128
  678MPD2    C510031   2.848   3.336   1.883 -1.3176  0.1279 -0.4507
  678MPD2     H10032   2.897   3.274   1.511 -0.5381 -2.6936 -0.6063
  678MPD2    H110033   2.644   3.289   1.849  1.5107 -3.0621  0.7431
  678MPD2    H210034   3.058   3.360   1.901 -0.9569  1.0109  1.0635
  678MPD2    H310035   2.834   3.366   1.986  0.9326  0.9846 -0.3862
  678MPD2     N10036   2.650   3.255   1.577 -0.2194 -0.4844  0.3031
  678MPD2    H510037   2.683   3.243   1.482 -0.9435 -0.8805  0.1012
  678MPD2    N110038   3.123   3.293   1.635 -0.0224 -0.3294  0.4089
  678MPD2    H710039   3.128   3.260   1.540 -0.7142  0.6592  0.0332
  679TMC3    C110040   3.545   3.172   1.521 -0.1836  0.4987  0.7273
  679TMC3    C210041   3.467   3.215   1.629  0.3717  0.2829  0.2140
  679TMC3    C310042   3.351   3.285   1.598 -0.2547 -0.1219  0.8793
  679TMC3    C410043   3.510   3.195   1.393  0.3846 -0.2319  0.2716
  679TMC3    C510044   3.399   3.271   1.367  0.0466 -0.4665 -0.3822
  679TMC3    C610045   3.321   3.322   1.471  0.0449 -0.4004  0.0284
  679TMC3     C10046   3.658   3.086   1.557 -0.4353 -0.4378 -0.2641
  679TMC3     O10047   3.643   2.990   1.626 -0.2051 -0.3274 -0.3375
  679TMC3     H10048   3.493   3.178   1.727 -1.4485 -1.9408 -0.1516
  679TMC3    H110049   3.572   3.157   1.313  0.5984 -2.0931  1.3373
  679TMC3    H210050   3.232   3.377   1.445  0.0416  0.0110  0.9119
  679TMC3    C710051   3.335   3.265   1.241 -0.0776 -0.3583 -0.5199
  679TMC3    C810052   3.244   3.296   1.696 -0.1293 -0.2435  0.8972
  679TMC3    O110053   3.239   3.338   1.223 -0.0044 -0.4051 -0.1290
  679TMC3    O210054   3.272   3.293   1.816 -0.0981 -0.2395 -0.3222
  680MPD2     C10055   3.566   1.906  13.435 -0.1873  0.2267  0.0103
  680MPD2    C110056   3.533   1.826  13.540 -0.0516 -0.3125  0.1994
  680MPD2    C210057   3.602   1.838  13.662 -0.3944  0.0760  0.4492
  680MPD2    C310058   3.696   1.934  13.682 -0.4466 -0.5463  0.6255
  680MPD2    C410059   3.726   2.018  13.581 -0.3496  0.4503 -0.1550
  680MPD2    C510060   3.658   2.010  13.462 -0.7871 -0.2263  1.4432
  680MPD2     H10061   3.576   1.771  13.744  1.2213 -1.4430 -0.2813
  680MPD2    H110062   3.811   2.084  13.577 -0.4615  0.6516  0.9716
  680MPD2    H210063   3.519   1.903  13.338  4.0108  0.4566 -1.9957
  680MPD2    H310064   3.662   2.096  13.396  0.4259  0.1982  2.0734
  680MPD2     N10065   3.771   1.948  13.798 -0.1121 -0.0782 -0.0113
  680MPD2    H510066   3.850   2.010  13.791 -0.1699 -0.0694 -0.5702
  680MPD2    N110067   3.448   1.706  13.522 -0.0447  0.6051  0.1777
  680MPD2    H710068   3.399   1.703  13.433 -0.6390  0.3385  0.5131
  681TMC3    C110069   3.310   1.520  13.560  0.0520  0.2829  0.6498
  681TMC3    C210070   3.222   1.467  13.649  0.9748  0.4072 -0.0732
  681TMC3    C310071   3.176   1.342  13.625 -0.3822 -0.3448  0.3585
  681TMC3    C410072   3.362   1.447  13.458  0.5988 -0.4352 -0.1347
  681TMC3    C510073   3.325   1.310  13.445 -0.1121 -0.5113  0.9894
  681TMC3    C610074   3.230   1.257  13.529 -0.2079 -0.1066 -0.3019
  681TMC3     C10075   3.396   1.622  13.618  0.3439  0.6509  0.7906
  681TMC3     O10076   3.417   1.617  13.740 -0.4414  0.3729  0.1059
  681TMC3     H10077   3.178   1.527  13.727 -1.1473 -0.3039 -0.7196
  681TMC3    H110078   3.443   1.483  13.396 -0.7526 -0.0543 -1.6865
  681TMC3    H210079   3.196   1.156  13.506 -1.4346 -0.1515  1.7160
  681TMC3    C710080   3.337   1.249  13.313  0.3523  1.3521  0.2049
  681TMC3    C810081   3.083   1.288  13.726  0.0222 -0.7723  0.2481
  681TMC3    O110082   3.257   1.162  13.289 -0.0764 -0.3229 -0.4427
  681TMC3    O210083   3.033   1.181  13.694  0.2934 -0.2958 -0.3601
  682MPD2     C10084   0.526   2.530  11.087 -0.2412  0.2035 -0.1438
  682MPD2    C110085   0.573   2.405  11.102  0.5715 -0.2342  0.3315
  682MPD2    C210086   0.650   2.371  11.219  0.0336 -0.3142  0.4034
  682MPD2    C310087   0.664   2.461  11.323 -0.3383 -0.6150  0.0545
  682MPD2    C410088   0.628   2.591  11.300  0.2479  0.3147  0.5626
  682MPD2    C510089   0.554   2.619  11.186  0.1986  1.1506 -0.0485
  682MPD2     H10090   0.704   2.277  11.217  0.5400 -0.0050 -1.0049
  682MPD2    H110091   0.639   2.677  11.364  0.3772  0.6411  0.1030
  682MPD2    H210092   0.485   2.575  10.997  0.6175 -0.8932 -1.0769
  682MPD2    H310093   0.500   2.713  11.190  2.5356  2.5116 -0.8638
  682MPD2     N10094   0.721   2.420  11.443 -0.1191 -0.0572  0.1785
  682MPD2    H510095   0.747   2.493  11.509 -0.8833 -1.4956  2.0605
  682MPD2    N110096   0.562   2.300  11.001 -0.7408 -0.2895 -0.0950
  682MPD2    H710097   0.598   2.206  11.014  0.2160  0.2912  1.4485
  683TMC3    C110098   0.959   2.338  11.774  0.4217 -0.1108 -0.0168
  683TMC3    C210099   0.965   2.216  11.831  0.4325  0.2623  0.2284
  683TMC3    C310100   0.891   2.117  11.769 -0.0338  0.0499  0.2121
  683TMC3    C410101   0.876   2.370  11.671 -0.3884  0.2430  0.2680
  683TMC3    C510102   0.805   2.271  11.612 -0.4046  0.2002 -0.5981
  683TMC3    C610103   0.818   2.140  11.657  0.1427 -0.3157 -0.0812
  683TMC3     C10104   0.998   2.458  11.851  0.6380  0.3928 -0.3092
  683TMC3     O10105   0.973   2.466  11.971 -0.0919  0.2658  0.1167
  683TMC3     H10106   1.029   2.206  11.918  2.0714 -2.3426 -1.2734
  683TMC3    H110107   0.875   2.473  11.640  0.1578  0.4204  0.8298
  683TMC3    H210108   0.777   2.059  11.598 -3.1822  0.9750  0.4260
  683TMC3    C710109   0.741   2.289  11.481  0.0641  0.4786  0.1933
  683TMC3    C810110   0.918   1.973  11.784 -0.2799  0.1905  0.0127
  683TMC3    O110111   0.697   2.186  11.431 -0.2959 -0.5768  0.7619
  683TMC3    O210112   0.897   1.899  11.692  0.1680 -0.0881 -0.2820
  684MPD2     C10113   3.371   2.433  16.369 -0.1595  0.3151  0.2356
  684MPD2    C110114   3.397   2.466  16.237 -0.2934 -0.2653  0.1653
  684MPD2    C210115   3.423   2.601  16.205 -0.8015  0.2944 -0.4353
  684MPD2    C310116   3.428   2.693  16.306 -1.5033  0.8903 -0.5020
  684MPD2    C410117   3.399   2.655  16.437  0.3276  0.6918 -0.2419
  684MPD2    C510118   3.367   2.525  16.472  0.2648 -0.2818 -0.2730
  684MPD2     H10119   3.461   2.619  16.105  1.8187  0.9925  0.6941
  684MPD2    H110120   3.407   2.725  16.519  0.4117  0.1131  0.2503
  684MPD2    H210121   3.357   2.329  16.393  0.6080 -0.3084 -1.9935
  684MPD2    H310122   3.349   2.481  16.569  2.3946  0.3813  0.4247
  684MPD2     N10123   3.486   2.815  16.290  0.6848 -0.0265  0.0386
  684MPD2    H510124   3.519   2.866  16.371  1.4474 -0.0814 -0.2436
  684MPD2    N110125   3.404   2.372  16.134  0.6860 -0.3697  0.3344
  684MPD2    H710126   3.401   2.412  16.041 -0.8141 -0.6348  0.2784
  685TMC3    C110127   3.443   2.158  16.035  0.1106 -0.5325  0.0805
  685TMC3    C210128   3.324   2.158  15.975  0.3444  0.3789 -0.6075
  685TMC3    C310129   3.272   2.042  15.916  0.3129  0.2853  0.3966
  685TMC3    C410130   3.524   2.048  16.054 -0.6816  0.2343  0.3522
  685TMC3    C510131   3.475   1.935  15.994  0.1795 -0.0108 -0.2830
  685TMC3    C610132   3.352   1.928  15.929  0.5503 -0.2654  0.2727
  685TMC3     C10133   3.435   2.239  16.156 -0.4232  0.3587 -0.4981
  685TMC3     O10134   3.478   2.194  16.262 -0.4192  0.0900 -0.0390
  685TMC3     H10135   3.255   2.235  16.007  1.9142 -0.0113  3.7573
  685TMC3    H110136   3.615   2.054  16.113  0.0146 -0.0722 -0.6947
  685TMC3    H210137   3.313   1.835  15.890 -1.0750 -0.0404  1.3651
  685TMC3    C710138   3.541   1.815  16.022 -0.0510 -0.0170 -0.0908
  685TMC3    C810139   3.129   2.012  15.921 -0.2582  0.2353 -0.8769
  685TMC3    O110140   3.479   1.711  15.998 -0.6066  0.0313 -0.2868
  685TMC3    O210141   3.100   1.896  15.943  0.3758  0.1205 -0.1680
  686MPD2     C10142   4.357   2.220  16.544  0.5351  0.2526 -0.2427
  686MPD2    C110143   4.336   2.157  16.421 -0.1077 -0.2955  0.0564
  686MPD2    C210144   4.423   2.056  16.388 -0.2455 -0.1585  0.7715
  686MPD2    C310145   4.529   2.024  16.470  0.8267  0.0574 -0.5203
  686MPD2    C410146   4.542   2.080  16.597 -0.3131 -0.6437  0.2979
  686MPD2    C510147   4.460   2.183  16.628  0.7495 -0.7079 -0.2141
  686MPD2     H10148   4.424   2.007  16.291 -2.7956  0.6826  0.3393
  686MPD2    H110149   4.617   2.053  16.671  1.5121  0.8814 -0.9783
  686MPD2    H210150   4.292   2.300  16.576  1.8531  1.1567  0.1672
  686MPD2    H310151   4.469   2.224  16.728  0.7710 -2.1305  0.3689
  686MPD2     N10152   4.623   1.933  16.420  0.3776  0.8074  0.5344
  686MPD2    H510153   4.603   1.905  16.325 -1.6963  0.7990  0.9841
  686MPD2    N110154   4.235   2.206  16.335  0.2389 -0.1239 -0.1197
  686MPD2    H710155   4.204   2.303  16.338 -1.5659 -0.7337  1.0597
  687TMC3    C110156   0.119   1.846  16.385 -0.6276 -0.3001  0.2684
  687TMC3    C210157   0.084   1.750  16.294  0.3982 -0.3498  0.1372
  687TMC3    C310158   0.183   1.693  16.212  0.2244  0.6599  0.1621
  687TMC3    C410159   0.247   1.881  16.406  0.2231  0.6294  0.1813
  687TMC3    C510160   0.347   1.816  16.327 -0.2448 -0.5458  0.2109
  687TMC3    C610161   0.312   1.725  16.237 -0.3805 -0.5599 -0.4484
  687TMC3     C10162   0.023   1.910  16.479  0.7734 -0.9732  0.3890
  687TMC3     O10163   0.068   1.961  16.583 -0.0496  0.1415 -0.8474
  687TMC3     H10164   4.697   1.740  16.272  0.2459  1.8172 -0.1024
  687TMC3    H110165   0.274   1.950  16.484  0.6446 -0.3884  0.9327
  687TMC3    H210166   0.390   1.679  16.176  0.0419 -0.7405  0.2342
  687TMC3    C710167   0.483   1.834  16.362  0.2249  0.2554  0.5094
  687TMC3    C810168   0.144   1.612  16.108 -1.0350 -0.4539  0.1342
  687TMC3    O110169   0.516   1.943  16.406  0.2938  0.1268  0.4159
  687TMC3    O210170   0.037   1.559  16.132 -1.2524  0.3526 -0.0514
  688MPD2     C10171   4.171   1.390  17.327  0.1209 -0.7077 -0.6433
  688MPD2    C110172   4.183   1.259  17.373  0.4296  0.1659  0.8991
  688MPD2    C210173   4.273   1.175  17.300  0.0455 -0.5225 -0.4269
  688MPD2    C310174   4.353   1.222  17.193 -0.3101  0.5105  0.4319
  688MPD2    C410175   4.348   1.354  17.167  0.8142  0.0808  0.2477
  688MPD2    C510176   4.248   1.430  17.221  0.1281  0.2585  0.2712
  688MPD2     H10177   4.270   1.068  17.319  3.0949 -0.8709 -1.9873
  688MPD2    H110178   4.415   1.385  17.087 -0.0046  1.1486 -0.0383
  688MPD2    H210179   4.125   1.474  17.379  0.5805 -2.3284  2.3419
  688MPD2    H310180   4.241   1.532  17.185 -1.0843 -0.7944 -2.4730
  688MPD2     N10181   4.444   1.144  17.116 -0.1887  0.1272 -0.3735
  688MPD2    H510182   4.496   1.204  17.053 -0.6204 -0.1218 -0.9669
  688MPD2    N110183   4.095   1.198  17.469 -0.1558 -0.0145 -0.7789
  688MPD2    H710184   4.101   1.097  17.483  0.3388 -0.1481 -1.9702
  689TMC3    C110185   3.937   1.216  17.648 -0.6564  1.0371 -0.6597
  689TMC3    C210186   3.856   1.304   0.038  0.6335 -0.4767  0.1542
  689TMC3    C310187   3.789   1.248   0.143  0.3477 -0.3248  0.1447
  689TMC3    C410188   3.964   1.085   0.012  0.8254 -0.0009 -0.1421
  689TMC3    C510189   3.895   1.040   0.122 -0.5579  0.0161 -0.0657
  689TMC3    C610190   3.800   1.116   0.183 -0.6858 -0.2341 -0.8189
  689TMC3     C10191   3.997   1.269  17.529  0.5472  0.2471  0.0519
  689TMC3     O10192   3.950   1.379  17.497 -0.0667  0.1473  0.3629
  689TMC3     H10193   3.853   1.408   0.010 -1.0521 -0.4719  0.3078
  689TMC3    H110194   4.012   1.012  17.627  2.2792  1.2474 -0.4720
  689TMC3    H210195   3.737   1.078   0.263  0.3181 -0.7667 -0.2869
  689TMC3    C710196   3.891   0.900   0.146  0.2439  0.9157  0.7392
  689TMC3    C810197   3.707   1.329   0.233  0.4339  0.3946  0.0504
  689TMC3    O110198   3.977   0.858   0.221 -0.1919  0.0384  0.6556
  689TMC3    O210199   3.706   1.288   0.348  0.4169 -0.5346  0.7319
  690MPD2     C10200   1.408   3.369  16.379 -0.3100 -0.9700  0.0842
  690MPD2    C110201   1.393   3.280  16.275  0.3103  0.1079 -0.4396
  690MPD2    C210202   1.461   3.311  16.157 -0.2136  0.3998  0.8548
  690MPD2    C310203   1.557   3.410  16.151  0.4289 -0.0189 -0.1544
  690MPD2    C410204   1.572   3.491  16.262  0.8166 -0.2652 -0.5962
  690MPD2    C510205   1.494   3.478  16.368  0.0560  0.5112  0.2985
  690MPD2     H10206   1.461   3.245  16.071  5.0324  0.7113  0.6080
  690MPD2    H110207   1.643   3.572  16.267  1.3925 -0.7228 -1.2860
  690MPD2    H210208   1.363   3.343  16.474 -2.0952 -0.4278 -0.6265
  690MPD2    H310209   1.512   3.538  16.457  0.3457  1.3499 -0.3312
  690MPD2     N10210   1.651   3.405  16.043 -0.4978 -0.4104  0.1242
  690MPD2    H510211   1.639   3.329  15.977  1.3030 -0.4666 -0.1378
  690MPD2    N110212   1.321   3.154  16.287  0.8839 -0.7467  0.6249
  690MPD2    H710213   1.331   3.088  16.210 -0.9399  2.5982 -2.4694
  691TMC3    C110214   1.189   2.979  16.394 -0.3668  0.1183  0.1842
  691TMC3    C210215   1.068   2.967  16.452 -0.4295  0.0989 -0.5830
  691TMC3    C310216   0.996   2.858  16.424  1.0566 -0.1659 -0.1076
  691TMC3    C410217   1.232   2.887  16.302 -0.2421 -0.3575  0.4295
  691TMC3    C510218   1.162   2.767  16.282 -0.5515 -0.7347 -0.3338
  691TMC3    C610219   1.037   2.753  16.339  0.5801  0.0334 -0.6781
  691TMC3     C10220   1.244   3.116  16.395  0.8126 -0.9957 -0.4975
  691TMC3     O10221   1.218   3.176  16.498  0.0953  0.4362  0.0334
  691TMC3     H10222   1.022   3.043  16.514  1.3951  0.7175  0.0367
  691TMC3    H110223   1.337   2.878  16.274 -0.0254  1.8571  0.5303
  691TMC3    H210224   0.974   2.664  16.342  1.0631 -0.2837  0.0617
  691TMC3    C710225   1.218   2.668  16.191  0.5258 -0.4035  0.5729
  691TMC3    C810226   0.856   2.857  16.462 -0.0792  0.0502  0.0633
  691TMC3    O110227   1.328   2.687  16.146  0.8806  0.2477  0.1304
  691TMC3    O210228   0.818   2.755  16.521 -0.0321 -0.2774 -0.0538
  692TMC3    C110229   3.275   4.151  15.994 -0.3597 -0.4079 -0.1854
  692TMC3    C210230   3.364   4.121  16.094  0.0185  0.2695 -1.0503
  692TMC3    C310231   3.478   4.059  16.058 -0.3330 -0.0471 -0.6485
  692TMC3    C410232   3.278   4.102  15.871 -0.3700  0.2167 -0.3045
  692TMC3    C510233   3.382   4.016  15.841  0.3842  0.1771  0.8397
  692TMC3    C610234   3.474   3.992  15.936  0.5387 -0.0020  0.4730
  692TMC3     C10235   3.178   4.264  16.018  0.0099  0.0332 -0.3016
  692TMC3     O10236   3.074   4.269  15.956  0.0426 -0.4610  0.1104
  692TMC3     H10237   3.347   4.180  16.183  0.1314  0.1238 -0.9322
  692TMC3    H110238   3.198   4.123  15.801 -0.7830  2.1096  0.7517
  692TMC3    H210239   3.568   3.945  15.909  0.3112 -0.7055  0.8953
  692TMC3    C710240   3.347   3.903  15.758  0.1950 -0.1819 -0.2694
  692TMC3    C810241   3.530   3.974  16.170  0.3650 -0.8863 -0.2955
  692TMC3    O110242   3.256   3.915  15.675  0.1331  0.2514 -0.0834
  692TMC3    O210243   3.557   3.860  16.140 -0.6249 -0.2108  0.3853
  693MPD2     C10244   2.929   1.483  10.311 -0.3110 -0.0675 -0.3190
  693MPD2    C110245   2.925   1.436  10.443  0.0443  0.8242  0.2149
  693MPD2    C210246   3.037   1.390  10.507 -0.5971 -0.2215  0.5917
  693MPD2    C310247   3.160   1.402  10.443  0.2836  0.6548  0.6313
  693MPD2    C410248   3.167   1.450  10.316  0.0486  0.1466 -0.2897
  693MPD2    C510249   3.051   1.490  10.251  0.4153 -0.4335 -0.0614
  693MPD2     H10250   3.018   1.344  10.604  0.7486 -2.6694 -0.2932
  693MPD2    H110251   3.267   1.472  10.281 -0.2068  2.0966  0.2430
  693MPD2    H210252   2.844   1.522  10.256 -0.0895 -0.1966 -0.7516
  693MPD2    H310253   3.069   1.529  10.151  0.1415  0.0990  0.0993
  693MPD2     N10254   3.286   1.377  10.516 -0.1200 -0.2671 -0.0527
  693MPD2    H510255   3.377   1.400  10.477 -1.6789  2.5765 -1.9747
  693MPD2    N110256   2.814   1.434  10.528 -0.0382  0.3004 -0.4936
  693MPD2    H710257   2.828   1.426  10.628  1.1427  0.5225 -0.6445
  694TMC3    C110258   2.590   1.448  10.591 -0.5178  0.2735  0.0366
  694TMC3    C210259   2.469   1.400  10.556 -0.1309  0.2904 -0.4563
  694TMC3    C310260   2.382   1.380  10.655 -0.1650 -0.5833  0.0878
  694TMC3    C410261   2.624   1.474  10.720  0.1089  0.4382  0.0471
  694TMC3    C510262   2.535   1.436  10.817  0.3216 -0.7463 -0.1334
  694TMC3    C610263   2.415   1.388  10.785 -0.1045 -0.1889 -0.5420
  694TMC3     C10264   2.686   1.447  10.485 -0.6098  0.2782 -0.2349
  694TMC3     O10265   2.651   1.446  10.370 -0.1828  0.5884 -0.2385
  694TMC3     H10266   2.443   1.371  10.455  1.3423 -1.0443 -0.4550
  694TMC3    H110267   2.721   1.519  10.738  0.4747 -1.5516  3.0267
  694TMC3    H210268   2.338   1.351  10.852 -0.0195  1.9282  0.7229
  694TMC3    C710269   2.572   1.442  10.953  1.1269  0.2587 -0.1996
  694TMC3    C810270   2.267   1.302  10.621 -0.4165  0.5711 -0.0644
  694TMC3    O110271   2.675   1.501  10.984  0.0528  0.1634  0.3661
  694TMC3    O210272   2.228   1.216  10.695 -0.7853 -0.1555  0.4351
  695MPD2     C10273   3.754   3.597  13.477  0.5560  0.6647 -0.2556
  695MPD2    C110274   3.691   3.650  13.588  0.8796  0.3467  0.7107
  695MPD2    C210275   3.560   3.688  13.572  0.3373 -0.0034  0.0026
  695MPD2    C310276   3.506   3.702  13.446  0.6848 -0.1813  0.0279
  695MPD2    C410277   3.584   3.657  13.337  0.9428 -0.0209 -0.4314
  695MPD2    C510278   3.707   3.597  13.349 -0.0849  0.6470  0.0161
  695MPD2     H10279   3.505   3.715  13.661  1.1338  1.2762  0.1035
  695MPD2    H110280   3.542   3.655  13.237 -0.7615  0.9814  0.2636
  695MPD2    H210281   3.855   3.559  13.489  0.2148  0.1055  0.8665
  695MPD2    H310282   3.758   3.550  13.266 -1.4636  2.1622 -1.6945
  695MPD2     N10283   3.373   3.758  13.437  0.7435 -0.2093 -0.0692
  695MPD2    H510284   3.332   3.772  13.529  1.1476 -1.7146  0.3427
  695MPD2    N110285   3.762   3.659  13.711  0.9605  0.2637 -0.5791
  695MPD2    H710286   3.707   3.705  13.783 -2.1514 -1.5559 -1.8112
  696TMC3    C110287   3.174   3.811  13.336  0.8102 -0.2910 -0.3262
  696TMC3    C210288   3.107   3.782  13.453 -0.4302  0.2117 -0.4833
  696TMC3    C310289   3.001   3.863  13.480  0.7669 -0.3020 -0.0683
  696TMC3    C410290   3.142   3.916  13.256 -0.1458 -0.0693  0.0670
  696TMC3    C510291   3.036   3.996  13.290 -0.0874  0.1277  0.4800
  696TMC3    C610292   2.960   3.966  13.399 -0.2276 -0.4413 -0.0395
  696TMC3     C10293   3.305   3.758  13.324 -0.5648 -0.0664  0.1385
  696TMC3     O10294   3.339   3.765  13.210  0.5896 -0.1289  0.3150
  696TMC3     H10295   3.145   3.700  13.513 -0.5209 -0.2198 -1.0221
  696TMC3    H110296   3.206   3.934  13.169 -1.2080  1.0815 -0.4747
  696TMC3    H210297   2.870   4.022  13.422  0.6444  0.4132  1.2860
  696TMC3    C710298   3.058   4.139  13.289 -0.0450 -0.5715 -0.3207
  696TMC3    C810299   2.997   3.919  13.620  0.1324 -0.7342  0.1158
  696TMC3    O110300   3.095   4.191  13.184  0.3310 -0.7414 -0.0622
  696TMC3    O210301   2.972   4.037  13.625 -0.0763 -0.0575 -0.8084
  697MPD2     C10302   2.628   1.146  15.788  0.8138 -0.1458 -0.2020
  697MPD2    C110303   2.611   1.069  15.673 -0.1866  0.0722 -0.0560
  697MPD2    C210304   2.613   1.135  15.540  0.3181  0.3946 -0.8948
  697MPD2    C310305   2.653   1.272  15.543 -0.7629  0.3170  0.2254
  697MPD2    C410306   2.665   1.336  15.663 -0.0826  0.0599  0.0223
  697MPD2    C510307   2.660   1.275  15.782 -0.4460 -0.2963  0.1780
  697MPD2     H10308   2.610   1.077  15.449  0.1044 -0.0376 -0.6124
  697MPD2    H110309   2.700   1.439  15.660  2.7210 -0.9321 -0.9385
  697MPD2    H210310   2.618   1.114  15.891 -1.8295  0.3652 -0.2947
  697MPD2    H310311   2.679   1.328  15.874 -0.2073 -1.2350  0.6781
  697MPD2     N10312   2.661   1.346  15.421 -0.2969  0.8131  0.4708
  697MPD2    H510313   2.617   1.305  15.339 -0.3694 -2.6840  2.2735
  697MPD2    N110314   2.583   0.929  15.683 -0.4363 -0.1702  0.6330
  697MPD2    H710315   2.585   0.882  15.593  0.4080  0.8678  0.1158
  698TMC3    C110316   2.699   1.525  15.258  0.9305 -0.2446 -0.4649
  698TMC3    C210317   2.772   1.640  15.230  0.2094  0.4349 -1.0303
  698TMC3    C310318   2.752   1.688  15.098  0.3607  0.7933  0.0163
  698TMC3    C410319   2.599   1.466  15.176 -0.3460 -0.4544  0.3160
  698TMC3    C510320   2.591   1.521  15.049  0.2176 -0.5848 -0.8556
  698TMC3    C610321   2.663   1.635  15.012 -0.2779  0.1647 -0.4794
  698TMC3     C10322   2.709   1.475  15.399  0.4639  0.8000 -0.1053
  698TMC3     O10323   2.776   1.541  15.477 -0.1862 -0.1353 -0.7311
  698TMC3     H10324   2.837   1.688  15.302 -1.5739  2.8928 -1.0474
  698TMC3    H110325   2.538   1.384  15.211  0.8233 -1.7508 -0.7229
  698TMC3    H210326   2.641   1.680  14.916 -0.2454  0.1208 -0.5076
  698TMC3    C710327   2.539   1.438  14.939  0.1184 -0.1209 -0.1194
  698TMC3    C810328   2.815   1.811  15.051  0.2050  0.2184  0.3075
  698TMC3    O110329   2.527   1.487  14.829 -0.0876 -0.4417  0.3001
  698TMC3    O210330   2.774   1.869  14.950 -0.6894  0.4206  0.3545
  699TMC3    C110331   3.312   3.709  12.820  0.4473  0.4237 -0.3408
  699TMC3    C210332   3.353   3.593  12.877 -0.0196  0.4552  0.0861
  699TMC3    C310333   3.270   3.547  12.979  0.9399  0.3318  0.4155
  699TMC3    C410334   3.189   3.767  12.841 -0.1071  0.7331  0.8661
  699TMC3    C510335   3.108   3.700  12.931 -0.0985 -0.7523 -0.0555
  699TMC3    C610336   3.145   3.584  12.999 -0.9643 -0.1484  0.0667
  699TMC3     C10337   3.398   3.764  12.722  0.0659 -0.8450 -0.0173
  699TMC3     O10338   3.348   3.825  12.626 -0.5744 -0.1265 -0.6288
  699TMC3     H10339   3.440   3.532  12.855 -0.4998 -0.6191  1.2205
  699TMC3    H110340   3.155   3.858  12.793  0.9660  1.0664  0.7346
  699TMC3    H210341   3.095   3.558  13.091  0.3172 -0.3762  0.7033
  699TMC3    C710342   2.976   3.748  12.968 -0.6295  0.0054  0.1624
  699TMC3    C810343   3.288   3.410  13.029  0.2597 -0.0425  0.3640
  699TMC3    O110344   2.907   3.665  13.027  0.2454  0.0825 -0.0158
  699TMC3    O210345   3.404   3.389  13.058 -0.0720  0.4321  0.1358
  700TMC3    C110346   1.649   1.721  17.294  1.0008 -0.1537 -0.5729
  700TMC3    C210347   1.611   1.597  17.343 -0.2261 -0.4098 -0.1574
  700TMC3    C310348   1.632   1.560  17.470  0.3749 -0.1287 -0.5138
  700TMC3    C410349   1.725   1.801  17.373 -0.6711  0.0666 -0.1130
  700TMC3    C510350   1.768   1.751  17.496 -0.4425 -0.2179 -0.3132
  700TMC3    C610351   1.716   1.629  17.550 -0.3192 -0.3945 -0.2100
  700TMC3     C10352   1.635   1.748  17.147  0.8733  0.0414  0.6723
  700TMC3     O10353   1.545   1.687  17.093  0.0376 -0.2978  0.4049
  700TMC3     H10354   1.553   1.545  17.268 -0.5423  1.3796 -1.1689
  700TMC3    H110355   1.750   1.902  17.343  0.8244 -0.5505 -0.9410
  700TMC3    H210356   1.752   1.587  17.643 -2.0046 -1.3713  0.0043
  700TMC3    C710357   1.853   1.826  17.591 -0.7463 -0.1838 -0.1074
  700TMC3    C810358   1.660   1.419  17.469  0.0873 -0.4413 -0.3223
  700TMC3    O110359   1.834   1.817   0.032 -0.5467  0.6216  0.3415
  700TMC3    O210360   1.672   1.365  17.358  0.2818 -0.7206  0.3390
  701TMC3    C110361   1.809   0.011  15.557 -0.5483 -0.7938 -0.3488
  701TMC3    C210362   1.786   0.024  15.426 -0.1866 -0.3031  0.0837
  701TMC3    C310363   1.889   0.084  15.362 -0.0862  0.3684 -0.2628
  701TMC3    C410364   1.917   0.055  15.620  0.1351  0.2584  0.0320
  701TMC3    C510365   2.021   0.104  15.547 -0.3178  0.7213  0.1456
  701TMC3    C610366   2.009   0.120  15.414  0.0464 -0.2178 -0.3225
  701TMC3     C10367   1.708   4.679  15.652 -0.3660  0.0874  0.0956
  701TMC3     O10368   1.730   4.706  15.769 -0.1273 -0.6204  0.2455
  701TMC3     H10369   1.688   0.002  15.386 -0.3325 -0.1169  0.3417
  701TMC3    H110370   1.938   0.048  15.726 -2.7347 -0.0157  0.5750
  701TMC3    H210371   2.086   0.172  15.358 -0.8249 -0.2953 -1.5930
  701TMC3    C710372   2.102   0.211  15.603  0.0483  0.5580  0.2668
  701TMC3    C810373   1.881   0.111  15.224  0.8039  0.3455 -0.2822
  701TMC3    O110374   2.215   0.241  15.565  0.2302 -0.2088 -0.1550
  701TMC3    O210375   1.988   0.133  15.170 -0.4234  0.6385 -0.1698
  702MPD2     C10376   2.008   1.965  10.890 -0.2051  0.4270 -0.1563
  702MPD2    C110377   1.900   2.047  10.916  0.4814  0.0500  0.0167
  702MPD2    C210378   1.886   2.158  10.840 -0.1681  0.3610  1.0663
  702MPD2    C310379   1.982   2.188  10.749  0.2434 -0.6048 -0.5534
  702MPD2    C410380   2.097   2.111  10.738  0.2765 -0.3516 -0.3332
  702MPD2    C510381   2.107   1.993  10.798  0.2831 -0.0988 -0.1629
  702MPD2     H10382   1.795   2.211  10.865 -0.4102  0.9956 -1.1776
  702MPD2    H110383   2.177   2.136  10.668  0.5313 -1.3051 -0.3843
  702MPD2    H210384   2.021   1.876  10.951 -0.6835  0.8432  0.5423
  702MPD2    H310385   2.199   1.937  10.795 -0.1389 -0.8569  0.7766
  702MPD2     N10386   1.977   2.295  10.658 -0.4240  0.1565  0.3246
  702MPD2    H510387   2.062   2.321  10.609 -0.7417  2.5901  1.0451
  702MPD2    N110388   1.793   2.015  11.011 -0.3181 -0.3467 -0.1496
  702MPD2    H710389   1.713   2.076  11.021 -0.4610 -0.7382  1.1326
  703TMC3    C110390   1.888   2.495  10.560  0.0538  0.4810 -0.3746
  703TMC3    C210391   1.794   2.593  10.601  0.1265 -0.0048 -0.3955
  703TMC3    C310392   1.827   2.720  10.574  0.6583  0.3018 -0.0369
  703TMC3    C410393   1.992   2.517  10.479  0.5313  0.3071  0.3918
  703TMC3    C510394   2.023   2.653  10.455 -0.0135 -1.2567  0.4143
  703TMC3    C610395   1.946   2.751  10.507  0.6555 -0.1777 -0.2785
  703TMC3     C10396   1.866   2.376  10.636 -0.2510  1.1158 -0.2083
  703TMC3     O10397   1.750   2.353  10.673  0.0825 -0.2910 -0.1099
  703TMC3     H10398   1.712   2.561  10.665 -1.3586  1.2135 -1.7081
  703TMC3    H110399   2.057   2.437  10.445 -0.6905 -0.9715  1.1083
  703TMC3    H210400   1.980   2.853  10.504  0.3677  0.0009  2.3692
  703TMC3    C710401   2.166   2.672  10.412  0.1910 -0.4746 -0.0212
  703TMC3    C810402   1.729   2.824  10.604 -0.0321  0.2232  0.0636
  703TMC3    O110403   2.234   2.571  10.403  0.4850 -0.1007 -0.0018
  703TMC3    O210404   1.736   2.929  10.542  0.8678 -0.1679  0.2821
  704TMC3    C110405   4.174   0.573  12.440  0.2275  0.2361 -0.4140
  704TMC3    C210406   4.297   0.629  12.436 -0.4003  0.5846  0.3224
  704TMC3    C310407   4.398   0.555  12.478  0.3058  0.3230  0.3323
  704TMC3    C410408   4.153   0.450  12.492 -0.2019  0.2968 -0.0801
  704TMC3    C510409   4.256   0.392  12.547  0.4439  0.3450  0.0894
  704TMC3    C610410   4.383   0.436  12.538  0.5880  0.1132 -0.9658
  704TMC3     C10411   4.061   0.629  12.357 -0.0343  0.2625  0.1184
  704TMC3     O10412   3.940   0.610  12.377 -0.8388  0.0254 -0.0473
  704TMC3     H10413   4.310   0.735  12.418  0.1846  0.4348 -0.1627
  704TMC3    H110414   4.051   0.415  12.497  0.4419 -1.4796  0.5634
  704TMC3    H210415   4.461   0.384  12.591 -2.4672 -1.3961  2.0486
  704TMC3    C710416   4.252   0.252  12.547  0.8924  0.0801 -0.7984
  704TMC3    C810417   4.525   0.580  12.409 -0.2899 -0.0464  0.0678
  704TMC3    O110418   4.351   0.181  12.569  0.0232  0.3116  0.3000
  704TMC3    O210419   4.504   0.615  12.293  0.1721 -0.1883 -0.2900
  705MPD2     C10420   4.023   3.477  16.537  0.1639  0.0843 -0.7081
  705MPD2    C110421   3.940   3.521  16.436  0.2916 -0.0931 -0.0792
  705MPD2    C210422   3.806   3.494  16.446  0.1968  0.0714  0.0372
  705MPD2    C310423   3.755   3.438  16.558 -0.9363 -0.0405  0.2547
  705MPD2    C410424   3.834   3.409  16.664  0.3983  0.2562 -0.0184
  705MPD2    C510425   3.969   3.412  16.643  0.1244 -0.1764 -0.2132
  705MPD2     H10426   3.742   3.536  16.369 -1.8614 -0.6982  1.3123
  705MPD2    H110427   3.797   3.375  16.760  0.1699  1.1663  0.2150
  705MPD2    H210428   4.131   3.471  16.531  0.2340 -0.9586  1.4549
  705MPD2    H310429   4.039   3.366  16.711 -0.6251  0.6161  1.0946
  705MPD2     N10430   3.622   3.418  16.578  0.4050  0.5198 -0.6813
  705MPD2    H510431   3.596   3.383  16.670  1.4021 -0.8569 -0.9244
  705MPD2    N110432   3.977   3.609  16.337  0.6482 -0.5314  0.2051
  705MPD2    H710433   3.908   3.639  16.269  0.3210 -1.5231  0.1078
  706TMC3    C110434   4.149   3.726  15.980  0.4072  0.3389  0.2819
  706TMC3    C210435   4.053   3.813  15.948 -0.1692  0.9645 -0.2058
  706TMC3    C310436   3.982   3.862  16.057 -0.2308  0.4501 -0.1790
  706TMC3    C410437   4.183   3.685  16.107 -0.1963  0.1737  0.2180
  706TMC3    C510438   4.105   3.738  16.202  0.0316 -0.2528 -0.1448
  706TMC3    C610439   4.011   3.825  16.186 -0.3622 -0.5692 -0.1339
  706TMC3     C10440   4.222   3.661  15.876 -0.3766 -0.3897  0.3596
  706TMC3     O10441   4.334   3.618  15.907 -0.0267  0.6068  0.2709
  706TMC3     H10442   4.020   3.839  15.849 -2.8300  3.3853  1.3187
  706TMC3    H110443   4.259   3.610  16.125 -0.4398  0.2407  1.5206
  706TMC3    H210444   3.940   3.850  16.264  0.7291  3.3809 -0.3931
  706TMC3    C710445   4.101   3.657  16.317  0.1299 -0.6179  0.2799
  706TMC3    C810446   3.884   3.965  16.036  0.0019  0.2254  0.1013
  706TMC3    O110447   4.201   3.644  16.389 -0.7555 -0.0795 -0.2239
  706TMC3    O210448   3.851   3.995  15.920  0.3053 -0.0157  0.4128
  707TMC3    C110449   0.804   2.576   2.252  0.0077  0.0876 -1.0733
  707TMC3    C210450   0.748   2.638   2.146 -0.4303  0.0922 -0.3420
  707TMC3    C310451   0.614   2.603   2.112  0.2113 -0.5031  0.3962
  707TMC3    C410452   0.734   2.485   2.328  0.6160 -0.1099  0.5062
  707TMC3    C510453   0.612   2.450   2.285 -0.3904 -0.2417  0.0294
  707TMC3    C610454   0.547   2.510   2.182  0.1114  0.4568  0.2834
  707TMC3     C10455   0.940   2.611   2.274  0.2677 -0.0155  0.2556
  707TMC3     O10456   1.004   2.663   2.182  0.3946 -0.5432  0.0065
  707TMC3     H10457   0.808   2.710   2.093  1.9261 -1.1387  0.6915
  707TMC3    H110458   0.787   2.427   2.403 -0.2206 -2.5107 -0.7452
  707TMC3    H210459   0.444   2.484   2.163 -0.2656  2.0964  0.1223
  707TMC3    C710460   0.556   2.331   2.353  0.2084 -0.3732  0.3890
  707TMC3    C810461   0.597   2.584   1.969 -0.3628  0.2594  0.0287
  707TMC3    O110462   0.612   2.280   2.449  0.0021  0.8030  0.0472
  707TMC3    O210463   0.484   2.590   1.923  0.3064 -0.2682 -0.7435
  708MPD2     C10464   1.982   1.999  14.818 -0.8416 -0.0893 -0.0312
  708MPD2    C110465   1.930   2.057  14.701 -0.1600 -0.2911  0.4079
  708MPD2    C210466   1.890   2.188  14.707  0.5645  0.1292  0.2639
  708MPD2    C310467   1.920   2.264  14.816  0.1148 -0.4545 -0.6509
  708MPD2    C410468   1.960   2.199  14.926  0.0657 -0.5033  0.8879
  708MPD2    C510469   1.992   2.068  14.933 -0.0700 -0.3405 -0.3029
  708MPD2     H10470   1.864   2.230  14.610  1.3667 -2.0094 -0.8704
  708MPD2    H110471   1.969   2.241  15.026  1.7534  2.5958 -0.5541
  708MPD2    H210472   2.005   1.894  14.824 -3.6031 -0.6428  0.8321
  708MPD2    H310473   2.015   2.027  15.031 -0.4800  2.0563  0.8157
  708MPD2     N10474   1.896   2.405  14.815  0.8570  0.6987  0.3445
  708MPD2    H510475   1.877   2.450  14.726  0.3586  1.6123  0.9046
  708MPD2    N110476   1.920   1.978  14.582  0.5532 -0.4838 -0.7169
  708MPD2    H710477   1.978   1.895  14.574 -1.9345 -2.4098  1.2965
  709TMC3    C110478   1.906   1.961  14.348 -0.0343  0.3417  0.4262
  709TMC3    C210479   1.818   1.925  14.242 -0.3490  0.3726  0.2942
  709TMC3    C310480   1.857   1.959  14.114  1.3763  1.0939  1.0561
  709TMC3    C410481   2.011   2.041  14.322 -0.0246  0.0174 -0.7346
  709TMC3    C510482   2.034   2.086  14.189 -0.0366 -0.7448 -0.0366
  709TMC3    C610483   1.962   2.041  14.081  0.0307  0.0645  0.5303
  709TMC3     C10484   1.851   2.018  14.472 -0.0815 -0.6496  0.3234
  709TMC3     O10485   1.751   2.086  14.459 -0.3228 -0.2370  0.0615
  709TMC3     H10486   1.728   1.871  14.266  0.5885 -0.9403  0.8637
  709TMC3    H110487   2.048   2.091  14.410 -0.9254 -0.2796 -0.1889
  709TMC3    H210488   1.995   2.068  13.981 -2.0190  2.3554  0.4814
  709TMC3    C710489   2.054   2.227  14.200 -0.7405 -0.1463  0.1006
  709TMC3    C810490   1.777   1.894  14.008  0.4800  0.5319  0.5937
  709TMC3    O110491   2.125   2.272  14.287  0.0870  0.2561 -0.3350
  709TMC3    O210492   1.689   1.829  14.049 -0.0525 -0.6813  0.0019
  710TMC3    C110493   2.815   3.564   0.592 -0.0333 -0.2637 -0.2985
  710TMC3    C210494   2.789   3.496   0.480 -0.8007  0.2100 -0.5397
  710TMC3    C310495   2.829   3.364   0.479  0.3575 -0.3920  0.0306
  710TMC3    C410496   2.901   3.519   0.694  0.5126  0.4138 -0.6574
  710TMC3    C510497   2.928   3.382   0.693 -0.1657  0.3301  0.1700
  710TMC3    C610498   2.900   3.307   0.581  0.3803  0.1539 -0.3276
  710TMC3     C10499   2.801   3.705   0.595 -0.0749 -0.0503  0.4830
  710TMC3     O10500   2.808   3.768   0.488 -0.0763  0.2774 -0.3358
  710TMC3     H10501   2.726   3.537   0.402  0.2414 -0.5700 -1.7760
  710TMC3    H110502   2.960   3.585   0.757  0.0968 -2.1316  2.3974
  710TMC3    H210503   2.902   3.199   0.588  0.8934  0.0559 -2.0080
  710TMC3    C710504   3.014   3.331   0.796  0.3710 -0.7952 -0.7033
  710TMC3    C810505   2.840   3.306   0.347  0.5266 -0.6483  0.0301
  710TMC3    O110506   3.012   3.393   0.904 -0.0607 -0.5987 -0.0386
  710TMC3    O210507   2.935   3.228   0.328  1.0291 -0.3285  0.1402
  711TMC3    C110508   2.486   0.103  14.990 -0.4079  0.9080 -0.0148
  711TMC3    C210509   2.526   0.154  15.115  0.0572 -0.6863 -0.1839
  711TMC3    C310510   2.652   0.144  15.159  0.6387  0.0295  1.0164
  711TMC3    C410511   2.581   0.035  14.919  0.2804 -0.1430  0.3316
  711TMC3    C510512   2.707   0.011  14.965 -0.2705  0.1994  0.2557
  711TMC3    C610513   2.741   0.067  15.086 -0.3672 -0.2818 -0.0969
  711TMC3     C10514   2.388   0.000  15.011 -0.6247 -0.2534 -1.1884
  711TMC3     O10515   2.370   4.649  14.916 -0.1401  0.2309  0.0000
  711TMC3     H10516   2.453   0.214  15.168 -0.4902 -0.1268 -1.5795
  711TMC3    H110517   2.558   0.002  14.818  0.3048 -1.1676  0.6638
  711TMC3    H210518   2.841   0.050  15.125 -0.1262  0.1480 -0.5346
  711TMC3    C710519   2.770   4.601  14.939 -0.0345  0.3747  0.1049
  711TMC3    C810520   2.667   0.138  15.302 -0.3698  0.0819  0.2066
  711TMC3    O110521   2.889   4.590  14.975  0.2574  0.2035 -0.9393
  711TMC3    O210522   2.560   0.145  15.364  0.2635 -0.2032 -0.0006
  712MPD2     C10523   3.313   0.910  13.716  0.4797  0.5873 -0.0556
  712MPD2    C110524   3.410   0.971  13.632 -0.1247 -0.0453  0.4286
  712MPD2    C210525   3.483   1.085  13.674  0.4620 -0.0332  0.4008
  712MPD2    C310526   3.459   1.128  13.803  0.3917  0.4407 -0.6438
  712MPD2    C410527   3.377   1.053  13.890 -0.0757  0.3291 -0.2509
  712MPD2    C510528   3.302   0.941  13.848  0.3453  0.2995  0.1778
  712MPD2     H10529   3.558   1.134  13.613 -0.0602  0.8975  0.4948
  712MPD2    H110530   3.358   1.082  13.993  1.1142 -0.9833  0.3241
  712MPD2    H210531   3.240   0.838  13.681  0.5061 -0.4177  1.9718
  712MPD2    H310532   3.220   0.907  13.910  1.0166 -1.9869 -0.1820
  712MPD2     N10533   3.525   1.245  13.850  0.5188 -0.5020  0.0439
  712MPD2    H510534   3.521   1.254  13.951  0.0015  2.1930 -0.2262
  712MPD2    N110535   3.408   0.916  13.503  0.0156  0.0732 -0.1534
  712MPD2    H710536   3.337   0.844  13.493 -1.3596  1.3103  0.6435
  713TMC3    C110537   3.675   1.433  13.837 -0.8895 -0.4190  0.3007
  713TMC3    C210538   3.757   1.392  13.939 -0.4392  0.0730 -0.3239
  713TMC3    C310539   3.882   1.455  13.948 -0.3916  0.3076 -0.7653
  713TMC3    C410540   3.717   1.540  13.750 -0.6466  0.7675 -0.6443
  713TMC3    C510541   3.839   1.599  13.766 -0.7973  0.3845 -0.2523
  713TMC3    C610542   3.922   1.559  13.864  0.3014 -0.5723 -0.0276
  713TMC3     C10543   3.574   1.349  13.768 -0.0855  0.5431  0.7099
  713TMC3     O10544   3.554   1.359  13.647 -0.2630 -0.1667  0.6838
  713TMC3     H10545   3.732   1.309  14.004  0.1474  1.0307  1.1355
  713TMC3    H110546   3.650   1.562  13.667 -1.9075 -1.1182 -0.1306
  713TMC3    H210547   4.023   1.599  13.870 -0.5458  1.5252  0.2594
  713TMC3    C710548   3.910   1.665  13.651 -0.3365 -0.7894 -0.2860
  713TMC3    C810549   3.979   1.391  14.032  0.1674  0.0876 -0.3983
  713TMC3    O110550   4.002   1.742  13.668  0.7591  0.0725  0.3319
  713TMC3    O210551   3.932   1.351  14.139 -0.7980  0.2280 -0.0778
  714MPD2     C10552   1.254   3.780   1.997  0.0289  0.1696  0.2041
  714MPD2    C110553   1.307   3.774   1.865  0.3298 -0.2421  0.2972
  714MPD2    C210554   1.217   3.728   1.770  0.1065 -0.3159 -1.0330
  714MPD2    C310555   1.089   3.674   1.798  0.5263  0.6757 -0.4699
  714MPD2    C410556   1.053   3.670   1.931  0.2539  0.1149 -0.2458
  714MPD2    C510557   1.132   3.722   2.033 -0.0856  0.5649  0.3760
  714MPD2     H10558   1.224   3.733   1.662 -2.2363 -0.1707 -1.1701
  714MPD2    H110559   0.955   3.638   1.963  1.1256  0.2372  2.6026
  714MPD2    H210560   1.300   3.831   2.081 -0.0006 -0.0524  0.3558
  714MPD2    H310561   1.108   3.717   2.138 -0.6849  3.6570  0.3745
  714MPD2     N10562   1.000   3.629   1.692  0.3052 -0.0095 -0.7053
  714MPD2    H510563   1.031   3.660   1.600 -0.3919  0.1069 -0.9008
  714MPD2    N110564   1.437   3.824   1.834 -0.0118 -0.0543 -0.1161
  714MPD2    H710565   1.471   3.883   1.909 -0.3436  0.2981 -0.2386
  715TMC3    C110566   1.630   3.870   1.709  0.1875 -0.2574 -0.5881
  715TMC3    C210567   1.707   3.818   1.612  0.5018  0.3107  0.4324
  715TMC3    C310568   1.803   3.900   1.565  0.2014  0.6099 -0.3004
  715TMC3    C410569   1.647   4.000   1.765  0.2805 -0.5534  0.3333
  715TMC3    C510570   1.752   4.069   1.715  0.0751  0.8222  0.0301
  715TMC3    C610571   1.826   4.024   1.611 -0.2774  0.2490 -0.2442
  715TMC3     C10572   1.500   3.815   1.714 -0.1691  0.0019 -0.2934
  715TMC3     O10573   1.470   3.752   1.615  0.4923 -0.4684  0.2298
  715TMC3     H10574   1.692   3.719   1.570 -2.4872  1.0774 -0.2629
  715TMC3    H110575   1.570   4.041   1.829  1.4079  1.0522  0.6723
  715TMC3    H210576   1.910   4.081   1.574 -0.7760  1.6281  0.7210
  715TMC3    C710577   1.796   4.186   1.785  0.3877 -0.6999  0.6194
  715TMC3    C810578   1.879   3.845   1.450 -0.5852 -0.0857  0.8336
  715TMC3    O110579   1.863   4.263   1.722  0.0208 -0.1164  0.1864
  715TMC3    O210580   1.835   3.740   1.402  0.9288  0.4243  0.2200
  716MPD2     C10581   1.694   1.610  10.007  0.5703 -0.0816  0.2315
  716MPD2    C110582   1.783   1.664   9.917 -0.8344 -0.4299 -0.4897
  716MPD2    C210583   1.871   1.586   9.848 -0.8938  0.2716  0.5942
  716MPD2    C310584   1.867   1.448   9.867  0.0529  0.2654 -0.6178
  716MPD2    C410585   1.779   1.400   9.964 -0.1314 -0.7516 -0.0044
  716MPD2    C510586   1.687   1.479  10.022  0.3789 -0.0365 -0.4471
  716MPD2     H10587   1.943   1.630   9.780 -1.1390  0.5952  0.5474
  716MPD2    H110588   1.776   1.294   9.984  1.4749 -0.6260  0.8507
  716MPD2    H210589   1.631   1.672  10.069 -0.6111  0.2833 -1.3302
  716MPD2    H310590   1.611   1.439  10.087  0.0053 -0.2567 -1.0200
  716MPD2     N10591   1.958   1.356   9.802  0.3119 -0.0178 -0.0600
  716MPD2    H510592   1.996   1.388   9.714 -0.7959  3.1422  0.5770
  716MPD2    N110593   1.783   1.805   9.897 -0.2311 -0.3764  0.3498
  716MPD2    H710594   1.720   1.853   9.960 -2.5259 -1.7920 -0.8313
  717TMC3    C110595   2.050   1.142   9.740 -0.2528  0.8099  0.4956
  717TMC3    C210596   1.975   1.133   9.624 -0.2105 -0.8261 -0.0315
  717TMC3    C310597   1.999   1.016   9.552 -0.1525  0.3001  0.0827
  717TMC3    C410598   2.132   1.039   9.787  0.0200  0.5091 -0.7787
  717TMC3    C510599   2.156   0.931   9.707 -0.1759 -0.0591  0.0691
  717TMC3    C610600   2.096   0.924   9.581 -0.4146  0.0350 -0.2746
  717TMC3     C10601   1.995   1.229   9.843  0.8517 -0.2379  0.6784
  717TMC3     O10602   1.980   1.178   9.951  0.5428  0.1106 -0.1305
  717TMC3     H10603   1.912   1.214   9.589  1.1722  2.0738  4.3446
  717TMC3    H110604   2.180   1.056   9.883 -0.7514 -0.5834 -0.1888
  717TMC3    H210605   2.125   0.848   9.509 -0.8357 -1.9518  1.6869
  717TMC3    C710606   2.243   0.826   9.750  0.3411 -0.2120  0.0433
  717TMC3    C810607   1.903   0.989   9.454  0.4165 -0.1544 -0.1398
  717TMC3    O110608   2.280   0.758   9.659  0.0328  0.1925  0.3312
  717TMC3    O210609   1.836   1.079   9.407 -0.1717 -0.5275 -0.3088
  718MPD2     C10610   1.141   1.172  13.097  0.4344 -0.1164  0.2532
  718MPD2    C110611   1.096   1.106  12.987  0.1557  0.2433 -0.0685
  718MPD2    C210612   1.014   0.997  12.997  0.1588 -0.4204  0.8198
  718MPD2    C310613   0.976   0.949  13.121  0.5012  0.0902  0.0204
  718MPD2    C410614   1.020   1.012  13.231 -0.1716  0.0245 -0.1510
  718MPD2    C510615   1.108   1.121  13.217  0.0128 -0.4290  0.1441
  718MPD2     H10616   0.975   0.943  12.912 -0.4544 -2.3696  2.3399
  718MPD2    H110617   1.000   0.981  13.332 -0.1581 -1.3113 -0.5654
  718MPD2    H210618   1.202   1.261  13.092  2.0202 -1.2234 -0.3026
  718MPD2    H310619   1.146   1.160  13.311 -0.8562 -4.6422  2.2243
  718MPD2     N10620   0.891   0.836  13.116  0.0809 -0.4124  0.4745
  718MPD2    H510621   0.872   0.799  13.024  0.9376 -4.1967  1.8226
  718MPD2    N110622   1.147   1.147  12.858  0.1813  0.6823 -0.2363
  718MPD2    H710623   1.206   1.230  12.853  0.6349  0.4071  0.5861
  719TMC3    C110624   1.170   1.156  12.619  0.3688 -0.9001 -0.8180
  719TMC3    C210625   1.101   1.103  12.512 -0.2293  0.4920  1.2633
  719TMC3    C310626   1.172   1.045  12.416  0.2500  0.6172  0.2234
  719TMC3    C410627   1.311   1.169  12.623  0.5264  0.0282 -0.9153
  719TMC3    C510628   1.370   1.120  12.511 -0.1966 -0.9117  0.3075
  719TMC3    C610629   1.312   1.039  12.427  0.0222 -0.7462 -0.0563
  719TMC3     C10630   1.108   1.098  12.735  0.3455  0.0008 -0.3703
  719TMC3     O10631   1.011   1.027  12.708  0.2001 -0.3990  0.4126
  719TMC3     H10632   0.995   1.119  12.498 -0.2573  1.1125  2.1825
  719TMC3    H110633   1.365   1.213  12.705  1.8149  0.6350 -2.0870
  719TMC3    H210634   1.367   0.975  12.359 -0.8137 -1.6503  0.1133
  719TMC3    C710635   1.511   1.125  12.504  0.3992 -0.3424 -0.0425
  719TMC3    C810636   1.113   0.915  12.377  0.2062  0.1198  0.0269
  719TMC3    O110637   1.567   1.032  12.447 -0.2456  0.0273 -0.0921
  719TMC3    O210638   1.167   0.847  12.291 -0.2919 -0.3782  0.4915
  720MPD2     C10639   4.628   2.484  14.218  0.2767  0.1186 -0.1608
  720MPD2    C110640   4.703   2.584  14.162 -0.3173 -0.6832  0.3711
  720MPD2    C210641   0.113   2.609  14.209  0.4760 -0.0821 -0.6139
  720MPD2    C310642   0.170   2.547  14.320  0.0052  0.4666  0.1863
  720MPD2    C410643   0.090   2.446  14.378  0.4165  0.1803 -0.0251
  720MPD2    C510644   4.685   2.419  14.330  0.6421  0.5421 -0.6880
  720MPD2     H10645   0.174   2.686  14.163  1.4520 -0.5543 -0.1042
  720MPD2    H110646   0.131   2.385  14.458  0.7013  0.5477  0.1070
  720MPD2    H210647   4.527   2.458  14.188 -0.2016 -1.0171  2.3583
  720MPD2    H310648   4.631   2.349  14.393  0.6702  1.2992  0.1850
  720MPD2     N10649   0.299   2.592  14.370 -0.1193 -0.2419  0.1892
  720MPD2    H510650   0.340   2.674  14.327 -0.8780  0.6706  1.2192
  720MPD2    N110651   4.654   2.666  14.058  0.1676 -0.2875 -0.4625
  720MPD2    H710652   4.718   2.734  14.019 -1.5370  0.5816 -1.6945
  721TMC3    C110653   0.495   2.549  14.490 -0.5277 -0.0530  0.3931
  721TMC3    C210654   0.534   2.510  14.615  0.0019 -0.3575 -0.4203
  721TMC3    C310655   0.650   2.558  14.662 -0.7191 -0.0428  0.4659
  721TMC3    C410656   0.562   2.639  14.414  0.5522 -0.2879 -0.6944
  721TMC3    C510657   0.691   2.671  14.464 -0.3327  0.5555  0.3023
  721TMC3    C610658   0.728   2.640  14.587  0.3637  0.9443 -0.0105
  721TMC3     C10659   0.363   2.502  14.460  0.7053 -0.1661 -0.0166
  721TMC3     O10660   0.337   2.392  14.506 -0.0810  0.4427  0.1556
  721TMC3     H10661   0.486   2.432  14.672  0.5020  2.6600  4.1309
  721TMC3    H110662   0.519   2.685  14.325 -0.1373  2.3719  1.0257
  721TMC3    H210663   0.832   2.640  14.616  0.1958  2.2099  0.5972
  721TMC3    C710664   0.795   2.712  14.375  0.2978  0.2829  0.0797
  721TMC3    C810665   0.704   2.517  14.794  0.7793  0.3884 -0.4480
  721TMC3    O110666   0.776   2.695  14.254  0.5503 -0.1299 -0.6637
  721TMC3    O210667   0.823   2.555  14.817 -0.0273  0.4093  0.1015
  722MPD2     C10668   3.060   1.291  13.060 -0.5291  0.0723  0.5642
  722MPD2    C110669   3.036   1.363  12.946  0.1844 -0.9016  0.5030
  722MPD2    C210670   2.922   1.353  12.887 -0.1473 -0.3975  0.0614
  722MPD2    C310671   2.832   1.255  12.928 -0.2659  0.6462  0.2955
  722MPD2    C410672   2.845   1.185  13.047  0.1644 -0.3624 -0.1460
  722MPD2    C510673   2.964   1.211  13.118 -0.4250 -0.3533 -0.1682
  722MPD2     H10674   2.910   1.409  12.795 -1.9091 -0.4219  0.2893
  722MPD2    H110675   2.778   1.110  13.087 -2.1092  1.9669  0.4066
  722MPD2    H210676   3.149   1.309  13.120  1.3010 -0.1844 -2.1038
  722MPD2    H310677   2.975   1.182  13.222 -0.7530 -0.9192 -0.2945
  722MPD2     N10678   2.706   1.256  12.858 -0.3395 -0.7104 -0.5662
  722MPD2    H510679   2.690   1.322  12.782 -0.5204 -0.1147 -0.0148
  722MPD2    N110680   3.136   1.455  12.903  0.3875  0.4025  0.5009
  722MPD2    H710681   3.119   1.497  12.812 -0.9183 -0.5873  0.2993
  723TMC3    C110682   2.502   1.177  12.783  0.3723 -0.3134 -0.3641
  723TMC3    C210683   2.438   1.069  12.726 -0.1858  0.4266 -0.0107
  723TMC3    C310684   2.302   1.081  12.700  0.0297  0.7637 -0.5966
  723TMC3    C410685   2.450   1.301  12.799 -0.5919 -0.1781 -0.3522
  723TMC3    C510686   2.317   1.310  12.766  0.1078  0.3472  0.0275
  723TMC3    C610687   2.244   1.202  12.714  0.2346  0.2455 -0.7704
  723TMC3     C10688   2.623   1.146  12.852 -0.6935 -0.4205  0.1874
  723TMC3     O10689   2.639   1.035  12.898 -0.2537 -0.8806  0.4274
  723TMC3     H10690   2.487   0.972  12.734 -1.7277 -0.3688 -0.2259
  723TMC3    H110691   2.489   1.352  12.886  0.0092  0.4015 -0.9675
  723TMC3    H210692   2.136   1.193  12.711  0.0831  1.1840  2.0961
  723TMC3    C710693   2.248   1.421  12.823 -0.1274  0.2019 -0.4734
  723TMC3    C810694   2.226   0.968  12.643  0.6788  0.0055 -0.1745
  723TMC3    O110695   2.126   1.405  12.842  0.4929 -0.1243 -0.0527
  723TMC3    O210696   2.103   0.962  12.652 -0.7605 -0.1479  0.0527
  724TMC3    C110697   4.154   4.016   9.765  0.1929 -0.0073 -1.1093
  724TMC3    C210698   4.051   3.925   9.729  0.2261 -0.0851  0.0795
  724TMC3    C310699   4.062   3.844   9.618 -0.0078  0.1089 -0.1222
  724TMC3    C410700   4.256   4.046   9.679 -0.2982  0.5457 -0.0180
  724TMC3    C510701   4.260   3.968   9.564 -0.8594 -0.0962 -0.1365
  724TMC3    C610702   4.165   3.874   9.529 -0.2275  0.3484 -0.6636
  724TMC3     C10703   4.191   4.026   9.909 -0.6768  0.0295 -0.1765
  724TMC3     O10704   4.104   3.995   9.987  0.5947 -0.6257  0.5651
  724TMC3     H10705   3.983   3.890   9.806  2.1078  1.6319  2.5166
  724TMC3    H110706   4.318   4.134   9.688  0.2347 -0.0248  1.8016
  724TMC3    H210707   4.178   3.820   9.436 -0.0044 -0.7804  0.0204
  724TMC3    C710708   4.336   4.018   9.442 -0.5936 -0.4013 -0.2601
  724TMC3    C810709   3.938   3.789   9.569  0.2406  0.7169 -0.2129
  724TMC3    O110710   4.314   3.968   9.330 -0.6593 -0.2551  0.0037
  724TMC3    O210711   3.835   3.785   9.639  0.3701 -0.0853  0.1487
  725TMC3    C110712   0.435   3.315  13.067  0.4316 -0.2508  0.0122
  725TMC3    C210713   0.306   3.332  13.113 -0.2580 -0.3910 -0.3388
  725TMC3    C310714   0.242   3.223  13.182 -0.3828  0.0361  0.2762
  725TMC3    C410715   0.502   3.203  13.100  0.0671 -0.1077 -0.0123
  725TMC3    C510716   0.449   3.115  13.192 -0.5825 -0.4291 -0.3568
  725TMC3    C610717   0.315   3.121  13.226 -1.1586  0.2564 -0.0038
  725TMC3     C10718   0.486   3.426  12.992  0.3315 -0.2402 -0.5276
  725TMC3     O10719   0.460   3.537  13.036  0.1656  0.8728 -0.1408
  725TMC3     H10720   0.257   3.424  13.081 -0.8126 -1.6208 -3.0396
  725TMC3    H110721   0.605   3.202  13.065 -0.3043 -0.9970 -1.0616
  725TMC3    H210722   0.278   3.036  13.283 -0.7016  1.0522  1.4941
  725TMC3    C710723   0.493   2.980  13.184  1.4279 -0.2787 -0.1504
  725TMC3    C810724   0.110   3.190  13.135  0.2181  0.0502 -0.2102
  725TMC3    O110725   0.532   2.940  13.076 -0.2291 -0.5802  0.4263
  725TMC3    O210726   0.047   3.102  13.191  0.2430  0.0412  0.0251
  726MPD2     C10727   3.334   3.543  10.618  0.0761  0.2248 -0.2592
  726MPD2    C110728   3.272   3.637  10.534 -0.3473  0.1858 -0.4085
  726MPD2    C210729   3.146   3.683  10.567 -0.5194 -0.4709  0.4396
  726MPD2    C310730   3.080   3.616  10.665 -0.0916  0.3915  0.3223
  726MPD2    C410731   3.138   3.515  10.739  0.1322  0.4280  1.3840
  726MPD2    C510732   3.274   3.494  10.730  0.5572 -0.0850 -0.3802
  726MPD2     H10733   3.098   3.762  10.510  1.0672  1.5598  1.8952
  726MPD2    H110734   3.077   3.462  10.812 -0.8802 -1.3626 -0.7788
  726MPD2    H210735   3.439   3.519  10.608  0.3292  1.3824 -0.3235
  726MPD2    H310736   3.336   3.434  10.796 -0.2990 -1.0332 -0.4348
  726MPD2     N10737   2.948   3.654  10.716 -0.2673 -0.5547 -0.4600
  726MPD2    H510738   2.918   3.601  10.798  1.3674 -0.7389  0.0291
  726MPD2    N110739   3.348   3.707  10.435  0.2814  0.3013 -0.0322
  726MPD2    H710740   3.445   3.680  10.427 -0.1903 -0.5492 -3.0227
  727TMC3    C110741   3.409   3.872  10.277 -0.2261 -0.8789 -0.8848
  727TMC3    C210742   3.521   3.903  10.342  0.2741 -0.4663  0.2703
  727TMC3    C310743   3.608   3.995  10.289  0.9543  0.3205  0.2548
  727TMC3    C410744   3.394   3.921  10.147  0.4620  0.0540 -0.7320
  727TMC3    C510745   3.491   4.000  10.088 -0.1917  0.4712 -0.0468
  727TMC3    C610746   3.593   4.051  10.163 -0.0748 -0.4602 -0.5303
  727TMC3     C10747   3.303   3.805  10.350  0.1277 -0.5038  0.1480
  727TMC3     O10748   3.196   3.843  10.310  0.2572  0.1190 -0.4977
  727TMC3     H10749   3.548   3.857  10.437 -1.3057 -1.9990 -0.0186
  727TMC3    H110750   3.313   3.895  10.080 -2.0617  2.7145  1.2679
  727TMC3    H210751   3.663   4.127  10.129  0.9068 -0.8243  0.6796
  727TMC3    C710752   3.452   4.071   9.972 -0.6562 -0.5825 -0.3203
  727TMC3    C810753   3.721   4.028  10.367 -0.8884 -0.3357 -0.4372
  727TMC3    O110754   3.336   4.056   9.934 -0.0242 -0.2576 -0.1541
  727TMC3    O210755   3.727   3.995  10.485  0.2379 -0.6102  0.1886
  728TMC3    C110756   1.839   3.481  15.922  0.1184 -0.0968 -0.2187
  728TMC3    C210757   1.954   3.559  15.928 -0.7541 -0.2108 -0.3423
  728TMC3    C310758   2.026   3.578  15.813  0.3053  0.0776 -0.4829
  728TMC3    C410759   1.784   3.444  15.802  1.2342 -0.5800  0.2265
  728TMC3    C510760   1.856   3.470  15.687  0.5457 -0.3606  0.1660
  728TMC3    C610761   1.980   3.540  15.689 -0.3474  0.2205 -0.4183
  728TMC3     C10762   1.764   3.482  16.044 -0.0558  0.0176  0.2365
  728TMC3     O10763   1.814   3.540  16.138 -0.3392  0.7481 -0.4059
  728TMC3     H10764   1.997   3.599  16.019  1.9711 -1.0774 -1.2474
  728TMC3    H110765   1.682   3.410  15.795  0.7588  0.6001  1.4824
  728TMC3    H210766   2.039   3.555  15.600 -1.0236  2.3248 -0.5055
  728TMC3    C710767   1.783   3.441  15.562  0.1548  0.1361  0.5880
  728TMC3    C810768   2.146   3.662  15.828  0.3663  0.5233 -0.1912
  728TMC3    O110769   1.678   3.379  15.564 -0.1160 -0.3235  0.0866
  728TMC3    O210770   2.140   3.758  15.904 -0.4496  0.3071 -0.3467
  729MPD2     C10771   3.806   0.046  17.133  0.9544 -0.7684  0.4555
  729MPD2    C110772   3.920   4.687  17.124  1.1851 -0.8735  1.4165
  729MPD2    C210773   3.993   4.664  17.240  0.2736  0.1024  0.7194
  729MPD2    C310774   3.969   0.025  17.352 -0.0322 -0.2257 -0.1541
  729MPD2    C410775   3.871   0.121  17.349 -0.1802  0.2473  0.3217
  729MPD2    C510776   3.791   0.129  17.236  0.0602  0.8643  0.5520
  729MPD2     H10777   4.062   4.581  17.247  0.3315  0.1568  0.7999
  729MPD2    H110778   3.836   0.175  17.437  0.5584 -2.0195  2.0163
  729MPD2    H210779   3.745   0.052  17.044  0.8181 -0.6242  0.5577
  729MPD2    H310780   3.696   0.178  17.250 -0.4712 -0.5729  1.9619
  729MPD2     N10781   4.033   0.015  17.480 -0.0490  0.3758  0.4189
  729MPD2    H510782   4.013   0.085  17.551 -2.6691  0.7412 -0.6731
  729MPD2    N110783   3.951   4.623  17.002  0.0187 -0.1891 -0.6323
  729MPD2    H710784   3.896   4.646  16.919  0.3938  1.1883 -0.5134
  730TMC3    C110785   4.174   4.657  17.652 -0.1793  0.1484  0.3645
  730TMC3    C210786   4.307   4.630  17.675  0.1058 -0.3356 -0.0673
  730TMC3    C310787   4.387   0.009   0.041 -0.5551  0.2396 -0.4651
  730TMC3    C410788   4.119   0.041   0.044  0.2120 -0.0999 -0.6346
  730TMC3    C510789   4.197   0.149   0.085  0.5281  0.5979  0.5453
  730TMC3    C610790   4.335   0.135   0.080 -0.0906  0.6986  0.6230
  730TMC3     C10791   4.122   4.638  17.519  0.0508  0.0310  0.4402
  730TMC3     O10792   4.176   4.549  17.453  0.4025 -0.6165  0.6798
  730TMC3     H10793   4.356   4.548  17.624 -2.8948 -2.6563  0.7701
  730TMC3    H110794   4.013   0.057   0.059 -0.2793 -2.6218 -1.4684
  730TMC3    H210795   4.392   0.227   0.083  2.5390 -0.8279 -2.9329
  730TMC3    C710796   4.149   0.271   0.023 -0.2138  0.2029  0.5442
  730TMC3    C810797   4.532   4.705   0.046 -0.3552 -0.1935 -0.1496
  730TMC3    O110798   4.058   0.254  17.612  0.2220  0.3866  0.3914
  730TMC3    O210799   4.581   4.604  17.676  0.0565 -0.3061 -0.3530
  731MPD2     C10800   0.087   1.858  11.906  0.0391 -0.1586  0.4913
  731MPD2    C110801   0.172   1.935  11.985  0.1629 -0.6603  0.5393
  731MPD2    C210802   0.167   1.934  12.123  0.6679 -0.4749  0.7022
  731MPD2    C310803   0.067   1.868  12.187  0.0804 -0.4818  0.2999
  731MPD2    C410804   4.690   1.803  12.112  0.2205  0.4686  0.1814
  731MPD2    C510805   4.706   1.792  11.977  0.2531  0.0165  0.2779
  731MPD2     H10806   0.237   1.989  12.184  1.2588 -0.8799  0.3857
  731MPD2    H110807   4.605   1.752  12.155 -0.1868  0.1753 -0.9803
  731MPD2    H210808   0.088   1.857  11.797 -0.9353  1.4969  0.4625
  731MPD2    H310809   4.634   1.731  11.924 -0.4297  0.2937  0.8930
  731MPD2     N10810   0.060   1.873  12.331 -0.5591 -0.4450  0.3543
  731MPD2    H510811   0.121   1.941  12.375 -0.5740 -0.9857  1.2000
  731MPD2    N110812   0.271   2.002  11.912  0.3727 -0.6656 -0.1784
  731MPD2    H710813   0.268   1.977  11.813  0.2596 -0.7232 -0.1593
  732TMC3    C110814   0.434   2.167  11.859  0.5374  0.8704 -0.7422
  732TMC3    C210815   0.347   2.202  11.755 -0.3278  0.3635 -0.0736
  732TMC3    C310816   0.367   2.322  11.707  0.0652 -0.1739 -0.2284
  732TMC3    C410817   0.538   2.245  11.900 -0.4406  0.6141  0.2706
  732TMC3    C510818   0.554   2.366  11.843  0.6640  0.2752  0.0125
  732TMC3    C610819   0.463   2.409  11.746  0.3932  0.3019 -0.0183
  732TMC3     C10820   0.361   2.095  11.963  0.3922  0.4397 -0.2519
  732TMC3     O10821   0.363   2.145  12.076 -0.5142  0.2637 -0.2180
  732TMC3     H10822   0.274   2.133  11.715 -1.6734  0.7832  1.6834
  732TMC3    H110823   0.611   2.202  11.967  0.0623  2.9321  1.1863
  732TMC3    H210824   0.468   2.511  11.710 -0.4726  1.0907  2.0646
  732TMC3    C710825   0.614   2.468  11.929  0.4633 -0.0427 -0.5957
  732TMC3    C810826   0.261   2.372  11.630 -0.5833 -0.3460  0.3617
  732TMC3    O110827   0.663   2.568  11.883 -0.4491 -0.1937  0.5467
  732TMC3    O210828   0.280   2.454  11.537  0.4173 -0.0343 -0.8975
  733TMC3    C110829   0.572   0.546  13.142  0.0616  0.0414 -0.5433
  733TMC3    C210830   0.646   0.636  13.217 -0.0898 -0.2786 -0.2990
  733TMC3    C310831   0.777   0.650  13.179 -0.7344  0.3165 -0.0674
  733TMC3    C410832   0.613   0.488  13.025  0.2331  0.2679  0.3379
  733TMC3    C510833   0.741   0.516  12.991 -0.0708  0.2982 -0.5314
  733TMC3    C610834   0.827   0.594  13.064 -0.6918  1.0022  0.2353
  733TMC3     C10835   0.432   0.583  13.146  0.5749  0.4036 -0.2259
  733TMC3     O10836   0.376   0.597  13.036  0.7921 -0.4993  0.3149
  733TMC3     H10837   0.604   0.699  13.295  1.6877 -0.4668  0.8126
  733TMC3    H110838   0.548   0.427  12.963 -1.4471  1.5669  0.8121
  733TMC3    H210839   0.934   0.594  13.047 -0.8573 -0.1013 -0.7986
  733TMC3    C710840   0.773   0.475  12.855  0.7988  0.4655 -0.0017
  733TMC3    C810841   0.838   0.770  13.223 -0.4598  0.0080  0.5967
  733TMC3    O110842   0.705   0.384  12.808  0.0459 -0.0211  0.9725
  733TMC3    O210843   0.813   0.803  13.338 -0.0146  0.1008  0.5558
  734MPD2     C10844   2.912   3.268  11.951  0.1022  0.0079 -0.5343
  734MPD2    C110845   2.855   3.147  11.928  0.1702  1.3506  0.2958
  734MPD2    C210846   2.854   3.105  11.794 -0.4127 -0.2246 -0.3765
  734MPD2    C310847   2.877   3.193  11.690 -0.2563 -0.7203 -1.4759
  734MPD2    C410848   2.915   3.319  11.715  0.6040 -0.3019  0.0600
  734MPD2    C510849   2.930   3.354  11.844 -0.4835  0.3419  0.2228
  734MPD2     H10850   2.825   3.003  11.772 -1.9666  0.1580 -0.0764
  734MPD2    H110851   2.934   3.392  11.637 -1.2336 -0.2949 -0.3995
  734MPD2    H210852   2.916   3.310  12.051 -0.6240 -1.6736  0.1979
  734MPD2    H310853   2.977   3.449  11.869 -1.6510  1.1070 -0.4686
  734MPD2     N10854   2.862   3.140  11.566 -0.2008  0.5077  0.2495
  734MPD2    H510855   2.819   3.048  11.572  2.3507 -0.5609  2.2385
  734MPD2    N110856   2.829   3.057  12.037 -0.6647  0.2360 -0.2037
  734MPD2    H710857   2.865   3.081  12.129 -0.7492 -2.3386  0.5134
  735TMC3    C110858   2.773   2.847  12.126 -0.4553 -0.4578 -0.1573
  735TMC3    C210859   2.670   2.749  12.117 -0.3257 -0.0181 -0.8020
  735TMC3    C310860   2.698   2.614  12.137 -0.4519 -0.9296 -0.8395
  735TMC3    C410861   2.905   2.805  12.140  0.6820 -0.0598  0.7426
  735TMC3    C510862   2.930   2.667  12.150 -0.0785  0.1979 -0.5001
  735TMC3    C610863   2.830   2.571  12.154 -0.3113  0.1015  0.0595
  735TMC3     C10864   2.742   2.950  12.023 -0.2073 -0.1609 -0.0277
  735TMC3     O10865   2.667   2.909  11.932  0.1359 -0.5249  0.0816
  735TMC3     H10866   2.566   2.778  12.105 -0.4827 -1.0591 -2.0082
  735TMC3    H110867   2.991   2.870  12.150 -0.0219  1.3149 -1.9935
  735TMC3    H210868   2.858   2.466  12.160  0.2626  0.3802  2.3611
  735TMC3    C710869   3.068   2.630  12.123 -0.4718 -0.3600  0.2141
  735TMC3    C810870   2.646   2.541  12.023 -0.5112 -0.6508  0.4481
  735TMC3    O110871   3.119   2.711  12.046  0.1334 -0.3463 -0.5904
  735TMC3    O210872   2.632   2.419  12.020  0.2117  0.2219 -0.1649
  736MPD2     C10873   3.253   2.331  12.222  0.8281  0.3557 -0.7870
  736MPD2    C110874   3.237   2.448  12.149  0.3829 -0.1736  0.7529
  736MPD2    C210875   3.326   2.481  12.042  0.3707  0.6130 -0.8575
  736MPD2    C310876   3.433   2.397  12.014  0.6231  0.1815 -0.8966
  736MPD2    C410877   3.455   2.288  12.101  0.8254  0.2111 -0.1071
  736MPD2    C510878   3.359   2.251  12.191  0.5672  0.9333  0.3880
  736MPD2     H10879   3.306   2.558  11.969 -0.1661  1.9591  0.6879
  736MPD2    H110880   3.548   2.235  12.085  2.0269  2.7419 -1.5184
  736MPD2    H210881   3.196   2.289  12.304 -0.4177  3.6604  0.0531
  736MPD2    H310882   3.375   2.158  12.245  1.9949  0.8069 -0.2522
  736MPD2     N10883   3.520   2.419  11.902 -0.0907  0.1938  0.0825
  736MPD2    H510884   3.606   2.365  11.899 -1.7676 -2.4138 -0.7246
  736MPD2    N110885   3.109   2.508  12.174 -0.5990  0.6088  0.4245
  736MPD2    H710886   3.049   2.461  12.241 -1.2076  1.5854  0.5628
  737TMC3    C110887   3.612   2.518  11.708  0.3045 -0.2057 -0.4167
  737TMC3    C210888   3.633   2.637  11.640  0.5093  0.0442 -0.2243
  737TMC3    C310889   3.685   2.627  11.514 -0.4109  0.3204 -0.4112
  737TMC3    C410890   3.645   2.398  11.658  0.1172  0.3040  0.2008
  737TMC3    C510891   3.694   2.389  11.526  0.0970 -0.1243 -0.7566
  737TMC3    C610892   3.707   2.508  11.451  0.4819 -0.3901  0.8012
  737TMC3     C10893   3.509   2.516  11.804  0.1997  0.2822 -0.2026
  737TMC3     O10894   3.442   2.620  11.806 -0.3911 -0.0700  0.1251
  737TMC3     H10895   3.618   2.731  11.692 -0.9035 -0.3845  0.1438
  737TMC3    H110896   3.629   2.303  11.708 -0.6110 -0.3977 -1.3516
  737TMC3    H210897   3.735   2.502  11.346 -2.0802  2.6412 -0.0448
  737TMC3    C710898   3.771   2.264  11.495  0.0220  0.1575 -0.3799
  737TMC3    C810899   3.659   2.748  11.438 -0.2040 -0.2946  0.1396
  737TMC3    O110900   3.775   2.171  11.574 -0.3187  0.0909 -0.7961
  737TMC3    O210901   3.587   2.829  11.494  0.0978  0.1638  0.3926
  738MPD2     C10902   2.964   2.072  15.018  0.3550 -0.7144  0.3040
  738MPD2    C110903   3.017   1.958  15.079 -0.0464  0.3269 -0.7579
  738MPD2    C210904   3.148   1.968  15.121 -0.1733  0.6424  0.7339
  738MPD2    C310905   3.218   2.083  15.094  0.8072  0.0034  0.1868
  738MPD2    C410906   3.162   2.197  15.045  0.0452  0.3729  0.2072
  738MPD2    C510907   3.033   2.188  15.008  0.3776 -0.3005  0.3051
  738MPD2     H10908   3.185   1.874  15.160  1.6125  0.4447 -1.4565
  738MPD2    H110909   3.215   2.292  15.040  0.1133  0.2483 -1.2088
  738MPD2    H210910   2.861   2.071  14.982  1.7011 -2.2115 -3.5710
  738MPD2    H310911   2.977   2.273  14.970  0.9842 -1.5408 -3.3362
  738MPD2     N10912   3.359   2.092  15.105  0.8152  0.2269  0.3821
  738MPD2    H510913   3.409   2.176  15.080  1.1651 -0.0913  0.0169
  738MPD2    N110914   2.936   1.836  15.109  0.1852  0.1144  0.5332
  738MPD2    H710915   2.974   1.761  15.166  1.3868  0.5648  0.3372
  739TMC3    C110916   3.581   2.023  15.137 -1.0067  0.1568  0.1057
  739TMC3    C210917   3.622   2.060  15.008 -0.0035 -0.2114 -0.0754
  739TMC3    C310918   3.750   2.103  15.001  0.0296 -0.0310  1.2242
  739TMC3    C410919   3.662   2.008  15.240 -0.2313  0.6939  0.5325
  739TMC3    C510920   3.797   2.034  15.221 -0.1996  0.3028  0.5013
  739TMC3    C610921   3.842   2.093  15.103 -0.2645  0.3003 -0.7632
  739TMC3     C10922   3.444   1.997  15.160  0.6666 -0.0236 -0.1932
  739TMC3     O10923   3.406   1.886  15.202 -0.2903  0.2853 -0.1292
  739TMC3     H10924   3.556   2.062  14.923 -0.1567 -0.0231  0.0492
  739TMC3    H110925   3.625   1.935  15.311 -1.2388  1.2336  0.5527
  739TMC3    H210926   3.947   2.109  15.080 -0.3056  1.9555  0.2160
  739TMC3    C710927   3.892   1.973  15.311  0.2668  0.1015  0.4697
  739TMC3    C810928   3.798   2.128  14.861  0.8393  0.0779 -0.0933
  739TMC3    O110929   3.849   1.922  15.414  0.0372 -0.3341 -0.4342
  739TMC3    O210930   3.719   2.109  14.768  0.1808  0.1486 -0.1166
  740TMC3    C110931   3.878   2.972  14.354 -0.3683 -0.7026  0.2963
  740TMC3    C210932   3.896   2.945  14.487 -0.0013  0.7603 -0.1485
  740TMC3    C310933   4.023   2.916  14.519  0.0550  0.3782  0.1935
  740TMC3    C410934   3.975   2.982  14.261  0.0077 -0.3521 -0.3352
  740TMC3    C510935   4.108   2.969  14.307 -0.1865 -0.0006 -0.3243
  740TMC3    C610936   4.133   2.925  14.430 -0.5040  0.6049  0.5050
  740TMC3     C10937   3.751   3.033  14.305 -0.3031 -0.0169  0.6281
  740TMC3     O10938   3.759   3.117  14.215  0.8945  0.7108  0.2027
  740TMC3     H10939   3.807   2.932  14.547 -0.1293 -0.4263 -0.5821
  740TMC3    H110940   3.942   3.006  14.161  2.1339 -1.3561 -1.2880
  740TMC3    H210941   4.232   2.895  14.461 -0.9921  1.1332  2.5776
  740TMC3    C710942   4.227   2.989  14.221 -0.1548  0.1252  0.2717
  740TMC3    C810943   4.047   2.880  14.653 -0.6418  0.3543 -0.0187
  740TMC3    O110944   4.334   2.981  14.280  0.1889  0.6489 -0.5422
  740TMC3    O210945   4.162   2.848  14.679 -0.1380  0.7873  0.1373
  741TMC3    C110946   3.485   2.251  14.152 -0.5213 -0.4068 -0.8701
  741TMC3    C210947   3.390   2.268  14.059  0.1291 -0.1863 -0.4707
  741TMC3    C310948   3.273   2.199  14.078 -0.3166 -0.0616 -0.0211
  741TMC3    C410949   3.479   2.153  14.243  0.6153  0.5371 -0.6799
  741TMC3    C510950   3.371   2.076  14.252 -0.1078  0.6602  0.7523
  741TMC3    C610951   3.261   2.105  14.181  0.2612  0.0387 -0.8370
  741TMC3     C10952   3.610   2.316  14.132 -0.5621 -0.8830 -0.3340
  741TMC3     O10953   3.633   2.351  14.016 -0.2010  0.1211  0.1063
  741TMC3     H10954   3.414   2.326  13.970  0.3973  0.4579  0.0236
  741TMC3    H110955   3.561   2.141  14.314 -2.0415 -1.9754  1.9146
  741TMC3    H210956   3.172   2.043  14.184  0.3052 -0.1769 -4.0915
  741TMC3    C710957   3.347   2.003  14.370  0.4645 -0.2041 -0.0350
  741TMC3    C810958   3.152   2.214  13.992  0.2101  0.0485  0.0446
  741TMC3    O110959   3.234   1.975  14.397 -0.0670  0.1555 -0.7932
  741TMC3    O210960   3.048   2.180  14.048  0.7286 -0.0013 -0.2339
  742TMC3    C110961   3.105   0.666  15.405 -0.2016  0.2489 -0.7892
  742TMC3    C210962   3.060   0.696  15.282  0.2067 -0.3458 -0.3898
  742TMC3    C310963   3.136   0.649  15.175  0.7716 -0.2351  0.2322
  742TMC3    C410964   3.223   0.604  15.430  0.1675 -0.0643  0.5274
  742TMC3    C510965   3.300   0.571  15.320 -0.1109 -0.2102  0.2478
  742TMC3    C610966   3.263   0.596  15.188 -0.4532 -0.0232 -0.7189
  742TMC3     C10967   3.024   0.725  15.511  1.1296 -0.4091 -0.2912
  742TMC3     O10968   2.937   0.805  15.479  0.5880 -0.4371 -0.1875
  742TMC3     H10969   2.955   0.715  15.264  0.5034  0.8882 -0.8243
  742TMC3    H110970   3.250   0.571  15.529 -1.7467  1.5876  1.5948
  742TMC3    H210971   3.327   0.565  15.107  0.8880  2.2932 -0.5458
  742TMC3    C710972   3.434   0.529  15.329 -0.4276 -0.1344 -0.0268
  742TMC3    C810973   3.090   0.663  15.031 -1.1236  0.0142 -0.4147
  742TMC3    O110974   3.488   0.479  15.236 -0.3758  0.1214 -0.4200
  742TMC3    O210975   3.155   0.597  14.954  0.7955 -0.3905 -0.0608
  743MPD2     C10976   1.610   2.234   2.100 -0.1095  0.6869  0.5431
  743MPD2    C110977   1.671   2.269   1.984 -0.6474 -0.2806 -0.3983
  743MPD2    C210978   1.808   2.276   1.975 -0.1574 -0.3326  0.1726
  743MPD2    C310979   1.882   2.265   2.088  0.2397 -1.0525 -0.6600
  743MPD2    C410980   1.814   2.227   2.204 -0.7314 -0.4719 -0.5599
  743MPD2    C510981   1.680   2.218   2.214  0.0622 -0.1235  0.0085
  743MPD2     H10982   1.865   2.290   1.884 -1.7764  0.3886 -0.7294
  743MPD2    H110983   1.866   2.215   2.298 -0.6611  5.2633  0.1369
  743MPD2    H210984   1.503   2.221   2.094  0.2490 -2.4503  0.7377
  743MPD2    H310985   1.628   2.202   2.308  0.4070 -1.3240  0.0004
  743MPD2     N10986   2.024   2.282   2.077  0.7907 -0.6738 -0.2300
  743MPD2    H510987   2.066   2.300   1.986  0.1384  1.9050 -0.0150
  743MPD2    N110988   1.578   2.271   1.877  0.4294 -0.2640  0.2086
  743MPD2    H710989   1.481   2.247   1.892  0.1689  0.8342  0.2866
  744TMC3    C110990   1.501   2.329   1.671  0.2274 -0.5497  0.3830
  744TMC3    C210991   1.379   2.379   1.715  0.0480  0.0704  0.3983
  744TMC3    C310992   1.281   2.405   1.624  0.6271 -0.1153 -0.0185
  744TMC3    C410993   1.520   2.309   1.539 -0.0204  0.0007 -0.0766
  744TMC3    C510994   1.418   2.329   1.458 -0.3938  0.4886  0.2167
  744TMC3    C610995   1.303   2.394   1.491  0.0503 -0.4739  1.1103
  744TMC3     C10996   1.612   2.309   1.756  0.7162  0.2262  0.0593
  744TMC3     O10997   1.720   2.320   1.707 -0.3306  0.0078  0.3266
  744TMC3     H10998   1.348   2.391   1.818 -1.2474 -1.0296  0.1340
  744TMC3    H110999   1.603   2.242   1.524 -0.6758 -0.2704 -2.5069
  744TMC3    H211000   1.236   2.427   1.412 -0.1115 -0.0584  1.4208
  744TMC3    C711001   1.450   2.300   1.324  0.1392  0.5662 -0.0034
  744TMC3    C811002   1.152   2.438   1.680  0.2214 -0.3348 -0.2842
  744TMC3    O111003   1.569   2.308   1.301 -0.1109  0.0702  0.1584
  744TMC3    O211004   1.153   2.450   1.801 -0.1946 -0.2004 -0.5665
  745TMC3    C111005   3.469   0.891  13.268 -0.6357 -0.0141  0.3187
  745TMC3    C211006   3.380   0.781  13.271 -1.1143 -0.3698 -0.5182
  745TMC3    C311007   3.411   0.667  13.214 -0.0600  0.1691  0.2070
  745TMC3    C411008   3.576   0.891  13.182 -0.7217 -0.0459 -0.1544
  745TMC3    C511009   3.599   0.777  13.109  0.3190  0.3836 -0.4522
  745TMC3    C611010   3.525   0.660  13.131  0.2236 -0.3237  0.1597
  745TMC3     C11011   3.491   0.949  13.401 -0.0767  0.2372 -0.2778
  745TMC3     O11012   3.597   1.008  13.404 -0.2972 -0.6666 -0.0961
  745TMC3     H11013   3.286   0.789  13.324 -1.0481 -1.7640 -0.1955
  745TMC3    H111014   3.613   0.990  13.156  0.8336 -0.8221 -0.8924
  745TMC3    H211015   3.551   0.575  13.068 -1.0541 -0.7416  0.2072
  745TMC3    C711016   3.667   0.795  12.987 -0.3809 -0.4635  0.0593
  745TMC3    C811017   3.392   0.553  13.301 -0.1460 -0.1821 -0.0084
  745TMC3    O111018   3.625   0.737  12.890  0.1218  0.0734 -0.0149
  745TMC3    O211019   3.298   0.474  13.293 -0.2854  0.1398 -0.0664
  746TMC3    C111020   1.503   2.040  11.267  0.0308 -0.8110  0.0755
  746TMC3    C211021   1.619   2.038  11.201 -0.3128  0.0248 -0.2362
  746TMC3    C311022   1.677   1.913  11.180  0.3845  0.1543 -0.1331
  746TMC3    C411023   1.438   1.927  11.300  0.3015 -0.1534  0.2259
  746TMC3    C511024   1.489   1.809  11.277 -0.2205  0.0562  0.4016
  746TMC3    C611025   1.606   1.802  11.210  0.4905  0.1014  0.1220
  746TMC3     C11026   1.475   2.152  11.356  0.0768 -0.0120  0.7012
  746TMC3     O11027   1.486   2.125  11.474  0.0430  0.0959  0.1324
  746TMC3     H11028   1.683   2.125  11.199  1.2238 -1.0806  1.0690
  746TMC3    H111029   1.340   1.929  11.347  1.6361 -0.8575  3.0260
  746TMC3    H211030   1.634   1.706  11.168  0.5940 -0.3018  1.1177
  746TMC3    C711031   1.399   1.696  11.263 -0.2856  0.4415  0.0060
  746TMC3    C811032   1.779   1.904  11.081 -0.0602 -0.6132 -0.6198
  746TMC3    O111033   1.283   1.721  11.229 -0.0311  0.0976  0.2119
  746TMC3    O211034   1.837   1.798  11.068  0.4620 -0.6714  0.6810
  747TMC3    C111035   4.511   2.259  10.751 -0.0594  0.5851 -0.9154
  747TMC3    C211036   4.413   2.181  10.807 -0.1932  0.1960  0.5786
  747TMC3    C311037   4.357   2.213  10.928  0.2814 -0.8555 -0.0702
  747TMC3    C411038   4.569   2.365  10.819  0.0128  0.8523  0.5804
  747TMC3    C511039   4.509   2.387  10.943  0.1902  0.1726 -0.3179
  747TMC3    C611040   4.414   2.313  11.006 -0.3121 -0.1492 -0.1920
  747TMC3     C11041   4.570   2.224  10.624 -0.4443 -0.3030  0.4521
  747TMC3     O11042   4.610   2.321  10.561  0.2433  0.1868 -0.1601
  747TMC3     H11043   4.342   2.124  10.748 -0.7863  2.0118 -0.4563
  747TMC3    H111044   4.646   2.427  10.776 -0.4794  2.3119  1.8316
  747TMC3    H211045   4.363   2.336  11.100  1.1929 -0.8903  0.8024
  747TMC3    C711046   4.551   2.491  11.027 -0.6858 -0.1994 -0.4936
  747TMC3    C811047   4.268   2.121  10.995  0.0138  0.2202 -0.2495
  747TMC3    O111048   4.482   2.533  11.119 -0.1885 -0.5894 -0.4743
  747TMC3    O211049   4.301   2.003  11.002  0.3594  0.5180 -0.1726
  748MPD2     C11050   0.544   3.049   2.100  0.0388  0.0798  0.4929
  748MPD2    C111051   0.664   3.020   2.158 -0.2788 -0.6640 -0.5179
  748MPD2    C211052   0.782   3.057   2.093 -0.1484  0.5642 -0.2878
  748MPD2    C311053   0.785   3.097   1.957 -0.3019  0.1684  0.4813
  748MPD2    C411054   0.667   3.122   1.896 -0.1333 -0.2303  0.0945
  748MPD2    C511055   0.550   3.101   1.968 -0.4068 -0.8720  0.1998
  748MPD2     H11056   0.881   3.053   2.137  0.1463  0.6821 -0.9554
  748MPD2    H111057   0.664   3.175   1.801  0.0731 -0.5223 -0.0736
  748MPD2    H211058   0.447   3.036   2.146  0.0598 -0.5365  0.3549
  748MPD2    H311059   0.449   3.109   1.929 -1.0117 -0.2818  1.8901
  748MPD2     N11060   0.906   3.104   1.891 -0.3064 -0.2017  0.0999
  748MPD2    H511061   0.993   3.096   1.944 -0.6981 -2.4363  0.4096
  748MPD2    N111062   0.664   2.971   2.291 -0.5079  0.4304  0.3556
  748MPD2    H711063   0.579   2.942   2.339 -1.0153  2.5113  0.6933
  749TMC3    C111064   1.064   3.129   1.714  0.2001  0.2643 -0.0426
  749TMC3    C211065   1.169   3.109   1.803 -0.4278 -0.6756  0.6994
  749TMC3    C311066   1.295   3.105   1.750 -0.0843 -0.1526 -0.2044
  749TMC3    C411067   1.087   3.148   1.584  0.7933  0.3705 -0.2318
  749TMC3    C511068   1.217   3.142   1.534  0.2448  0.8901 -0.1682
  749TMC3    C611069   1.319   3.108   1.616 -0.8190  0.0422  0.5197
  749TMC3     C11070   0.927   3.117   1.756  0.5374  0.1284 -0.2385
  749TMC3     O11071   0.849   3.086   1.666 -0.3734 -0.4632  0.8253
  749TMC3     H11072   1.162   3.107   1.911  1.0885  2.1357  0.8344
  749TMC3    H111073   1.004   3.166   1.517  0.4290 -0.5434 -0.0247
  749TMC3    H211074   1.417   3.099   1.569 -1.3599  1.6462 -0.9249
  749TMC3    C711075   1.253   3.192   1.405  0.4496 -0.3577 -0.1273
  749TMC3    C811076   1.404   3.114   1.847  0.5786  0.3325 -0.0751
  749TMC3    O111077   1.361   3.245   1.382 -0.7661  0.1739 -0.6907
  749TMC3    O211078   1.380   3.136   1.968  0.2887 -0.6940 -0.9526
  750MPD2     C11079   2.068   3.836  11.361 -0.0959  0.5159 -0.4458
  750MPD2    C111080   1.948   3.802  11.428  0.3294 -0.2996  0.1477
  750MPD2    C211081   1.862   3.716  11.359 -1.0489  0.9582  0.0514
  750MPD2    C311082   1.889   3.670  11.228 -0.2113 -0.1870 -0.3795
  750MPD2    C411083   1.995   3.726  11.163  0.1975  0.2417 -0.1920
  750MPD2    C511084   2.087   3.802  11.229  0.1095 -0.2822  0.0882
  750MPD2     H11085   1.766   3.697  11.407 -2.8509  0.5489 -3.7433
  750MPD2    H111086   2.010   3.695  11.060 -1.2350 -0.0424 -0.3208
  750MPD2    H211087   2.148   3.884  11.416 -1.0880 -0.1322  1.5644
  750MPD2    H311088   2.173   3.840  11.175 -1.2642  1.5989 -0.7791
  750MPD2     N11089   1.799   3.585  11.163 -0.2595 -0.1309 -0.3654
  750MPD2    H511090   1.800   3.580  11.062  1.0295  0.1925 -0.3658
  750MPD2    N111091   1.915   3.856  11.557  0.1364 -0.4810 -0.7540
  750MPD2    H711092   1.992   3.912  11.593  0.1808 -1.2323  0.3268
  751TMC3    C111093   1.608   3.459  11.104  0.5609  0.3486  0.3064
  751TMC3    C211094   1.472   3.446  11.140  1.0086  0.0720 -0.7918
  751TMC3    C311095   1.389   3.388  11.050  0.6162 -0.7553 -0.0683
  751TMC3    C411096   1.662   3.419  10.988  0.2639 -0.7389 -0.0906
  751TMC3    C511097   1.575   3.364  10.902 -0.0119 -0.2813  0.0651
  751TMC3    C611098   1.442   3.353  10.927 -0.0280  0.5620 -0.5876
  751TMC3     C11099   1.695   3.511  11.211 -0.2855 -0.4769 -0.3610
  751TMC3     O11100   1.677   3.480  11.327  0.4604  0.5208 -0.4182
  751TMC3     H11101   1.446   3.467  11.243  0.2811  0.9133 -1.1493
  751TMC3    H111102   1.766   3.438  10.968 -0.1159  1.8071  0.2933
  751TMC3    H211103   1.370   3.336  10.849  0.2642  3.2934 -1.4479
  751TMC3    C711104   1.632   3.330  10.766 -0.1052 -0.0890  0.5120
  751TMC3    C811105   1.270   3.314  11.085 -0.5474 -0.5652 -0.1296
  751TMC3    O111106   1.558   3.351  10.673  0.2381 -0.1251  0.2622
  751TMC3    O211107   1.213   3.254  10.994  0.4592 -0.0414 -0.2887
  752TMC3    C111108   4.247   3.885  17.445  0.1381  0.3586  0.3847
  752TMC3    C211109   4.263   3.750  17.417  0.1363  0.3036 -0.3090
  752TMC3    C311110   4.222   3.673  17.523  0.3393 -0.5913 -0.3157
  752TMC3    C411111   4.223   3.942  17.566 -1.0249 -0.2286  0.3295
  752TMC3    C511112   4.189   3.861  17.667  0.0212  0.3676  0.1412
  752TMC3    C611113   4.191   3.724  17.653 -0.2345  0.0929  0.1449
  752TMC3     C11114   4.261   3.965  17.327  0.7230  0.0164  1.3315
  752TMC3     O11115   4.187   4.061  17.313 -0.0230  1.2869  0.2850
  752TMC3     H11116   4.277   3.712  17.316  0.0648  1.5560 -0.7926
  752TMC3    H111117   4.222   4.050  17.572 -0.1821 -0.2589  1.0407
  752TMC3    H211118   4.162   3.653   0.052 -0.7953  0.0828 -0.0676
  752TMC3    C711119   4.184   3.914   0.126 -0.3740  0.6022  0.4604
  752TMC3    C811120   4.195   3.530  17.509  0.0227  0.1954 -0.4844
  752TMC3    O111121   4.192   3.828   0.214  0.2680 -0.1458 -0.3273
  752TMC3    O211122   4.137   3.478  17.604 -0.5135  0.2393  0.4422
  753TMC3    C111123   2.579   0.545  13.220  0.1447  0.1904  0.4259
  753TMC3    C211124   2.604   0.524  13.353 -0.3892  0.2777 -0.6546
  753TMC3    C311125   2.568   0.411  13.414 -1.0185 -0.0925  0.0569
  753TMC3    C411126   2.507   0.453  13.157 -0.7578 -0.0821 -0.2344
  753TMC3    C511127   2.471   0.339  13.212  0.2596  0.3719  0.1602
  753TMC3    C611128   2.504   0.310  13.344  0.7272  0.4446 -0.3203
  753TMC3     C11129   2.514   0.679  13.199 -0.3470  0.2515  0.6649
  753TMC3     O11130   2.402   0.666  13.144  0.0137 -0.5232 -0.2202
  753TMC3     H11131   2.665   0.598  13.405 -1.2960  0.4697  0.1458
  753TMC3    H111132   2.473   0.479  13.057 -1.3202  1.3339  0.3399
  753TMC3    H211133   2.493   0.210  13.385 -0.1983  0.5209 -0.3628
  753TMC3    C711134   2.398   0.243  13.131  0.2166  0.2263  0.0827
  753TMC3    C811135   2.582   0.383  13.560 -0.6460  0.0978 -0.5136
  753TMC3    O111136   2.394   0.273  13.012  0.3928  0.2068  0.3103
  753TMC3    O211137   2.597   0.264  13.592 -1.0308  0.0618  0.0246
  754MPD2     C11138   1.133   3.705  12.555 -0.1360  0.0794 -0.1303
  754MPD2    C111139   1.088   3.759  12.680 -0.1318  0.5566  0.1233
  754MPD2    C211140   1.014   3.869  12.673  0.5089 -0.2913  0.3807
  754MPD2    C311141   0.982   3.927  12.552  0.0101  0.5570 -0.0798
  754MPD2    C411142   1.027   3.883  12.436 -0.2114 -0.7585 -0.1050
  754MPD2    C511143   1.118   3.776  12.432  0.8005 -0.5027  0.3152
  754MPD2     H11144   0.977   3.902  12.770 -0.4404 -0.4416  0.0736
  754MPD2    H111145   1.010   3.949  12.352 -0.3547  1.4913  1.6640
  754MPD2    H211146   1.197   3.618  12.565  0.7388  0.7476  0.0944
  754MPD2    H311147   1.170   3.732  12.348  2.6648 -1.5635  2.0094
  754MPD2     N11148   0.885   4.033  12.545  0.0934  0.2563  0.2617
  754MPD2    H511149   0.845   4.065  12.458  2.3499  1.9938 -0.1309
  754MPD2    N111150   1.132   3.701  12.805 -0.0448  0.2829 -0.1076
  754MPD2    H711151   1.169   3.607  12.801 -0.0588  0.3948 -2.5555
  755MPD2     C11152   0.724   4.629  13.329 -0.0736  0.2665 -0.5252
  755MPD2    C111153   0.601   4.570  13.298  0.1353  0.6585  0.6163
  755MPD2    C211154   0.593   4.472  13.203 -0.6194  0.1437 -0.1478
  755MPD2    C311155   0.709   4.438  13.130 -0.6860 -0.1803 -0.5374
  755MPD2    C411156   0.831   4.498  13.166 -0.7711  0.3347 -0.7591
  755MPD2    C511157   0.836   4.590  13.263 -0.3264  0.2907  0.1617
  755MPD2     H11158   0.495   4.430  13.184 -1.0649  1.2394 -0.2552
  755MPD2    H111159   0.921   4.488  13.106 -0.2955  1.7130 -0.2895
  755MPD2    H211160   0.736   4.708  13.403 -0.2675  1.7506 -2.0642
  755MPD2    H311161   0.928   4.643  13.287 -0.3113  0.1437  0.4337
  755MPD2     N11162   0.692   4.352  13.022  0.1718 -0.1157 -0.7709
  755MPD2    H511163   0.774   4.337  12.964 -0.2232  1.6378 -1.7762
  755MPD2    N111164   0.488   4.595  13.373 -0.3486 -0.3617  0.5955
  755MPD2    H711165   0.412   4.529  13.360 -0.2229 -1.1324  3.6066
  756MPD2     C11166   1.577   4.443   9.514  0.2588  0.0221 -0.3309
  756MPD2    C111167   1.556   4.366   9.623 -0.6463 -0.1509  0.1319
  756MPD2    C211168   1.461   4.273   9.621 -0.2740 -0.3263 -0.6066
  756MPD2    C311169   1.375   4.259   9.516  0.6266  0.4298 -0.1777
  756MPD2    C411170   1.394   4.341   9.401 -0.4822 -0.1329  0.1923
  756MPD2    C511171   1.501   4.424   9.405 -0.2074 -0.0403 -0.3729
  756MPD2     H11172   1.443   4.229   9.718 -1.6580 -1.0787 -1.2089
  756MPD2    H111173   1.352   4.320   9.303 -0.2875  2.6218 -0.4862
  756MPD2    H211174   1.666   4.504   9.501 -0.4001  0.9828 -0.3037
  756MPD2    H311175   1.532   4.466   9.310  2.5983 -1.0192  0.1049
  756MPD2     N11176   1.276   4.152   9.523  0.8195 -0.1756 -0.0721
  756MPD2    H511177   1.264   4.094   9.605 -3.8803  0.4442 -0.2715
  756MPD2    N111178   1.643   4.379   9.733  0.1609  0.1960 -0.4669
  756MPD2    H711179   1.624   4.322   9.814 -0.0779  1.0876  0.0990
  757MPD2     C11180   1.152   3.252   9.887 -0.3203  0.9919  0.2890
  757MPD2    C111181   1.031   3.258   9.818  0.2100 -0.1011  0.3536
  757MPD2    C211182   0.992   3.383   9.767 -0.5913  0.0942  0.3574
  757MPD2    C311183   1.078   3.491   9.765  0.5700  0.2694 -0.3734
  757MPD2    C411184   1.198   3.482   9.827  0.2757  0.2157  0.2973
  757MPD2    C511185   1.236   3.361   9.886 -0.5308 -0.3804  0.2916
  757MPD2     H11186   0.894   3.393   9.723 -0.5821  2.1338  0.8309
  757MPD2    H111187   1.275   3.557   9.815  0.8329 -0.7516 -2.0431
  757MPD2    H211188   1.184   3.162   9.938 -2.1968  1.1863  1.8136
  757MPD2    H311189   1.332   3.357   9.936  0.4190  1.2425 -1.4230
  757MPD2     N11190   1.030   3.612   9.709  0.1493 -0.6910 -0.7051
  757MPD2    H511191   0.939   3.606   9.666 -0.1132 -1.8820  0.0096
  757MPD2    N111192   0.946   3.148   9.812 -0.5155 -0.6879 -0.1750
  757MPD2    H711193   0.988   3.061   9.842 -1.6061 -0.6999  1.3057
  758MPD2     C11194   1.070   3.573  15.954  0.0723  0.3307  0.9488
  758MPD2    C111195   1.111   3.656  16.051 -0.0717  0.7469  0.0909
  758MPD2    C211196   1.015   3.712  16.131 -0.5492 -0.1550  0.5469
  758MPD2    C311197   0.884   3.675  16.132  0.4578 -0.2288  0.5687
  758MPD2    C411198   0.845   3.592  16.027  0.0602 -0.1930  0.0573
  758MPD2    C511199   0.939   3.541  15.946  0.4627 -0.3714 -0.8292
  758MPD2     H11200   1.050   3.777  16.211 -0.2398 -1.6393  1.6296
  758MPD2    H111201   0.742   3.560  16.014  0.1560  0.9232 -3.4246
  758MPD2    H211202   1.134   3.537  15.875 -2.8024 -0.4547 -1.0433
  758MPD2    H311203   0.916   3.476  15.862 -3.9435  0.8040 -0.5349
  758MPD2     N11204   0.803   3.700  16.242  0.2979 -0.1808  0.4712
  758MPD2    H511205   0.714   3.651  16.250  0.3488 -0.2404  0.6744
  758MPD2    N111206   1.243   3.700  16.038 -0.1237 -1.1768 -0.3555
  758MPD2    H711207   1.295   3.666  15.958  3.6617  0.8302  1.2519
  759MPD2     C11208   0.090   1.292   9.433  0.1623  0.2566 -0.3208
  759MPD2    C111209   0.157   1.225   9.534 -0.5110 -0.3638 -0.5972
  759MPD2    C211210   0.264   1.285   9.597  0.0176 -0.1532  0.3057
  759MPD2    C311211   0.294   1.414   9.569 -0.3316  0.7703 -0.2662
  759MPD2    C411212   0.214   1.490   9.485  0.3586  0.8242 -0.0266
  759MPD2    C511213   0.115   1.423   9.411 -0.1481  0.0936 -0.5824
  759MPD2     H11214   0.332   1.236   9.666  0.7802  0.2479 -0.1544
  759MPD2    H111215   0.223   1.593   9.453  0.8578  1.4236  2.0322
  759MPD2    H211216   0.006   1.252   9.377 -1.3255  2.1638  0.5373
  759MPD2    H311217   0.072   1.472   9.324 -1.0320  0.0005 -0.1986
  759MPD2     N11218   0.399   1.478   9.644 -0.2005 -0.3410 -0.3469
  759MPD2    H511219   0.437   1.428   9.724  2.0127  0.7307 -0.7330
  759MPD2    N111220   0.114   1.099   9.576 -0.7272 -0.2217  0.5065
  759MPD2    H711221   0.161   1.064   9.659  0.2714  1.3592  0.6112
  760MPD2     C11222   4.367   4.062  12.035 -0.1950  0.2428  0.5239
  760MPD2    C111223   4.493   4.034  11.974  0.2282  0.3997 -0.2633
  760MPD2    C211224   4.556   3.925  12.029  0.0789 -0.2899 -0.2773
  760MPD2    C311225   4.504   3.843  12.131 -0.2481 -0.1736  0.1574
  760MPD2    C411226   4.375   3.868  12.178 -0.5369 -0.4752  0.3037
  760MPD2    C511227   4.309   3.975  12.127 -0.3367 -0.9553 -0.4224
  760MPD2     H11228   4.659   3.902  12.005  0.0011 -0.1449 -0.7498
  760MPD2    H111229   4.323   3.806  12.250 -0.9933 -0.6941 -0.2241
  760MPD2    H211230   4.309   4.151  12.013 -1.0573 -0.2618  0.7612
  760MPD2    H311231   4.220   4.009  12.178  1.2279  2.9104 -0.2253
  760MPD2     N11232   4.579   3.733  12.169 -0.3026  0.3596  0.7749
  760MPD2    H511233   4.673   3.732  12.131 -0.2768  1.9289  0.7658
  760MPD2    N111234   4.560   4.126  11.888  0.4096  0.4789 -0.1542
  760MPD2    H711235   4.505   4.206  11.858 -0.3454  0.6996  1.8473
  761MPD2     C11236   0.897   3.155  11.394  0.1604 -0.2319  0.0443
  761MPD2    C111237   0.972   3.091  11.299  0.2059  0.0144 -0.4938
  761MPD2    C211238   1.064   3.162  11.224 -0.3304  0.1905 -0.2042
  761MPD2    C311239   1.103   3.293  11.260  0.8895  1.0110  0.5395
  761MPD2    C411240   1.028   3.356  11.353  0.3202  0.1843 -0.9512
  761MPD2    C511241   0.921   3.294  11.415  0.7218  0.5043  0.1230
  761MPD2     H11242   1.131   3.103  11.163 -1.0878 -0.3203 -0.5386
  761MPD2    H111243   1.042   3.461  11.376 -0.7212  0.2418 -0.5973
  761MPD2    H211244   0.819   3.102  11.447 -0.8082 -1.0542 -2.2037
  761MPD2    H311245   0.863   3.350  11.487 -1.1235  0.2381 -1.1437
  761MPD2     N11246   1.215   3.356  11.201 -0.1713 -0.3451  0.0310
  761MPD2    H511247   1.255   3.424  11.265  1.4773 -0.6860 -0.6132
  761MPD2    N111248   0.947   2.954  11.272  0.5439  0.0477 -0.1194
  761MPD2    H711249   0.869   2.912  11.322  0.2675  0.7782  0.0652
  762MPD2     C11250   1.291   2.956  10.829 -0.1321 -0.6056 -0.0790
  762MPD2    C111251   1.309   2.827  10.845 -0.6026 -0.0925  0.8001
  762MPD2    C211252   1.425   2.770  10.797 -0.2184  0.2419 -0.0752
  762MPD2    C311253   1.516   2.848  10.736 -0.4313  0.0693 -0.5018
  762MPD2    C411254   1.499   2.986  10.710 -0.4862  0.0796  0.2755
  762MPD2    C511255   1.380   3.035  10.757  0.7441  0.1142  0.6816
  762MPD2     H11256   1.450   2.667  10.820  1.1281  0.4133 -0.7791
  762MPD2    H111257   1.570   3.051  10.661  0.2587  0.5577  1.9772
  762MPD2    H211258   1.203   2.997  10.879 -1.0430 -1.4204 -1.0159
  762MPD2    H311259   1.375   3.142  10.743 -0.7322 -0.1774 -1.1409
  762MPD2     N11260   1.632   2.777  10.687  0.2305  0.2497  0.0665
  762MPD2    H511261   1.638   2.679  10.716 -1.6080 -0.3458 -1.6141
  762MPD2    N111262   1.213   2.760  10.929  0.1441  0.9359  0.0825
  762MPD2    H711263   1.131   2.813  10.959 -2.0866 -2.0265 -0.7905
  763MPD2     C11264   3.197   3.650  16.090 -0.0857  0.6359 -0.3113
  763MPD2    C111265   3.118   3.757  16.058 -1.0427 -0.8464  0.5721
  763MPD2    C211266   3.119   3.874  16.140 -0.1270 -0.5764  0.0830
  763MPD2    C311267   3.190   3.876  16.264  0.0426  0.0607  0.0893
  763MPD2    C411268   3.268   3.764  16.289  0.0669 -0.2747 -0.0300
  763MPD2    C511269   3.269   3.652  16.205 -0.2386 -0.2061  0.4075
  763MPD2     H11270   3.063   3.956  16.098  1.2976  0.5145  0.3106
  763MPD2    H111271   3.332   3.760  16.377  1.2007 -3.2550 -1.0053
  763MPD2    H211272   3.209   3.561  16.029  0.7493  1.1599 -0.9236
  763MPD2    H311273   3.345   3.583  16.240  0.4774  0.2153 -0.3251
  763MPD2     N11274   3.178   3.978  16.366 -0.1442 -0.1166  0.0695
  763MPD2    H511275   3.230   3.970  16.453  0.3082  0.9652 -0.0947
  763MPD2    N111276   3.052   3.776  15.936 -0.0111  0.4322  0.3798
  763MPD2    H711277   3.016   3.866  15.908  0.5352  0.6340  0.3275
  764MPD2     C11278   0.203   3.978  17.631 -0.5964 -0.8088  0.3510
  764MPD2    C111279   0.178   4.109  17.661  0.6517 -0.7161 -0.6288
  764MPD2    C211280   0.193   4.160   0.111 -0.5453 -0.5241 -0.5404
  764MPD2    C311281   0.228   4.081   0.218  0.3767  0.1649 -0.2559
  764MPD2    C411282   0.261   3.948   0.187 -0.5327  0.2058  0.1874
  764MPD2    C511283   0.245   3.901   0.059 -0.1353 -0.3980 -0.0245
  764MPD2     H11284   0.149   4.256   0.136  1.8316  0.7530 -1.2988
  764MPD2    H111285   0.297   3.874   0.258 -0.0094  0.2231 -0.0569
  764MPD2    H211286   0.193   3.931  17.533  1.8981  1.7368 -1.1361
  764MPD2    H311287   0.267   3.798   0.033  0.5773 -0.6167  1.4788
  764MPD2     N11288   0.238   4.124   0.354  0.6495 -0.8861 -0.4653
  764MPD2    H511289   0.197   4.216   0.367 -1.0497 -1.8349  0.7422
  764MPD2    N111290   0.123   4.193  17.565 -0.6636  0.3836 -0.4274
  764MPD2    H711291   0.116   4.290  17.593  1.2607  1.1864 -2.7705
  765MPD2     C11292   0.381   2.970  16.322 -0.8025  0.6976  0.2989
  765MPD2    C111293   0.471   3.062  16.263  0.2798  0.8525  0.1537
  765MPD2    C211294   0.606   3.067  16.310 -0.3872 -0.0914  0.2671
  765MPD2    C311295   0.650   2.968  16.390 -0.8106  0.7046 -0.0882
  765MPD2    C411296   0.564   2.875  16.447 -1.4781 -0.7373 -0.0916
  765MPD2    C511297   0.430   2.876  16.412  0.2959  0.0687  0.0392
  765MPD2     H11298   0.673   3.142  16.269  1.3519 -1.1538  1.1656
  765MPD2    H111299   0.590   2.796  16.516  1.4510  0.5312  0.2701
  765MPD2    H211300   0.273   2.965  16.314 -0.6384 -0.8412 -0.9144
  765MPD2    H311301   0.367   2.804  16.462 -0.4579  0.5395 -0.2342
  765MPD2     N11302   0.788   2.967  16.416 -0.4284  0.6237 -0.1749
  765MPD2    H511303   0.845   3.038  16.371  2.0302 -1.5733 -0.5556
  765MPD2    N111304   0.414   3.147  16.168  0.6100  0.4917  0.4303
  765MPD2    H711305   0.313   3.140  16.155  0.8226  0.0912 -1.0015
  766MPD2     C11306   4.685   3.134  15.533 -0.3663  0.4316 -0.0440
  766MPD2    C111307   0.106   3.156  15.531 -0.3694  0.3793 -0.6708
  766MPD2    C211308   0.180   3.125  15.419  0.7595 -0.4968  0.6286
  766MPD2    C311309   0.120   3.082  15.310 -0.0756 -0.0788  0.0006
  766MPD2    C411310   4.701   3.065  15.310  0.3983  0.9015 -0.3586
  766MPD2    C511311   4.625   3.087  15.420  0.1011 -0.7451 -0.3550
  766MPD2     H11312   0.285   3.151  15.425  0.5521  1.0786 -2.5634
  766MPD2    H111313   4.653   3.031  15.219  2.5516 -1.1598 -0.7241
  766MPD2    H211314   4.628   3.142  15.625 -0.8266 -2.2610 -0.1157
  766MPD2    H311315   4.521   3.057  15.426  0.4725 -1.8566  0.3516
  766MPD2     N11316   0.193   3.060  15.189  0.6507 -0.8882  0.2995
  766MPD2    H511317   0.134   3.051  15.107 -0.7800 -0.3832  1.2736
  766MPD2    N111318   0.189   3.198  15.639 -0.5788  0.0412 -0.5801
  766MPD2    H711319   0.289   3.200  15.619 -0.6914 -0.2759 -1.1501
  767MPD2     C11320   4.565   3.296  15.139 -0.5322 -0.5685 -0.0418
  767MPD2    C111321   4.681   3.329  15.079 -0.4037 -0.3844  0.4296
  767MPD2    C211322   4.701   3.287  14.946 -0.0742  0.1247  0.4336
  767MPD2    C311323   4.609   3.210  14.883 -0.5073  0.1247  0.3476
  767MPD2    C411324   4.491   3.182  14.951 -0.7339 -0.4922  0.5483
  767MPD2    C511325   4.469   3.230  15.072  0.0557 -0.0137  0.0935
  767MPD2     H11326   0.074   3.318  14.898  0.6031  0.5156  1.9677
  767MPD2    H111327   4.411   3.116  14.920 -0.2171 -1.0057  0.3128
  767MPD2    H211328   4.545   3.334  15.239 -1.3562 -0.9381 -0.0673
  767MPD2    H311329   4.380   3.200  15.126  1.2867  0.8095  2.5491
  767MPD2     N11330   4.644   3.145  14.764 -0.1178 -0.4852  0.1912
  767MPD2    H511331   0.020   3.165  14.733 -0.1801 -0.8176 -0.2177
  767MPD2    N111332   0.055   3.410  15.151 -0.0881  0.1662  0.7940
  767MPD2    H711333   0.048   3.425  15.251  0.4609  1.7181  0.5983
  768MPD2     C11334   1.441   1.515  10.728 -0.3870 -0.6529  0.0662
  768MPD2    C111335   1.430   1.409  10.812 -0.0780  0.0135  0.1689
  768MPD2    C211336   1.529   1.387  10.914  1.1556  0.3718 -0.4992
  768MPD2    C311337   1.635   1.480  10.927 -0.5766 -0.4006  0.2263
  768MPD2    C411338   1.620   1.598  10.857 -0.3981 -0.3611 -0.0165
  768MPD2    C511339   1.529   1.612  10.755 -1.2842 -0.1172 -0.1521
  768MPD2     H11340   1.529   1.293  10.967  0.1988 -0.4191 -1.8822
  768MPD2    H111341   1.685   1.684  10.861  0.5552 -1.2064  2.3134
  768MPD2    H211342   1.374   1.528  10.643  0.2842  0.2928 -0.3148
  768MPD2    H311343   1.517   1.706  10.702 -0.9363 -0.2990 -0.5485
  768MPD2     N11344   1.741   1.470  11.019 -0.1041 -0.4822  0.3817
  768MPD2    H511345   1.813   1.542  11.016 -1.4924  0.8971  0.2187
  768MPD2    N111346   1.325   1.307  10.803  0.6042 -0.0681  0.9215
  768MPD2    H711347   1.321   1.236  10.876 -2.0442  0.7910  1.6084
  769MPD2     C11348   1.694   0.181  14.753  0.2075  0.4375 -0.6543
  769MPD2    C111349   1.596   0.128  14.836 -0.2471  0.0642  0.4016
  769MPD2    C211350   1.615   0.121  14.976 -0.1335 -0.0830  0.2933
  769MPD2    C311351   1.740   0.143  15.024 -0.2551  0.3920 -0.1923
  769MPD2    C411352   1.843   0.192  14.937 -0.6053  0.0741 -0.0586
  769MPD2    C511353   1.815   0.214  14.805 -0.5234  0.5784 -0.1562
  769MPD2     H11354   1.549   0.074  15.047  2.6550 -0.4969  2.6069
  769MPD2    H111355   1.944   0.216  14.969  0.2163 -2.1075 -1.0404
  769MPD2    H211356   1.681   0.184  14.646 -1.3982 -0.3298 -0.4764
  769MPD2    H311357   1.896   0.244  14.739  0.4671 -2.4508 -0.2990
  769MPD2     N11358   1.759   0.116  15.161 -0.8964  0.1398  0.0738
  769MPD2    H511359   1.676   0.096  15.216 -1.3511 -3.2419 -1.8530
  769MPD2    N111360   1.474   0.098  14.775 -0.0708  0.6575 -1.1857
  769MPD2    H711361   1.477   0.112  14.674 -0.7674 -0.0332 -1.3011
  770MPD2     C11362   0.897   4.170  15.062  0.5729 -0.3719  0.5267
  770MPD2    C111363   1.028   4.200  15.048  0.4995  0.3338  0.0011
  770MPD2    C211364   1.070   4.325  15.002 -0.0103  0.6737  0.0846
  770MPD2    C311365   0.973   4.419  14.971  0.0358  0.7087 -0.2643
  770MPD2    C411366   0.840   4.390  14.995  0.1985 -0.2447 -0.0521
  770MPD2    C511367   0.799   4.263  15.031  0.3453  0.6234  0.4756
  770MPD2     H11368   1.173   4.351  14.980  0.0134  1.7882  1.5066
  770MPD2    H111369   0.767   4.468  14.982 -0.6582 -1.1693 -0.7759
  770MPD2    H211370   0.872   4.069  15.090  2.8582 -0.7841  1.0362
  770MPD2    H311371   0.694   4.240  15.047  0.3551  0.6936  0.6414
  770MPD2     N11372   1.016   4.546  14.913  0.2720  0.4816  0.1946
  770MPD2    H511373   1.114   4.568  14.903 -0.5773  2.4146 -3.5449
  770MPD2    N111374   1.117   4.093  15.062  0.6390 -0.3236 -0.2125
  770MPD2    H711375   1.076   4.004  15.088  2.5031 -1.6331 -1.7043
  771MPD2     C11376   3.323   2.177  13.417 -0.1436  0.2743  0.5160
  771MPD2    C111377   3.293   2.297  13.353 -0.9004  0.2333  0.0928
  771MPD2    C211378   3.185   2.306  13.276 -0.2669  0.5689 -0.8133
  771MPD2    C311379   3.092   2.208  13.261 -0.1803 -0.2153 -0.0578
  771MPD2    C411380   3.120   2.086  13.317  0.6172 -0.2941 -0.1718
  771MPD2    C511381   3.231   2.070  13.395  0.1672  0.3724 -0.3239
  771MPD2     H11382   3.157   2.398  13.225  2.0515  0.5570 -2.0928
  771MPD2    H111383   3.056   1.999  13.303  1.7280 -1.0069 -0.7929
  771MPD2    H211384   3.412   2.165  13.478 -0.4925 -3.7639  0.2604
  771MPD2    H311385   3.247   1.973  13.440  0.3114  1.1313  1.2465
  771MPD2     N11386   2.968   2.235  13.202  0.1460 -0.2258  0.5788
  771MPD2    H511387   2.964   2.333  13.176 -1.0134 -0.2093  0.8392
  771MPD2    N111388   3.361   2.416  13.382 -0.0502 -0.2632 -0.4484
  771MPD2    H711389   3.318   2.500  13.345  0.9023 -0.7027 -2.5527
  772MPD2     C11390   3.160   2.631  13.912 -0.5537  0.2382 -0.3809
  772MPD2    C111391   3.161   2.718  13.812 -0.5540 -0.2254  0.8754
  772MPD2    C211392   3.045   2.786  13.775  0.2397  0.3670  0.1140
  772MPD2    C311393   2.934   2.772  13.848 -0.5707  0.1756  0.7501
  772MPD2    C411394   2.937   2.678  13.954  0.0576  0.8536 -0.0240
  772MPD2    C511395   3.047   2.604  13.981  0.3926  0.3224 -0.1047
  772MPD2     H11396   3.044   2.854  13.691 -1.6405  0.8134  0.4930
  772MPD2    H111397   2.845   2.662  14.010  0.2991 -3.2301 -0.8198
  772MPD2    H211398   3.246   2.576  13.950  0.6311  1.1544 -1.7570
  772MPD2    H311399   3.055   2.538  14.066 -1.2169  1.5876  1.0397
  772MPD2     N11400   2.812   2.827  13.814  0.4022  0.0363  1.0962
  772MPD2    H511401   2.735   2.809  13.878 -0.3259 -1.0233 -0.0772
  772MPD2    N111402   3.272   2.744  13.730 -0.1046  0.3279  0.1832
  772MPD2    H711403   3.265   2.816  13.659 -1.7688 -0.1293 -0.1133
  773MPD2     C11404   1.526   3.813  17.462  0.1798  0.0844 -0.3009
  773MPD2    C111405   1.435   3.747  17.544 -0.2302 -0.2862  0.3598
  773MPD2    C211406   1.478   3.701  17.662 -0.5707  0.1165  0.0020
  773MPD2    C311407   1.608   3.720   0.027 -0.1183 -0.3003  0.7777
  773MPD2    C411408   1.701   3.780  17.617 -0.3167  1.3656 -0.4731
  773MPD2    C511409   1.658   3.822  17.494  0.2126  0.2479 -0.6633
  773MPD2     H11410   1.400   3.654   0.042 -0.0476 -0.5321  0.1730
  773MPD2    H111411   1.803   3.805  17.644 -0.1375 -2.3251  2.3039
  773MPD2    H211412   1.507   3.847  17.360  0.3492  0.4237 -0.2194
  773MPD2    H311413   1.740   3.868  17.441 -0.3416  1.1324 -0.7537
  773MPD2     N11414   1.649   3.661   0.149 -0.1343  0.1093 -0.6856
  773MPD2    H511415   1.574   3.632   0.211 -0.1853 -0.2238 -0.9005
  773MPD2    N111416   1.299   3.717  17.511  0.0695 -0.2010 -0.0977
  773MPD2    H711417   1.238   3.681  17.584  1.2662 -2.0261 -0.0024
  774MPD2     C11418   1.288   2.833  13.264 -0.2663 -0.2645  0.7689
  774MPD2    C111419   1.261   2.901  13.380  0.4364 -0.3383  0.1123
  774MPD2    C211420   1.223   3.039  13.366 -0.6359 -0.1588  0.2504
  774MPD2    C311421   1.241   3.103  13.244  0.7278 -0.6388 -0.2805
  774MPD2    C411422   1.281   3.029  13.133 -0.3984 -0.3494  0.3909
  774MPD2    C511423   1.307   2.894  13.143  0.0048 -0.7535  0.8537
  774MPD2     H11424   1.178   3.089  13.451  1.9708 -0.0512  1.5594
  774MPD2    H111425   1.296   3.075  13.035  0.2445  1.4597  1.3287
  774MPD2    H211426   1.301   2.725  13.267 -1.4547 -0.4785 -1.8601
  774MPD2    H311427   1.330   2.836  13.054  2.0168 -1.3050  1.7420
  774MPD2     N11428   1.201   3.239  13.228 -0.5776 -0.2596 -0.4501
  774MPD2    H511429   1.140   3.274  13.301  0.6286  0.0589  0.3840
  774MPD2    N111430   1.252   2.829  13.498 -0.0765  0.0930 -0.3071
  774MPD2    H711431   1.286   2.734  13.488 -2.1049 -0.9172  2.2754
  775MPD2     C11432   2.153   4.709  15.922  0.6606  0.4455 -0.0091
  775MPD2    C111433   2.137   0.110  15.986  0.3090 -0.2331 -0.1225
  775MPD2    C211434   2.239   0.205  15.974  0.2919  0.3021  1.2245
  775MPD2    C311435   2.351   0.192  15.889 -0.2586  0.2490  0.1168
  775MPD2    C411436   2.351   0.070  15.815  0.1951  0.2509 -0.2047
  775MPD2    C511437   2.261   4.683  15.840 -0.1932  0.0422  0.0551
  775MPD2     H11438   2.224   0.301  16.023 -0.1700  0.3719  0.9473
  775MPD2    H111439   2.434   0.058  15.746  0.9845  3.0690  0.2337
  775MPD2    H211440   2.077   4.632  15.910 -0.8152  2.1210 -1.2785
  775MPD2    H311441   2.262   4.590  15.784  0.0066  0.9263 -1.4088
  775MPD2     N11442   2.439   0.297  15.856  1.1645  0.3708 -0.2179
  775MPD2    H511443   2.504   0.277  15.780  1.2126 -2.2247  0.4992
  775MPD2    N111444   2.018   0.133  16.064  0.1754  0.4011  0.3908
  775MPD2    H711445   2.028   0.222  16.111 -0.9707  1.0160 -0.5319
  776MPD2     C11446   2.159   4.434  11.851  0.6023 -0.3229 -0.6928
  776MPD2    C111447   2.025   4.422  11.843  0.3785  0.3181 -0.2786
  776MPD2    C211448   1.931   4.532  11.846  0.8999  0.7810  0.3018
  776MPD2    C311449   1.980   4.657  11.868  1.0558 -0.4865 -0.2353
  776MPD2    C411450   2.120   4.673  11.893 -0.3783 -0.0315  0.6158
  776MPD2    C511451   2.201   4.562  11.878  0.8131 -0.1644 -0.4641
  776MPD2     H11452   1.825   4.518  11.833  0.7967 -0.0249  1.9707
  776MPD2    H111453   2.156   0.055  11.911  1.2477 -0.2796 -1.2502
  776MPD2    H211454   2.226   4.349  11.844 -0.6248 -1.4644  1.1715
  776MPD2    H311455   2.306   4.578  11.897  0.7898  1.3384 -1.5904
  776MPD2     N11456   1.903   0.059  11.862 -0.1530  0.5738  0.0208
  776MPD2    H511457   1.955   0.146  11.869  1.1584 -0.2510  0.6742
  776MPD2    N111458   1.978   4.293  11.842 -0.0667  0.1453  0.3700
  776MPD2    H711459   2.048   4.219  11.849  0.6698  0.8290  0.2918
  777MPD2     C11460   2.468   2.406   1.154  0.1053 -0.1588 -0.2319
  777MPD2    C111461   2.356   2.489   1.165  0.8263  0.3102  0.2915
  777MPD2    C211462   2.266   2.476   1.060  0.1684 -1.0362  0.1168
  777MPD2    C311463   2.281   2.399   0.946 -0.3822 -0.3062 -0.6741
  777MPD2    C411464   2.397   2.324   0.931 -0.1121 -0.6680 -0.2827
  777MPD2    C511465   2.484   2.334   1.039 -0.5996  0.6365  0.4329
  777MPD2     H11466   2.165   2.511   1.076  0.1480 -1.6061  1.2058
  777MPD2    H111467   2.425   2.271   0.841  2.5423  0.1719  0.0557
  777MPD2    H211468   2.540   2.389   1.233  1.8495  0.5262 -1.7059
  777MPD2    H311469   2.577   2.279   1.033  0.7880  2.9240  1.0336
  777MPD2     N11470   2.172   2.398   0.852  0.1366  0.1247  0.3064
  777MPD2    H511471   2.087   2.440   0.888  0.2956  0.3993  0.3613
  777MPD2    N111472   2.331   2.565   1.282  0.5257  0.2943  0.1744
  777MPD2    H711473   2.390   2.546   1.363  0.3694  2.1238  0.7124
  778MPD2     C11474   2.675   3.080  14.686  0.1078 -0.0254 -0.2396
  778MPD2    C111475   2.671   2.945  14.653  0.5835  0.3231 -0.0324
  778MPD2    C211476   2.752   2.897  14.551  0.0150  0.2253  0.4321
  778MPD2    C311477   2.842   2.978  14.482 -0.4901 -0.9203 -0.3216
  778MPD2    C411478   2.845   3.119  14.510  0.1464 -0.0408 -0.2825
  778MPD2    C511479   2.763   3.162  14.613  0.3673 -0.2426 -0.4873
  778MPD2     H11480   2.733   2.795  14.520  0.4416  0.7557 -1.5972
  778MPD2    H111481   2.907   3.189  14.456  0.8892 -2.5360 -2.6510
  778MPD2    H211482   2.600   3.117  14.756  0.8827 -2.5591  1.9464
  778MPD2    H311483   2.759   3.268  14.634 -2.5353 -0.7382  1.4313
  778MPD2     N11484   2.920   2.923  14.382 -0.1013  0.0107 -0.6455
  778MPD2    H511485   2.921   2.821  14.375  1.6739 -0.0507  0.3921
  778MPD2    N111486   2.584   2.855  14.717 -0.2976 -0.2002  0.0438
  778MPD2    H711487   2.568   2.766  14.670 -2.5891  0.7092 -0.8901
  779MPD2     C11488   2.144   1.465  13.941  0.0805  0.1662  0.0387
  779MPD2    C111489   2.277   1.491  13.966  0.3447  0.1628 -0.2045
  779MPD2    C211490   2.334   1.612  13.928  0.0944  0.0026  0.3039
  779MPD2    C311491   2.257   1.716  13.878  0.3890  0.2856  0.5441
  779MPD2    C411492   2.121   1.691  13.855 -0.3584 -0.0467 -0.4880
  779MPD2    C511493   2.067   1.569  13.879  0.3363 -0.2399 -0.2598
  779MPD2     H11494   2.442   1.621  13.935  0.4550 -3.2891 -1.1679
  779MPD2    H111495   2.045   1.762  13.825 -0.9269 -0.6897 -0.5739
  779MPD2    H211496   2.096   1.369  13.955 -3.9984  2.0233 -1.0809
  779MPD2    H311497   1.963   1.542  13.862  0.4768 -1.5749  1.0184
  779MPD2     N11498   2.317   1.842  13.845  0.3015  0.0715  0.5266
  779MPD2    H511499   2.419   1.841  13.847  0.3369  0.6242 -0.7287
  779MPD2    N111500   2.359   1.394  14.027 -0.0004  0.4215  0.4240
  779MPD2    H711501   2.453   1.420  14.055  1.5551 -0.8823 -3.6401
  780MPD2     C11502   0.718   0.320   0.892  0.4214 -0.5877  0.9443
  780MPD2    C111503   0.824   0.401   0.902 -0.0961  0.3591 -0.8875
  780MPD2    C211504   0.877   0.442   0.775  0.1279 -0.0492 -0.0236
  780MPD2    C311505   0.848   0.386   0.653 -0.3015  0.5710  0.9401
  780MPD2    C411506   0.751   0.284   0.654  0.3994 -0.0596  0.1806
  780MPD2    C511507   0.684   0.259   0.767 -0.5248  0.1109 -0.5282
  780MPD2     H11508   0.952   0.519   0.784 -2.3378  2.2842  0.4485
  780MPD2    H111509   0.714   0.225   0.571 -0.5544 -1.0967  1.3363
  780MPD2    H211510   0.655   0.298   0.977 -0.9510 -1.4832 -0.2848
  780MPD2    H311511   0.605   0.185   0.768  0.7493 -1.2605 -1.1310
  780MPD2     N11512   0.909   0.430   0.539 -0.3409  0.7957 -0.3243
  780MPD2    H511513   0.971   0.510   0.547  0.9121  0.0560 -2.6453
  780MPD2    N111514   0.856   0.455   1.026 -0.1142  0.2791  0.5670
  780MPD2    H711515   0.792   0.420   1.097 -1.6770  2.2963  0.1379
  781MPD2     C11516   4.131   2.593  11.980  0.4801 -0.7831 -0.7873
  781MPD2    C111517   4.226   2.668  12.054 -0.8906  0.2752  0.6630
  781MPD2    C211518   4.348   2.702  12.005  0.1604  0.3263  0.1754
  781MPD2    C311519   4.396   2.667  11.882 -0.2689  0.4900  0.6671
  781MPD2    C411520   4.307   2.603  11.799 -0.6749  0.0603 -0.7529
  781MPD2    C511521   4.179   2.576  11.850 -0.1892  0.1524 -0.5351
  781MPD2     H11522   4.413   2.750  12.078  1.2661 -0.7014 -0.1410
  781MPD2    H111523   4.326   2.581  11.695  0.2681 -1.5210 -0.2370
  781MPD2    H211524   4.035   2.556  12.015  0.6291 -0.9004 -0.5034
  781MPD2    H311525   4.108   2.532  11.780 -2.6093 -0.9834  2.6437
  781MPD2     N11526   4.530   2.687  11.832  0.0700  0.5362 -0.3411
  781MPD2    H511527   4.547   2.659  11.736 -2.1230 -0.0521 -0.5755
  781MPD2    N111528   4.188   2.717  12.182  0.0610 -0.0417  0.4847
  781MPD2    H711529   4.253   2.781  12.227  2.1001 -1.6488 -0.1810
  782MPD2     C11530   2.078   3.974  10.400  0.0998  0.0292  0.3164
  782MPD2    C111531   2.155   3.865  10.385  0.3606 -0.2578 -0.0672
  782MPD2    C211532   2.274   3.846  10.463  1.2218  0.2614  0.1952
  782MPD2    C311533   2.301   3.933  10.570 -0.2476  0.9191 -0.1027
  782MPD2    C411534   2.218   4.039  10.575  0.0102 -0.3247 -0.2091
  782MPD2    C511535   2.109   4.061  10.495  0.7700 -0.0037 -0.3951
  782MPD2     H11536   2.333   3.758  10.443  2.1458  0.9208  0.0025
  782MPD2    H111537   2.242   4.118  10.645  0.5925 -0.0071 -0.7738
  782MPD2    H211538   1.986   3.986  10.344 -0.9606 -1.2704  1.7877
  782MPD2    H311539   2.043   4.146  10.505  0.8949  0.1546 -0.8931
  782MPD2     N11540   2.416   3.913  10.649  0.3656 -0.8292  0.2723
  782MPD2    H511541   2.469   3.828  10.636  1.6510 -0.0310  0.3416
  782MPD2    N111542   2.129   3.767  10.293  0.7264 -0.0930  0.0773
  782MPD2    H711543   2.204   3.699  10.281 -1.3258 -2.2193 -0.5231
  783MPD2     C11544   1.948   3.178  10.691 -0.7632 -0.7355 -0.0478
  783MPD2    C111545   1.840   3.251  10.666 -0.6386  0.7009  0.9676
  783MPD2    C211546   1.814   3.296  10.536  0.5846 -0.4523  0.3409
  783MPD2    C311547   1.904   3.265  10.430 -0.5002 -0.0030 -0.7374
  783MPD2    C411548   2.013   3.188  10.455  0.2459 -0.2458 -0.0388
  783MPD2    C511549   2.034   3.148  10.585  0.5431 -0.5182 -0.2427
  783MPD2     H11550   1.732   3.362  10.511  1.5849 -0.0634 -1.9448
  783MPD2    H111551   2.090   3.173  10.380  1.9353  1.0557  1.4002
  783MPD2    H211552   1.974   3.154  10.794 -0.7963  0.1188  0.1608
  783MPD2    H311553   2.117   3.084  10.614  1.9127  0.7104 -1.4530
  783MPD2     N11554   1.900   3.347  10.308  0.0142 -0.4542  0.4658
  783MPD2    H511555   1.841   3.430  10.311  0.1661 -0.3364  0.2684
  783MPD2    N111556   1.760   3.274  10.779 -0.0780  0.2303 -0.3225
  783MPD2    H711557   1.800   3.244  10.868  1.6283 -1.6020 -1.7317
  784MPD2     C11558   3.186   4.530   1.461 -0.1731 -0.1920 -0.6299
  784MPD2    C111559   3.262   4.599   1.364  0.7253 -0.1577 -0.4227
  784MPD2    C211560   3.210   4.707   1.305 -1.1918  0.6125  0.5609
  784MPD2    C311561   3.079   0.026   1.328  0.4191 -0.2578 -0.3212
  784MPD2    C411562   3.010   4.672   1.416 -0.4238  0.6698 -0.3175
  784MPD2    C511563   3.056   4.567   1.485 -0.0569  0.1160 -0.3349
  784MPD2     H11564   3.283   0.044   1.249  0.8901 -0.9998  1.6520
  784MPD2    H111565   2.909   4.701   1.445 -0.5040 -2.3643  2.4469
  784MPD2    H211566   3.215   4.440   1.514  0.7654 -0.5736 -1.7893
  784MPD2    H311567   2.987   4.511   1.547 -0.4244 -0.9176 -1.6876
  784MPD2     N11568   3.033   0.146   1.272 -0.2912  0.1333 -0.8621
  784MPD2    H511569   3.092   0.186   1.199  1.4259  2.3549  1.7343
  784MPD2    N111570   3.400   4.571   1.347 -0.0253 -0.3432  0.2797
  784MPD2    H711571   3.449   4.626   1.277 -2.5438 -0.6822 -1.7707
  785MPD2     C11572   0.669   1.168  10.543 -0.0465 -0.5816  0.1119
  785MPD2    C111573   0.554   1.146  10.603 -0.2086 -0.3280 -0.3638
  785MPD2    C211574   0.459   1.062  10.539 -0.1917  0.4018  0.0491
  785MPD2    C311575   0.480   1.010  10.418 -0.4673  0.2912  0.2014
  785MPD2    C411576   0.609   1.026  10.362  0.8965  0.4094  0.8344
  785MPD2    C511577   0.696   1.114  10.422  0.5267  0.7420 -0.3234
  785MPD2     H11578   0.358   1.051  10.576  0.1139 -0.0771  0.7395
  785MPD2    H111579   0.637   0.989  10.264 -1.4082 -0.7950  0.6268
  785MPD2    H211580   0.742   1.239  10.578 -0.4936 -0.0218 -0.0819
  785MPD2    H311581   0.791   1.122  10.369 -0.0556  3.2283 -0.9909
  785MPD2     N11582   0.377   0.937  10.355 -0.3094 -0.0713 -0.3147
  785MPD2    H511583   0.284   0.944  10.395 -0.1536 -1.2908  0.2621
  785MPD2    N111584   0.524   1.238  10.702  0.6865 -0.1451  0.2612
  785MPD2    H711585   0.584   1.319  10.713 -1.2133  1.1677  1.1301
  786MPD2     C11586   2.752   0.771  14.650  0.7459 -0.7769 -0.2465
  786MPD2    C111587   2.863   0.682  14.655  0.3997 -0.4687  0.1067
  786MPD2    C211588   2.936   0.670  14.775 -0.0610  0.0167 -0.1173
  786MPD2    C311589   2.915   0.752  14.884 -1.0234 -0.5683 -0.2158
  786MPD2    C411590   2.817   0.848  14.867 -0.7431 -0.3264 -0.0270
  786MPD2    C511591   2.732   0.856  14.757  0.0090  0.4816 -0.1344
  786MPD2     H11592   3.022   0.604  14.774  0.1271  0.2240  2.0798
  786MPD2    H111593   2.813   0.921  14.946 -2.4548  1.8540 -2.1471
  786MPD2    H211594   2.691   0.778  14.560 -0.1714 -1.9376  0.2830
  786MPD2    H311595   2.667   0.942  14.747  1.0217  1.2994  0.2706
  786MPD2     N11596   2.975   0.734  15.015 -0.0086  0.1265  0.6980
  786MPD2    H511597   2.939   0.793  15.089  2.4367 -0.8701  2.6925
  786MPD2    N111598   2.908   0.601  14.547 -0.1048  0.6003  0.3051
  786MPD2    H711599   2.997   0.557  14.569  0.3537  1.4832  0.2211
  787MPD2     C11600   2.715   4.635  14.202 -0.1172 -0.4177 -0.5518
  787MPD2    C111601   2.829   4.675  14.266  0.8766 -0.2608 -0.4214
  787MPD2    C211602   2.884   4.575  14.345 -0.3498 -0.2490 -0.1473
  787MPD2    C311603   2.828   4.453  14.367  0.2104  0.1471 -0.0822
  787MPD2    C411604   2.714   4.422  14.304  0.0257 -0.4476  0.0340
  787MPD2    C511605   2.660   4.513  14.211 -0.1577  0.8956 -0.1289
  787MPD2     H11606   2.977   4.593  14.398  0.2313 -1.6740 -0.6715
  787MPD2    H111607   2.665   4.327  14.318 -1.0785  0.0985 -0.1531
  787MPD2    H211608   2.644   4.708  14.164 -0.6364 -0.1508  0.9429
  787MPD2    H311609   2.557   4.500  14.179 -0.0407  0.9880 -0.5429
  787MPD2     N11610   2.895   4.366  14.461 -0.4625  0.1506 -0.1636
  787MPD2    H511611   2.971   4.406  14.515  0.0875  1.7455 -2.1580
  787MPD2    N111612   2.880   0.085  14.241 -0.2281 -0.5406 -0.1948
  787MPD2    H711613   2.879   0.143  14.158 -2.0225  0.1954  0.3494
  788MPD2     C11614   4.185   3.971   1.255 -0.2990  0.0338  0.2209
  788MPD2    C111615   4.143   3.849   1.213  0.1707  0.3184 -0.3275
  788MPD2    C211616   4.225   3.776   1.127  0.6138  0.2831  0.4897
  788MPD2    C311617   4.359   3.819   1.104  0.0017 -0.6143  0.6588
  788MPD2    C411618   4.395   3.940   1.159  0.4065 -0.3851  0.0747
  788MPD2    C511619   4.313   4.010   1.236  0.4551 -0.2458 -0.4454
  788MPD2     H11620   4.197   3.673   1.110  1.9872  0.2159 -1.2791
  788MPD2    H111621   4.493   3.983   1.141 -0.0167  0.7802  0.5588
  788MPD2    H211622   4.129   4.042   1.316  0.0314  1.6752 -1.3852
  788MPD2    H311623   4.338   4.111   1.265  0.8955 -0.3280 -0.5437
  788MPD2     N11624   4.453   3.753   1.029  0.0384  0.3059  0.0827
  788MPD2    H511625   4.542   3.798   1.009 -1.5086  2.3502 -2.2521
  788MPD2    N111626   4.015   3.793   1.256  1.0459  0.0786  0.3284
  788MPD2    H711627   3.978   3.707   1.215  0.3433 -0.1950  1.5548
  789MPD2     C11628   0.586   3.458  16.328  0.7836 -0.0653 -0.1506
  789MPD2    C111629   0.525   3.402  16.440  0.3585  0.5254  0.7948
  789MPD2    C211630   0.393   3.417  16.469 -0.0681  0.1119 -0.2668
  789MPD2    C311631   0.306   3.497  16.387 -0.2706 -0.4818 -0.2154
  789MPD2    C411632   0.373   3.538  16.274  0.7142 -0.8049  0.5006
  789MPD2    C511633   0.508   3.524  16.241  0.6387 -0.4944  0.2901
  789MPD2     H11634   0.356   3.365  16.556 -0.0845  1.8605  0.7665
  789MPD2    H111635   0.309   3.587  16.201  1.1517  0.2210  0.8030
  789MPD2    H211636   0.688   3.443  16.296 -0.0520 -0.7871 -2.5296
  789MPD2    H311637   0.558   3.554  16.149 -2.0546 -0.2893 -1.0867
  789MPD2     N11638   0.176   3.522  16.408 -0.1265  0.0117  0.1350
  789MPD2    H511639   0.122   3.578  16.343 -0.6141 -1.4372 -0.7045
  789MPD2    N111640   0.595   3.326  16.538  0.1707  0.0417  0.1127
  789MPD2    H711641   0.537   3.288  16.611  0.6561 -1.4715 -0.2867
  790MPD2     C11642   2.072   0.401  13.467 -0.2819 -0.6912 -0.5480
  790MPD2    C111643   1.972   0.309  13.483  0.3383 -0.2241  0.0920
  790MPD2    C211644   1.906   0.257  13.372 -0.5098  0.0046 -0.2124
  790MPD2    C311645   1.945   0.295  13.243 -0.2286 -0.2356 -0.8370
  790MPD2    C411646   2.042   0.397  13.227  0.4689 -0.0629  0.1442
  790MPD2    C511647   2.106   0.449  13.341  0.5910  0.3474  0.1785
  790MPD2     H11648   1.835   0.175  13.378  1.3546 -1.5672  0.5563
  790MPD2    H111649   2.077   0.438  13.133 -0.8653 -1.2630 -0.8835
  790MPD2    H211650   2.129   0.437  13.552  2.5153 -2.1809 -1.7973
  790MPD2    H311651   2.191   0.515  13.332  0.6644 -0.0610 -2.1777
  790MPD2     N11652   1.891   0.227  13.127 -0.5617 -0.3197  0.5061
  790MPD2    H511653   1.817   0.165  13.156 -0.7394 -1.2483 -1.9338
  790MPD2    N111654   1.945   0.271  13.610 -0.6830  0.5382  0.0736
  790MPD2    H711655   2.010   0.312  13.676  0.1058 -1.8822  0.8209
  791MPD2     C11656   1.271   0.278  12.888 -0.0851 -0.1186 -0.7665
  791MPD2    C111657   1.321   0.155  12.855  0.4837  0.8078  0.6898
  791MPD2    C211658   1.237   0.058  12.794 -0.6404 -0.6649 -0.2380
  791MPD2    C311659   1.106   0.089  12.756  0.1416 -0.0687 -0.1469
  791MPD2    C411660   1.060   0.218  12.782 -0.4254 -0.4717  0.2609
  791MPD2    C511661   1.139   0.306  12.849  0.4059 -0.3010 -0.1412
  791MPD2     H11662   1.274   4.680  12.763  0.2253 -0.6594  0.7921
  791MPD2    H111663   0.962   0.243  12.743 -0.2916 -0.6514 -0.1905
  791MPD2    H211664   1.329   0.357  12.932  0.6805 -0.0855 -1.8338
  791MPD2    H311665   1.106   0.405  12.879 -0.9742 -0.0395 -2.5142
  791MPD2     N11666   1.027   4.714  12.683  0.3065 -0.3939  0.1775
  791MPD2    H511667   1.073   4.632  12.644  0.3850 -1.1242  1.7967
  791MPD2    N111668   1.454   0.132  12.881  0.1141 -0.2849  0.3937
  791MPD2    H711669   1.514   0.214  12.884 -0.0361 -0.1734  0.3650
  792MPD2     C11670   1.627   0.164  11.307 -1.2798 -0.2030 -1.1726
  792MPD2    C111671   1.742   0.114  11.254  0.3522 -0.1138  0.7980
  792MPD2    C211672   1.745   4.699  11.219 -0.2052  0.1734 -0.1503
  792MPD2    C311673   1.643   4.612  11.239 -0.2082 -0.3331 -0.4029
  792MPD2    C411674   1.527   4.666  11.293 -0.0692 -0.7839 -0.2161
  792MPD2    C511675   1.522   0.082  11.323  0.6303  0.7892  0.6902
  792MPD2     H11676   1.832   4.657  11.170 -0.5788 -1.5924  0.6993
  792MPD2    H111677   1.440   4.603  11.306 -0.4559 -0.1846  0.0916
  792MPD2    H211678   1.615   0.269  11.328  0.9371 -0.0887 -0.4674
  792MPD2    H311679   1.432   0.116  11.373 -0.3683  0.0556 -0.5924
  792MPD2     N11680   1.650   4.472  11.199 -0.6154 -0.6884  0.3878
  792MPD2    H511681   1.579   4.412  11.241 -1.8465  0.5779  0.0964
  792MPD2    N111682   1.859   0.190  11.243 -0.4029 -0.7967 -0.6192
  792MPD2    H711683   1.858   0.291  11.251 -2.0977 -0.7966 -0.7556
  793MPD2     C11684   1.669   4.045  10.400 -0.1492 -0.2448  0.1569
  793MPD2    C111685   1.747   4.157  10.425 -0.8158  0.4077 -0.3886
  793MPD2    C211686   1.797   4.186  10.551 -0.9366 -0.5897  0.1933
  793MPD2    C311687   1.776   4.100  10.655  0.4950 -0.0797  0.0559
  793MPD2    C411688   1.694   3.987  10.631 -0.3913  0.6537  0.2916
  793MPD2    C511689   1.642   3.965  10.505 -0.3675  0.2927 -0.0353
  793MPD2     H11690   1.858   4.275  10.565  0.2622 -1.2569 -0.8756
  793MPD2    H111691   1.652   3.926  10.709 -0.3654 -2.8870 -2.4348
  793MPD2    H211692   1.625   4.006  10.309 -0.3264  1.6269 -0.5582
  793MPD2    H311693   1.573   3.882  10.492  0.8075 -0.4783 -1.3684
  793MPD2     N11694   1.839   4.119  10.776  0.2203  0.3743  0.1834
  793MPD2    H511695   1.885   4.209  10.785  0.2779  0.1070  2.5786
  793MPD2    N111696   1.786   4.244  10.315 -0.2233 -0.2652 -0.6079
  793MPD2    H711697   1.844   4.325  10.330  0.0490 -0.3320 -1.3281
  794MPD2     C11698   0.491   3.895  17.069 -0.6574 -0.0553 -0.8975
  794MPD2    C111699   0.623   3.883  17.039 -0.0523 -0.1535  0.5334
  794MPD2    C211700   0.668   3.952  16.925  0.0360 -0.5031  0.5151
  794MPD2    C311701   0.584   4.036  16.853  0.1150  1.1554  0.0754
  794MPD2    C411702   0.456   4.054  16.894 -0.1207  0.5309 -0.6870
  794MPD2    C511703   0.410   3.979  16.998  0.1042 -0.0484 -0.0721
  794MPD2     H11704   0.770   3.935  16.894 -1.2728 -2.2321 -2.9234
  794MPD2    H111705   0.386   4.114  16.838 -0.3243  0.0147 -0.9886
  794MPD2    H211706   0.450   3.834  17.149 -0.3073 -0.6135 -1.1407
  794MPD2    H311707   0.308   4.000  17.028 -0.5672 -1.1493 -1.5795
  794MPD2     N11708   0.619   4.113  16.744  0.0080  0.1100  0.3339
  794MPD2    H511709   0.549   4.178  16.708  1.5361  0.2134 -2.4997
  794MPD2    N111710   0.707   3.818  17.123  0.4734  0.1133  0.1071
  794MPD2    H711711   0.658   3.773  17.200 -0.7136 -1.9601 -1.8638
  795MPD2     C11712   3.858   1.856  13.163 -0.9874  0.2544 -0.1449
  795MPD2    C111713   3.773   1.749  13.186  0.5189  0.8915  0.1547
  795MPD2    C211714   3.773   1.680  13.307 -0.5436 -0.2082  0.3639
  795MPD2    C311715   3.853   1.722  13.408  0.7695  0.0565 -0.6700
  795MPD2    C411716   3.939   1.826  13.381  0.0497 -0.2235  0.6743
  795MPD2    C511717   3.944   1.892  13.264  0.2424  0.4308 -0.6759
  795MPD2     H11718   3.706   1.595  13.318 -0.9249  0.1349  0.6857
  795MPD2    H111719   4.004   1.861  13.459  0.7393 -0.1164  0.0535
  795MPD2    H211720   3.864   1.912  13.071 -1.0555  0.1511 -0.2129
  795MPD2    H311721   4.018   1.968  13.243  0.4759  0.8244  1.5409
  795MPD2     N11722   3.846   1.647  13.529  0.3242 -0.4811 -0.0443
  795MPD2    H511723   3.768   1.582  13.533 -1.7088  2.0743  2.4959
  795MPD2    N111724   3.687   1.698  13.087 -0.2383 -0.5054 -0.0644
  795MPD2    H711725   3.613   1.638  13.122 -1.2611  2.2396  2.5348
  796MPD2     C11726   3.330   3.393  15.753 -0.2818  0.0975  0.1800
  796MPD2    C111727   3.411   3.428  15.860  0.2374 -0.2377  0.7612
  796MPD2    C211728   3.430   3.564  15.874 -0.5853  0.2855 -0.2501
  796MPD2    C311729   3.379   3.658  15.788 -0.3761  0.4144  0.1392
  796MPD2    C411730   3.304   3.619  15.676 -0.1251  0.9486  0.3939
  796MPD2    C511731   3.281   3.488  15.661 -0.2315  0.3408  1.1570
  796MPD2     H11732   3.486   3.597  15.961  1.6877  0.8326 -1.9191
  796MPD2    H111733   3.252   3.688  15.610  0.1712  0.8287  0.0342
  796MPD2    H211734   3.301   3.289  15.757 -1.4818  0.4869  1.3719
  796MPD2    H311735   3.217   3.453  15.580 -0.2882  1.8776  0.5426
  796MPD2     N11736   3.397   3.794  15.820 -0.9726 -0.2575  0.4310
  796MPD2    H511737   3.446   3.817  15.906 -2.4035 -2.7606  1.9039
  796MPD2    N111738   3.462   3.330  15.949 -0.2533 -0.0311 -1.1121
  796MPD2    H711739   3.428   3.234  15.946 -3.5791  1.0519  2.3921
  797MPD2     C11740   4.210   2.736  17.398 -0.1538 -0.4401  0.6474
  797MPD2    C111741   4.333   2.796  17.403  0.2282 -0.4617 -0.0410
  797MPD2    C211742   4.392   2.832  17.284 -0.3745  0.0031  0.2118
  797MPD2    C311743   4.339   2.802  17.163  0.6042 -0.1096 -1.1056
  797MPD2    C411744   4.220   2.741  17.151  0.0148 -0.1269  0.1773
  797MPD2    C511745   4.160   2.707  17.269 -0.0665  0.9601  0.0842
  797MPD2     H11746   4.488   2.882  17.292  0.6343 -1.3732 -3.4157
  797MPD2    H111747   4.176   2.721  17.054  1.7590  1.7621 -1.0033
  797MPD2    H211748   4.148   2.707  17.482 -1.0545  1.1220  0.5343
  797MPD2    H311749   4.064   2.658  17.261  1.2807 -1.6150 -0.1915
  797MPD2     N11750   4.417   2.853  17.051 -0.0220  0.2275 -1.2028
  797MPD2    H511751   4.497   2.912  17.072  0.4128 -0.8493  0.1695
  797MPD2    N111752   4.394   2.848  17.524 -0.0377  0.4784 -0.0364
  797MPD2    H711753   4.486   2.889  17.521  0.5011 -0.5255  2.6941
  798MPD2     C11754   4.562   3.464  17.172 -0.2156 -0.1261  0.0830
  798MPD2    C111755   4.586   3.327  17.180 -0.3414 -0.2505 -0.1280
  798MPD2    C211756   4.582   3.268  17.304 -0.2240  0.3524  0.1589
  798MPD2    C311757   4.559   3.340  17.415 -0.0873 -0.3311  0.5649
  798MPD2    C411758   4.553   3.478  17.409 -0.0686  0.4009  0.1501
  798MPD2    C511759   4.543   3.537  17.289 -0.3204 -0.5427  0.0659
  798MPD2     H11760   4.570   3.161  17.314 -1.5672  0.4966  0.1557
  798MPD2    H111761   4.552   3.535  17.500 -0.1392  0.1648  0.2974
  798MPD2    H211762   4.554   3.510  17.074  1.3071 -3.2336 -1.5495
  798MPD2    H311763   4.524   3.644  17.286 -0.0587 -0.5107 -0.4830
  798MPD2     N11764   4.555   3.255  17.531 -0.0763  0.0630  0.5387
  798MPD2    H511765   4.564   3.156  17.511 -0.1823 -0.2487  2.0648
  798MPD2    N111766   4.617   3.261  17.057 -0.0597  0.4408 -0.3969
  798MPD2    H711767   4.626   3.314  16.971 -0.1213 -0.4542 -0.9573
  799MPD2     C11768   3.192   3.747  14.421 -0.1109 -0.1578 -0.1808
  799MPD2    C111769   3.305   3.831  14.413 -0.0725 -0.5005  0.1881
  799MPD2    C211770   3.278   3.959  14.374 -0.3792 -0.1282  0.2348
  799MPD2    C311771   3.149   4.008  14.347  0.5795  0.1212 -0.3029
  799MPD2    C411772   3.044   3.921  14.378  0.1336  0.4024 -0.2268
  799MPD2    C511773   3.063   3.791  14.414 -0.7268 -0.2822  0.1555
  799MPD2     H11774   3.363   4.024  14.358 -0.2152 -0.1071  1.2267
  799MPD2    H111775   2.942   3.949  14.352  1.1128  1.9733 -2.3005
  799MPD2    H211776   3.202   3.646  14.458 -1.1595 -0.8605 -1.8230
  799MPD2    H311777   2.983   3.722  14.439 -1.2755  0.0499 -0.6854
  799MPD2     N11778   3.120   4.134  14.287 -0.3286 -0.2886  0.0829
  799MPD2    H511779   3.035   4.144  14.232  0.0164  1.2434 -0.1569
  799MPD2    N111780   3.439   3.784  14.425  0.0694  0.2443 -0.4865
  799MPD2    H711781   3.514   3.847  14.402  1.7779 -1.1931  1.1582
  800MPD2     C11782   3.392   0.534  13.809 -0.2097  0.1680 -0.3036
  800MPD2    C111783   3.511   0.599  13.767  0.8797 -0.5187  0.4427
  800MPD2    C211784   3.529   0.608  13.629  0.9467 -0.3855  0.1719
  800MPD2    C311785   3.436   0.562  13.540  0.3544 -0.0566  0.1456
  800MPD2    C411786   3.319   0.496  13.582  0.6960 -0.0751 -0.3005
  800MPD2    C511787   3.304   0.470  13.716 -0.1463  0.3651  0.4945
  800MPD2     H11788   3.603   0.672  13.583  1.7006 -0.5082  1.1905
  800MPD2    H111789   3.242   0.455  13.517 -1.2271  0.3655  1.7230
  800MPD2    H211790   3.365   0.536  13.914  1.7930 -2.7799  0.2765
  800MPD2    H311791   3.209   0.436  13.756  0.5570 -1.2110  0.8264
  800MPD2     N11792   3.472   0.583  13.407 -0.2814  0.3054  0.2072
  800MPD2    H511793   3.549   0.648  13.399 -1.5182  1.4627 -2.2320
  800MPD2    N111794   3.595   0.663  13.860 -0.1627 -0.6050 -0.1063
  800MPD2    H711795   3.568   0.648  13.957 -0.4137 -1.2820 -0.2806
  801MPD2     C11796   3.551   1.002  14.538 -0.1544 -0.2312  0.4255
  801MPD2    C111797   3.537   1.093  14.439 -0.2132 -0.6570  0.5411
  801MPD2    C211798   3.503   1.220  14.473 -0.7058  0.0037  0.1462
  801MPD2    C311799   3.464   1.258  14.603 -0.4757  0.1485  0.5939
  801MPD2    C411800   3.479   1.163  14.697  0.2740  0.6855  0.2282
  801MPD2    C511801   3.529   1.043  14.664  0.0431  0.3967  0.0334
  801MPD2     H11802   3.485   1.291  14.392  1.0082 -1.1767 -1.2637
  801MPD2    H111803   3.448   1.184  14.799 -0.7860  1.3033 -0.2163
  801MPD2    H211804   3.594   0.905  14.516  3.0043  1.8743 -2.6654
  801MPD2    H311805   3.535   0.961  14.735 -2.3508  0.0912 -0.1143
  801MPD2     N11806   3.391   1.374  14.638 -0.4814 -0.5455 -0.5363
  801MPD2    H511807   3.356   1.383  14.732 -0.0201 -0.9015 -0.3319
  801MPD2    N111808   3.582   1.084  14.303 -0.2679 -0.3918  0.4680
  801MPD2    H711809   3.596   1.158  14.235 -2.2413  0.0723  0.5720
  802MPD2     C11810   2.216   1.240  17.650 -0.4524 -0.1104 -0.6357
  802MPD2    C111811   2.296   1.151   0.040 -0.7006 -0.1466  0.3975
  802MPD2    C211812   2.424   1.128  17.675  0.3268 -0.0798 -0.4120
  802MPD2    C311813   2.464   1.194  17.559 -0.4434  0.9131 -0.2193
  802MPD2    C411814   2.382   1.283  17.492 -0.3876  0.3476  0.4210
  802MPD2    C511815   2.257   1.309  17.546 -0.1251  0.1409  0.4625
  802MPD2     H11816   2.496   1.057   0.037 -1.4293 -2.3480 -1.2743
  802MPD2    H111817   2.401   1.337  17.400  1.6411 -0.6145  0.2809
  802MPD2    H211818   2.119   1.275   0.007  0.0416 -1.1074  1.7476
  802MPD2    H311819   2.186   1.384  17.512  1.6845  1.4895 -0.3057
  802MPD2     N11820   2.599   1.165  17.511 -0.2776 -0.3125 -0.3287
  802MPD2    H511821   2.656   1.106  17.570 -1.2388 -0.4406  0.4807
  802MPD2    N111822   2.261   1.097   0.168 -0.1998 -0.3497  0.1690
  802MPD2    H711823   2.308   1.011   0.195  1.9383  0.3180 -1.3794
  803MPD2     C11824   4.418   0.059  11.691  0.2423 -0.2549 -0.0357
  803MPD2    C111825   4.525   0.034  11.776  0.1867 -0.0123 -0.2009
  803MPD2    C211826   4.506   4.664  11.874  0.5832  0.0980 -0.4108
  803MPD2    C311827   4.387   4.598  11.889 -0.2584 -0.1056 -0.2458
  803MPD2    C411828   4.290   4.618  11.802  0.3535 -0.3844  0.5624
  803MPD2    C511829   4.303   4.708  11.701 -0.4530  0.5767 -0.2940
  803MPD2     H11830   4.589   4.633  11.937  0.2579  1.7090  0.8169
  803MPD2    H111831   4.197   4.563  11.810 -0.1296  0.3415 -0.0022
  803MPD2    H211832   4.414   0.137  11.615 -1.3396 -0.2770  0.0145
  803MPD2    H311833   4.231   4.716  11.621 -2.5006  0.8985  1.5914
  803MPD2     N11834   4.372   4.493  11.983 -0.4295 -0.4756 -0.2441
  803MPD2    H511835   4.276   4.474  12.011 -0.3409  0.7501  0.8856
  803MPD2    N111836   4.640   0.111  11.782 -0.2648  0.1701 -0.2997
  803MPD2    H711837   4.705   0.104  11.860 -1.1322  1.3670  0.5221
  804MPD2     C11838   3.813   1.512  17.029 -0.3900  0.8727 -0.5627
  804MPD2    C111839   3.808   1.501  17.165 -0.2319  0.1398 -0.0163
  804MPD2    C211840   3.875   1.602  17.235  0.0896 -0.3531  0.3995
  804MPD2    C311841   3.926   1.711  17.175 -0.0977  0.7688  0.7548
  804MPD2    C411842   3.935   1.719  17.038 -0.3259 -0.1275 -0.2121
  804MPD2    C511843   3.877   1.620  16.973  0.6384  0.5158 -0.0588
  804MPD2     H11844   3.880   1.588  17.342  0.3528 -1.8322  0.2058
  804MPD2    H111845   3.988   1.795  16.982 -0.8523  0.1267 -0.3559
  804MPD2    H211846   3.769   1.435  16.967  1.3106 -0.9179  0.4829
  804MPD2    H311847   3.884   1.619  16.865 -1.6635  0.1380 -0.2216
  804MPD2     N11848   3.991   1.799  17.261  0.0976 -0.0047  0.1719
  804MPD2    H511849   4.000   1.774  17.359  2.4200 -1.7766 -0.4813
  804MPD2    N111850   3.767   1.378  17.227 -0.0157 -0.0433  0.1956
  804MPD2    H711851   3.770   1.381  17.329 -1.4831  1.5112  0.1966
  805MPD2     C11852   2.734   0.024  15.579 -0.3355 -0.6539  0.4831
  805MPD2    C111853   2.828   0.066  15.480 -1.1077 -0.0519 -0.1433
  805MPD2    C211854   2.965   0.047  15.509  0.0897 -0.2771 -0.3362
  805MPD2    C311855   3.016   4.712  15.628 -0.2818  0.6222  0.4257
  805MPD2    C411856   2.915   4.674  15.715 -0.8759 -0.2412 -0.2295
  805MPD2    C511857   2.782   4.693  15.691  0.5462  0.3411  0.4487
  805MPD2     H11858   3.040   0.072  15.435 -0.0704 -2.9425 -1.3760
  805MPD2    H111859   2.942   4.621  15.806 -3.2073  1.3833  1.4160
  805MPD2    H211860   2.626   0.028  15.571 -0.4175 -2.7477  0.6899
  805MPD2    H311861   2.715   4.650  15.766  0.2705  1.1858  0.6847
  805MPD2     N11862   3.153   4.702  15.650  0.1683 -0.1505 -0.1412
  805MPD2    H511863   3.218   0.016  15.580 -0.7030 -0.3067 -1.0197
  805MPD2    N111864   2.796   0.109  15.348 -0.3922  0.3181 -0.3444
  805MPD2    H711865   2.870   0.126  15.281 -0.1389 -0.7058 -0.3217
  806MPD2     C11866   4.247   0.005   1.305 -0.2785 -0.0009 -0.1764
  806MPD2    C111867   4.132   4.687   1.239 -0.2712 -0.4684 -0.1254
  806MPD2    C211868   4.038   0.065   1.205  0.0961  0.0069  0.8363
  806MPD2    C311869   4.065   0.198   1.224 -0.4517  1.3870 -0.1078
  806MPD2    C411870   4.173   0.230   1.293 -0.6080 -0.1734  0.7460
  806MPD2    C511871   4.269   0.134   1.331  0.5316 -0.4759  0.6986
  806MPD2     H11872   3.958   0.032   1.140  0.4583  1.9040 -0.6094
  806MPD2    H111873   4.202   0.331   1.319 -2.3735 -0.0276  2.1319
  806MPD2    H211874   4.316   4.656   1.354  0.0238 -1.7294 -2.9970
  806MPD2    H311875   4.358   0.166   1.384  0.2893 -1.2587  1.6008
  806MPD2     N11876   3.972   0.295   1.170 -0.0090  0.2464  0.0075
  806MPD2    H511877   3.889   0.259   1.125  1.6658 -3.3521 -0.1762
  806MPD2    N111878   4.111   4.552   1.204 -0.4748 -0.2515 -0.1401
  806MPD2    H711879   4.024   4.527   1.157 -1.2598 -1.1432  1.7931
  807MPD2     C11880   3.592   4.063   1.130 -0.5759 -0.2129  0.5358
  807MPD2    C111881   3.687   4.088   1.231 -0.6524 -0.4685 -0.1261
  807MPD2    C211882   3.638   4.081   1.361  0.0542  0.0744 -0.1190
  807MPD2    C311883   3.504   4.051   1.392 -0.2438  0.0674 -0.7427
  807MPD2    C411884   3.415   4.034   1.293  0.0464  0.5443  0.5702
  807MPD2    C511885   3.466   4.034   1.164  0.1395 -0.0845  0.2700
  807MPD2     H11886   3.700   4.118   1.441  0.3222 -1.0905  0.2128
  807MPD2    H111887   3.308   4.022   1.305  0.2245 -2.8164 -1.2353
  807MPD2    H211888   3.618   4.067   1.025 -0.4774  0.5097  0.5869
  807MPD2    H311889   3.396   4.021   1.083 -0.8008  0.2073  1.0332
  807MPD2     N11890   3.469   4.045   1.528  0.1724 -0.5651  0.0766
  807MPD2    H511891   3.543   4.066   1.594 -1.6457 -1.1583  2.2797
  807MPD2    N111892   3.823   4.121   1.202 -0.2989 -0.2003  0.5094
  807MPD2    H711893   3.888   4.148   1.275  0.2006  1.3457 -0.5161
  808MPD2     C11894   4.266   4.284   8.497  0.0395  0.3022 -0.8990
  808MPD2    C111895   4.176   4.299   8.596  0.2690  0.0027  0.2144
  808MPD2    C211896   4.197   4.387   8.700 -0.1488 -0.6000  0.2056
  808MPD2    C311897   4.315   4.460   8.707 -0.0097 -0.2192  0.2848
  808MPD2    C411898   4.406   4.451   8.604  0.6316 -0.8263  0.2975
  808MPD2    C511899   4.380   4.368   8.495  0.2177 -0.0979 -0.4388
  808MPD2     H11900   4.138   4.386   8.791 -0.8834  0.8533 -0.2542
  808MPD2    H111901   4.490   4.517   8.585 -1.3588  1.7671  0.5401
  808MPD2    H211902   4.253   4.208   8.421 -2.0719 -0.5746  0.3588
  808MPD2    H311903   4.447   4.366   8.410 -0.8840  1.0290 -1.3107
  808MPD2     N11904   4.352   4.545   8.817 -0.5465 -0.0060 -0.4971
  808MPD2    H511905   4.450   4.570   8.808  0.3704 -3.7070 -0.7469
  808MPD2    N111906   4.061   4.216   8.606  0.6299 -0.2909 -0.2597
  808MPD2    H711907   4.004   4.231   8.689 -1.3734 -0.7563 -1.5276
  809MPD2     C11908   0.381   0.219   8.827  0.1745 -0.9565 -0.4408
  809MPD2    C111909   0.351   0.216   8.968 -0.2627  0.4741 -0.1683
  809MPD2    C211910   0.253   0.129   9.018  0.4346  0.5019  0.2407
  809MPD2    C311911   0.172   0.058   8.936 -0.1473  0.4035 -0.1512
  809MPD2    C411912   0.192   0.071   8.801 -0.2171  0.2185  0.3413
  809MPD2    C511913   0.282   0.154   8.750  0.0150 -0.4500 -0.1929
  809MPD2     H11914   0.233   0.145   9.123  2.4328 -1.1724  0.8746
  809MPD2    H111915   0.127   0.022   8.729  1.5853  0.6416 -1.5538
  809MPD2    H211916   0.449   0.294   8.789 -1.8759  0.9895 -0.3308
  809MPD2    H311917   0.282   0.168   8.643  0.3184 -0.7713 -0.2377
  809MPD2     N11918   0.062   4.706   8.978  0.5956 -0.6267 -0.1501
  809MPD2    H511919   4.710   4.695   8.906  0.6912  2.0216 -0.6294
  809MPD2    N111920   0.422   0.312   9.047 -0.1605  0.2087  0.7299
  809MPD2    H711921   0.414   0.296   9.147 -2.0321 -1.1807  0.3564
  810MPD2     C11922   4.067   4.278   9.322 -0.3956  0.2603  0.7406
  810MPD2    C111923   4.011   4.257   9.444  0.4910  0.1053  0.0107
  810MPD2    C211924   4.086   4.294   9.554  0.0504  0.3650  0.1377
  810MPD2    C311925   4.207   4.361   9.546 -0.3878 -0.0931  0.8588
  810MPD2    C411926   4.256   4.387   9.422 -0.7445 -0.4654  0.0193
  810MPD2    C511927   4.188   4.341   9.315  0.0011 -0.3803  0.0802
  810MPD2     H11928   4.043   4.283   9.654  0.6811 -1.5775  0.1809
  810MPD2    H111929   4.346   4.441   9.398  1.0640 -2.3511  2.5217
  810MPD2    H211930   4.027   4.260   9.223  1.5152 -1.0009  0.1926
  810MPD2    H311931   4.222   4.356   9.213  0.3224  0.1872  0.2743
  810MPD2     N11932   4.281   4.416   9.659  0.0097 -0.3414 -0.3095
  810MPD2    H511933   4.363   4.473   9.642 -1.6147  2.3235  0.8739
  810MPD2    N111934   3.878   4.201   9.454 -0.4173 -0.5417 -0.0028
  810MPD2    H711935   3.833   4.186   9.364  0.6636  1.4686 -0.8644
  811MPD2     C11936   3.188   4.430   9.334 -0.3222 -0.0816 -0.1158
  811MPD2    C111937   3.320   4.448   9.365  0.1102 -0.2045  0.6528
  811MPD2    C211938   3.379   4.571   9.362 -0.1547 -0.0921 -0.6686
  811MPD2    C311939   3.301   4.682   9.329  0.4862  1.1394 -0.2878
  811MPD2    C411940   3.165   4.668   9.317  0.1470 -0.0051  0.4944
  811MPD2    C511941   3.115   4.547   9.313 -0.1305  0.3779  0.1231
  811MPD2     H11942   3.484   4.570   9.391 -0.4973  1.6106  0.6352
  811MPD2    H111943   3.089   0.026   9.305  1.7418  1.3410 -0.9369
  811MPD2    H211944   3.131   4.338   9.343 -2.2181  1.1781  0.7435
  811MPD2    H311945   3.009   4.538   9.296  0.3971 -2.0189 -1.8591
  811MPD2     N11946   3.360   0.093   9.341  0.9922  0.2335 -1.0109
  811MPD2    H511947   3.457   0.089   9.371  0.8476 -1.3135 -0.7184
  811MPD2    N111948   3.403   4.340   9.389  0.5228 -0.2412 -0.5730
  811MPD2    H711949   3.502   4.361   9.395  0.9397 -2.0255 -0.9526
  812MPD2     C11950   2.968   4.478  12.102 -0.8251  0.0081 -0.5319
  812MPD2    C111951   2.829   4.490  12.067 -0.9479 -0.7598 -0.1483
  812MPD2    C211952   2.736   4.419  12.147  0.0521 -0.1232 -0.1015
  812MPD2    C311953   2.778   4.354  12.261 -0.8348  0.1099  0.1564
  812MPD2    C411954   2.913   4.349  12.291  0.0161  0.4833  0.3388
  812MPD2    C511955   3.011   4.410  12.216  0.2137 -0.1898  0.3305
  812MPD2     H11956   2.629   4.428  12.134 -0.3691 -1.6387  2.3070
  812MPD2    H111957   2.948   4.306  12.384  1.4689  1.7830  0.3988
  812MPD2    H211958   3.042   4.522  12.037 -1.6262 -0.0292 -1.4837
  812MPD2    H311959   3.116   4.402  12.241  0.3991  1.9445  0.1944
  812MPD2     N11960   2.678   4.285  12.344  0.1095 -0.0311  0.1002
  812MPD2    H511961   2.593   4.259  12.294 -0.4021  0.9222  0.4841
  812MPD2    N111962   2.801   4.568  11.954  0.3042  0.2098 -0.0440
  812MPD2    H711963   2.877   4.612  11.903  1.4520 -0.7283  0.8397
  813MPD2     C11964   1.309   2.019  13.035 -0.6111  0.3992 -0.6637
  813MPD2    C111965   1.399   1.925  13.091 -0.4216  0.4583  0.1453
  813MPD2    C211966   1.354   1.857  13.204  0.0645  0.0933  0.5421
  813MPD2    C311967   1.236   1.876  13.265 -0.0195 -0.4281 -0.5227
  813MPD2    C411968   1.156   1.969  13.213 -0.5837 -0.0341 -0.2211
  813MPD2    C511969   1.188   2.037  13.097  0.5949 -0.2737  0.1840
  813MPD2     H11970   1.417   1.785  13.255 -1.0085 -1.3912 -0.2406
  813MPD2    H111971   1.059   1.988  13.258  0.1746  1.1977  0.8995
  813MPD2    H211972   1.334   2.077  12.947  1.6425 -1.6996 -1.4075
  813MPD2    H311973   1.110   2.094  13.048  3.8485  1.7337 -2.6741
  813MPD2     N11974   1.218   1.820  13.398  0.7833 -0.1677  0.3680
  813MPD2    H511975   1.292   1.754  13.423  1.1923 -0.1705 -0.8056
  813MPD2    N111976   1.525   1.903  13.036  0.4982 -0.0774  0.3644
  813MPD2    H711977   1.546   1.950  12.948  0.8199 -0.0828  0.4363
  814MPD2     C11978   2.154   3.249  12.264  0.3145  0.1931 -0.0037
  814MPD2    C111979   2.229   3.247  12.153  0.7282 -0.1716  1.1018
  814MPD2    C211980   2.288   3.359  12.108  0.2674 -0.2829  0.0744
  814MPD2    C311981   2.246   3.482  12.160  0.4000 -0.0157 -0.1755
  814MPD2    C411982   2.167   3.481  12.267  0.4397  0.0853 -0.7278
  814MPD2    C511983   2.130   3.362  12.328  0.8042 -0.4460  0.0338
  814MPD2     H11984   2.344   3.346  12.015 -0.0579  0.5094 -0.2330
  814MPD2    H111985   2.125   3.572  12.308  2.2098  0.9795 -0.8831
  814MPD2    H211986   2.120   3.154  12.303  1.1180  0.5607  1.6306
  814MPD2    H311987   2.064   3.360  12.414  1.2070 -0.7192  0.3342
  814MPD2     N11988   2.288   3.603  12.108 -0.9099 -0.4635  0.7498
  814MPD2    H511989   2.261   3.686  12.160 -1.3559  0.5571 -1.1023
  814MPD2    N111990   2.253   3.128  12.074 -0.1538 -0.2318  0.1327
  814MPD2    H711991   2.319   3.138  11.998  1.5425 -0.2803  1.5952
  815MPD2     C11992   2.859   1.239  11.765  0.4435 -0.6569 -0.5075
  815MPD2    C111993   2.813   1.111  11.731 -0.5178  0.8991 -0.1701
  815MPD2    C211994   2.733   1.051  11.827 -0.1715  0.5056 -0.1546
  815MPD2    C311995   2.687   1.120  11.943 -0.3603 -0.5154  0.2402
  815MPD2    C411996   2.722   1.253  11.963  0.1429  0.6705 -0.6774
  815MPD2    C511997   2.820   1.301  11.881  0.2335 -0.7946 -0.2105
  815MPD2     H11998   2.688   0.953  11.813  2.7334 -0.9785  0.8539
  815MPD2    H111999   2.682   1.322  12.036  1.0495 -2.2336  2.5834
  815MPD2    H212000   2.933   1.290  11.703  0.3955  0.4237  0.3364
  815MPD2    H312001   2.858   1.402  11.886  0.4899 -1.0471  2.7484
  815MPD2     N12002   2.592   1.058  12.024  0.4658 -0.0214  0.2993
  815MPD2    H512003   2.568   0.960  12.010  2.2285 -0.2208 -1.2950
  815MPD2    N112004   2.843   1.057  11.611 -0.0556 -0.2118  0.0172
  815MPD2    H712005   2.895   1.122  11.552  0.8278 -1.1393 -0.2189
  816MPD2     C12006   1.706   1.172   0.055  0.1714 -0.2816  0.7044
  816MPD2    C112007   1.733   1.242  17.614 -0.3215  0.4555 -0.1898
  816MPD2    C212008   1.837   1.189  17.529  1.0144  0.1981 -0.6611
  816MPD2    C312009   1.892   1.069  17.552  0.5184 -0.1623 -0.4427
  816MPD2    C412010   1.857   1.000  17.664  0.3240 -0.1787 -0.5556
  816MPD2    C512011   1.774   1.053   0.080 -0.1397  0.1612  0.3884
  816MPD2     H12012   1.862   1.251  17.444  0.9680 -0.1579 -0.9335
  816MPD2    H112013   1.895   0.901   0.009  0.6866 -0.3743 -2.0173
  816MPD2    H212014   1.637   1.207   0.131 -0.8875 -0.1367 -0.3271
  816MPD2    H312015   1.780   1.004   0.176 -0.2639 -1.1042 -0.2459
  816MPD2     N12016   1.980   0.998  17.464  0.1763 -0.3791  0.3189
  816MPD2    H512017   2.003   0.903  17.491  3.2770  0.5979  1.1835
  816MPD2    N112018   1.671   1.361  17.595 -0.4654 -0.5833 -0.2285
  816MPD2    H712019   1.619   1.397  17.674 -2.6719 -1.0880 -1.4613
  817MPD2     C12020   1.956   2.003  10.191  0.4085  0.0924 -0.2885
  817MPD2    C112021   2.068   2.008  10.117  0.9536 -0.4475  0.0217
  817MPD2    C212022   2.129   2.134  10.100  0.2391  0.4163  0.3521
  817MPD2    C312023   2.067   2.251  10.150  0.4145 -0.5122 -0.1419
  817MPD2    C412024   1.959   2.239  10.233  0.2288  0.3080  1.0208
  817MPD2    C512025   1.906   2.113  10.252  0.0351  0.3150  0.8545
  817MPD2     H12026   2.224   2.151  10.050 -0.6495  1.7922 -0.8547
  817MPD2    H112027   1.912   2.326  10.276 -0.9101 -0.2301  0.8641
  817MPD2    H212028   1.906   1.907  10.203  1.9304 -0.7562 -0.6837
  817MPD2    H312029   1.812   2.108  10.305 -0.3417  0.8453  0.2498
  817MPD2     N12030   2.120   2.374  10.106 -0.3906 -0.0846  0.0980
  817MPD2    H512031   2.204   2.372  10.050 -0.7768  2.5708 -0.5866
  817MPD2    N112032   2.122   1.897  10.042  0.4748  0.7091 -0.5164
  817MPD2    H712033   2.190   1.916   9.968 -0.9149  2.1026 -1.4154
  818MPD2     C12034   1.106   2.129  10.613  0.0595  0.0134  0.2724
  818MPD2    C112035   1.020   2.060  10.529  0.1002  0.0812 -0.1925
  818MPD2    C212036   1.070   1.953  10.457  0.9467 -0.2607  0.2067
  818MPD2    C312037   1.202   1.924  10.456  0.7810 -0.1186  0.0785
  818MPD2    C412038   1.290   1.996  10.526  0.3330 -1.0125 -0.1334
  818MPD2    C512039   1.244   2.097  10.602  0.0423  0.0511 -0.3288
  818MPD2     H12040   1.006   1.887  10.400  1.3080  0.0084 -0.5132
  818MPD2    H112041   1.396   1.975  10.519  0.3400 -0.8374 -0.5902
  818MPD2    H212042   1.072   2.204  10.684  0.9095  0.9363 -0.3011
  818MPD2    H312043   1.321   2.156  10.650 -1.3247 -1.5702  3.8995
  818MPD2     N12044   1.244   1.818  10.368 -0.4584  0.0598  0.7367
  818MPD2    H512045   1.170   1.793  10.305  0.3491  0.0558 -0.2123
  818MPD2    N112046   0.886   2.089  10.527 -0.6380 -0.4790  0.2867
  818MPD2    H712047   0.833   2.018  10.477 -1.7419 -2.1879  3.8679
  819MPD2     C12048   3.520   4.427  15.444 -0.7366 -0.1635  0.0549
  819MPD2    C112049   3.534   4.291  15.427  0.1722 -0.1216 -0.9101
  819MPD2    C212050   3.652   4.232  15.460 -0.1340 -0.1752  0.0378
  819MPD2    C312051   3.759   4.299  15.515  0.0323 -0.2794 -0.4527
  819MPD2    C412052   3.747   4.432  15.534  0.0178  0.7038  0.9128
  819MPD2    C512053   3.627   4.498  15.490  0.1369  0.0958  0.1173
  819MPD2     H12054   3.658   4.124  15.458  1.8112 -0.0865  0.8856
  819MPD2    H112055   3.819   4.498  15.581  1.1691  0.4291 -0.4662
  819MPD2    H212056   3.429   4.478  15.415  0.0798  0.3749 -1.5347
  819MPD2    H312057   3.630   4.606  15.483  0.6761  0.0324 -0.6312
  819MPD2     N12058   3.870   4.220  15.557  0.0702  0.0733  0.0541
  819MPD2    H512059   3.861   4.124  15.525 -1.6877  0.7834 -1.5999
  819MPD2    N112060   3.426   4.216  15.367  0.4991  0.6071 -0.5628
  819MPD2    H712061   3.341   4.261  15.335 -0.6712 -0.7729  0.6508
  820MPD2     C12062   2.564   4.301  14.881 -0.4820  0.2776  0.5931
  820MPD2    C112063   2.682   4.365  14.917  0.0521 -0.0974  0.9356
  820MPD2    C212064   2.798   4.302  14.957 -0.3500 -0.6430 -0.2559
  820MPD2    C312065   2.801   4.165  14.966 -0.2288 -0.5811 -0.3937
  820MPD2    C412066   2.682   4.103  14.932 -0.8248  0.5572  0.9004
  820MPD2    C512067   2.573   4.165  14.880 -0.2233  0.4485  0.6063
  820MPD2     H12068   2.880   4.359  15.000 -0.3714 -1.3127  0.6766
  820MPD2    H112069   2.676   3.995  14.928  3.3974  0.4581 -3.7076
  820MPD2    H212070   2.471   4.352  14.858 -1.5892 -1.3895  1.3859
  820MPD2    H312071   2.492   4.108  14.838  0.7495  0.7489 -1.6513
  820MPD2     N12072   2.902   4.089  15.027 -0.4644 -0.5583 -0.3888
  820MPD2    H512073   2.895   3.990  15.049  0.5256 -0.5535 -0.0342
  820MPD2    N112074   2.672   4.502  14.918 -0.3150  0.0794  0.6629
  820MPD2    H712075   2.579   4.539  14.905 -0.5468 -0.9138 -0.4865
  821MPD2     C12076   3.800   0.908  12.747 -0.0429  0.2401 -0.3688
  821MPD2    C112077   3.848   0.923  12.872 -0.3494 -0.7365 -0.6387
  821MPD2    C212078   3.976   0.960  12.892 -0.2340 -0.2572 -0.2657
  821MPD2    C312079   4.058   0.971  12.786 -0.1096 -0.4392  0.1686
  821MPD2    C412080   4.009   0.969  12.661 -0.0542 -0.9260 -0.2855
  821MPD2    C512081   3.883   0.940  12.642 -0.3447 -0.3813  0.1532
  821MPD2     H12082   4.015   0.976  12.992 -1.2865 -0.2200  0.1389
  821MPD2    H112083   4.065   0.986  12.570 -0.2745 -0.1078 -0.2654
  821MPD2    H212084   3.698   0.878  12.724 -0.0298  1.9194 -2.5858
  821MPD2    H312085   3.843   0.943  12.541 -2.2669  0.3906  0.9350
  821MPD2     N12086   4.195   0.992  12.792  0.3921 -0.2956 -0.6310
  821MPD2    H512087   4.242   1.014  12.706 -0.9393 -0.3717 -1.3781
  821MPD2    N112088   3.771   0.889  12.983 -0.0720 -0.2292 -0.4422
  821MPD2    H712089   3.811   0.916  13.072  2.1215  0.9883 -1.8028
  822MPD2     C12090   4.381   0.579  15.763 -0.5597 -0.0034  1.6731
  822MPD2    C112091   4.423   0.582  15.898  0.3476 -0.0250 -0.5216
  822MPD2    C212092   4.346   0.644  15.992  1.4671  0.0560  0.1798
  822MPD2    C312093   4.231   0.719  15.957  0.3413  0.5507 -0.3508
  822MPD2    C412094   4.193   0.713  15.829 -0.2438  0.8629 -0.3445
  822MPD2    C512095   4.267   0.639  15.734  0.2303  0.1540  0.2398
  822MPD2     H12096   4.378   0.639  16.095  1.9527  2.0846  0.1273
  822MPD2    H112097   4.107   0.766  15.789 -1.3291 -0.8983 -0.3595
  822MPD2    H212098   4.431   0.521  15.686 -0.8573  1.0823  0.6424
  822MPD2    H312099   4.231   0.649  15.632  1.4994  0.0089 -0.2117
  822MPD2     N12100   4.175   0.804  16.054  0.3755  0.0293 -0.4108
  822MPD2    H512101   4.214   0.806  16.148  0.2586  2.4473 -0.4266
  822MPD2    N112102   4.540   0.513  15.945  0.1526 -0.0445  0.4339
  822MPD2    H712103   4.557   0.531  16.044  0.8215  2.9058 -0.2116
  823MPD2     C12104   4.072   1.400  16.665  0.0241 -0.6794  0.5260
  823MPD2    C112105   4.041   1.287  16.605  0.0841 -0.3759  0.5704
  823MPD2    C212106   4.035   1.174  16.684 -0.1858 -0.6133  0.3373
  823MPD2    C312107   4.064   1.184  16.824  0.3366 -0.0237  0.2689
  823MPD2    C412108   4.089   1.310  16.877 -0.4870 -0.3320 -0.2735
  823MPD2    C512109   4.086   1.423  16.797  0.1446 -0.5169  0.6291
  823MPD2     H12110   4.015   1.076  16.643 -0.6282 -0.5338  0.3643
  823MPD2    H112111   4.093   1.328  16.984  0.5925 -1.8709 -0.0581
  823MPD2    H212112   4.105   1.484  16.605 -1.9661 -1.3440 -1.4901
  823MPD2    H312113   4.122   1.517  16.838 -2.2917  1.2376 -1.2427
  823MPD2     N12114   4.073   1.073  16.913  0.0547  0.1082 -0.1054
  823MPD2    H512115   4.078   1.093  17.013 -2.0183 -0.3129  0.0990
  823MPD2    N112116   4.030   1.288  16.462 -0.0907  0.4796 -0.7169
  823MPD2    H712117   4.076   1.366  16.417 -0.8403  0.0586 -2.1826
  824MPD2     C12118   0.037   4.431  15.908 -0.3127 -0.5543 -0.1396
  824MPD2    C112119   0.094   4.542  15.842 -0.2925  0.4241 -0.0316
  824MPD2    C212120   0.176   4.526  15.730  0.1997 -0.5353 -0.0905
  824MPD2    C312121   0.202   4.400  15.685  0.6069 -0.4217 -0.3534
  824MPD2    C412122   0.150   4.290  15.751 -0.4223 -0.4001  0.2397
  824MPD2    C512123   0.068   4.305  15.855 -0.5732  0.3415  0.0210
  824MPD2     H12124   0.221   4.602  15.667 -2.1609  0.6384 -0.3394
  824MPD2    H112125   0.161   4.186  15.722 -0.4522 -0.5388  0.7118
  824MPD2    H212126   4.681   4.437  15.986  0.6476 -0.2407  0.7611
  824MPD2    H312127   0.034   4.217  15.908 -1.2881 -0.4292 -1.7324
  824MPD2     N12128   0.302   4.394  15.576 -0.2623  0.8693 -0.0586
  824MPD2    H512129   0.357   4.479  15.565 -0.9829  1.1648 -1.3900
  824MPD2    N112130   0.093   4.672  15.890 -0.2653 -0.0141  0.3463
  824MPD2    H712131   0.125   0.026  15.828  3.6676  0.2957  2.7232
  825MPD2     C12132   1.090   4.570  15.275 -0.4441  0.1449  0.6918
  825MPD2    C112133   0.964   4.612  15.291  0.5598 -0.2892 -0.3521
  825MPD2    C212134   0.930   0.023  15.263 -0.1519  0.2397 -0.3205
  825MPD2    C312135   1.022   0.116  15.222 -0.9624 -0.4478  0.1131
  825MPD2    C412136   1.151   0.073  15.221 -0.3527 -0.2579 -0.1762
  825MPD2    C512137   1.184   4.664  15.243 -0.4994 -0.1723 -0.1735
  825MPD2     H12138   0.828   0.052  15.287  0.1036 -1.0214  2.3210
  825MPD2    H112139   1.226   0.145  15.190 -1.2233  0.2925 -1.0368
  825MPD2    H212140   1.120   4.468  15.300  0.3757  0.1267 -0.3599
  825MPD2    H312141   1.287   4.631  15.237 -0.2083  0.4307  1.4298
  825MPD2     N12142   0.997   0.248  15.185 -0.4442 -0.0403  0.0809
  825MPD2    H512143   1.070   0.313  15.158 -2.3416  0.8788 -2.8405
  825MPD2    N112144   0.870   4.510  15.332 -0.0580  0.0443  0.8682
  825MPD2    H712145   0.910   4.419  15.350  0.7065  0.1139 -0.4537
  826MPD2     C12146   0.672   4.681  13.743 -0.2611  0.2453  0.2088
  826MPD2    C112147   0.755   0.050  13.685 -0.4509 -0.1786 -0.4821
  826MPD2    C212148   0.720   0.188  13.676  0.7116 -0.0313  0.0283
  826MPD2    C312149   0.611   0.235  13.740 -0.4861  0.0392 -0.9172
  826MPD2    C412150   0.534   0.148  13.812 -0.0702 -0.0108 -0.0280
  826MPD2    C512151   0.569   0.011  13.816 -0.6996 -0.0830  0.2345
  826MPD2     H12152   0.780   0.254  13.615 -0.8502  0.4268 -0.9974
  826MPD2    H112153   0.447   0.177  13.869  1.3971  0.4060  2.0014
  826MPD2    H212154   0.682   4.573  13.746  0.0124  0.2984  1.3116
  826MPD2    H312155   0.513   4.659  13.877  0.9831 -1.2387  0.4324
  826MPD2     N12156   0.563   0.369  13.735 -0.2179 -0.1348  0.0311
  826MPD2    H512157   0.493   0.402  13.801 -3.0608 -0.4861 -2.7813
  826MPD2    N112158   0.872   4.705  13.637  0.3527 -0.2682  0.4059
  826MPD2    H712159   0.878   4.604  13.628  0.5448 -0.2090 -0.1245
  827MPD2     C12160   1.305   0.850  10.075 -0.4895  0.9097 -1.0411
  827MPD2    C112161   1.371   0.731  10.103  0.3188 -0.0793 -0.2501
  827MPD2    C212162   1.331   0.615  10.036  1.3977 -0.0501 -0.4490
  827MPD2    C312163   1.213   0.620   9.958  0.5384 -0.2552 -0.5528
  827MPD2    C412164   1.143   0.743   9.953  0.3232  0.2696 -0.0694
  827MPD2    C512165   1.194   0.860  10.006 -0.0367 -0.0352 -0.2989
  827MPD2     H12166   1.383   0.520  10.045 -0.0159 -0.8091 -0.3075
  827MPD2    H112167   1.052   0.753   9.895 -0.0166  1.6887  0.7049
  827MPD2    H212168   1.340   0.941  10.122  0.6128  0.9432 -1.9235
  827MPD2    H312169   1.144   0.954   9.985 -0.5104 -0.5331 -1.4406
  827MPD2     N12170   1.180   0.500   9.889 -0.0738 -1.6409  0.3346
  827MPD2    H512171   1.231   0.418   9.917  0.2445 -2.5773 -2.9719
  827MPD2    N112172   1.484   0.735  10.187  0.2944 -0.0930  0.1474
  827MPD2    H712173   1.517   0.828  10.212 -1.5416  0.3054  1.1373
  828MPD2     C12174   4.544   0.912  12.559  0.4597  0.0555  0.3957
  828MPD2    C112175   4.571   0.962  12.435 -0.6718  0.3397 -0.2604
  828MPD2    C212176   4.690   0.929  12.368 -1.2897 -0.7025  0.5632
  828MPD2    C312177   0.071   0.855  12.442 -0.3167 -0.3609 -0.3251
  828MPD2    C412178   0.044   0.812  12.568 -0.4851  0.1243 -0.4227
  828MPD2    C512179   4.640   0.842  12.629  0.0722 -0.3702 -0.0220
  828MPD2     H12180   4.696   0.969  12.267  2.9514 -0.9581  0.7105
  828MPD2    H112181   0.116   0.752  12.623 -2.5208 -0.4837  1.5952
  828MPD2    H212182   4.449   0.931  12.609  0.4203 -0.0511  0.3604
  828MPD2    H312183   4.623   0.807  12.730  2.3876 -1.0270  0.1398
  828MPD2     N12184   0.199   0.832  12.378 -0.3050  0.3661 -0.0726
  828MPD2    H512185   0.273   0.784  12.427 -0.4530  1.5518  1.2984
  828MPD2    N112186   4.473   1.022  12.356  0.2756 -0.1077 -0.5577
  828MPD2    H712187   4.505   1.031  12.260  4.2891 -2.4596  0.5567
  829MPD2     C12188   0.001   1.407  11.674  0.1083 -0.0022  0.2749
  829MPD2    C112189   4.588   1.447  11.660 -0.2641 -0.1190 -0.2520
  829MPD2    C212190   4.506   1.396  11.757 -0.6432  0.2693 -1.1218
  829MPD2    C312191   4.534   1.290  11.849  0.3992 -0.1009 -0.5859
  829MPD2    C412192   4.668   1.254  11.856 -0.3157  0.0560  0.7100
  829MPD2    C512193   0.037   1.315  11.771 -0.5866 -0.2710  0.3211
  829MPD2     H12194   4.405   1.435  11.756  0.2895  2.6603 -1.1482
  829MPD2    H112195   4.696   1.179  11.930  0.9559 -0.2054 -0.0406
  829MPD2    H212196   0.084   1.454  11.623  0.1477 -0.7751 -0.3644
  829MPD2    H312197   0.144   1.296  11.766 -0.6723 -0.3534 -1.2214
  829MPD2     N12198   4.448   1.238  11.944 -0.1196  0.4388  0.5023
  829MPD2    H512199   4.477   1.153  11.991 -0.6536 -0.9602 -1.7020
  829MPD2    N112200   4.551   1.541  11.562 -0.1403 -0.2691  0.2016
  829MPD2    H712201   4.620   1.557  11.488 -1.6230 -2.8342 -1.7315
  830MPD2     C12202   4.219   3.886  15.217 -0.0472 -0.3898 -0.1900
  830MPD2    C112203   4.314   3.914  15.311  0.9759  0.5364 -0.5298
  830MPD2    C212204   4.439   3.960  15.269  0.3233 -0.0818 -0.3449
  830MPD2    C312205   4.470   3.977  15.137 -0.3873  0.5938 -0.0900
  830MPD2    C412206   4.376   3.950  15.050  0.0633  0.4586 -0.1460
  830MPD2    C512207   4.256   3.912  15.088 -0.6103  0.4350 -0.0701
  830MPD2     H12208   4.518   3.977  15.341 -0.8318  0.8712  0.6809
  830MPD2    H112209   4.387   3.962  14.943  1.4936 -1.2504 -0.1902
  830MPD2    H212210   4.118   3.855  15.238 -0.0529  0.5005  1.0388
  830MPD2    H312211   4.176   3.909  15.015  1.3149  1.0166 -2.2408
  830MPD2     N12212   4.601   4.013  15.097  0.0012  0.5775 -0.0557
  830MPD2    H512213   4.615   4.018  14.996  1.4476  1.9530  0.2129
  830MPD2    N112214   4.285   3.915  15.451 -0.1635 -0.3689 -0.0699
  830MPD2    H712215   4.353   3.958  15.514 -1.2314 -2.2202  2.3606
  831MPD2     C12216   4.362   1.033  16.348 -0.8268 -0.1795 -0.2704
  831MPD2    C112217   4.418   0.917  16.298 -0.1761  0.1281  0.0525
  831MPD2    C212218   4.358   0.797  16.334  0.3672 -0.0253 -0.1949
  831MPD2    C312219   4.254   0.789  16.427 -0.4781  0.7257 -0.0497
  831MPD2    C412220   4.207   0.913  16.482 -0.2178 -0.5996  0.0484
  831MPD2    C512221   4.260   1.035  16.444 -0.0289  0.4869  0.2146
  831MPD2     H12222   4.398   0.711  16.282  0.6467  0.8125 -1.3603
  831MPD2    H112223   4.121   0.921  16.547  0.0560  0.1025  0.3282
  831MPD2    H212224   4.411   1.126  16.324  0.3421 -0.6766  0.2025
  831MPD2    H312225   4.237   1.135  16.478  1.5970  0.9408  0.0100
  831MPD2     N12226   4.174   0.676  16.441  0.0825  0.9299 -0.2993
  831MPD2    H512227   4.098   0.693  16.507  0.8600  0.1820  0.7934
  831MPD2    N112228   4.518   0.936  16.197 -0.4816 -0.1288  0.1717
  831MPD2    H712229   4.547   1.033  16.195  0.3655 -0.3141  2.9667
  832MPD2     C12230   2.855   2.680  17.098  0.2673 -0.0781  0.1363
  832MPD2    C112231   2.829   2.557  17.145 -0.1203 -0.2593  0.8234
  832MPD2    C212232   2.734   2.485  17.080 -0.2555 -0.2939  0.1144
  832MPD2    C312233   2.663   2.533  16.972  0.3855  0.5333  0.0325
  832MPD2    C412234   2.693   2.659  16.927 -0.9055 -0.0195 -0.1939
  832MPD2    C512235   2.793   2.735  16.992  0.7226  1.0649 -0.1334
  832MPD2     H12236   2.716   2.384  17.114 -0.5298 -0.4198 -0.4044
  832MPD2    H112237   2.636   2.716  16.854  0.2178  2.5112  0.8751
  832MPD2    H212238   2.935   2.742  17.137 -0.2393  0.0738  0.9336
  832MPD2    H312239   2.823   2.830  16.948  0.3640  0.2847 -2.0539
  832MPD2     N12240   2.554   2.472  16.900 -0.2913  0.1336  0.2657
  832MPD2    H512241   2.521   2.519  16.816  1.3382 -2.2099 -1.6639
  832MPD2    N112242   2.901   2.519  17.253 -0.4979 -0.2282  0.4098
  832MPD2    H712243   2.954   2.597  17.290 -0.9163 -0.6522  1.8895
  833MPD2     C12244   0.293   3.278  12.731 -0.0563 -0.3039 -0.8828
  833MPD2    C112245   0.269   3.363  12.623 -0.3011  0.4337  0.1999
  833MPD2    C212246   0.298   3.309  12.501  0.2363  0.3767  0.1916
  833MPD2    C312247   0.345   3.178  12.486 -0.2716  0.0038 -0.0751
  833MPD2    C412248   0.362   3.094  12.596  0.3455 -0.6691 -0.2705
  833MPD2    C512249   0.339   3.149  12.713 -0.2515  0.2278  0.7413
  833MPD2     H12250   0.287   3.361  12.406 -0.4772 -1.2019 -0.6095
  833MPD2    H112251   0.395   2.991  12.596 -0.7505 -1.0177 -2.9827
  833MPD2    H212252   0.285   3.312  12.834 -1.0765 -0.0759 -1.0418
  833MPD2    H312253   0.355   3.080  12.795  1.6464 -0.5379 -0.2740
  833MPD2     N12254   0.375   3.131  12.356 -0.0240 -0.1690  0.1978
  833MPD2    H512255   0.343   3.196  12.285  1.4404  1.1869  0.7988
  833MPD2    N112256   0.216   3.488  12.646  0.0185 -0.1751 -0.2123
  833MPD2    H712257   0.180   3.509  12.738  0.9901 -1.9527  0.5706
  834MPD2     C12258   1.030   2.759  11.651 -0.3326 -0.3087  0.3262
  834MPD2    C112259   0.995   2.691  11.772  0.0700 -0.1089  0.2633
  834MPD2    C212260   0.912   2.755  11.864 -0.2548  0.0688  0.5448
  834MPD2    C312261   0.869   2.889  11.846 -0.3992  0.1914 -0.2775
  834MPD2    C412262   0.891   2.943  11.717  0.2313  1.0087  0.4268
  834MPD2    C512263   0.981   2.888  11.627  0.3028 -0.4106  0.4564
  834MPD2     H12264   0.895   2.710  11.961 -1.4119 -0.2341  0.1978
  834MPD2    H112265   0.858   3.043  11.692 -1.5390  0.1649 -0.5644
  834MPD2    H212266   1.079   2.706  11.570  0.8490  0.1141  0.7561
  834MPD2    H312267   0.999   2.927  11.527 -0.7151  0.2194  0.5196
  834MPD2     N12268   0.785   2.951  11.944  0.4883  0.2968  0.2620
  834MPD2    H512269   0.755   2.900  12.026  1.0608  1.0683  0.9509
  834MPD2    N112270   1.033   2.558  11.766  0.2305 -0.7550  0.8867
  834MPD2    H712271   1.070   2.524  11.678 -3.9208 -2.7509 -0.0883
  835MPD2     C12272   0.803   0.759  10.734 -0.7573 -0.1334  0.0851
  835MPD2    C112273   0.709   0.787  10.830  0.6724  0.3793  0.4122
  835MPD2    C212274   0.757   0.807  10.956 -0.3468  0.3374  0.2625
  835MPD2    C312275   0.892   0.823  10.995  0.4965 -0.2333  0.5243
  835MPD2    C412276   0.977   0.811  10.891  0.3627 -0.2518 -0.2148
  835MPD2    C512277   0.941   0.775  10.762  0.2624 -0.1795 -0.0040
  835MPD2     H12278   0.689   0.826  11.038 -0.6748 -2.7674  0.7172
  835MPD2    H112279   1.084   0.826  10.907 -0.0426  2.0408  0.2939
  835MPD2    H212280   0.776   0.732  10.632 -0.8461 -0.1546  0.1148
  835MPD2    H312281   1.015   0.769  10.683  0.5982 -0.0540  0.3071
  835MPD2     N12282   0.942   0.855  11.126 -0.3669 -0.2986 -0.2105
  835MPD2    H512283   1.042   0.870  11.125  0.1813 -3.9459  1.1757
  835MPD2    N112284   0.574   0.766  10.810  0.0901  0.0929 -0.6996
  835MPD2    H712285   0.508   0.795  10.882  0.1051  0.5525 -0.8738
  836MPD2     C12286   0.831   0.889  12.075 -0.6554  0.7230 -1.0881
  836MPD2    C112287   0.786   0.949  11.956  0.4554  0.5839 -0.4191
  836MPD2    C212288   0.694   1.055  11.963 -0.0339  0.4387 -0.2030
  836MPD2    C312289   0.635   1.077  12.083 -0.0699 -0.1970 -0.2173
  836MPD2    C412290   0.673   1.017  12.197 -0.4656 -0.1901  0.3939
  836MPD2    C512291   0.772   0.919  12.193  0.0358  0.3689 -0.3653
  836MPD2     H12292   0.655   1.100  11.873 -2.3860 -1.0286  0.0708
  836MPD2    H112293   0.621   1.028  12.291 -1.6990 -1.4145 -0.1389
  836MPD2    H212294   0.897   0.804  12.079 -2.4042 -0.5343  0.8478
  836MPD2    H312295   0.804   0.867  12.282  0.8891  3.0347  0.8967
  836MPD2     N12296   0.526   1.172  12.089  0.4760  0.5519 -0.1399
  836MPD2    H512297   0.475   1.172  12.176 -0.2436 -0.4570 -0.5570
  836MPD2    N112298   0.843   0.902  11.834 -0.1399  0.1227  0.4315
  836MPD2    H712299   0.914   0.830  11.826 -1.3191 -1.0969  0.9591
  837MPD2     C12300   3.707   0.547   9.859  0.0840  0.7702 -0.4381
  837MPD2    C112301   3.618   0.625   9.788  0.4443  0.4762 -0.2738
  837MPD2    C212302   3.608   0.760   9.812  0.3202 -0.2651  0.0061
  837MPD2    C312303   3.697   0.825   9.897 -0.1190  0.4245  0.0037
  837MPD2    C412304   3.795   0.749   9.963  0.0730 -0.2724  0.3107
  837MPD2    C512305   3.788   0.615   9.947 -0.2468 -0.3868  0.1050
  837MPD2     H12306   3.532   0.809   9.752  0.7841 -0.3372 -0.6379
  837MPD2    H112307   3.874   0.800  10.017 -0.7653 -1.6648  2.8113
  837MPD2    H212308   3.722   0.441   9.843  0.6677  0.7467  0.2391
  837MPD2    H312309   3.867   0.556   9.994 -1.4185 -1.8008  0.2773
  837MPD2     N12310   3.703   0.970   9.885  0.2116 -0.6975 -0.1938
  837MPD2    H512311   3.640   1.018   9.822 -3.4148 -1.1060  3.1741
  837MPD2    N112312   3.543   0.574   9.686 -0.1637 -0.5753  0.0790
  837MPD2    H712313   3.491   0.641   9.630  1.3519 -0.4134 -1.1273
  838MPD2     C12314   1.627   3.040  11.118  0.0320 -0.2581  0.4058
  838MPD2    C112315   1.680   3.098  11.227 -0.0746  1.1215 -0.1154
  838MPD2    C212316   1.607   3.115  11.345  0.1940 -0.5757 -0.0751
  838MPD2    C312317   1.475   3.081  11.346  0.8801  0.5985  0.4724
  838MPD2    C412318   1.424   3.008  11.239 -0.1753  0.7849  0.2029
  838MPD2    C512319   1.504   2.987  11.130  0.1248  0.5405  0.2338
  838MPD2     H12320   1.654   3.173  11.423  2.3792 -0.3915 -1.5247
  838MPD2    H112321   1.323   2.968  11.234 -0.0135  0.4264 -0.1437
  838MPD2    H212322   1.679   3.026  11.024  2.4758  1.4857  1.5044
  838MPD2    H312323   1.461   2.928  11.050  0.5661  2.3067 -1.3176
  838MPD2     N12324   1.404   3.107  11.463  0.1428  0.2327 -0.3186
  838MPD2    H512325   1.444   3.161  11.540 -2.2067  0.4489  0.7264
  838MPD2    N112326   1.812   3.146  11.242  0.5336 -0.3771  0.4672
  838MPD2    H712327   1.835   3.165  11.338  1.4456  0.7029  0.0350
  839MPD2     C12328   1.852   3.154  12.046  0.3728 -0.0807 -0.0590
  839MPD2    C112329   1.833   3.054  11.952  0.6568 -0.3039 -0.2764
  839MPD2    C212330   1.888   3.056  11.823  0.0574  0.2854 -0.1295
  839MPD2    C312331   1.961   3.166  11.788 -0.0730  0.8779  0.6601
  839MPD2    C412332   1.974   3.275  11.880  0.7260 -0.6317  0.6659
  839MPD2    C512333   1.924   3.261  12.004 -0.2127  0.0074  0.4647
  839MPD2     H12334   1.871   2.970  11.760  2.0755  0.0016 -0.3022
  839MPD2    H112335   2.026   3.367  11.855  1.5975 -1.2869  0.0430
  839MPD2    H212336   1.811   3.153  12.146 -0.5593  0.2606 -0.4365
  839MPD2    H312337   1.937   3.349  12.067  2.1819  0.9713 -1.3454
  839MPD2     N12338   2.024   3.175  11.658  0.5202 -0.8661  0.4181
  839MPD2    H512339   2.061   3.268  11.639 -2.2703  0.1194 -0.1958
  839MPD2    N112340   1.744   2.944  11.970 -0.2102  0.3812  0.3084
  839MPD2    H712341   1.721   2.891  11.886  1.8135 -2.9193  1.8663
  840MPD2     C12342   1.893   1.249  10.269 -0.4520  0.4094 -0.4243
  840MPD2    C112343   1.923   1.160  10.376  0.2317  0.2511 -0.6719
  840MPD2    C212344   2.027   1.190  10.462 -0.5648 -0.2615 -0.2146
  840MPD2    C312345   2.094   1.313  10.439  0.2741  0.1152 -0.1083
  840MPD2    C412346   2.050   1.401  10.343 -0.7248 -0.3465  0.3565
  840MPD2    C512347   1.950   1.371  10.263  0.4932  0.1754  0.0544
  840MPD2     H12348   2.042   1.134  10.554 -1.0153 -1.5571 -0.9413
  840MPD2    H112349   2.095   1.499  10.346  0.8772 -1.0353 -1.0118
  840MPD2    H212350   1.802   1.235  10.211 -0.9764 -1.2813  0.7942
  840MPD2    H312351   1.931   1.436  10.179 -2.4566 -0.1070  0.5133
  840MPD2     N12352   2.211   1.362  10.509 -0.3076 -0.0818 -0.9359
  840MPD2    H512353   2.254   1.446  10.472  0.6072  0.3285  1.0871
  840MPD2    N112354   1.843   1.036  10.385  0.3203  0.1921  0.4719
  840MPD2    H712355   1.776   1.021  10.310 -0.0775 -2.0622  1.2789
  841MPD2     C12356   1.626   1.230  14.586  0.2657  0.0029  0.1329
  841MPD2    C112357   1.701   1.146  14.664 -0.5613 -0.3934 -0.2099
  841MPD2    C212358   1.839   1.168  14.690  0.0959  0.2134 -0.0164
  841MPD2    C312359   1.896   1.281  14.641 -0.5279  0.2443 -0.6035
  841MPD2    C412360   1.828   1.366  14.544  0.3268 -0.0823 -0.1137
  841MPD2    C512361   1.698   1.338  14.525 -0.0616  0.3348 -0.3816
  841MPD2     H12362   1.892   1.116  14.768 -1.3579  1.1660  1.6161
  841MPD2    H112363   1.868   1.460  14.508  5.0244 -2.6618 -1.6357
  841MPD2    H212364   1.523   1.213  14.557  0.6833  0.7726 -1.8704
  841MPD2    H312365   1.633   1.397  14.462  2.1748  0.2605 -2.7244
  841MPD2     N12366   2.016   1.303  14.710 -0.3271 -0.3506  0.0395
  841MPD2    H512367   2.051   1.228  14.770  0.5031 -0.0448 -0.0611
  841MPD2    N112368   1.630   1.045  14.733  0.2272  0.1015  0.0720
  841MPD2    H712369   1.686   0.973  14.779  1.2119  0.1089 -1.1028
  842MPD2     C12370   2.265   3.148  16.815  0.2287 -0.1485  0.2328
  842MPD2    C112371   2.135   3.095  16.838  0.4900 -0.2102  0.2928
  842MPD2    C212372   2.112   3.025  16.957 -0.2548 -0.3868  0.1447
  842MPD2    C312373   2.200   3.023  17.060 -1.0551  0.1654 -0.5059
  842MPD2    C412374   2.321   3.081  17.039 -0.1642  0.2413  0.2526
  842MPD2    C512375   2.352   3.148  16.920 -0.0770  0.0283  0.1163
  842MPD2     H12376   2.010   2.990  16.966 -0.5135  0.4609  0.4609
  842MPD2    H112377   2.398   3.087  17.115  1.9574  0.5071 -1.9114
  842MPD2    H212378   2.294   3.199  16.724 -2.0997 -0.3079 -0.6124
  842MPD2    H312379   2.450   3.194  16.920 -0.5211  1.0172 -1.0362
  842MPD2     N12380   2.172   2.957  17.186  0.5898  0.4396 -0.3209
  842MPD2    H512381   2.094   2.892  17.188  0.9134  0.0986  1.2895
  842MPD2    N112382   2.039   3.107  16.736 -0.2736  0.2824 -0.7334
  842MPD2    H712383   2.064   3.160  16.654 -0.0053  2.4045  0.7189
  843MPD2     C12384   4.570   2.459   0.247  0.9926  0.0449 -0.4135
  843MPD2    C112385   4.512   2.488   0.366  0.0770 -0.0074  0.5212
  843MPD2    C212386   4.385   2.547   0.372 -0.5470 -0.0595  0.6517
  843MPD2    C312387   4.325   2.594   0.258  0.9539 -0.4664 -0.1272
  843MPD2    C412388   4.377   2.562   0.137 -0.1019 -0.4332 -0.1570
  843MPD2    C512389   4.499   2.494   0.131 -0.0157 -0.7313  0.1228
  843MPD2     H12390   4.347   2.571   0.471 -0.0654  1.3935  0.4867
  843MPD2    H112391   4.321   2.574   0.045  0.5793 -0.3252 -0.5538
  843MPD2    H212392   4.672   2.423   0.240  1.6173  1.5423  0.9677
  843MPD2    H312393   4.542   2.473   0.034  0.1028 -1.8225  0.4008
  843MPD2     N12394   4.198   2.665   0.252  0.0526 -1.0162  0.2229
  843MPD2    H512395   4.166   2.706   0.164  2.2433  1.4054  0.5447
  843MPD2    N112396   4.584   2.442   0.477  0.4726 -0.8792  0.0560
  843MPD2    H712397   4.673   2.397   0.458  0.8932  0.7052 -1.8126
  844MPD2     C12398   2.567   2.162  16.668 -0.3433 -0.2729  0.3420
  844MPD2    C112399   2.563   2.054  16.754 -0.0672 -0.1847 -0.0842
  844MPD2    C212400   2.660   2.054  16.854 -1.0764 -0.1153 -0.3967
  844MPD2    C312401   2.767   2.136  16.850  0.0497 -0.4527  0.6702
  844MPD2    C412402   2.763   2.244  16.770  0.5096  0.3290  0.1059
  844MPD2    C512403   2.664   2.258  16.676 -0.0426 -0.0658 -0.3009
  844MPD2     H12404   2.656   1.974  16.927 -2.0408  1.4341  1.2644
  844MPD2    H112405   2.828   2.329  16.786  0.9130  0.4679 -2.3224
  844MPD2    H212406   2.484   2.168  16.598 -0.7373  0.0199  0.8306
  844MPD2    H312407   2.669   2.345  16.611 -0.3714  0.2290  0.0692
  844MPD2     N12408   2.877   2.113  16.938 -0.6276 -0.1824  0.0022
  844MPD2    H512409   2.887   2.019  16.976 -0.7551 -0.0695  0.3119
  844MPD2    N112410   2.479   1.937  16.742 -0.2194 -0.3085  0.3897
  844MPD2    H712411   2.495   1.865  16.812  0.2254 -0.9427 -0.3605
  845MPD2     C12412   3.555   2.707  17.345 -0.2089  0.5863  0.2068
  845MPD2    C112413   3.465   2.727  17.246 -0.1560 -0.5487 -0.3373
  845MPD2    C212414   3.400   2.611  17.193  0.4156  0.4619 -0.9590
  845MPD2    C312415   3.429   2.480  17.228 -0.1273 -0.5621 -0.4576
  845MPD2    C412416   3.529   2.463  17.325 -1.3239 -0.4427 -0.4154
  845MPD2    C512417   3.589   2.576  17.382 -0.1018  0.6332 -0.9325
  845MPD2     H12418   3.319   2.622  17.121  0.0260  1.9640 -0.2883
  845MPD2    H112419   3.564   2.369  17.367 -1.4099  0.5147  1.8201
  845MPD2    H212420   3.601   2.792  17.394  0.6179 -0.2729  0.9144
  845MPD2    H312421   3.668   2.568  17.456 -0.7533  2.9294  0.0270
  845MPD2     N12422   3.362   2.372  17.170  0.0533  0.2976  0.2515
  845MPD2    H512423   3.275   2.393  17.122  0.9387 -0.6192 -1.7746
  845MPD2    N112424   3.423   2.857  17.212 -0.4630  0.2236  0.6016
  845MPD2    H712425   3.456   2.929  17.275 -1.4959  1.0911  0.1254
  846MPD2     C12426   4.456   3.104  13.774  0.7421  0.1867  0.1379
  846MPD2    C112427   4.320   3.126  13.762 -0.3052  0.0445 -0.4344
  846MPD2    C212428   4.235   3.105  13.872 -0.1680  0.8481 -0.0907
  846MPD2    C312429   4.288   3.051  13.987  0.0393  0.2985  1.2358
  846MPD2    C412430   4.425   3.024  13.996  0.1619  0.2301  0.7124
  846MPD2    C512431   4.508   3.053  13.888  0.0764  0.4086  0.2773
  846MPD2     H12432   4.129   3.126  13.863  0.2258  3.4795  1.3650
  846MPD2    H112433   4.477   2.983  14.083 -0.3351  0.3083  1.0457
  846MPD2    H212434   4.524   3.129  13.694  2.3254  0.5616  1.5962
  846MPD2    H312435   4.614   3.029  13.891 -0.2157 -1.0912 -1.0224
  846MPD2     N12436   4.197   3.030  14.091  0.0666  0.5926 -0.3939
  846MPD2    H512437   4.103   3.062  14.068 -0.5232 -0.5962  0.3341
  846MPD2    N112438   4.273   3.196  13.646 -0.3998 -0.6319 -0.0090
  846MPD2    H712439   4.193   3.257  13.664 -0.5768 -0.1311 -2.5864
  847MPD2     C12440   4.021   3.749  14.486  0.0673 -0.0536  0.4477
  847MPD2    C112441   4.109   3.822  14.411  0.6107  0.3435 -0.2873
  847MPD2    C212442   4.234   3.767  14.384 -0.7916  0.5156 -0.0461
  847MPD2    C312443   4.270   3.640  14.422  0.0605  0.0249  0.2257
  847MPD2    C412444   4.176   3.567  14.491  0.1693  0.2752 -0.7494
  847MPD2    C512445   4.062   3.624  14.530  0.0469 -0.0524  0.7194
  847MPD2     H12446   4.311   3.825  14.336 -1.2791  2.2364  1.2392
  847MPD2    H112447   4.206   3.468  14.522 -1.7872 -0.4056 -1.0257
  847MPD2    H212448   3.925   3.782  14.523  0.6576  2.1157  0.0243
  847MPD2    H312449   3.994   3.572  14.596 -1.5331 -0.3539 -1.1540
  847MPD2     N12450   4.403   3.606  14.392 -0.1832 -0.5192 -0.0070
  847MPD2    H512451   4.458   3.671  14.338 -0.1888  1.1058  1.9263
  847MPD2    N112452   4.090   3.959  14.381  0.0202 -0.2681 -0.0646
  847MPD2    H712453   4.169   4.003  14.335  2.0733 -0.4131  3.3299
  848MPD2     C12454   2.074   2.736  16.453 -0.7666  0.3405 -0.1204
  848MPD2    C112455   2.199   2.691  16.481  0.8538 -0.5006 -0.7464
  848MPD2    C212456   2.305   2.741  16.412 -0.2188 -0.1887 -0.5649
  848MPD2    C312457   2.294   2.826  16.304  0.0563  0.2984  0.5712
  848MPD2    C412458   2.159   2.864  16.265  0.3374  1.0600 -0.3591
  848MPD2    C512459   2.056   2.814  16.340  0.5514  0.2108  0.0683
  848MPD2     H12460   2.406   2.712  16.439 -0.2943 -0.3436 -0.4455
  848MPD2    H112461   2.140   2.923  16.176 -1.6476 -0.5352 -1.0014
  848MPD2    H212462   1.985   2.703  16.506  0.3245  1.4750  2.4178
  848MPD2    H312463   1.954   2.817  16.303 -0.3697  0.9325  2.6758
  848MPD2     N12464   2.401   2.866  16.230 -0.1032  0.0222  0.7770
  848MPD2    H512465   2.383   2.922  16.147  1.1190 -0.7058  0.0228
  848MPD2    N112466   2.229   2.589  16.578 -0.0548  0.1890 -0.1865
  848MPD2    H712467   2.325   2.565  16.600  0.3522  1.2517 -0.7944
  849MPD2     C12468   1.778   2.453  14.091 -0.1045 -0.6690  0.0474
  849MPD2    C112469   1.879   2.402  14.170 -0.0271 -0.8210 -0.0274
  849MPD2    C212470   1.912   2.468  14.284 -0.5288  0.6721 -0.0250
  849MPD2    C312471   1.833   2.564  14.337 -0.0182 -0.1329  0.2010
  849MPD2    C412472   1.723   2.606  14.263 -0.0821  0.7596 -0.0689
  849MPD2    C512473   1.701   2.551  14.142  0.0964  0.6588 -0.2131
  849MPD2     H12474   2.002   2.446  14.340 -0.7181  0.6736  0.2851
  849MPD2    H112475   1.664   2.694  14.284 -0.3544 -0.4362  4.3085
  849MPD2    H212476   1.749   2.411  13.995  1.8343 -0.2968 -0.6997
  849MPD2    H312477   1.630   2.602  14.077 -0.0937  1.7890  0.9028
  849MPD2     N12478   1.869   2.620  14.461 -0.4455 -0.7884  0.3915
  849MPD2    H512479   1.964   2.605  14.493 -0.8759  0.5101  2.2808
  849MPD2    N112480   1.952   2.285  14.128  0.1788 -0.1128 -0.4618
  849MPD2    H712481   1.919   2.233  14.047 -0.6252  0.5876 -0.5855
  850MPD2     C12482   4.223   4.607  14.796  0.4863  0.3473 -0.1241
  850MPD2    C112483   4.193   0.004  14.867  0.4971  0.0721  0.7607
  850MPD2    C212484   4.286   0.109  14.872 -0.0715 -0.3690 -0.5764
  850MPD2    C312485   4.417   0.090  14.822  0.0165 -0.0363  0.6432
  850MPD2    C412486   4.445   4.689  14.756  0.7714 -0.4198  0.0491
  850MPD2    C512487   4.347   4.598  14.732  0.0938  0.5664  0.0660
  850MPD2     H12488   4.259   0.204  14.916 -0.3380 -0.2739 -0.9410
  850MPD2    H112489   4.542   4.668  14.710 -0.4101 -0.6876 -2.3159
  850MPD2    H212490   4.150   4.526  14.789  1.0659 -0.2451  0.6900
  850MPD2    H312491   4.372   4.512  14.672 -0.6255  0.0324  0.5281
  850MPD2     N12492   4.523   0.179  14.833 -0.0696 -0.4583 -0.2989
  850MPD2    H512493   4.611   0.144  14.797  0.0439 -0.2115 -0.2587
  850MPD2    N112494   4.072   0.009  14.942  1.0184 -0.5756 -0.0950
  850MPD2    H712495   4.010   4.656  14.906  2.3986 -1.6847 -0.2857
  851MPD2     C12496   0.025   0.131  15.433  0.6359  0.2732 -0.8823
  851MPD2    C112497   4.641   0.046  15.394 -0.4856  1.2835 -0.4479
  851MPD2    C212498   4.670   4.636  15.374  0.2027 -0.2167 -0.1555
  851MPD2    C312499   0.081   4.593  15.358 -0.1758  0.0264 -0.1722
  851MPD2    C412500   0.185   4.677  15.392  0.0605  0.4795  0.8901
  851MPD2    C512501   0.151   0.085  15.433  0.4552  0.0728 -1.2320
  851MPD2     H12502   4.588   4.567  15.353  1.2308 -0.9738 -1.6553
  851MPD2    H112503   0.288   4.648  15.379  0.1910  1.1555  0.3979
  851MPD2    H212504   0.009   0.237  15.450 -0.6560  0.2142 -1.7667
  851MPD2    H312505   0.232   0.152  15.455 -0.8939  1.6442 -1.0399
  851MPD2     N12506   0.096   4.466  15.294 -0.4287 -0.6818 -0.4690
  851MPD2    H512507   0.016   4.413  15.262 -0.5088 -0.6349 -0.3415
  851MPD2    N112508   4.509   0.104  15.381 -0.2999  0.2026  0.4325
  851MPD2    H712509   4.494   0.193  15.428 -0.9498  1.2283 -1.6674
  852MPD2     C12510   4.626   1.211   9.805  0.2327 -0.0741 -0.1826
  852MPD2    C112511   0.004   1.228   9.900 -0.6906  0.9887 -0.0298
  852MPD2    C212512   0.068   1.349   9.911  0.5699  0.2967  0.0545
  852MPD2    C312513   0.031   1.457   9.835 -0.4840 -0.0381 -0.2701
  852MPD2    C412514   4.650   1.439   9.736 -0.0104  0.7430  0.3723
  852MPD2    C512515   4.592   1.313   9.725 -0.4958 -0.2182  0.0337
  852MPD2     H12516   0.136   1.359   9.995 -1.3342 -0.9495  1.7245
  852MPD2    H112517   4.609   1.512   9.667 -0.0078  0.8859  0.5229
  852MPD2    H212518   4.580   1.113   9.794  0.6892 -0.2884 -0.1662
  852MPD2    H312519   4.505   1.300   9.662 -0.8404  0.6536  0.3323
  852MPD2     N12520   0.093   1.584   9.855  0.2755 -0.7836  0.2280
  852MPD2    H512521   0.169   1.587   9.922  1.4980 -0.9337 -1.1563
  852MPD2    N112522   0.048   1.125   9.987  0.1308 -0.0906 -0.5479
  852MPD2    H712523   0.132   1.143  10.041 -0.5492  0.4854  0.3121
  853MPD2     C12524   1.765   2.168  12.659  0.5023 -0.2396 -0.0306
  853MPD2    C112525   1.633   2.206  12.617 -0.0610  0.5078  0.6575
  853MPD2    C212526   1.592   2.171  12.488  0.1089  0.2585  0.0120
  853MPD2    C312527   1.684   2.127  12.398 -0.0748  0.2857 -0.2601
  853MPD2    C412528   1.814   2.112  12.436  0.2237 -0.4584  0.1069
  853MPD2    C512529   1.849   2.117  12.569 -0.1997 -0.3529  0.1206
  853MPD2     H12530   1.486   2.174  12.466  0.1356 -1.6061 -0.4312
  853MPD2    H112531   1.888   2.080  12.364  0.1688  0.9588 -0.5835
  853MPD2    H212532   1.800   2.193  12.759 -0.2196 -0.1522  0.1940
  853MPD2    H312533   1.952   2.101  12.595  0.0958 -0.2016 -0.9393
  853MPD2     N12534   1.654   2.113  12.258 -0.5467  0.1096 -0.5330
  853MPD2    H512535   1.730   2.081  12.198  0.2932  0.5219  0.3156
  853MPD2    N112536   1.556   2.287  12.715  0.4280  0.0670  0.3120
  853MPD2    H712537   1.597   2.292  12.808 -1.1830  1.7924  0.9362
  854MPD2     C12538   3.460   2.198  13.057  0.1528  0.1687 -0.1729
  854MPD2    C112539   3.467   2.332  13.040  0.6433 -0.0171 -0.0628
  854MPD2    C212540   3.587   2.403  13.071 -0.4561 -0.3679 -0.3041
  854MPD2    C312541   3.694   2.338  13.125  0.6458  0.2595 -0.1052
  854MPD2    C412542   3.689   2.204  13.145  0.0582 -0.5715 -0.5632
  854MPD2    C512543   3.571   2.132  13.115  0.3619  0.3943  0.9928
  854MPD2     H12544   3.596   2.510  13.061  1.1069 -0.4976 -0.2977
  854MPD2    H112545   3.773   2.148  13.184  1.3668  2.5095  1.0305
  854MPD2    H212546   3.369   2.143  13.041 -1.3380  1.4300  3.7548
  854MPD2    H312547   3.572   2.026  13.136 -2.7811  0.4447  1.3731
  854MPD2     N12548   3.818   2.406  13.149  0.4727  0.1249 -0.3405
  854MPD2    H512549   3.883   2.347  13.199  1.4629  1.4832 -0.0272
  854MPD2    N112550   3.351   2.397  12.994 -0.6493 -0.5055 -0.2772
  854MPD2    H712551   3.268   2.347  12.964 -0.2690 -0.7052 -1.0011
  855MPD2     C12552   4.368   2.355  13.853 -0.1855 -0.5066 -0.3799
  855MPD2    C112553   4.243   2.318  13.821 -0.0659 -0.1109  0.1010
  855MPD2    C212554   4.188   2.370  13.701  0.4594  0.1980 -0.0348
  855MPD2    C312555   4.254   2.450  13.611 -0.2166 -0.3319 -0.0357
  855MPD2    C412556   4.383   2.478  13.649 -0.4542  0.0393 -0.6718
  855MPD2    C512557   4.438   2.433  13.762 -0.6795  0.3343 -0.4678
  855MPD2     H12558   4.087   2.343  13.672  1.1443 -0.5065 -1.7355
  855MPD2    H112559   4.459   2.515  13.581  0.0282  1.1712  0.4978
  855MPD2    H212560   4.414   2.334  13.949  0.9157  0.5215 -0.6811
  855MPD2    H312561   4.538   2.458  13.795 -1.1074 -1.0788  1.8498
  855MPD2     N12562   4.198   2.490  13.478 -0.6580 -0.4150  0.3770
  855MPD2    H512563   4.102   2.464  13.456 -0.1637 -1.7517 -0.1424
  855MPD2    N112564   4.180   2.241  13.912 -1.1213 -0.2526 -0.6922
  855MPD2    H712565   4.217   2.228  14.006 -0.8274  1.8664 -0.5261
  856MPD2     C12566   0.369   3.441  13.682 -0.0515  0.0019 -0.3691
  856MPD2    C112567   0.431   3.519  13.778 -0.3853 -0.5538 -0.2442
  856MPD2    C212568   0.358   3.608  13.851 -0.1180  1.0836 -0.4738
  856MPD2    C312569   0.224   3.623  13.825  0.7532 -0.2384 -0.6448
  856MPD2    C412570   0.170   3.554  13.720  0.0814  0.3920  0.5726
  856MPD2    C512571   0.239   3.454  13.659 -0.4441 -0.6092 -0.1894
  856MPD2     H12572   0.415   3.665  13.924 -1.0464 -0.0532  1.1174
  856MPD2    H112573   0.068   3.562  13.684 -0.1318  0.5389  1.2018
  856MPD2    H212574   0.424   3.372  13.618 -0.3723 -0.2586 -0.3635
  856MPD2    H312575   0.184   3.409  13.577 -0.8297  1.1624 -0.9067
  856MPD2     N12576   0.143   3.724  13.886  0.3206  0.2010  0.3510
  856MPD2    H512577   0.062   3.748  13.829  0.5047  0.3632  0.1607
  856MPD2    N112578   0.569   3.516  13.791 -1.2362  0.5887  0.4177
  856MPD2    H712579   0.605   3.571  13.869 -1.7107  0.4720  0.7176
  857MPD2     C12580   2.232   0.563  12.339  0.1977 -0.2776 -0.6003
  857MPD2    C112581   2.362   0.593  12.367 -0.0972  0.8672 -0.1001
  857MPD2    C212582   2.386   0.708  12.443 -0.3690 -0.0656  0.7236
  857MPD2    C312583   2.269   0.776  12.500  0.3362  0.7557 -0.4705
  857MPD2    C412584   2.140   0.761  12.445 -0.2506 -0.8002 -0.1936
  857MPD2    C512585   2.130   0.654  12.362  0.5944 -0.1431  0.5483
  857MPD2     H12586   2.485   0.726  12.484  0.8209 -2.6002 -1.0614
  857MPD2    H112587   2.049   0.810  12.478 -1.1836 -2.3318 -0.4646
  857MPD2    H212588   2.213   0.471  12.286 -0.3403 -0.1507 -0.6303
  857MPD2    H312589   2.030   0.637  12.323  1.0155 -0.8880 -0.1947
  857MPD2     N12590   2.308   0.888  12.574 -0.0550 -0.5484 -0.4561
  857MPD2    H512591   2.407   0.909  12.568  0.0424 -0.8924  0.0048
  857MPD2    N112592   2.449   0.492  12.333  0.3577 -0.2997 -0.7001
  857MPD2    H712593   2.410   0.404  12.301 -0.9528  0.1627 -0.3755
  858MPD2     C12594   2.694   4.551  16.592  0.6475  0.3184 -0.3250
  858MPD2    C112595   2.823   4.557  16.639 -1.2750  0.7989  0.2463
  858MPD2    C212596   2.850   4.651  16.735 -0.6831 -0.0475 -1.0411
  858MPD2    C312597   2.751   4.707  16.811  0.0060  0.2693  0.8575
  858MPD2    C412598   2.623   4.698  16.767  0.1169  0.0143  0.0908
  858MPD2    C512599   2.599   4.618  16.665 -0.0978 -0.2911 -0.4783
  858MPD2     H12600   2.951   4.674  16.765 -0.3641 -1.1485 -1.2756
  858MPD2    H112601   2.535   0.018  16.815  0.0841 -0.6082  0.5368
  858MPD2    H212602   2.664   4.486  16.511  0.8958 -1.7423  1.2318
  858MPD2    H312603   2.493   4.618  16.639 -1.0502 -0.6990  3.4367
  858MPD2     N12604   2.769   0.068  16.927  0.0060 -0.0585  0.1887
  858MPD2    H512605   2.688   0.110  16.973  0.3269 -0.2210  0.9083
  858MPD2    N112606   2.924   4.478  16.574 -0.5303 -0.5455 -0.2405
  858MPD2    H712607   2.890   4.391  16.532  1.2383 -0.8686 -0.9955
  859MPD2     C12608   1.258   2.183  15.616 -0.0476  0.2026 -0.3469
  859MPD2    C112609   1.401   2.174  15.619  0.7812  0.0472  0.1540
  859MPD2    C212610   1.467   2.058  15.661 -0.2504  1.0339 -0.4788
  859MPD2    C312611   1.387   1.951  15.696  0.1939 -0.1853 -0.7334
  859MPD2    C412612   1.250   1.961  15.690  0.3391 -0.0935  0.2278
  859MPD2    C512613   1.189   2.071  15.647 -0.2587 -0.9265  0.6230
  859MPD2     H12614   1.575   2.057  15.669 -0.3591 -4.0628  0.4742
  859MPD2    H112615   1.183   1.879  15.712 -0.4145  0.0483 -1.5640
  859MPD2    H212616   1.205   2.268  15.575 -1.6831 -0.3153  0.6886
  859MPD2    H312617   1.081   2.066  15.637 -0.1683 -1.4090 -0.1503
  859MPD2     N12618   1.441   1.825  15.735 -0.0498  0.1982 -0.3728
  859MPD2    H512619   1.382   1.761  15.786  1.0138 -1.0098 -0.6543
  859MPD2    N112620   1.471   2.291  15.573 -0.2816  0.2580 -0.0773
  859MPD2    H712621   1.419   2.374  15.546 -0.6561 -0.1464 -0.5965
  860MPD2     C12622   4.700   2.426  11.528 -0.3243 -0.9660 -1.0518
  860MPD2    C112623   0.014   2.358  11.645 -0.1554  0.2653 -0.1913
  860MPD2    C212624   4.646   2.287  11.728 -0.1805  0.5149 -0.4013
  860MPD2    C312625   4.510   2.295  11.701 -0.3122  0.9353 -0.3443
  860MPD2    C412626   4.478   2.373  11.589 -0.9461  0.2115  0.6009
  860MPD2    C512627   4.569   2.429  11.500  0.0915 -0.4881  0.1748
  860MPD2     H12628   4.687   2.233  11.813 -0.8431  0.2478 -0.2459
  860MPD2    H112629   4.378   2.410  11.570 -1.0380 -0.1983  0.3098
  860MPD2    H212630   0.058   2.464  11.462 -0.2107  0.1731 -0.2661
  860MPD2    H312631   4.532   2.481  11.413  0.1472 -0.4727  0.1598
  860MPD2     N12632   4.425   2.236  11.792  0.0140  0.1726 -0.2763
  860MPD2    H512633   4.472   2.201  11.875  2.9334  3.8758 -0.3433
  860MPD2    N112634   0.144   2.339  11.693  0.0786  0.3928 -0.4981
  860MPD2    H712635   0.155   2.298  11.785  0.8325  0.7629 -0.4312
  861MPD2     C12636   3.560   0.240  10.619 -0.0511 -0.4120 -0.2287
  861MPD2    C112637   3.448   0.213  10.692 -0.3196 -0.0691 -0.4583
  861MPD2    C212638   3.321   0.243  10.636  0.1455 -0.5403 -0.0163
  861MPD2    C312639   3.306   0.313  10.516  0.2548 -0.3429  0.3840
  861MPD2    C412640   3.424   0.342  10.449 -0.3488  0.2318  0.6586
  861MPD2    C512641   3.544   0.301  10.495 -1.0229  0.0134 -0.8192
  861MPD2     H12642   3.240   0.233  10.708 -0.2654 -0.9020 -0.5252
  861MPD2    H112643   3.427   0.395  10.355 -1.2480 -0.3377  0.3061
  861MPD2    H212644   3.661   0.218  10.653  0.3625  1.8965  0.0503
  861MPD2    H312645   3.640   0.318  10.448 -1.3269 -2.8067 -2.4324
  861MPD2     N12646   3.184   0.352  10.456 -0.9640  0.1811  0.0664
  861MPD2    H512647   3.194   0.398  10.366  0.3810 -2.5840 -1.1741
  861MPD2    N112648   3.445   0.151  10.819  0.4232 -0.2562  0.4894
  861MPD2    H712649   3.358   0.146  10.869  0.1615  3.5913  0.4632
  862MPD2     C12650   2.816   0.466   9.858  0.0833 -0.0859 -0.6038
  862MPD2    C112651   2.846   0.388   9.967 -0.5454  1.0061 -0.2400
  862MPD2    C212652   2.859   0.250   9.945 -0.6216 -0.2895 -0.2487
  862MPD2    C312653   2.851   0.183   9.821  0.0928 -0.0241  0.6205
  862MPD2    C412654   2.830   0.266   9.707 -0.7075  0.2714  0.0915
  862MPD2    C512655   2.812   0.405   9.734 -0.4608 -0.3307 -0.4393
  862MPD2     H12656   2.854   0.182  10.029  4.1211  0.9759  1.0783
  862MPD2    H112657   2.851   0.231   9.607  2.2716  1.9004  0.1326
  862MPD2    H212658   2.802   0.574   9.862  1.3852 -0.0242  1.9456
  862MPD2    H312659   2.796   0.476   9.654  2.2809 -0.1798 -0.8347
  862MPD2     N12660   2.879   0.046   9.806 -0.0900 -0.5061 -0.3724
  862MPD2    H512661   2.870   0.005   9.714  0.5046 -0.4286 -0.4644
  862MPD2    N112662   2.857   0.432  10.100 -0.3029 -0.4469 -0.1491
  862MPD2    H712663   2.890   0.371  10.174 -0.7048 -1.9171 -1.1941
  863MPD2     C12664   0.808   3.398  17.035  0.0953 -0.4910  0.0421
  863MPD2    C112665   0.883   3.501  16.986  0.1978 -0.1885 -0.4858
  863MPD2    C212666   1.014   3.520  17.026  0.4749  0.1408 -0.4172
  863MPD2    C312667   1.067   3.441  17.129  0.5718 -0.9202 -0.3426
  863MPD2    C412668   0.984   3.341  17.182 -0.3819 -0.2567 -0.1984
  863MPD2    C512669   0.861   3.325  17.133 -0.0483  0.0346 -0.3231
  863MPD2     H12670   1.073   3.601  16.986 -1.1021  0.6708 -1.6764
  863MPD2    H112671   1.006   3.278  17.267  0.5249  0.3376  0.0062
  863MPD2    H212672   0.705   3.393  17.000  0.3950  0.1302 -0.9628
  863MPD2    H312673   0.795   3.256  17.183  1.6582 -0.6874  0.9346
  863MPD2     N12674   1.199   3.452  17.186 -0.2437  0.1260 -0.3272
  863MPD2    H512675   1.218   3.393  17.266 -1.7821  1.1524  0.7981
  863MPD2    N112676   0.821   3.586  16.896  0.2459 -0.2381 -0.6023
  863MPD2    H712677   0.728   3.555  16.868 -1.3441  1.0313  3.3810
  864MPD2     C12678   1.601   0.823  17.360 -0.0198 -0.3439  0.3505
  864MPD2    C112679   1.652   0.709  17.299  0.3760  0.2339 -0.5190
  864MPD2    C212680   1.769   0.720  17.218 -0.0691  0.7610 -0.4122
  864MPD2    C312681   1.810   0.846  17.185  0.6873 -0.2596 -0.0240
  864MPD2    C412682   1.745   0.956  17.229  0.3766  0.0334 -0.8780
  864MPD2    C512683   1.648   0.949  17.322 -0.1384  0.2862 -0.4208
  864MPD2     H12684   1.823   0.635  17.178 -0.1779  0.7591 -0.5548
  864MPD2    H112685   1.783   1.053  17.201  0.7174  1.0504  3.0987
  864MPD2    H212686   1.510   0.826  17.420 -1.4720  0.8883 -1.9473
  864MPD2    H312687   1.621   1.039  17.376 -1.3876  0.4550 -1.3465
  864MPD2     N12688   1.908   0.871  17.085 -0.2872  0.4599 -0.0392
  864MPD2    H512689   1.905   0.966  17.048 -1.4221  1.6076  3.0145
  864MPD2    N112690   1.586   0.587  17.318 -0.3729 -0.4175 -0.1862
  864MPD2    H712691   1.511   0.591  17.387 -2.1871 -0.8714 -2.1214
  865MPD2     C12692   1.796   0.733  16.146  0.2019 -0.3509  0.2387
  865MPD2    C112693   1.805   0.646  16.254 -0.1711 -0.2112  0.2587
  865MPD2    C212694   1.878   0.685  16.362 -0.0784 -0.3697 -0.3460
  865MPD2    C312695   1.942   0.808  16.369  0.1467  0.8971 -0.1461
  865MPD2    C412696   1.928   0.895  16.260 -0.3365  0.9031 -0.3447
  865MPD2    C512697   1.854   0.860  16.155  0.0776 -0.3117  0.4097
  865MPD2     H12698   1.870   0.615  16.445 -0.1569 -0.9303 -0.8317
  865MPD2    H112699   1.952   1.000  16.271  0.2985  0.7807 -0.5700
  865MPD2    H212700   1.743   0.704  16.056 -0.1713 -1.3565  0.7796
  865MPD2    H312701   1.845   0.927  16.071 -0.4536  1.7625  2.1369
  865MPD2     N12702   2.018   0.841  16.487 -0.4935 -0.2862 -0.6334
  865MPD2    H512703   2.078   0.923  16.495  1.3894 -1.6086 -1.2323
  865MPD2    N112704   1.744   0.520  16.248  0.4590 -0.5233  0.6482
  865MPD2    H712705   1.709   0.487  16.158  0.1186  1.2676  0.1103
  866MPD2     C12706   3.976   0.434  10.759  0.4749  0.0829 -0.3668
  866MPD2    C112707   3.891   0.498  10.670  0.1982 -0.1823 -0.5648
  866MPD2    C212708   3.761   0.521  10.708  0.1084  0.0762  0.3999
  866MPD2    C312709   3.712   0.489  10.836 -0.4778 -0.6160  0.0881
  866MPD2    C412710   3.799   0.427  10.928 -0.1099  0.1541  0.2436
  866MPD2    C512711   3.929   0.400  10.882 -0.6561 -0.0326  0.0382
  866MPD2     H12712   3.693   0.577  10.644  0.0089 -1.3850 -0.7674
  866MPD2    H112713   3.762   0.376  11.016 -3.7083 -1.7612 -2.3679
  866MPD2    H212714   4.069   0.396  10.719  0.8338  0.8158 -0.2318
  866MPD2    H312715   4.000   0.336  10.933 -1.1127 -2.6679 -2.6499
  866MPD2     N12716   3.579   0.537  10.881 -0.2330 -0.1403  0.5803
  866MPD2    H512717   3.547   0.504  10.971 -1.4645 -0.5427  0.0049
  866MPD2    N112718   3.929   0.538  10.542 -0.1016  0.7449 -0.1651
  866MPD2    H712719   3.855   0.575  10.483 -1.9610  0.2353  1.8676
  867MPD2     C12720   0.107   4.518  16.516  0.4273  0.4953 -0.4269
  867MPD2    C112721   0.192   4.432  16.585  0.8789 -0.4154 -0.1200
  867MPD2    C212722   0.157   4.401  16.714  0.1693  0.3713  0.0010
  867MPD2    C312723   0.044   4.455  16.776 -0.2326 -1.0243  0.3997
  867MPD2    C412724   4.684   4.542  16.705  0.4164  0.1859 -0.4253
  867MPD2    C512725   4.708   4.562  16.572 -0.1347 -0.1656 -0.2439
  867MPD2     H12726   0.219   4.329  16.766 -0.5410 -1.1140 -1.2122
  867MPD2    H112727   4.597   4.577  16.759  0.0520 -0.4970 -0.5673
  867MPD2    H212728   0.130   4.537  16.411  1.1903  2.1549  0.0477
  867MPD2    H312729   4.637   4.619  16.514 -0.2324  0.5351  0.5619
  867MPD2     N12730   0.005   4.424  16.909  0.1910 -0.1397 -0.4720
  867MPD2    H512731   4.643   4.474  16.943 -1.8286 -2.7104 -1.5176
  867MPD2    N112732   0.311   4.399  16.526 -0.3211  0.3416 -0.2279
  867MPD2    H712733   0.323   4.422  16.428 -0.5935 -2.8441 -1.0344
  868MPD2     C12734   2.831   4.085  12.994 -0.2810  0.4807  0.3043
  868MPD2    C112735   2.831   3.946  12.994 -0.0124  0.2393 -0.5197
  868MPD2    C212736   2.718   3.883  13.049  0.0641  0.4260 -0.7781
  868MPD2    C312737   2.611   3.957  13.101  0.0633  0.2033 -0.7435
  868MPD2    C412738   2.616   4.093  13.103  0.1244  0.1254 -0.0194
  868MPD2    C512739   2.726   4.151  13.048 -0.2491 -0.3666 -0.1150
  868MPD2     H12740   2.709   3.776  13.060 -2.0298  0.5155 -1.5158
  868MPD2    H112741   2.532   4.157  13.126 -0.4586 -1.1026  1.3235
  868MPD2    H212742   2.907   4.148  12.949  1.2825 -0.5679  1.4679
  868MPD2    H312743   2.728   4.259  13.038  0.1388 -0.1690  2.0659
  868MPD2     N12744   2.502   3.882  13.156 -0.6361 -0.1882 -0.0540
  868MPD2    H512745   2.503   3.780  13.151  1.5861 -0.1360 -0.9634
  868MPD2    N112746   2.944   3.881  12.938 -0.5618 -0.2680  0.1387
  868MPD2    H712747   3.016   3.943  12.902  0.2719 -1.7857 -0.8298
  869MPD2     C12748   3.520   1.929   1.735  0.1731 -0.3896 -0.3215
  869MPD2    C112749   3.640   1.895   1.793  0.0470  0.3160 -0.4640
  869MPD2    C212750   3.755   1.970   1.769  0.3209  0.4255  0.5378
  869MPD2    C312751   3.734   2.097   1.712 -0.6589 -0.0617 -0.0857
  869MPD2    C412752   3.607   2.134   1.672  0.0242  0.1657  0.4709
  869MPD2    C512753   3.505   2.048   1.665  0.4176 -0.4539  0.4754
  869MPD2     H12754   3.852   1.944   1.810  0.4670  1.5323  0.9029
  869MPD2    H112755   3.592   2.237   1.642  1.5917  0.6707  1.3776
  869MPD2    H212756   3.438   1.859   1.746  0.7852 -1.3367 -1.7459
  869MPD2    H312757   3.420   2.085   1.611 -0.0290 -0.7609  0.9682
  869MPD2     N12758   3.834   2.199   1.710 -0.0611  0.3511  0.2430
  869MPD2    H512759   3.793   2.286   1.677 -1.1804 -0.0314  0.6415
  869MPD2    N112760   3.633   1.780   1.871  0.5393  0.6837 -0.5572
  869MPD2    H712761   3.541   1.737   1.862  0.6769  0.9449 -3.0917
  870MPD2     C12762   2.496   1.502   1.765 -0.5647 -0.3520  0.0443
  870MPD2    C112763   2.613   1.476   1.706  0.3511  0.0832 -0.3895
  870MPD2    C212764   2.641   1.535   1.587 -0.3395 -0.3302 -0.2908
  870MPD2    C312765   2.547   1.603   1.517 -0.0520  0.0606 -0.2900
  870MPD2    C412766   2.426   1.629   1.581  0.3050  0.3389  0.6860
  870MPD2    C512767   2.394   1.571   1.701  0.5197 -0.2923 -0.1301
  870MPD2     H12768   2.730   1.505   1.533 -0.3032 -0.4375 -0.1721
  870MPD2    H112769   2.347   1.690   1.538 -0.3020 -0.8680  0.1053
  870MPD2    H212770   2.474   1.471   1.866 -0.9105 -0.0893  0.0474
  870MPD2    H312771   2.302   1.590   1.755 -0.9165  0.2025 -2.7640
  870MPD2     N12772   2.583   1.644   1.390  0.0885  0.5888  0.0724
  870MPD2    H512773   2.681   1.638   1.366 -0.3559 -0.9758 -1.3398
  870MPD2    N112774   2.702   1.388   1.780  0.0906 -0.0543 -0.1190
  870MPD2    H712775   2.666   1.353   1.868 -0.8115  0.9324 -0.0963
  871MPD2     C12776   4.407   0.462  16.660 -0.0915 -0.4049 -0.4752
  871MPD2    C112777   4.336   0.426  16.772  0.7955 -0.1072  0.2218
  871MPD2    C212778   4.298   0.296  16.801 -0.2514  0.2025 -0.0878
  871MPD2    C312779   4.319   0.200  16.701  0.6321 -0.1864 -0.0583
  871MPD2    C412780   4.388   0.235  16.587 -0.2111  0.4530 -0.0066
  871MPD2    C512781   4.438   0.364  16.570 -0.1235  0.7293  0.3582
  871MPD2     H12782   4.245   0.262  16.889 -1.6473 -0.3332 -1.1368
  871MPD2    H112783   4.402   0.170  16.501  0.1203  1.8840 -1.0301
  871MPD2    H212784   4.446   0.560  16.635 -3.1685  0.8936 -0.0497
  871MPD2    H312785   4.483   0.386  16.474 -0.4277 -1.6231 -0.3295
  871MPD2     N12786   4.259   0.073  16.711  0.5406 -0.5287  0.1672
  871MPD2    H512787   4.186   0.064  16.781  0.2162  0.6762 -0.0181
  871MPD2    N112788   4.298   0.533  16.857  0.5666 -0.3303  0.8726
  871MPD2    H712789   4.306   0.628  16.823  0.3690  0.3447  2.7374
  872MPD2     C12790   1.203   3.024  14.293  0.0782 -0.6747  0.4466
  872MPD2    C112791   1.153   2.916  14.225 -0.1798  0.2206 -0.2700
  872MPD2    C212792   1.034   2.863  14.266  0.0134 -0.2959  0.4284
  872MPD2    C312793   0.980   2.888  14.387 -0.0703  0.6645 -0.7785
  872MPD2    C412794   1.033   2.989  14.465 -0.1227  0.0332 -0.0848
  872MPD2    C512795   1.146   3.058  14.413  0.3088 -0.6050 -0.7682
  872MPD2     H12796   0.996   2.785  14.201 -2.7964  1.0605  0.4387
  872MPD2    H112797   1.005   3.018  14.565 -1.1825 -3.0355  0.5265
  872MPD2    H212798   1.283   3.078  14.244  1.8702 -2.7164  1.0953
  872MPD2    H312799   1.188   3.131  14.481 -1.0057 -0.5534 -0.0067
  872MPD2     N12800   0.875   2.806  14.441 -0.1766 -0.1356 -0.4186
  872MPD2    H512801   0.844   2.822  14.537 -0.8394 -2.7249 -0.2107
  872MPD2    N112802   1.203   2.881  14.102 -0.7949 -0.2898  0.0679
  872MPD2    H712803   1.150   2.816  14.044 -0.3088 -0.6652  0.0410
  873MPD2     C12804   2.511   2.776   0.897 -0.0845  0.1091 -0.6203
  873MPD2    C112805   2.549   2.783   1.028 -0.5699  0.2272 -0.7838
  873MPD2    C212806   2.640   2.689   1.076 -0.2020 -0.4702  0.3709
  873MPD2    C312807   2.700   2.598   0.989  0.1647  0.1910 -0.1293
  873MPD2    C412808   2.679   2.607   0.853 -0.5338 -0.4231 -0.3561
  873MPD2    C512809   2.572   2.685   0.813  0.3381 -0.1537  0.0087
  873MPD2     H12810   2.655   2.690   1.184  0.9800 -3.6537  0.2341
  873MPD2    H112811   2.717   2.542   0.775  1.7718 -0.3557  0.7082
  873MPD2    H212812   2.429   2.842   0.868  0.9682  1.2469 -1.0143
  873MPD2    H312813   2.548   2.691   0.708  2.5833  0.8740 -0.4548
  873MPD2     N12814   2.794   2.497   1.028  0.6290  0.1575  0.0386
  873MPD2    H512815   2.831   2.435   0.957  0.2639 -2.1854  1.8795
  873MPD2    N112816   2.493   2.888   1.104 -0.7231  0.4550 -0.1501
  873MPD2    H712817   2.414   2.938   1.064  0.6263  2.3308 -0.5187
  874MPD2     C12818   2.117   3.487  16.238 -0.4147  0.1128 -0.9714
  874MPD2    C112819   2.093   3.356  16.215  0.2377 -0.8417 -0.4941
  874MPD2    C212820   2.176   3.282  16.137 -0.0822  0.1874  0.3658
  874MPD2    C312821   2.290   3.337  16.080 -0.4607 -1.2723  0.7901
  874MPD2    C412822   2.307   3.480  16.091  0.8509  0.0372  0.2594
  874MPD2    C512823   2.223   3.550  16.172 -0.0762  0.3054  0.2358
  874MPD2     H12824   2.154   3.177  16.119 -1.3769  0.5260 -0.0793
  874MPD2    H112825   2.395   3.525  16.048  1.3402 -0.9584  0.2088
  874MPD2    H212826   2.055   3.551  16.300 -1.7522 -0.2433 -1.9434
  874MPD2    H312827   2.230   3.656  16.192  0.1250  0.4881 -0.8007
  874MPD2     N12828   2.381   3.260  16.010  0.1848  0.4904  0.7317
  874MPD2    H512829   2.468   3.308  15.989  1.1594 -0.1567  3.3194
  874MPD2    N112830   1.982   3.295  16.281  0.6468 -0.3277 -0.0969
  874MPD2    H712831   1.938   3.339  16.362  1.0495 -1.5193  0.7575
  875MPD2     C12832   2.419   0.985  14.754  0.0089 -0.5869  0.5083
  875MPD2    C112833   2.445   1.097  14.685 -0.0017 -0.2101  0.1952
  875MPD2    C212834   2.457   1.214  14.762  0.0381  0.0692 -0.0279
  875MPD2    C312835   2.449   1.216  14.902 -0.0836 -0.4747  0.5880
  875MPD2    C412836   2.433   1.101  14.964  0.0482  0.3314  0.2559
  875MPD2    C512837   2.417   0.983  14.889  0.0721  0.1891  0.5441
  875MPD2     H12838   2.475   1.308  14.711  0.3188 -1.1152 -2.0796
  875MPD2    H112839   2.457   1.093  15.069  3.5041 -2.9519 -0.7731
  875MPD2    H212840   2.419   0.885  14.711  0.9909  0.0306 -0.9344
  875MPD2    H312841   2.417   0.889  14.943 -0.8628 -0.5057 -0.6727
  875MPD2     N12842   2.482   1.322  14.985 -0.1955  0.1154 -0.5034
  875MPD2    H512843   2.472   1.311  15.085  1.3154  1.2614 -0.2159
  875MPD2    N112844   2.460   1.110  14.545 -0.5162  0.1196  0.2741
  875MPD2    H712845   2.489   1.205  14.526  0.6208 -0.2952 -0.0581
  876MPD2     C12846   1.752   2.526  15.900  0.2856  0.4464  0.0072
  876MPD2    C112847   1.883   2.493  15.938 -0.2290  0.0741  0.2474
  876MPD2    C212848   1.921   2.363  15.971 -0.0906 -0.0933  1.1471
  876MPD2    C312849   1.830   2.263  15.959 -0.7937  0.1498  0.6065
  876MPD2    C412850   1.702   2.290  15.911 -0.4284 -1.0102 -0.2544
  876MPD2    C512851   1.661   2.422  15.892  0.0595 -0.9010  0.7137
  876MPD2     H12852   2.018   2.333  16.009  0.0903  0.7563  1.3677
  876MPD2    H112853   1.623   2.217  15.905 -0.9126 -0.5736  0.8382
  876MPD2    H212854   1.717   2.626  15.878  0.7844  0.0802 -2.4392
  876MPD2    H312855   1.557   2.436  15.865  0.5493  1.3682  0.0340
  876MPD2     N12856   1.872   2.129  15.983  0.0289  0.4300  0.0310
  876MPD2    H512857   1.961   2.109  16.029 -1.3111 -3.0764  1.1030
  876MPD2    N112858   1.980   2.595  15.925  0.2062  0.3743 -0.1028
  876MPD2    H712859   1.944   2.689  15.910  0.0977  0.0098 -2.1070
  877MPD2     C12860   1.805   3.037  15.498  1.0662 -0.0499 -0.5942
  877MPD2    C112861   1.938   3.076  15.506  0.2684 -0.0403  0.2373
  877MPD2    C212862   1.994   3.154  15.404  0.0346  0.8177 -0.5722
  877MPD2    C312863   1.926   3.161  15.281 -0.1266  0.3987  0.4470
  877MPD2    C412864   1.803   3.093  15.271 -0.1932 -0.4585  0.3525
  877MPD2    C512865   1.735   3.043  15.386  0.2405 -0.1946 -0.4826
  877MPD2     H12866   2.094   3.195  15.410 -0.3820  1.5459  1.5282
  877MPD2    H112867   1.744   3.080  15.181  4.2397 -0.1398 -2.5933
  877MPD2    H212868   1.768   2.975  15.579 -0.2200  1.3952 -0.0801
  877MPD2    H312869   1.642   2.988  15.379  1.1999 -1.9990  0.8786
  877MPD2     N12870   1.974   3.217  15.163  0.1428 -0.2037  0.5310
  877MPD2    H512871   1.926   3.201  15.075  2.7571 -2.7515 -0.4368
  877MPD2    N112872   2.032   3.035  15.606 -0.1194 -0.4801 -0.3281
  877MPD2    H712873   2.130   3.055  15.589 -0.1211 -0.4032 -0.2494
  878MPD2     C12874   1.680   1.729  13.531 -0.0800  0.8044  0.4393
  878MPD2    C112875   1.785   1.814  13.522  0.5466  0.1242 -0.2451
  878MPD2    C212876   1.835   1.873  13.632  0.4952 -0.2483  0.4568
  878MPD2    C312877   1.778   1.846  13.760  0.5214  0.4274 -0.2515
  878MPD2    C412878   1.670   1.764  13.764 -0.0615  0.1109  0.0713
  878MPD2    C512879   1.621   1.711  13.651 -0.1824 -0.1293  0.9854
  878MPD2     H12880   1.921   1.938  13.636  1.5029 -1.6039  0.5388
  878MPD2    H112881   1.605   1.745  13.848  1.6694 -2.1998  0.8939
  878MPD2    H212882   1.643   1.676  13.444  1.1306 -1.2331  1.1620
  878MPD2    H312883   1.532   1.649  13.657 -0.3529  0.1491  1.3420
  878MPD2     N12884   1.828   1.908  13.879  0.4839  0.6637  0.8038
  878MPD2    H512885   1.911   1.965  13.868  0.9396 -0.2147 -0.3527
  878MPD2    N112886   1.821   1.851  13.390 -0.3391  0.2774 -0.1593
  878MPD2    H712887   1.766   1.805  13.318  0.0602  0.2286 -0.4376
  879MPD2     C12888   2.771   3.776  17.130 -0.0569  0.1126 -0.0331
  879MPD2    C112889   2.674   3.731  17.220  0.2012 -0.5720 -0.1820
  879MPD2    C212890   2.561   3.656  17.175 -0.1205  0.2799 -0.5523
  879MPD2    C312891   2.551   3.630  17.040 -0.3201 -0.3954 -0.1609
  879MPD2    C412892   2.649   3.687  16.958 -0.6800  0.2636 -0.8573
  879MPD2    C512893   2.765   3.744  17.003 -0.1164 -0.0099 -1.3075
  879MPD2     H12894   2.492   3.617  17.249  1.3295 -0.0229  0.6373
  879MPD2    H112895   2.639   3.682  16.851  0.3790  0.5741 -0.9771
  879MPD2    H212896   2.857   3.835  17.161  0.9369 -1.9208  1.1441
  879MPD2    H312897   2.845   3.777  16.938  0.5844 -1.6120 -1.2493
  879MPD2     N12898   2.448   3.554  16.981  0.0159 -0.1031  0.2837
  879MPD2    H512899   2.435   3.566  16.881 -0.2152  0.3898  0.3710
  879MPD2    N112900   2.696   3.761  17.357  0.4173  0.4303 -0.1818
  879MPD2    H712901   2.780   3.814  17.380 -0.5852  1.8775  0.1008
  880MPD2     C12902   3.285   0.655   0.563 -0.3991 -0.4490 -0.5581
  880MPD2    C112903   3.306   0.723   0.679  0.5657  0.4741  0.3406
  880MPD2    C212904   3.226   0.700   0.794 -0.0889  0.3171 -0.2506
  880MPD2    C312905   3.128   0.606   0.784  0.8688  0.0200  0.7485
  880MPD2    C412906   3.102   0.534   0.667 -0.1975 -0.6710 -0.2693
  880MPD2    C512907   3.182   0.567   0.555 -0.3487  0.2518  0.0724
  880MPD2     H12908   3.244   0.758   0.884  0.2104  0.1706 -0.2183
  880MPD2    H112909   3.026   0.458   0.661  0.6568 -1.7118  1.9970
  880MPD2    H212910   3.349   0.669   0.476 -1.9207  1.7515 -1.3216
  880MPD2    H312911   3.172   0.511   0.462 -0.1163 -0.6124  0.5695
  880MPD2     N12912   3.058   0.576   0.900 -0.6962  0.3167 -0.1253
  880MPD2    H512913   3.089   0.641   0.971 -0.8838  0.2061  0.0572
  880MPD2    N112914   3.395   0.831   0.668  0.2734 -0.6349  0.2757
  880MPD2    H712915   3.417   0.872   0.578  1.0150  0.6316  1.0440
  881MPD2     C12916   3.262   1.306  17.626  0.1111 -0.4495 -0.5312
  881MPD2    C112917   3.364   1.220  17.663  0.3918 -0.0095  0.1380
  881MPD2    C212918   3.390   1.213   0.117 -0.9287 -0.1206  0.1105
  881MPD2    C312919   3.314   1.265   0.220 -0.7644  0.6060 -0.2248
  881MPD2    C412920   3.198   1.324   0.183  0.5762  0.1039 -0.4271
  881MPD2    C512921   3.185   1.347   0.052  0.5374 -0.2321 -0.0769
  881MPD2     H12922   3.472   1.152   0.153 -0.0304  1.6549  1.0666
  881MPD2    H112923   3.127   1.368   0.252 -0.5175 -0.9365 -0.8908
  881MPD2    H212924   3.226   1.329  17.527 -0.1053 -0.7798 -0.5295
  881MPD2    H312925   3.091   1.399   0.033 -0.0558 -1.7112 -1.2126
  881MPD2     N12926   3.337   1.250   0.356 -0.5476  0.5675 -0.0839
  881MPD2    H512927   3.267   1.291   0.417 -0.3680 -1.6316  1.6029
  881MPD2    N112928   3.447   1.176  17.557  0.0530 -0.4018  0.1313
  881MPD2    H712929   3.433   1.214  17.464  2.0895 -0.1793 -0.0884
  882MPD2     C12930   1.914   3.122  14.378 -0.5471 -0.0500  0.0169
  882MPD2    C112931   1.875   3.137  14.508  0.0400 -0.1005 -0.3250
  882MPD2    C212932   1.761   3.067  14.546  0.0184 -0.0847  0.0220
  882MPD2    C312933   1.683   3.000  14.450  0.0315  0.7964  0.4757
  882MPD2    C412934   1.721   3.001  14.319 -0.1768 -0.1582 -0.9369
  882MPD2    C512935   1.839   3.056  14.286  0.1293 -0.2129 -0.5136
  882MPD2     H12936   1.740   3.057  14.652  1.6976 -0.7938  0.2894
  882MPD2    H112937   1.668   2.951  14.239  0.0749 -0.9199 -0.6238
  882MPD2    H212938   2.004   3.172  14.346 -0.3208 -1.6213 -1.7702
  882MPD2    H312939   1.875   3.059  14.184  2.4532  0.0830  0.3102
  882MPD2     N12940   1.573   2.921  14.489 -0.3708 -0.0516 -0.0103
  882MPD2    H512941   1.521   2.894  14.406 -3.0116  1.3817  1.1764
  882MPD2    N112942   1.952   3.216  14.591  0.3652  0.2017  0.9529
  882MPD2    H712943   2.037   3.261  14.557  0.2211 -1.5054 -1.6044
  883MPD2     C12944   3.780   2.523  16.188  0.4397 -0.4021  0.1511
  883MPD2    C112945   3.880   2.528  16.091  0.2920  0.6351  0.5221
  883MPD2    C212946   3.994   2.607  16.110 -0.2112  0.7499 -0.6306
  883MPD2    C312947   4.004   2.685  16.226 -1.0971  0.6029 -0.4919
  883MPD2    C412948   3.907   2.670  16.323  0.7556  0.4691  1.0693
  883MPD2    C512949   3.794   2.589  16.308  0.2999 -0.3335 -0.3221
  883MPD2     H12950   4.067   2.606  16.030  0.2903 -0.3860 -0.1626
  883MPD2    H112951   3.911   2.721  16.419  0.2010  0.6605  0.9899
  883MPD2    H212952   3.691   2.465  16.170 -0.9119  2.2676 -1.8810
  883MPD2    H312953   3.718   2.573  16.384 -1.2252  0.2176 -1.7314
  883MPD2     N12954   4.117   2.776  16.238  0.5295 -0.0675 -0.1708
  883MPD2    H512955   4.180   2.783  16.159 -1.7718 -1.1576 -2.1355
  883MPD2    N112956   3.874   2.451  15.972 -0.0142  0.5340  0.1345
  883MPD2    H712957   3.938   2.456  15.894  1.1341  0.9275  1.1061
  884MPD2     C12958   1.088   3.405  15.256  0.1015  0.1879 -0.0331
  884MPD2    C112959   1.049   3.527  15.208  0.0118 -0.0928 -0.0404
  884MPD2    C212960   0.914   3.551  15.203 -0.6102 -0.0372  0.0379
  884MPD2    C312961   0.814   3.476  15.259 -0.1029 -0.1605  0.3951
  884MPD2    C412962   0.857   3.350  15.307  1.4127 -0.1071  0.1631
  884MPD2    C512963   0.992   3.317  15.302  0.2944 -0.0267 -0.0523
  884MPD2     H12964   0.884   3.648  15.165 -1.1331  0.4694  1.7588
  884MPD2    H112965   0.781   3.285  15.350  0.4185  0.3677 -0.8611
  884MPD2    H212966   1.192   3.373  15.261 -0.1596 -0.5683  0.6238
  884MPD2    H312967   1.027   3.224  15.347 -0.4267 -0.5417 -0.5517
  884MPD2     N12968   0.682   3.518  15.266  0.3821  0.0209 -0.0782
  884MPD2    H512969   0.661   3.614  15.242  1.6271  0.2632 -0.1700
  884MPD2    N112970   1.139   3.621  15.143  0.4891 -0.0538  0.3936
  884MPD2    H712971   1.100   3.709  15.111  0.4321 -1.0100 -2.1885
  885MPD2     C12972   3.830   3.971   0.211  0.9993 -0.2020 -0.1735
  885MPD2    C112973   3.830   3.854   0.134 -0.3476 -0.6842 -0.9876
  885MPD2    C212974   3.810   3.857   0.000 -0.4893  0.1642  0.1859
  885MPD2    C312975   3.800   3.980  17.616  0.3197  0.8593 -0.0581
  885MPD2    C412976   3.820   4.098   0.009 -0.8155  0.2917 -0.1262
  885MPD2    C512977   3.825   4.092   0.142  0.3785 -0.6854 -0.7347
  885MPD2     H12978   3.809   3.768  17.617 -0.4062 -0.6207  1.3191
  885MPD2    H112979   3.829   4.197  17.645 -1.8716  1.3349  2.0541
  885MPD2    H212980   3.834   3.974   0.319 -0.8470 -1.1113 -0.0708
  885MPD2    H312981   3.840   4.185   0.196 -2.4583 -0.5051 -0.2781
  885MPD2     N12982   3.787   3.983  17.477  0.4066 -0.4733 -0.2002
  885MPD2    H512983   3.800   3.897  17.425  1.4295  0.2243 -1.1002
  885MPD2    N112984   3.851   3.731   0.205 -0.0133  0.0237 -0.1272
  885MPD2    H712985   3.887   3.735   0.300  0.5115  0.2728 -0.3386
  886MPD2     C12986   0.281   2.068  15.764 -0.3066  0.6459 -0.0956
  886MPD2    C112987   0.417   2.092  15.761  0.4478 -0.0071  0.0964
  886MPD2    C212988   0.460   2.197  15.687 -0.2416  0.2109 -0.1563
  886MPD2    C312989   0.382   2.274  15.604  1.0910 -0.6571  0.2571
  886MPD2    C412990   0.243   2.252  15.609 -0.2082 -0.0004  0.1119
  886MPD2    C512991   0.200   2.150  15.692 -0.2644  0.1818 -0.0867
  886MPD2     H12992   0.566   2.217  15.688 -0.6014  1.9995  1.9313
  886MPD2    H112993   0.177   2.301  15.539  0.5341 -0.8783 -1.1908
  886MPD2    H212994   0.243   2.003  15.842  1.6626 -0.7412 -0.3090
  886MPD2    H312995   0.094   2.131  15.701 -0.8197  2.5371 -1.4838
  886MPD2     N12996   0.422   2.381  15.512  0.1464  0.3321  0.2529
  886MPD2    H512997   0.354   2.444  15.473 -0.7763 -1.0885 -0.4319
  886MPD2    N112998   0.517   2.022  15.827 -0.7027 -0.5035 -0.0647
  886MPD2    H712999   0.615   2.048  15.824 -0.7252 -0.1197  2.6231
  887MPD2     C13000   1.202   2.206  15.981 -0.4651  0.2305  1.0519
  887MPD2    C113001   1.074   2.229  16.030  0.1215  0.5176 -0.1015
  887MPD2    C213002   1.052   2.354  16.100 -0.3962  0.0306 -0.3976
  887MPD2    C313003   1.154   2.447  16.109 -0.0572  0.7398  0.1502
  887MPD2    C413004   1.277   2.413  16.065 -0.2801  0.4003  0.0609
  887MPD2    C513005   1.299   2.294  16.004 -0.8916  0.2670 -0.4502
  887MPD2     H13006   0.965   2.370  16.162  0.1221 -1.2197  0.6631
  887MPD2    H113007   1.361   2.482  16.061 -1.2612  1.5983  0.0213
  887MPD2    H213008   1.229   2.111  15.936 -3.2094  0.0268 -0.2053
  887MPD2    H313009   1.397   2.262  15.971  0.2875  2.4498  0.9665
  887MPD2     N13010   1.131   2.561  16.178 -0.2824  0.1184  0.3033
  887MPD2    H513011   1.034   2.575  16.201 -0.0418  0.9970  0.7959
  887MPD2    N113012   0.962   2.128  16.030  0.0424 -0.9464  0.2475
  887MPD2    H713013   0.876   2.155  16.078  1.2094  2.7671  0.2676
  888MPD2     C13014   2.669   2.246  14.972 -0.0713  0.2575 -0.0038
  888MPD2    C113015   2.722   2.315  15.083 -0.5413 -0.2283 -0.2330
  888MPD2    C213016   2.768   2.441  15.069  0.4861  0.4737 -0.4017
  888MPD2    C313017   2.770   2.504  14.946  0.0261  0.3863  0.4913
  888MPD2    C413018   2.713   2.440  14.835  1.1341 -0.2758 -0.2620
  888MPD2    C513019   2.660   2.310  14.852  0.0817 -0.0164 -0.5116
  888MPD2     H13020   2.806   2.485  15.160  3.5953 -0.8050 -1.0922
  888MPD2    H113021   2.700   2.479  14.735  2.3801 -2.4152 -1.2478
  888MPD2    H213022   2.642   2.141  14.973  2.0515 -0.3032 -1.6070
  888MPD2    H313023   2.617   2.250  14.772 -1.7051  1.9631 -1.0510
  888MPD2     N13024   2.838   2.631  14.936  0.2873 -0.3874 -0.2603
  888MPD2    H513025   2.880   2.664  15.022 -1.6829 -0.3005  0.6671
  888MPD2    N113026   2.734   2.248  15.201 -1.0693 -0.3423 -0.0670
  888MPD2    H713027   2.786   2.299  15.271 -0.6645 -1.5110  0.4715
  889MPD2     C13028   2.183   1.625  13.035  0.8145 -0.0894 -0.3209
  889MPD2    C113029   2.285   1.631  12.940  0.5057  0.1297  0.2424
  889MPD2    C213030   2.378   1.730  12.962 -0.1246 -0.2784 -0.3806
  889MPD2    C313031   2.347   1.827  13.054  0.1609  0.6538 -0.0942
  889MPD2    C413032   2.249   1.823  13.150  0.3455  0.9543  0.1195
  889MPD2    C513033   2.164   1.728  13.128 -0.0622 -0.6913 -0.1879
  889MPD2     H13034   2.451   1.751  12.886  1.5032 -0.5093  1.1149
  889MPD2    H113035   2.238   1.893  13.232  2.1570  1.1153  0.2172
  889MPD2    H213036   2.117   1.540  13.028  1.2779 -0.5685  1.1858
  889MPD2    H313037   2.085   1.717  13.201 -0.4122  0.1702 -0.4364
  889MPD2     N13038   2.439   1.935  13.046  0.4128 -0.5130  0.5686
  889MPD2    H513039   2.519   1.926  12.985  0.1751 -0.4656  0.2459
  889MPD2    N113040   2.330   1.530  12.854 -0.4067  0.3618 -0.5381
  889MPD2    H713041   2.422   1.526  12.812 -0.0688  1.6553  0.0671
  890MPD2     C13042   1.742   3.489  15.054 -0.5106  0.6649 -0.6744
  890MPD2    C113043   1.838   3.582  15.107 -0.4813  0.8905 -0.1438
  890MPD2    C213044   1.858   3.587  15.242  0.2178  0.2558  0.2637
  890MPD2    C313045   1.801   3.498  15.323  0.5472 -0.3069  0.0930
  890MPD2    C413046   1.719   3.402  15.270  0.5105 -0.4250 -0.1232
  890MPD2    C513047   1.679   3.409  15.141  0.6702  0.1778  0.3363
  890MPD2     H13048   1.922   3.670  15.272 -1.6989  1.8307  0.0061
  890MPD2    H113049   1.686   3.321  15.335  1.1807  0.5709  1.4691
  890MPD2    H213050   1.720   3.480  14.949  0.6757  2.2504 -1.0417
  890MPD2    H313051   1.618   3.330  15.098 -0.1041 -0.0020  1.7615
  890MPD2     N13052   1.846   3.500  15.456 -0.9337  0.0175 -0.2726
  890MPD2    H513053   1.925   3.560  15.477 -3.0050  2.1193  1.4175
  890MPD2    N113054   1.917   3.658  15.015 -0.1573  0.0766  0.3096
  890MPD2    H713055   1.878   3.657  14.922 -0.9710 -0.7151  0.6588
  891MPD2     C13056   0.014   1.458  16.620  0.0110  0.3206 -0.3399
  891MPD2    C113057   4.676   1.570  16.683  0.1935  0.3947  0.6946
  891MPD2    C213058   0.050   1.672  16.715  0.4277 -0.7619 -0.4291
  891MPD2    C313059   0.187   1.656  16.699  0.4138 -0.1326 -0.6801
  891MPD2    C413060   0.237   1.539  16.636 -0.0892  0.4335  0.0447
  891MPD2    C513061   0.149   1.442  16.601  0.0953  0.3514 -0.4081
  891MPD2     H13062   0.014   1.767  16.754  1.5175 -0.2603 -0.6559
  891MPD2    H113063   0.341   1.526  16.610 -0.5695 -1.4989 -0.8586
  891MPD2    H213064   4.664   1.385  16.580  1.5234 -0.9948 -0.5350
  891MPD2    H313065   0.191   1.357  16.548 -0.0189  0.5984 -0.8978
  891MPD2     N13066   0.273   1.752  16.749 -0.6065 -0.2187 -0.4464
  891MPD2    H513067   0.225   1.828  16.796 -1.2121 -0.2992 -0.9369
  891MPD2    N113068   4.535   1.591  16.685 -0.4390  0.7712  0.0252
  891MPD2    H713069   4.479   1.531  16.626  0.8020  1.4301 -1.8394
  892MPD2     C13070   0.997   3.385  14.883  0.1347 -0.8129 -0.1819
  892MPD2    C113071   0.925   3.272  14.905 -0.0283 -0.3899  0.5301
  892MPD2    C213072   0.998   3.154  14.875  0.9488 -0.1648 -0.1608
  892MPD2    C313073   1.135   3.142  14.840  0.0609 -0.6151  0.5345
  892MPD2    C413074   1.195   3.262  14.812  0.2612 -0.8090  0.2929
  892MPD2    C513075   1.129   3.383  14.833  0.3973 -0.1382 -0.1489
  892MPD2     H13076   0.934   3.066  14.880 -1.0567  1.3761  1.0947
  892MPD2    H113077   1.297   3.269  14.775 -0.4542 -1.7836 -1.8531
  892MPD2    H213078   0.949   3.483  14.889 -0.3031 -0.9379 -1.8040
  892MPD2    H313079   1.181   3.477  14.815  1.4954 -0.7266 -0.0579
  892MPD2     N13080   1.203   3.020  14.817 -0.0839 -0.3733  0.1690
  892MPD2    H513081   1.303   3.016  14.799 -0.2825 -1.7519 -0.7084
  892MPD2    N113082   0.789   3.275  14.943 -0.1543 -0.2126  0.0458
  892MPD2    H713083   0.744   3.365  14.946 -0.6555 -0.4334 -0.6881
  893MPD2     C13084   2.143   2.034   1.646 -0.0646  0.2709  0.3253
  893MPD2    C113085   2.212   1.984   1.757 -0.0254  0.1366 -0.1763
  893MPD2    C213086   2.138   1.962   1.873 -0.5275  0.2364 -0.2339
  893MPD2    C313087   1.999   1.987   1.879  0.0150 -0.0589 -0.1409
  893MPD2    C413088   1.934   2.041   1.773  0.0765 -0.2032  0.4155
  893MPD2    C513089   2.004   2.054   1.653 -0.1011 -0.1845  0.0384
  893MPD2     H13090   2.196   1.934   1.960  1.9935 -0.9792 -2.3158
  893MPD2    H113091   1.836   2.088   1.776  1.0994  1.9663 -0.1093
  893MPD2    H213092   2.198   2.048   1.553  1.3674 -0.1818  1.1071
  893MPD2    H313093   1.966   2.107   1.566 -0.2393  0.9629  0.7913
  893MPD2     N13094   1.921   1.956   1.995  0.6097 -0.1129  0.2691
  893MPD2    H513095   1.824   1.983   1.999  0.7405  0.2944  0.5901
  893MPD2    N113096   2.353   1.948   1.748 -0.1227 -0.0604 -0.1459
  893MPD2    H713097   2.404   1.979   1.666 -1.3165  0.5252 -0.6745
  894MPD2     C13098   0.028   3.294   1.362 -0.8218 -0.9888 -0.1086
  894MPD2    C113099   0.042   3.425   1.407  0.2437  0.8208  0.1818
  894MPD2    C213100   0.164   3.470   1.439  0.2461 -0.0559 -0.3683
  894MPD2    C313101   0.273   3.389   1.424  0.2472 -0.4628  0.0221
  894MPD2    C413102   0.254   3.259   1.373  0.1693  0.4203  0.2396
  894MPD2    C513103   0.134   3.214   1.336 -0.1749 -0.5328 -0.4358
  894MPD2     H13104   0.173   3.565   1.490  0.8625  1.1114 -2.6263
  894MPD2    H113105   0.341   3.196   1.357 -0.3391 -0.1697 -0.1984
  894MPD2    H213106   4.645   3.258   1.349 -1.0018 -1.6266  2.9719
  894MPD2    H313107   0.128   3.110   1.305  0.2207 -1.1012  1.4097
  894MPD2     N13108   0.401   3.444   1.451  0.8257  0.2140 -0.9358
  894MPD2    H513109   0.392   3.539   1.485 -0.1785  0.0619 -0.7652
  894MPD2    N113110   4.651   3.508   1.430 -0.0328 -0.0443 -0.1292
  894MPD2    H713111   4.665   3.603   1.464 -2.1942 -0.7026  2.5855
  895MPD2     C13112   0.311   2.031  13.714  0.6343  0.3645 -0.4863
  895MPD2    C113113   0.201   1.993  13.641 -0.2342 -0.4560  0.6197
  895MPD2    C213114   0.185   1.853  13.626  0.0282 -0.1315  0.4290
  895MPD2    C313115   0.268   1.758  13.691  0.4473 -0.6154  0.0404
  895MPD2    C413116   0.364   1.800  13.775  0.2187  0.1340  0.2179
  895MPD2    C513117   0.389   1.934  13.779  0.3742 -0.2411  0.3932
  895MPD2     H13118   0.095   1.814  13.578  0.9289  0.6770 -1.8959
  895MPD2    H113119   0.433   1.732  13.825 -0.3258  1.0136  2.1804
  895MPD2    H213120   0.327   2.137  13.730 -0.9958  0.4949  0.2724
  895MPD2    H313121   0.471   1.966  13.843 -0.0409 -1.4904  1.5465
  895MPD2     N13122   0.235   1.620  13.666 -0.1390 -0.1868 -0.4512
  895MPD2    H513123   0.170   1.591  13.593 -0.7588  0.1850 -0.0468
  895MPD2    N113124   0.107   2.088  13.573  0.0622  0.1055 -0.3718
  895MPD2    H713125   0.030   2.048  13.521 -1.9248  0.6934  2.1396
  896MPD2     C13126   1.832   0.361   1.676 -0.4971  0.4109  0.3009
  896MPD2    C113127   1.913   0.276   1.597 -0.1697 -0.3478  0.3871
  896MPD2    C213128   1.880   0.143   1.588  0.3137 -0.1531  0.0579
  896MPD2    C313129   1.766   0.098   1.651 -0.6397  0.0749 -0.0905
  896MPD2    C413130   1.690   0.182   1.733 -0.2426  0.1197  0.4534
  896MPD2    C513131   1.724   0.312   1.742  0.1751 -0.5156  0.1430
  896MPD2     H13132   1.937   0.072   1.529  1.0553 -1.7174  2.6706
  896MPD2    H113133   1.601   0.149   1.786 -0.9125  0.7956 -0.2481
  896MPD2    H213134   1.864   0.464   1.683 -1.1850  0.5495  1.4314
  896MPD2    H313135   1.658   0.379   1.795 -0.5384  0.8297 -2.4227
  896MPD2     N13136   1.734   4.676   1.642  0.3124 -0.2204 -0.6590
  896MPD2    H513137   1.805   4.615   1.601 -1.3383 -1.9742 -0.9373
  896MPD2    N113138   2.019   0.337   1.532 -0.5509  0.1198 -0.0423
  896MPD2    H713139   2.034   0.437   1.538  1.9145 -0.1431 -1.8587
  897MPD2     C13140   4.155   0.985  10.424  0.2281  0.0764 -0.5507
  897MPD2    C113141   4.120   1.120  10.404 -0.7999 -0.0333  0.6374
  897MPD2    C213142   4.011   1.163  10.469 -0.6479 -0.0431  0.6372
  897MPD2    C313143   3.936   1.081  10.551  0.1479 -1.0198 -0.1755
  897MPD2    C413144   3.982   0.957  10.576  0.1868 -0.1495  0.0943
  897MPD2    C513145   4.096   0.912  10.522 -0.9311 -0.1307 -0.0173
  897MPD2     H13146   3.976   1.264  10.446 -0.9953  0.3028  2.5959
  897MPD2    H113147   3.939   0.886  10.645 -1.9195  1.4546  0.4194
  897MPD2    H213148   4.227   0.934  10.361  1.7153  0.7821  0.5943
  897MPD2    H313149   4.121   0.808  10.536  0.1540 -0.2350 -2.5910
  897MPD2     N13150   3.814   1.118  10.612  0.3560 -0.4193 -0.1388
  897MPD2    H513151   3.766   1.047  10.667 -1.6066  2.1143  1.3768
  897MPD2    N113152   4.186   1.202  10.313 -0.5238  0.6057 -0.5681
  897MPD2    H713153   4.237   1.148  10.244  2.0595  2.4573 -0.0776
  898MPD2     C13154   0.870   2.405   0.818 -0.2404 -0.1401 -0.0603
  898MPD2    C113155   0.963   2.501   0.779  0.0633  0.8122  0.3466
  898MPD2    C213156   0.940   2.566   0.662 -0.5231 -0.8730  0.1527
  898MPD2    C313157   0.809   2.569   0.613 -0.7443 -0.1174  0.3598
  898MPD2    C413158   0.714   2.476   0.656 -0.2645  0.1591  0.6678
  898MPD2    C513159   0.754   2.390   0.756 -0.5493 -0.6005 -0.5821
  898MPD2     H13160   1.016   2.637   0.632 -0.5219 -0.8228  0.2752
  898MPD2    H113161   0.610   2.481   0.626 -0.7914  0.1397  2.5247
  898MPD2    H213162   0.891   2.334   0.896 -2.0254 -0.0298  0.5023
  898MPD2    H313163   0.679   2.322   0.795 -1.4574  1.1853  0.7451
  898MPD2     N13164   0.793   2.644   0.499 -0.3923 -0.3315 -0.4788
  898MPD2    H513165   0.879   2.681   0.459  0.2048 -0.6948  0.4677
  898MPD2    N113166   1.077   2.537   0.853 -0.5577 -0.1318  0.3997
  898MPD2    H713167   1.140   2.602   0.809  0.5935 -0.1826  1.9722
  899MPD2     C13168   1.831   3.315   0.075  0.3255 -0.6461 -0.4559
  899MPD2    C113169   1.704   3.311   0.026  0.5915 -0.6134  1.6064
  899MPD2    C213170   1.613   3.239   0.102 -0.7522 -0.1462 -0.0185
  899MPD2    C313171   1.638   3.186   0.224 -0.1254 -0.1240  0.3723
  899MPD2    C413172   1.764   3.198   0.279  0.5407 -0.4183 -0.7373
  899MPD2    C513173   1.863   3.270   0.206 -0.0289 -0.0403 -0.6238
  899MPD2     H13174   1.516   3.218   0.058 -1.3403  1.4464  0.5099
  899MPD2    H113175   1.794   3.143   0.367 -0.4505 -0.2186 -0.2804
  899MPD2    H213176   1.911   3.370   0.027 -0.7327  0.9072 -0.4183
  899MPD2    H313177   1.966   3.281   0.238  0.0874 -1.4214 -0.5211
  899MPD2     N13178   1.544   3.123   0.315  0.7459  0.2359 -0.2145
  899MPD2    H513179   1.571   3.076   0.400 -1.8645 -1.7991 -0.4956
  899MPD2    N113180   1.680   3.373  17.575 -0.2627 -0.0976 -0.4345
  899MPD2    H713181   1.750   3.441  17.546  0.6142 -0.7981  0.0310
  900MPD2     C13182   1.419   4.656  12.483  0.4247 -0.2877 -0.2136
  900MPD2    C113183   1.348   4.564  12.421 -0.1176 -0.7221 -0.2549
  900MPD2    C213184   1.233   4.605  12.347  0.0682  0.2787 -0.1825
  900MPD2    C313185   1.198   0.023  12.351  0.9141  0.6704 -0.1695
  900MPD2    C413186   1.275   0.112  12.419 -0.1444  0.3570 -0.2649
  900MPD2    C513187   1.394   0.071  12.474 -0.2098 -0.2689  1.1544
  900MPD2     H13188   1.174   4.535  12.289  3.0817 -1.3777 -1.2827
  900MPD2    H113189   1.239   0.214  12.423  1.9348  1.0650  0.1248
  900MPD2    H213190   1.512   4.627  12.531  0.1501 -1.7325 -0.5675
  900MPD2    H313191   1.463   0.150  12.502 -1.0956  1.0292 -0.2759
  900MPD2     N13192   1.079   0.060  12.280  0.0991 -0.5908  0.1143
  900MPD2    H513193   1.025   4.706  12.235  1.3111 -1.9466  0.8248
  900MPD2    N113194   1.401   4.432  12.426 -0.0090 -0.4306  0.0842
  900MPD2    H713195   1.496   4.422  12.459 -0.2807 -3.1693 -0.0036
  901MPD2     C13196   1.497   3.548  12.980 -0.5164 -0.1579  0.6681
  901MPD2    C113197   1.504   3.492  12.857 -0.1282  0.1390  0.4737
  901MPD2    C213198   1.507   3.575  12.744  0.0311  0.0136 -0.9174
  901MPD2    C313199   1.488   3.711  12.755  0.7018  0.2530 -0.0581
  901MPD2    C413200   1.502   3.769  12.879  0.5295 -0.4110  0.0560
  901MPD2    C513201   1.505   3.686  12.994 -0.3936 -0.6014  0.2918
  901MPD2     H13202   1.525   3.530  12.647 -0.5303  0.8178 -1.3990
  901MPD2    H113203   1.503   3.875  12.901  2.8874  0.0489 -2.2350
  901MPD2    H213204   1.493   3.487  13.070 -1.2773 -0.4587  0.4321
  901MPD2    H313205   1.509   3.728  13.094 -0.7576  2.1420 -0.8536
  901MPD2     N13206   1.468   3.788  12.636 -0.3361 -0.0944 -0.4097
  901MPD2    H513207   1.473   3.742  12.546 -1.4710 -1.0723  0.0270
  901MPD2    N113208   1.510   3.351  12.844 -0.0278  0.0652 -0.5455
  901MPD2    H713209   1.529   3.309  12.935  0.2864 -1.3553 -1.2690
  902MPD2     C13210   0.551   2.744  13.465 -0.4343 -0.3757  0.5826
  902MPD2    C113211   0.548   2.785  13.336 -0.0180 -0.3139 -0.1049
  902MPD2    C213212   0.559   2.691  13.239  0.0219  0.4791 -0.5984
  902MPD2    C313213   0.565   2.555  13.264 -0.1121  0.5911 -0.3465
  902MPD2    C413214   0.565   2.518  13.398  0.0053  0.3871 -0.3060
  902MPD2    C513215   0.574   2.612  13.496  0.0528  0.2854 -0.0726
  902MPD2     H13216   0.559   2.730  13.137 -0.9313  1.2508 -0.3136
  902MPD2    H113217   0.589   2.417  13.427  1.7973  1.3496  1.6044
  902MPD2    H213218   0.533   2.820  13.540  1.1445  0.1822  0.4047
  902MPD2    H313219   0.598   2.574  13.595  3.8705  1.2423 -0.6122
  902MPD2     N13220   0.556   2.457  13.161 -0.3343  0.6789 -0.0968
  902MPD2    H513221   0.553   2.358  13.185  3.3806  0.5002 -0.3024
  902MPD2    N113222   0.511   2.918  13.306 -0.0320  0.0161 -0.1340
  902MPD2    H713223   0.483   2.973  13.388  0.4078  2.8738 -1.9026
  903MPD2     C13224   0.745   2.610  12.399  0.0131  0.1230 -0.4379
  903MPD2    C113225   0.670   2.493  12.409 -0.1733 -0.0231  0.1734
  903MPD2    C213226   0.623   2.441  12.293  0.0501  0.1631 -0.4706
  903MPD2    C313227   0.645   2.496  12.170 -0.0734 -0.2661 -0.2020
  903MPD2    C413228   0.703   2.616  12.167  0.5197 -0.2167 -0.7245
  903MPD2    C513229   0.749   2.679  12.280  0.3503  0.3028  0.2183
  903MPD2     H13230   0.557   2.355  12.294 -1.4000  1.2880 -0.1109
  903MPD2    H113231   0.714   2.675  12.077 -0.7164 -0.8140 -1.2559
  903MPD2    H213232   0.797   2.649  12.486 -0.3830  0.1189 -0.1969
  903MPD2    H313233   0.813   2.766  12.269 -2.5693  2.4449  0.2043
  903MPD2     N13234   0.597   2.426  12.058  0.3411 -0.1776 -0.0695
  903MPD2    H513235   0.548   2.338  12.074  0.2664 -0.2020 -0.4436
  903MPD2    N113236   0.663   2.435  12.543 -0.5255  0.4489 -0.5451
  903MPD2    H713237   0.699   2.489  12.621  0.9973  0.9383 -1.5698
  904MPD2     C13238   4.568   1.662  13.989  0.2679  0.0362 -0.2156
  904MPD2    C113239   4.533   1.653  14.123  0.1198 -0.7114 -0.6813
  904MPD2    C213240   4.631   1.647  14.216 -0.7240 -0.6181 -0.6101
  904MPD2    C313241   0.044   1.672  14.186 -0.2923  0.1178  0.0209
  904MPD2    C413242   0.076   1.688  14.055 -0.4265 -0.7566  0.0788
  904MPD2    C513243   4.702   1.673  13.949 -0.5706  0.0381 -0.2758
  904MPD2     H13244   4.611   1.628  14.321  2.2779 -1.5872 -0.2076
  904MPD2    H113245   0.178   1.708  14.022 -0.9331  1.4185 -0.1763
  904MPD2    H213246   4.489   1.646  13.917 -0.0640 -1.6937  0.5366
  904MPD2    H313247   0.023   1.671  13.849  2.3130 -0.6267  0.8966
  904MPD2     N13248   0.139   1.676  14.290 -0.5735 -0.2248  0.2059
  904MPD2    H513249   0.098   1.675  14.383 -2.9822 -1.1689 -0.8646
  904MPD2    N113250   4.395   1.656  14.164 -0.1724  0.1965 -0.3847
  904MPD2    H713251   4.380   1.602  14.248  2.9406 -0.7748 -0.4332
  905MPD2     C13252   4.189   1.555  13.449 -0.4662 -0.7844 -0.3124
  905MPD2    C113253   4.300   1.610  13.514  0.6040  0.7931  0.3366
  905MPD2    C213254   4.423   1.547  13.510  0.2040  0.4471  0.3080
  905MPD2    C313255   4.439   1.418  13.468  0.3279 -0.0331 -1.1444
  905MPD2    C413256   4.334   1.365  13.401 -0.5716 -0.1701  0.0047
  905MPD2    C513257   4.211   1.429  13.395  0.1773 -0.2253 -0.1643
  905MPD2     H13258   4.510   1.584  13.564  0.2036 -0.1251  0.7079
  905MPD2    H113259   4.363   1.275  13.348 -0.7874  0.7053 -1.6230
  905MPD2    H213260   4.093   1.606  13.442 -0.2089  0.0511  2.1980
  905MPD2    H313261   4.137   1.374  13.338  0.5250 -1.3520  0.4828
  905MPD2     N13262   4.558   1.349  13.487 -0.2473  0.7429  0.5474
  905MPD2    H513263   4.561   1.249  13.470  1.4122  0.9115 -0.0730
  905MPD2    N113264   4.271   1.724  13.597 -0.7080 -0.5124  0.0169
  905MPD2    H713265   4.174   1.748  13.612 -0.1619  0.3939  2.0938
  906MPD2     C13266   2.619   1.410  11.250 -0.7467  0.3585 -0.0198
  906MPD2    C113267   2.545   1.319  11.170 -0.3907 -0.0489 -0.3611
  906MPD2    C213268   2.479   1.212  11.221 -0.2295 -0.1168 -0.0441
  906MPD2    C313269   2.476   1.185  11.358  0.3728  0.2267 -0.2316
  906MPD2    C413270   2.554   1.274  11.439  0.5341 -0.5067 -0.6945
  906MPD2    C513271   2.628   1.380  11.388 -0.2481  0.3605  0.0266
  906MPD2     H13272   2.432   1.154  11.143  1.7747 -0.7426 -0.7826
  906MPD2    H113273   2.565   1.256  11.546 -2.7693  0.7979 -0.1284
  906MPD2    H213274   2.673   1.498  11.217 -0.5929  0.1214 -0.4025
  906MPD2    H313275   2.695   1.433  11.454 -1.3774  2.1950 -0.3082
  906MPD2     N13276   2.401   1.075  11.412  0.4669 -0.0657 -0.5749
  906MPD2    H513277   2.383   1.084  11.512  1.6441  1.2214 -0.4793
  906MPD2    N113278   2.514   1.348  11.034 -0.4500  0.0785  0.0078
  906MPD2    H713279   2.447   1.292  10.983  0.1094  0.8087 -1.5199
  907MPD2     C13280   0.701   0.868  15.647 -0.0660  0.3248 -0.6041
  907MPD2    C113281   0.744   0.736  15.629 -0.3985 -0.2311 -0.3440
  907MPD2    C213282   0.788   0.671  15.742  0.4139 -0.1570  0.0566
  907MPD2    C313283   0.788   0.721  15.868 -0.3028 -0.2573  0.5275
  907MPD2    C413284   0.729   0.849  15.881  0.7340 -0.8912 -0.2980
  907MPD2    C513285   0.693   0.923  15.773  0.2385  0.2100 -0.0612
  907MPD2     H13286   0.819   0.569  15.724 -2.2784 -1.0557  0.5248
  907MPD2    H113287   0.726   0.904  15.975  1.2364 -1.8046  0.2600
  907MPD2    H213288   0.664   0.927  15.564  0.6157  1.1294 -0.3349
  907MPD2    H313289   0.655   1.024  15.785 -0.3354 -0.1148  0.9115
  907MPD2     N13290   0.840   0.639  15.975  0.3261 -0.5840  0.4728
  907MPD2    H513291   0.856   0.539  15.964 -1.1815 -1.1161  3.0302
  907MPD2    N113292   0.760   0.664  15.505  0.1246  0.3819  0.6331
  907MPD2    H713293   0.804   0.573  15.513 -0.0536  0.0429 -2.4302
  908MPD2     C13294   4.015   1.039   9.537  0.7568 -0.7565  0.3383
  908MPD2    C113295   4.049   0.974   9.654 -0.7513 -1.3289 -0.1155
  908MPD2    C213296   4.115   1.049   9.754  0.3880  0.1151  0.3691
  908MPD2    C313297   4.153   1.179   9.736 -0.3008  0.0008 -0.7573
  908MPD2    C413298   4.111   1.248   9.619 -0.4790  0.3532  0.3927
  908MPD2    C513299   4.052   1.176   9.524  0.7762  0.4876  0.0389
  908MPD2     H13300   4.148   0.995   9.841 -0.0793 -1.8854 -0.6952
  908MPD2    H113301   4.121   1.354   9.602  0.1617  0.1948 -0.2135
  908MPD2    H213302   4.005   0.984   9.445 -0.3883  0.7624 -0.4381
  908MPD2    H313303   4.030   1.226   9.431 -0.0029 -0.5210 -0.3209
  908MPD2     N13304   4.217   1.238   9.848  0.6167  0.4315  0.9789
  908MPD2    H513305   4.247   1.178   9.924 -1.8000 -1.3894  0.4886
  908MPD2    N113306   4.030   0.837   9.677  0.0222 -1.1382 -0.2463
  908MPD2    H713307   4.088   0.789   9.746 -0.3525 -0.8133  0.2883
  909MPD2     C13308   3.922   4.158  12.118 -0.3495 -0.4263  0.0535
  909MPD2    C113309   3.915   4.215  11.991  0.1582  0.2095  0.2085
  909MPD2    C213310   3.849   4.336  11.973  1.2570  0.2615  0.1401
  909MPD2    C313311   3.785   4.393  12.086 -0.3342  0.3638  0.1265
  909MPD2    C413312   3.775   4.332  12.210 -0.5074 -0.1644  0.5460
  909MPD2    C513313   3.857   4.219  12.226 -0.0535  0.2765  0.1632
  909MPD2     H13314   3.847   4.380  11.874 -2.4637 -0.0773  0.0665
  909MPD2    H113315   3.727   4.366  12.301 -1.7533 -2.0741  0.6026
  909MPD2    H213316   3.979   4.066  12.131 -1.9347 -1.3160  0.7333
  909MPD2    H313317   3.865   4.160  12.316 -0.7439 -2.0086 -1.2860
  909MPD2     N13318   3.727   4.521  12.059 -0.0671 -0.3840 -0.2868
  909MPD2    H513319   3.769   4.568  11.980  0.5853  0.8781  0.8187
  909MPD2    N113320   3.978   4.163  11.877 -0.1716  0.3515  0.2949
  909MPD2    H713321   3.989   4.226  11.798  0.8151 -1.0014 -0.6528
  910MPD2     C13322   0.440   1.200  16.010 -0.0994  0.1864 -0.0339
  910MPD2    C113323   0.416   1.077  15.951  0.6412 -0.6203 -0.7018
  910MPD2    C213324   0.376   1.076  15.820  0.1855  0.1818 -0.4826
  910MPD2    C313325   0.358   1.196  15.748  0.2357 -0.0841  0.3262
  910MPD2    C413326   0.388   1.314  15.815  0.7112  1.1388  0.3689
  910MPD2    C513327   0.435   1.319  15.937 -0.4986 -0.9898 -0.1808
  910MPD2     H13328   0.348   0.977  15.786 -1.7038 -0.2537  2.3607
  910MPD2    H113329   0.378   1.403  15.754  1.7259  1.0564  0.0785
  910MPD2    H213330   0.464   1.210  16.115  0.9961  2.4916 -0.4929
  910MPD2    H313331   0.445   1.418  15.980  3.0926 -1.1164 -0.7050
  910MPD2     N13332   0.329   1.216  15.618  0.7444  0.1549 -0.0864
  910MPD2    H513333   0.344   1.309  15.580  3.4144 -0.3732 -0.3613
  910MPD2    N113334   0.433   0.953  16.015 -0.0991 -0.4126 -0.0256
  910MPD2    H713335   0.408   0.871  15.961 -0.2631 -0.3316 -0.0739
  911MPD2     C13336   2.772   1.854  16.330  0.0240 -0.4661  0.4452
  911MPD2    C113337   2.876   1.945  16.333 -0.4307 -0.2233 -0.7555
  911MPD2    C213338   2.836   2.080  16.339  0.3384  0.3091  0.4441
  911MPD2    C313339   2.701   2.125  16.357 -0.2698 -0.1503 -0.3631
  911MPD2    C413340   2.605   2.025  16.353 -0.0543 -0.8290 -0.2379
  911MPD2    C513341   2.642   1.898  16.335  0.2999  0.6814 -0.2589
  911MPD2     H13342   2.910   2.159  16.338  1.4743 -0.7253  1.9677
  911MPD2    H113343   2.501   2.047  16.372 -0.1671  0.0723 -1.8704
  911MPD2    H213344   2.788   1.749  16.313  2.5693  0.4636 -2.8807
  911MPD2    H313345   2.566   1.822  16.315 -0.4270  1.3844 -0.1685
  911MPD2     N13346   2.657   2.261  16.338 -0.0028  0.1479  0.6167
  911MPD2    H513347   2.557   2.279  16.334  0.0679  0.4059 -0.0059
  911MPD2    N113348   3.005   1.897  16.323 -0.4196 -0.0034  0.3389
  911MPD2    H713349   3.021   1.797  16.333  0.8702  0.3907  2.3244
  912MPD2     C13350   2.231   2.105  15.989  0.3575 -0.0212 -1.1805
  912MPD2    C113351   2.277   2.146  16.115  0.9460  0.0047  0.8209
  912MPD2    C213352   2.295   2.051  16.215 -0.3306  0.0139 -0.0361
  912MPD2    C313353   2.269   1.918  16.198 -0.1856  0.5768  0.3905
  912MPD2    C413354   2.231   1.877  16.073  0.6630 -0.3178 -0.0896
  912MPD2    C513355   2.210   1.967  15.971  0.0071  0.3513 -0.6394
  912MPD2     H13356   2.311   2.076  16.319 -3.8240  0.3996  0.4227
  912MPD2    H113357   2.203   1.775  16.053 -0.0622 -0.6338  2.5898
  912MPD2    H213358   2.221   2.173  15.905  0.5170  0.2313 -0.9925
  912MPD2    H313359   2.177   1.928  15.876 -2.4954  2.3812 -0.6115
  912MPD2     N13360   2.272   1.832  16.314 -0.2924  0.0973  0.6051
  912MPD2    H513361   2.291   1.873  16.405  0.6399 -0.0450  0.4790
  912MPD2    N113362   2.318   2.278  16.132 -0.4356  0.5463 -0.1779
  912MPD2    H713363   2.304   2.340  16.053 -0.5775  1.2146  0.3649
  913MPD2     C13364   4.165   3.041  10.574 -0.4151  0.4458 -0.0669
  913MPD2    C113365   4.059   3.125  10.602 -0.5624  0.2697  1.0124
  913MPD2    C213366   3.976   3.170  10.501 -0.1240 -0.4696  0.1862
  913MPD2    C313367   3.995   3.111  10.372 -0.3530  1.0398  1.2151
  913MPD2    C413368   4.101   3.027  10.346  0.9288 -0.2435 -0.1589
  913MPD2    C513369   4.183   2.992  10.449 -0.2067  0.2792 -0.4197
  913MPD2     H13370   3.890   3.229  10.530 -0.0667 -0.2942 -0.0089
  913MPD2    H113371   4.114   3.007  10.240 -0.6850 -1.1980 -0.1751
  913MPD2    H213372   4.238   3.013  10.649  0.9047 -1.9485 -2.2047
  913MPD2    H313373   4.269   2.928  10.429  1.0725  0.9513  2.8932
  913MPD2     N13374   3.905   3.138  10.268 -0.0036  0.1331 -0.2731
  913MPD2    H513375   3.939   3.112  10.176  1.0799 -1.2778  0.5386
  913MPD2    N113376   4.047   3.165  10.735  0.6935  0.5443 -0.3779
  913MPD2    H713377   4.095   3.111  10.806 -1.3125 -0.2502  0.3885
  914MPD2     C13378   1.193   2.713  12.109 -0.3223  0.2101 -0.1526
  914MPD2    C113379   1.236   2.840  12.109 -0.0961  0.6040 -0.0244
  914MPD2    C213380   1.284   2.897  12.224  0.2552 -0.5508 -0.1050
  914MPD2    C313381   1.301   2.821  12.338  0.1451  0.0223  0.5856
  914MPD2    C413382   1.257   2.691  12.332  0.2019 -0.5692  0.1812
  914MPD2    C513383   1.213   2.637  12.219 -0.0264 -0.3991  0.2544
  914MPD2     H13384   1.317   3.000  12.231 -1.2486 -0.0507 -0.4643
  914MPD2    H113385   1.253   2.629  12.421 -0.7941 -2.3735 -1.1335
  914MPD2    H213386   1.137   2.665  12.031  2.3865 -3.4961  0.2128
  914MPD2    H313387   1.176   2.535  12.214 -0.9708 -0.0857  0.7510
  914MPD2     N13388   1.361   2.892  12.452  0.1273  0.1317 -0.4433
  914MPD2    H513389   1.382   2.990  12.436  1.6636  0.3040  2.7463
  914MPD2    N113390   1.226   2.917  11.982 -0.0130 -0.8682 -0.0364
  914MPD2    H713391   1.186   2.860  11.908 -0.4872  0.9363 -1.1761
  915MPD2     C13392   4.240   3.416  15.434 -0.1435  0.6190  0.2759
  915MPD2    C113393   4.112   3.388  15.493 -0.2933 -0.9407 -0.5457
  915MPD2    C213394   4.078   3.456  15.608  0.3250  0.5605 -0.4694
  915MPD2    C313395   4.169   3.536  15.671  0.6139 -0.3939  0.7851
  915MPD2    C413396   4.295   3.553  15.618 -0.3220  0.4262  0.4724
  915MPD2    C513397   4.329   3.495  15.498 -0.2345  0.4829 -0.1062
  915MPD2     H13398   3.981   3.457  15.656  1.7425  1.4177  2.4264
  915MPD2    H113399   4.367   3.618  15.666  1.3608 -1.3496  0.3874
  915MPD2    H213400   4.264   3.379  15.335  0.8811  1.6409  0.1423
  915MPD2    H313401   4.430   3.510  15.462 -0.7098 -0.5300 -1.8876
  915MPD2     N13402   4.134   3.608  15.788 -0.2679 -0.1279  0.1306
  915MPD2    H513403   4.034   3.608  15.810 -0.4232  1.9337 -0.5601
  915MPD2    N113404   4.024   3.301  15.429  0.9618 -0.2250 -0.1010
  915MPD2    H713405   4.053   3.254  15.344  0.5444  0.6080 -0.7076
  916MPD2     C13406   2.204   1.694  15.621  0.2569 -0.1910  0.0075
  916MPD2    C113407   2.121   1.606  15.681  0.1073  0.1196 -0.5802
  916MPD2    C213408   2.127   1.469  15.653  0.1078 -0.4105 -0.2878
  916MPD2    C313409   2.203   1.420  15.547 -0.0963 -0.1864  0.1381
  916MPD2    C413410   2.280   1.517  15.484  0.4127 -0.0866 -0.4737
  916MPD2    C513411   2.286   1.646  15.522 -0.1033  0.8271  0.2516
  916MPD2     H13412   2.068   1.395  15.706  1.1282 -0.6600  0.4977
  916MPD2    H113413   2.342   1.494  15.399 -0.7507 -1.8661 -0.8384
  916MPD2    H213414   2.204   1.799  15.646 -0.6194 -0.7922  2.5362
  916MPD2    H313415   2.364   1.710  15.483  1.6807 -0.7967  1.1319
  916MPD2     N13416   2.200   1.288  15.514  0.1526  0.0462 -0.2119
  916MPD2    H513417   2.150   1.218  15.568  0.7123 -0.3671 -0.2286
  916MPD2    N113418   2.026   1.651  15.779  0.3786 -0.0313  0.3812
  916MPD2    H713419   2.010   1.750  15.767  1.8385 -0.1407 -2.4291
  917MPD2     C13420   3.215   3.422  11.225  0.5701  0.0347  0.3709
  917MPD2    C113421   3.135   3.527  11.188 -0.5035 -0.3752 -0.5346
  917MPD2    C213422   3.183   3.612  11.090 -0.2096  0.0432  0.0480
  917MPD2    C313423   3.308   3.608  11.034 -0.1246  0.1639  0.2259
  917MPD2    C413424   3.383   3.497  11.076 -0.2339  0.2504 -1.0516
  917MPD2    C513425   3.340   3.408  11.171  0.2989 -0.2325  0.2155
  917MPD2     H13426   3.113   3.684  11.052  2.7068  2.7817 -0.1480
  917MPD2    H113427   3.480   3.469  11.037 -0.7956  0.3125 -2.4893
  917MPD2    H213428   3.182   3.344  11.293 -2.3995  0.8131 -0.1710
  917MPD2    H313429   3.403   3.331  11.212 -0.1710 -0.1401  1.1173
  917MPD2     N13430   3.362   3.706  10.951 -0.6294 -0.8916  0.6078
  917MPD2    H513431   3.461   3.700  10.927 -0.9680  0.4439 -1.1885
  917MPD2    N113432   3.011   3.545  11.254 -0.3902 -0.5590 -0.4812
  917MPD2    H713433   2.977   3.482  11.326  1.8856  0.8360  1.8088
  918MPD2     C13434   3.066   4.246  11.858 -0.5134 -0.5065  0.2248
  918MPD2    C113435   3.136   4.129  11.844  0.4611  0.5848  0.2121
  918MPD2    C213436   3.079   4.014  11.797 -0.2411 -0.0103  0.6010
  918MPD2    C313437   2.948   4.019  11.751  0.1361  0.4359 -0.1341
  918MPD2    C413438   2.873   4.133  11.760  0.3395 -0.0648 -0.6015
  918MPD2    C513439   2.934   4.238  11.822  0.2401 -0.4320 -0.1086
  918MPD2     H13440   3.135   3.921  11.796  0.5780  0.4938 -0.5638
  918MPD2    H113441   2.768   4.149  11.741  0.3808 -2.6031 -2.9311
  918MPD2    H213442   3.113   4.334  11.900  1.1107 -1.3781  0.2502
  918MPD2    H313443   2.858   4.313  11.842  0.1018 -0.5824 -0.0720
  918MPD2     N13444   2.901   3.908  11.685  0.1560 -0.0890 -0.5978
  918MPD2    H513445   2.968   3.833  11.669  0.6903  0.4832 -1.0577
  918MPD2    N113446   3.272   4.109  11.895 -0.2656  0.3149 -0.3759
  918MPD2    H713447   3.302   4.012  11.893  1.6794  0.9054 -0.1408
  919MPD2     C13448   3.607   2.944  11.214  0.7607 -0.9599  0.5544
  919MPD2    C113449   3.697   2.844  11.211  0.1514 -0.5587  0.1719
  919MPD2    C213450   3.788   2.829  11.111 -0.1200  0.3683  0.1472
  919MPD2    C313451   3.767   2.902  10.996 -1.1538 -0.5760  0.3047
  919MPD2    C413452   3.668   2.996  10.994  0.1745 -0.1710  1.0726
  919MPD2    C513453   3.589   3.026  11.105  0.1446 -0.5201  0.0052
  919MPD2     H13454   3.865   2.753  11.119 -0.4296  0.3635  3.0324
  919MPD2    H113455   3.655   3.055  10.904 -2.3110 -0.8129  1.0214
  919MPD2    H213456   3.535   2.950  11.295  0.6662 -0.8791  0.4639
  919MPD2    H313457   3.516   3.106  11.104  1.1674  0.4203 -0.0009
  919MPD2     N13458   3.841   2.886  10.879 -0.1169 -0.0019 -0.3014
  919MPD2    H513459   3.807   2.933  10.795 -1.0689  0.1973  0.1979
  919MPD2    N113460   3.714   2.745  11.314 -0.3587 -0.0653  0.0749
  919MPD2    H713461   3.790   2.680  11.299 -0.2062  0.7711 -2.8220
  920MPD2     C13462   3.428   2.750  10.129 -0.3301  0.9284  0.0520
  920MPD2    C113463   3.407   2.702  10.261  0.1264 -0.3403 -0.5028
  920MPD2    C213464   3.520   2.696  10.340 -0.7351 -0.2870  0.1679
  920MPD2    C313465   3.637   2.752  10.305  0.3467  0.2472 -0.2035
  920MPD2    C413466   3.652   2.817  10.190  0.0489 -0.4784  0.2110
  920MPD2    C513467   3.553   2.802  10.100  0.0468 -0.0796  0.7412
  920MPD2     H13468   3.509   2.649  10.437 -1.6530  0.0481  0.2300
  920MPD2    H113469   3.744   2.874  10.176 -0.4997  0.7974  1.8450
  920MPD2    H213470   3.364   2.743  10.042 -1.4156 -0.7882  0.9728
  920MPD2    H313471   3.576   2.838  10.000 -0.9811  0.9501  0.8830
  920MPD2     N13472   3.736   2.750  10.411  0.6493 -0.2628  0.4185
  920MPD2    H513473   3.701   2.700  10.492 -1.2157  0.1624 -0.1372
  920MPD2    N113474   3.283   2.650  10.309  0.7067 -0.5170  0.3203
  920MPD2    H713475   3.283   2.597  10.396  2.6520 -0.5163  0.3201
  921MPD2     C13476   3.917   2.269  16.607 -0.1092  0.0633  0.0231
  921MPD2    C113477   3.926   2.135  16.610  0.5068 -0.1006 -0.1777
  921MPD2    C213478   3.803   2.063  16.592  0.4842 -0.2065  0.1241
  921MPD2    C313479   3.692   2.124  16.533 -0.0951 -0.2038  0.6978
  921MPD2    C413480   3.695   2.262  16.508 -0.6198 -0.3230 -0.4128
  921MPD2    C513481   3.807   2.335  16.556 -0.3058  0.0343 -0.2460
  921MPD2     H13482   3.802   1.961  16.629  1.4871 -0.7088 -1.2522
  921MPD2    H113483   3.624   2.316  16.447 -0.4078 -0.9614 -1.2125
  921MPD2    H213484   3.998   2.334  16.638 -1.7175  2.2370 -0.3597
  921MPD2    H313485   3.804   2.444  16.551 -0.4094  0.0051 -0.7451
  921MPD2     N13486   3.578   2.048  16.482 -0.2219  0.6391  0.2915
  921MPD2    H513487   3.518   2.101  16.421 -2.5107 -0.8240  1.2561
  921MPD2    N113488   4.049   2.077  16.654  0.1069  0.2502 -0.4335
  921MPD2    H713489   4.129   2.140  16.663  0.5619 -0.7231  2.2793
  922MPD2     C13490   0.292   0.171   0.095 -0.1081  0.3387 -0.1747
  922MPD2    C113491   0.218   0.240   0.187 -0.5033 -0.4959  0.2367
  922MPD2    C213492   0.079   0.211   0.183 -0.4563  0.7383  0.0601
  922MPD2    C313493   0.027   0.112   0.106 -0.1071  0.2588 -0.3136
  922MPD2    C413494   0.110   0.041   0.028 -0.1471 -0.0045  0.2061
  922MPD2    C513495   0.241   0.071   0.016 -0.1835  0.4703  0.3075
  922MPD2     H13496   0.006   0.260   0.246 -0.2351 -2.2798  2.6595
  922MPD2    H113497   0.073   4.674  17.650 -1.9886  1.4148 -0.7689
  922MPD2    H213498   0.398   0.189   0.089 -0.5082  1.7851 -2.7704
  922MPD2    H313499   0.300   0.009  17.628 -0.5792 -0.4518  0.8267
  922MPD2     N13500   4.600   0.089   0.109  0.1156 -0.8074  0.0932
  922MPD2    H513501   4.545   0.154   0.164 -0.0622 -0.1096 -0.9014
  922MPD2    N113502   0.273   0.338   0.271  0.2819 -0.5650  0.2033
  922MPD2    H713503   0.216   0.389   0.338 -2.1039  0.7725 -2.8877
  923MPD2     C13504   1.550   0.657   9.273 -0.2921 -0.8166 -0.4214
  923MPD2    C113505   1.544   0.794   9.288  0.5518  0.1884  0.0816
  923MPD2    C213506   1.658   0.861   9.332 -0.7363  0.7550  0.9094
  923MPD2    C313507   1.774   0.795   9.377  0.5934 -0.4433 -0.6714
  923MPD2    C413508   1.770   0.656   9.372  0.8877 -0.2219 -0.8236
  923MPD2    C513509   1.654   0.587   9.326  0.3102 -0.0127 -0.1137
  923MPD2     H13510   1.662   0.968   9.324  0.6679  0.7975  2.1557
  923MPD2    H113511   1.857   0.602   9.407  0.1192 -1.8723 -1.4576
  923MPD2    H213512   1.460   0.606   9.240  0.2653 -2.9952  1.4355
  923MPD2    H313513   1.653   0.479   9.333  0.7083 -0.0818 -1.1189
  923MPD2     N13514   1.884   0.855   9.442  0.3156  0.1059  0.3069
  923MPD2    H513515   1.958   0.801   9.486 -0.8638 -0.2499  1.8750
  923MPD2    N113516   1.423   0.860   9.253  0.1387  0.5348  0.0235
  923MPD2    H713517   1.348   0.802   9.218  1.9123 -2.6888  1.6144
  924MPD2     C13518   1.027   0.043  15.654  0.2857  0.4125  0.4261
  924MPD2    C113519   1.014   4.710  15.775  0.0664 -0.1673  0.6514
  924MPD2    C213520   1.046   0.062  15.890 -0.8601 -0.3216 -0.3956
  924MPD2    C313521   1.092   0.189  15.884 -0.7822  0.1801  1.3134
  924MPD2    C413522   1.112   0.241  15.758  0.3049  0.4178  0.3094
  924MPD2    C513523   1.074   0.174  15.643  0.6618 -0.1765  0.1405
  924MPD2     H13524   1.037   0.018  15.988  1.0689 -0.6672 -0.3753
  924MPD2    H113525   1.160   0.337  15.743  1.2054 -0.5021 -2.5458
  924MPD2    H213526   1.003   4.708  15.563 -1.9450  2.0047  0.0715
  924MPD2    H313527   1.076   0.226  15.548  0.1938  1.4186  1.0045
  924MPD2     N13528   1.103   0.274  15.999  0.3413  0.1890  0.2847
  924MPD2    H513529   1.152   0.361  15.978 -0.1858  0.8389  1.7751
  924MPD2    N113530   0.956   4.584  15.786  0.1480 -0.1692  0.0684
  924MPD2    H713531   0.924   4.531  15.707 -1.9116  1.0246  0.1070
  925MPD2     C13532   0.762   2.388  15.060  0.3812 -0.5388  0.1340
  925MPD2    C113533   0.650   2.364  14.985 -0.5071  0.6866 -0.0907
  925MPD2    C213534   0.548   2.291  15.047 -0.5979  0.2478 -0.3183
  925MPD2    C313535   0.562   2.216  15.169 -0.8977  0.1968  0.1917
  925MPD2    C413536   0.682   2.238  15.232  0.1489 -0.9877  0.3079
  925MPD2    C513537   0.780   2.315  15.175 -0.0478 -0.2020  0.3576
  925MPD2     H13538   0.447   2.296  15.006  0.0369  0.4437 -1.8628
  925MPD2    H113539   0.712   2.179  15.318 -1.3407  0.5595  1.9034
  925MPD2    H213540   0.840   2.452  15.021 -0.0531 -0.1800 -0.1397
  925MPD2    H313541   0.866   2.335  15.238 -0.0861 -0.5081  0.5086
  925MPD2     N13542   0.462   2.138  15.226  0.4020  0.0910  0.3026
  925MPD2    H513543   0.489   2.085  15.309  0.0838 -0.5390 -0.0044
  925MPD2    N113544   0.622   2.422  14.861 -0.4406 -0.1987  0.0710
  925MPD2    H713545   0.524   2.411  14.835 -0.4567  2.6736 -1.1160
  926MPD2     C13546   3.418   1.176  13.035 -0.4492  0.1706 -0.0686
  926MPD2    C113547   3.497   1.247  13.115 -0.1892  0.5114  0.0669
  926MPD2    C213548   3.619   1.299  13.073 -0.2192  0.5892  0.0954
  926MPD2    C313549   3.666   1.260  12.945 -0.2566  0.1573  0.5269
  926MPD2    C413550   3.589   1.177  12.866  0.5229 -0.3238  0.4062
  926MPD2    C513551   3.469   1.138  12.914 -0.5864  0.5306 -0.1276
  926MPD2     H13552   3.666   1.361  13.148 -0.1880 -1.4537  1.7716
  926MPD2    H113553   3.624   1.137  12.772 -1.3333  0.6370 -0.6902
  926MPD2    H213554   3.312   1.171  13.057 -0.3404 -0.0399  0.4114
  926MPD2    H313555   3.412   1.082  12.840  2.7005 -2.9300 -0.0655
  926MPD2     N13556   3.789   1.306  12.891 -0.2994  0.1149 -0.5044
  926MPD2    H513557   3.814   1.283  12.795 -0.0400 -0.8173 -0.2142
  926MPD2    N113558   3.453   1.288  13.246  0.0375 -0.5312 -0.1832
  926MPD2    H713559   3.517   1.348  13.296  0.9227 -1.0714 -0.6604
  927MPD2     C13560   2.668   3.401   0.031  0.7402  0.3297  0.1442
  927MPD2    C113561   2.767   3.354   0.115  0.2735  0.3784  0.4683
  927MPD2    C213562   2.892   3.332   0.059  0.5477 -0.2808 -0.3328
  927MPD2    C313563   2.922   3.367  17.612 -0.1879 -0.6331  0.1338
  927MPD2    C413564   2.822   3.404  17.526 -0.7328 -0.4501 -0.2262
  927MPD2    C513565   2.697   3.420  17.574 -0.4452 -0.8527  0.0360
  927MPD2     H13566   2.977   3.313   0.124  0.5602  1.8899  0.2939
  927MPD2    H113567   2.842   3.427  17.422  3.1363 -0.7382  0.4186
  927MPD2    H213568   2.569   3.430   0.066  2.6063 -0.8579  6.5812
  927MPD2    H313569   2.618   3.457  17.509  2.4180  2.0675 -1.7640
  927MPD2     N13570   3.059   3.369  17.583  0.5232  0.5191 -0.1145
  927MPD2    H513571   3.130   3.335  17.646  1.0474  2.6769  0.4533
  927MPD2    N113572   2.742   3.346   0.254  0.7795  0.4922  0.3884
  927MPD2    H713573   2.656   3.390   0.287  0.7343 -1.1884  2.4727
  928MPD2     C13574   1.236   2.176   1.056  0.5437  0.4669 -0.0798
  928MPD2    C113575   1.347   2.223   1.116  0.1094 -0.1995 -0.6933
  928MPD2    C213576   1.470   2.216   1.044 -0.2432  0.3642 -0.1117
  928MPD2    C313577   1.470   2.185   0.914 -0.6149 -0.8208 -1.0748
  928MPD2    C413578   1.353   2.143   0.854  0.6537 -0.2836  0.3767
  928MPD2    C513579   1.241   2.132   0.929 -0.0485  0.0412  0.4922
  928MPD2     H13580   1.556   2.260   1.092 -0.2323 -0.9368  1.0539
  928MPD2    H113581   1.342   2.120   0.749 -1.7351  4.2562 -0.3519
  928MPD2    H213582   1.138   2.168   1.101  0.8794  2.9609  1.0753
  928MPD2    H313583   1.153   2.103   0.872 -0.3160 -0.0206  0.9387
  928MPD2     N13584   1.581   2.205   0.830 -0.4099  0.1253 -0.0448
  928MPD2    H513585   1.576   2.187   0.730 -0.1506 -0.1094 -0.0147
  928MPD2    N113586   1.340   2.266   1.249  0.5301 -0.3943 -1.0032
  928MPD2    H713587   1.249   2.273   1.293  1.3903  0.2739  0.6921
  929MPD2     C13588   1.841   1.232  10.784 -0.5936  0.1409  0.2461
  929MPD2    C113589   1.728   1.162  10.748 -0.5768  0.0889  0.5751
  929MPD2    C213590   1.657   1.204  10.636 -1.1715 -0.1570 -0.4919
  929MPD2    C313591   1.706   1.314  10.558 -0.2912 -0.8447  0.0605
  929MPD2    C413592   1.808   1.392  10.614 -0.1382  0.5110 -0.3801
  929MPD2    C513593   1.883   1.348  10.724 -0.2375 -0.3063  0.5365
  929MPD2     H13594   1.578   1.136  10.608 -1.4175 -0.4065  0.8151
  929MPD2    H113595   1.845   1.478  10.560  0.6078 -0.4595 -1.4134
  929MPD2    H213596   1.886   1.200  10.877 -2.1235  1.2301  1.3601
  929MPD2    H313597   1.958   1.419  10.757  0.1831  0.3068 -1.6859
  929MPD2     N13598   1.641   1.366  10.446 -0.2630 -0.0019 -0.1875
  929MPD2    H513599   1.665   1.456  10.407  1.0937  0.6999  2.2465
  929MPD2    N113600   1.687   1.056  10.827  0.8129  0.4137 -0.2301
  929MPD2    H713601   1.758   1.025  10.892 -0.7333 -0.5359  1.0112
  930MPD2     C13602   3.278   3.940  14.039  0.4360 -0.1121  0.8624
  930MPD2    C113603   3.258   4.031  13.940  0.4144  0.4297 -0.4874
  930MPD2    C213604   3.176   4.002  13.834  0.7949  0.1636  0.6441
  930MPD2    C313605   3.117   3.880  13.822  0.0131 -0.1296 -0.5058
  930MPD2    C413606   3.142   3.783  13.916  0.0590  0.2537  0.1041
  930MPD2    C513607   3.224   3.817  14.022 -0.0200  0.0106 -0.0858
  930MPD2     H13608   3.175   4.077  13.756 -0.2111  0.6683  1.1355
  930MPD2    H113609   3.120   3.678  13.899  2.0948 -0.0889 -0.4524
  930MPD2    H213610   3.331   3.962  14.131 -0.9335  1.0508  1.3668
  930MPD2    H313611   3.236   3.734  14.091  1.5014 -1.1860 -1.7670
  930MPD2     N13612   3.043   3.838  13.713  0.6250 -0.0723 -0.7167
  930MPD2    H513613   3.039   3.738  13.696 -0.6172  0.0568 -1.1602
  930MPD2    N113614   3.326   4.154  13.959 -0.1480  0.2379 -0.4961
  930MPD2    H713615   3.368   4.173  14.049 -0.1977 -1.2089 -0.1694
  931MPD2     C13616   3.202   3.024   0.796  0.0983 -0.3430 -0.3132
  931MPD2    C113617   3.163   3.144   0.850  0.6497 -0.6431 -0.7492
  931MPD2    C213618   3.227   3.198   0.963  0.0870 -0.0759  0.4295
  931MPD2    C313619   3.325   3.126   1.026  0.4795 -0.0978  0.0814
  931MPD2    C413620   3.362   3.010   0.966 -0.3130 -0.2705  0.0257
  931MPD2    C513621   3.312   2.958   0.851 -0.1596 -0.0988  0.4400
  931MPD2     H13622   3.185   3.289   1.006 -1.0526 -1.9215  3.2158
  931MPD2    H113623   3.430   2.944   1.019  0.5339 -0.4598 -1.3201
  931MPD2    H213624   3.170   2.977   0.703 -0.8879  0.2112 -0.2561
  931MPD2    H313625   3.339   2.857   0.825 -0.2856 -0.1092  0.3488
  931MPD2     N13626   3.382   3.165   1.153  0.6880 -0.4865 -0.4300
  931MPD2    H513627   3.462   3.113   1.189 -0.1503 -1.4957 -0.0389
  931MPD2    N113628   3.073   3.209   0.768  0.1099 -0.5044 -0.0898
  931MPD2    H713629   3.049   3.152   0.688  0.1960 -0.9722  0.2193
  932MPD2     C13630   1.091   1.736  11.827 -0.2597  0.1087 -0.4319
  932MPD2    C113631   1.043   1.819  11.929 -0.4797 -0.0017  0.2128
  932MPD2    C213632   1.059   1.776  12.062  0.0516  0.4270 -0.2577
  932MPD2    C313633   1.113   1.655  12.092 -0.1095  0.6321 -0.4251
  932MPD2    C413634   1.166   1.579  11.993  0.1934  0.1910  0.9887
  932MPD2    C513635   1.141   1.615  11.864 -0.0422  0.4244  0.0071
  932MPD2     H13636   1.025   1.839  12.143 -0.2770 -0.6804  0.4627
  932MPD2    H113637   1.203   1.479  12.016  2.5204  1.2927  1.9655
  932MPD2    H213638   1.080   1.750  11.720 -2.5729 -0.1752 -0.2252
  932MPD2    H313639   1.180   1.544  11.793  1.2234  0.5298  0.5938
  932MPD2     N13640   1.117   1.618  12.229 -0.2836 -0.2543  0.0891
  932MPD2    H513641   1.079   1.687  12.293 -1.5511 -0.1029 -0.8178
  932MPD2    N113642   0.984   1.941  11.899 -0.1807 -0.0971  0.0947
  932MPD2    H713643   0.969   2.006  11.975  0.2314 -0.1427  0.2191
  933MPD2     C13644   0.831   2.501   1.510  0.4468  0.0997  0.0181
  933MPD2    C113645   0.921   2.492   1.616  0.1528 -0.1699  0.0528
  933MPD2    C213646   0.876   2.510   1.741 -1.1668  0.3858 -0.4255
  933MPD2    C313647   0.746   2.537   1.776 -0.0357 -0.4486 -0.1411
  933MPD2    C413648   0.653   2.537   1.675  0.1181  0.6193  0.2634
  933MPD2    C513649   0.698   2.530   1.546 -0.3347  0.5386  0.0628
  933MPD2     H13650   0.950   2.509   1.820  0.2645  0.7368 -1.7700
  933MPD2    H113651   0.546   2.537   1.697 -0.3428 -2.3888 -1.9678
  933MPD2    H213652   0.851   2.486   1.405  1.5486 -0.7353  0.3567
  933MPD2    H313653   0.621   2.533   1.470 -0.1640 -0.2154 -0.1401
  933MPD2     N13654   0.716   2.557   1.911  0.1089  0.1513 -0.0829
  933MPD2    H513655   0.797   2.569   1.971 -0.6054  0.7000  0.7628
  933MPD2    N113656   1.050   2.453   1.584 -0.2549 -0.2366 -0.5630
  933MPD2    H713657   1.066   2.437   1.485 -2.9283  0.5663 -1.1219
  934MPD2     C13658   1.727   4.538   2.158  0.1757 -0.0388 -0.9071
  934MPD2    C113659   1.805   4.552   2.043  0.3654  0.2611 -0.2899
  934MPD2    C213660   1.813   4.438   1.954  0.4236 -0.0646  0.5544
  934MPD2    C313661   1.760   4.318   1.995  0.0070 -0.6526  0.5400
  934MPD2    C413662   1.684   4.316   2.108 -0.1058 -0.3445 -0.1406
  934MPD2    C513663   1.662   4.428   2.187 -0.5138  0.1614  0.1997
  934MPD2     H13664   1.870   4.456   1.864 -0.9615 -2.5026 -0.8354
  934MPD2    H113665   1.638   4.225   2.144  0.3928 -0.0665  1.1888
  934MPD2    H213666   1.699   4.622   2.221 -2.0265  0.0243 -1.9939
  934MPD2    H313667   1.581   4.430   2.259  0.2845  1.8396  1.0511
  934MPD2     N13668   1.753   4.200   1.913  0.5463 -0.6965  0.2749
  934MPD2    H513669   1.705   4.118   1.947 -1.6082 -0.3602 -1.9168
  934MPD2    N113670   1.865   4.670   2.004  0.2122 -0.5169  0.9010
  934MPD2    H713671   1.922   4.672   1.920 -1.1333  2.1589  0.0721
  935MPD2     C13672   2.294   3.813   1.161  0.5010 -1.1070  0.0088
  935MPD2    C113673   2.165   3.764   1.140  0.4230 -0.1783 -0.7551
  935MPD2    C213674   2.066   3.802   1.229 -0.0497  0.3431 -0.7052
  935MPD2    C313675   2.082   3.899   1.328  0.0417 -0.1474 -0.1365
  935MPD2    C413676   2.207   3.970   1.328  0.2665 -0.5005  0.1962
  935MPD2    C513677   2.307   3.923   1.245  0.2022 -0.4495  0.2365
  935MPD2     H13678   1.968   3.759   1.219  0.2628  0.1305 -2.8362
  935MPD2    H113679   2.228   4.051   1.397 -1.1843 -0.1784  0.2556
  935MPD2    H213680   2.378   3.772   1.106  1.6504  0.4659  0.6070
  935MPD2    H313681   2.404   3.967   1.266 -0.1820 -0.5171  2.1133
  935MPD2     N13682   1.978   3.931   1.421  0.1084  0.1323  0.3470
  935MPD2    H513683   1.996   4.003   1.490 -1.7291 -2.1621  3.2626
  935MPD2    N113684   2.138   3.659   1.056  0.1362 -0.5162 -0.2825
  935MPD2    H713685   2.048   3.614   1.071  0.0577 -0.3029 -0.1221
  936MPD2     C13686   0.881   0.490  12.579 -0.4130 -1.4760 -0.2421
  936MPD2    C113687   0.904   0.586  12.676  0.0273  0.5004  0.3852
  936MPD2    C213688   0.954   0.705  12.641 -0.1119  0.2696 -1.0196
  936MPD2    C313689   1.003   0.730  12.513 -0.7704  0.3283  0.1314
  936MPD2    C413690   0.998   0.630  12.420  0.5320  0.0490  0.0647
  936MPD2    C513691   0.929   0.508  12.451  0.0806  0.4308 -0.3204
  936MPD2     H13692   0.956   0.786  12.713  1.2086  1.8800 -2.8563
  936MPD2    H113693   1.014   0.650  12.314  0.8340 -1.1616 -0.1149
  936MPD2    H213694   0.828   0.399  12.601 -1.5628 -0.9636 -0.8875
  936MPD2    H313695   0.916   0.433  12.375  1.5086 -0.3667  0.2282
  936MPD2     N13696   1.042   0.860  12.486 -0.6282  0.2318 -0.3429
  936MPD2    H513697   1.031   0.925  12.564  0.4546 -1.0019  0.8265
  936MPD2    N113698   0.854   0.571  12.806 -0.2024 -0.1892 -0.0179
  936MPD2    H713699   0.879   0.649  12.866  0.9551  1.1587 -2.2579
  937MPD2     C13700   3.885   2.045  11.333 -0.1131  0.2871  0.6237
  937MPD2    C113701   3.897   2.177  11.303  0.5974 -0.1378  0.8807
  937MPD2    C213702   3.994   2.218  11.210 -0.6744  0.4068  0.1392
  937MPD2    C313703   4.071   2.130  11.137 -0.0734  0.1123  0.5039
  937MPD2    C413704   4.052   2.000  11.168 -0.0958 -0.2389 -0.5653
  937MPD2    C513705   3.958   1.953  11.260  0.3291  0.0815 -0.2000
  937MPD2     H13706   4.008   2.325  11.195 -2.3795  0.8020  1.2939
  937MPD2    H113707   4.122   1.926  11.129 -0.0724 -1.3597  1.6004
  937MPD2    H213708   3.810   2.017  11.406 -0.2802  1.4246  0.8916
  937MPD2    H313709   3.953   1.846  11.275 -0.1625  0.2721  1.0460
  937MPD2     N13710   4.169   2.185  11.059  0.6718  0.0227 -0.2890
  937MPD2    H513711   4.157   2.284  11.045  0.5538 -0.0940 -1.0293
  937MPD2    N113712   3.839   2.281  11.374 -0.7243 -0.4538  0.3394
  937MPD2    H713713   3.839   2.374  11.333  1.7386  0.3384  2.1636
  938MPD2     C13714   1.122   3.292   0.927 -0.0567 -0.0244  0.6722
  938MPD2    C113715   1.226   3.342   1.002  0.6583 -0.5635  0.1732
  938MPD2    C213716   1.235   3.298   1.126 -0.1262  0.0727  0.2158
  938MPD2    C313717   1.144   3.211   1.183  0.6832  0.3585  0.2136
  938MPD2    C413718   1.039   3.170   1.108 -0.0081 -0.4106 -0.3802
  938MPD2    C513719   1.031   3.203   0.983 -0.1097 -0.7482  0.5270
  938MPD2     H13720   1.314   3.341   1.186 -0.0184  1.2225 -0.7445
  938MPD2    H113721   0.955   3.115   1.150  0.2402 -0.6151 -0.1507
  938MPD2    H213722   1.090   3.324   0.829  1.2802 -1.4206 -0.2293
  938MPD2    H313723   0.939   3.186   0.927 -0.1240 -0.4802  0.4694
  938MPD2     N13724   1.148   3.172   1.315 -0.6226 -0.7029 -0.1667
  938MPD2    H513725   1.080   3.105   1.350  0.1150 -2.4098 -1.9956
  938MPD2    N113726   1.321   3.435   0.956  0.1122 -0.0483 -0.7374
  938MPD2    H713727   1.386   3.478   1.021  0.2281  0.3911 -1.1473
  939MPD2     C13728   2.263   4.676   1.227 -0.1432  0.1880 -0.3437
  939MPD2    C113729   2.178   4.613   1.137  0.1213  0.1903  0.7791
  939MPD2    C213730   2.234   4.566   1.022  0.8803 -0.5197  0.0165
  939MPD2    C313731   2.363   4.594   0.987 -0.4324  0.4032  0.4186
  939MPD2    C413732   2.450   4.652   1.081  0.1779 -0.5473  0.2045
  939MPD2    C513733   2.397   4.686   1.206 -0.4810 -0.6517 -0.4897
  939MPD2     H13734   2.168   4.521   0.949 -0.2594  2.7790 -0.9831
  939MPD2    H113735   2.553   4.680   1.065 -0.0678  0.3253  0.1534
  939MPD2    H213736   2.232   4.715   1.323 -0.5419 -1.1696  0.0723
  939MPD2    H313737   2.455   0.014   1.284 -2.1834 -0.1695  0.4809
  939MPD2     N13738   2.403   4.578   0.852 -0.7674 -0.4995  0.4585
  939MPD2    H513739   2.337   4.543   0.783 -0.2448  0.4680 -0.5243
  939MPD2    N113740   2.046   4.603   1.179 -0.0256 -0.0815 -0.5989
  939MPD2    H713741   2.022   4.633   1.273  1.6973 -1.9356  0.4430
  940MPD2     C13742   1.493   0.443  13.288 -0.2526 -0.0184  0.4653
  940MPD2    C113743   1.609   0.501  13.341 -0.1191  0.7666  0.5177
  940MPD2    C213744   1.705   0.556  13.256  0.1626 -0.0093 -0.1061
  940MPD2    C313745   1.686   0.546  13.119  0.9503 -0.1893  0.2163
  940MPD2    C413746   1.571   0.497  13.068 -0.6623  0.3818  0.1195
  940MPD2    C513747   1.480   0.438  13.153 -0.6198  0.3035  0.9212
  940MPD2     H13748   1.799   0.591  13.297 -0.2995  0.1810  0.7754
  940MPD2    H113749   1.560   0.492  12.960  1.5332  0.9104 -0.1419
  940MPD2    H213750   1.410   0.415  13.352 -2.1657  0.7875 -1.6696
  940MPD2    H313751   1.391   0.387  13.118 -0.2953  0.8980 -0.7308
  940MPD2     N13752   1.783   0.588  13.023 -0.2369 -0.0753  0.8409
  940MPD2    H513753   1.747   0.577  12.928 -0.2488 -0.5120  0.8982
  940MPD2    N113754   1.634   0.519  13.478 -0.4895  0.2454  0.4174
  940MPD2    H713755   1.705   0.588  13.502 -2.5459  2.3347  0.3934
  941MPD2     C13756   0.706   4.159   9.581 -0.1395  0.1508  1.0541
  941MPD2    C113757   0.783   4.134   9.699 -0.2789  0.1056 -0.0261
  941MPD2    C213758   0.727   4.056   9.806  0.6925 -0.1979 -0.4362
  941MPD2    C313759   0.605   3.991   9.787 -0.1402  0.3395 -0.8075
  941MPD2    C413760   0.537   4.015   9.675  0.3608  0.3912  0.6394
  941MPD2    C513761   0.581   4.097   9.577  0.6632  0.8288 -0.1575
  941MPD2     H13762   0.789   4.042   9.893  0.5507  1.7637 -0.0169
  941MPD2    H113763   0.440   3.969   9.661 -0.1386  1.1675  1.5748
  941MPD2    H213764   0.740   4.225   9.502 -0.8277  0.3674  0.9432
  941MPD2    H313765   0.523   4.119   9.488  1.3475 -2.6373 -1.4388
  941MPD2     N13766   0.543   3.905   9.884 -0.0387 -0.3687 -0.8471
  941MPD2    H513767   0.447   3.875   9.873 -0.9178  1.9530  0.6753
  941MPD2    N113768   0.909   4.193   9.725  0.3690  0.6652 -0.0907
  941MPD2    H713769   0.953   4.175   9.814 -1.0144  0.5720  0.5791
  942MPD2     C13770   0.266   0.608   9.438 -0.5015  1.1993  0.1049
  942MPD2    C113771   0.210   0.695   9.347 -0.1194 -0.4082  0.9099
  942MPD2    C213772   0.257   0.825   9.335  0.0748  0.1334 -0.2128
  942MPD2    C313773   0.372   0.859   9.401  0.0686  0.0934 -0.2463
  942MPD2    C413774   0.433   0.770   9.490 -0.1516 -0.0200 -0.5133
  942MPD2    C513775   0.378   0.643   9.504 -0.7346  0.0355 -0.0472
  942MPD2     H13776   0.228   0.883   9.248  1.0966  1.1817  0.1420
  942MPD2    H113777   0.504   0.809   9.562  1.4871 -2.1380 -0.9782
  942MPD2    H213778   0.242   0.504   9.454 -1.1521  1.3077 -0.1715
  942MPD2    H313779   0.421   0.568   9.568  0.3989 -2.1330 -3.3360
  942MPD2     N13780   0.435   0.983   9.375 -0.4938  0.4883 -0.3470
  942MPD2    H513781   0.518   0.997   9.432 -0.3209 -2.1025  0.0418
  942MPD2    N113782   0.102   0.660   9.261  0.1509  0.1333  0.2573
  942MPD2    H713783   0.067   0.730   9.196 -0.1469 -0.4963 -0.2588
  943MPD2     C13784   3.960   3.649   8.516  0.2392 -0.2856  0.3817
  943MPD2    C113785   3.992   3.679   8.643 -0.5058  0.1679  0.6742
  943MPD2    C213786   4.105   3.761   8.667  0.8520  0.6455 -0.5645
  943MPD2    C313787   4.182   3.814   8.562 -0.1196 -0.2913 -0.0811
  943MPD2    C413788   4.144   3.786   8.435  0.2796 -0.4489 -0.6067
  943MPD2    C513789   4.034   3.706   8.414 -0.8062 -0.6032  0.0121
  943MPD2     H13790   4.129   3.775   8.771 -0.1871  0.3950 -0.2908
  943MPD2    H113791   4.206   3.803   8.348 -1.4925  2.1969 -1.3531
  943MPD2    H213792   3.892   3.566   8.501  1.0411 -0.5887 -1.4804
  943MPD2    H313793   4.008   3.674   8.314 -2.6054  3.3409 -0.7812
  943MPD2     N13794   4.296   3.898   8.587 -0.1297 -0.1892 -0.4074
  943MPD2    H513795   4.341   3.931   8.502  2.5560  2.3301  1.9653
  943MPD2    N113796   3.917   3.613   8.739 -0.5353 -0.3349  0.1705
  943MPD2    H713797   3.841   3.554   8.706 -1.5918  0.4342  1.2457
  944MPD2     C13798   4.423   3.262  10.627 -0.5295 -0.8259 -0.0927
  944MPD2    C113799   4.455   3.180  10.730 -0.5105 -0.2309 -0.1963
  944MPD2    C213800   4.431   3.204  10.860  0.1352 -0.6031 -0.1775
  944MPD2    C313801   4.365   3.316  10.896  0.1887  0.5038  0.3484
  944MPD2    C413802   4.331   3.403  10.798 -0.7115  0.0911 -0.0994
  944MPD2    C513803   4.357   3.372  10.665 -0.1065 -0.1683 -0.3748
  944MPD2     H13804   4.463   3.128  10.931 -1.3713 -2.4828 -1.5114
  944MPD2    H113805   4.297   3.506  10.807 -0.5618 -0.0691  2.2047
  944MPD2    H213806   4.446   3.251  10.521  1.0262  2.2630 -0.0886
  944MPD2    H313807   4.337   3.441  10.583  1.9769  0.1847 -0.6099
  944MPD2     N13808   4.333   3.338  11.034  0.3720 -0.2151  0.0698
  944MPD2    H513809   4.379   3.278  11.101  1.5929 -1.0768 -1.5170
  944MPD2    N113810   4.523   3.059  10.693 -0.7211  0.4822 -0.3635
  944MPD2    H713811   4.549   3.052  10.595  1.7686 -0.7598  0.3729
    1TCq1    O113812   2.049   3.969  14.356  0.0204  0.4137 -0.5968
    1TCq1    C113813   1.969   4.037  14.441  0.1839  0.3183  0.0179
    1TCq1    O213814   1.905   3.985  14.527  0.2391 -0.4963 -0.0842
    1TCq1    C213815   1.963   4.172  14.383 -0.6562  0.0213  0.1468
    1TCq1    C313816   1.948   4.195  14.248 -0.2758  0.2116  0.1974
    1TCq1    C413817   1.943   4.326  14.216  0.1401 -0.5675  0.2453
    1TCq1    C513818   1.950   4.431  14.308  1.0106  0.1440  1.0008
    1TCq1    C613819   1.955   4.398  14.441  0.1885 -1.0733 -0.1470
    1TCq1    C713820   1.966   4.269  14.478 -0.6226  0.4256 -0.1927
    1TCq1    C813821   2.011   4.495  14.533  0.7146 -0.4047 -0.2510
    1TCq1    O413822   2.068   4.452  14.629  0.0659  0.6234 -0.4116
    1TCq1    C913823   1.933   4.353  14.074  0.0290 -0.4186 -0.2439
    1TCq1    O513824   1.974   4.468  14.049 -0.3937 -0.2108  0.3244
    1TCq1    O613825   1.911   4.255  13.994  0.2074 -0.0186 -0.2508
    1TCq1    H113826   2.112   4.030  14.312  0.0566  0.5561 -0.3437
    1TCq1    H213827   1.970   4.119  14.174 -3.0290 -1.8408  1.4726
    1TCq1    H313828   1.955   4.532  14.270 -0.0943 -0.5263 -0.8985
    1TCq1    H413829   1.960   4.239  14.583  1.6328 -1.0183 -0.4731
    2MPD2     C13830   2.167   0.254  14.684 -0.1174  0.2723 -0.1894
    2MPD2    C113831   2.114   0.257  14.558 -0.1902 -0.8058  0.1880
    2MPD2    C213832   2.060   0.145  14.505  0.1929 -0.1990  0.0172
    2MPD2    C313833   2.063   0.022  14.566  0.8335  0.3257 -0.5453
    2MPD2    C413834   2.119   0.014  14.690  0.0445  0.3397  0.5400
    2MPD2    C513835   2.175   0.128  14.748  0.5493 -0.3970  0.7795
    2MPD2     H13836   2.015   0.154  14.407 -0.1092  1.1819  0.2875
    2MPD2    H113837   2.117   4.644  14.752 -0.9936  0.7285  1.0552
    2MPD2    H213838   2.187   0.344  14.741  0.2700  1.0378 -1.5320
    2MPD2    H313839   2.202   0.127  14.853 -0.0547 -3.1865  0.9091
    2MPD2     N13840   2.001   4.629  14.496 -0.0719  0.2979  0.1988
    2MPD2    H513841   1.954   4.643  14.407  0.6421  0.3809 -0.1651
    2MPD2    N113842   2.106   0.388  14.505 -0.8692 -0.1737 -0.2239
    2MPD2    H713843   2.147   0.457  14.567  0.2789 -0.0028 -1.1818
    3TMC2    C113844   2.064   0.574  14.369  0.0625  0.7562  0.6629
    3TMC2    C213845   2.050   0.642  14.493 -0.5037  0.1562  0.6107
    3TMC2    C313846   2.088   0.773  14.503  0.0872 -0.6886 -0.5185
    3TMC2    C413847   2.125   0.637  14.262 -0.8029  0.1277  0.6733
    3TMC2    C513848   2.144   0.774  14.274 -0.5843  0.8863 -0.1836
    3TMC2    C613849   2.125   0.844  14.392  0.0613 -0.6047  0.7019
    3TMC2     C13850   2.064   0.427  14.380 -0.3096 -0.3093  1.1854
    3TMC2     O13851   2.012   0.353  14.296  0.4078 -0.0201  0.0827
    3TMC2     H13852   2.003   0.594  14.577  1.1734  0.0796  1.4963
    3TMC2    H113853   2.140   0.582  14.170  0.2533  2.2282 -0.4053
    3TMC2    H213854   2.158   0.946  14.407  0.9343 -0.6257 -1.1759
    3TMC2    C713855   2.142   0.859  14.166  0.0002  0.2087 -0.4193
    3TMC2    C813856   2.095   0.852  14.622 -0.1242  0.2860 -0.3303
    3TMC2    O113857   2.095   0.972  14.182 -0.0248 -0.3435  0.3403
    3TMC2    O213858   2.053   0.966  14.633 -0.5006  0.3215  0.6027
    3TMC2    O513859   2.116   0.757  14.718 -0.1206 -0.0490 -0.4219
    3TMC2    H513860   2.166   0.681  14.683  1.5557  0.6850  0.3772
    4MPD2     C13861   1.012   1.542  13.929  0.4465 -0.3333 -0.2299
    4MPD2    C113862   1.038   1.530  13.793  0.3314  0.2894  0.0744
    4MPD2    C213863   1.167   1.486  13.752 -0.2111  0.6401 -0.4365
    4MPD2    C313864   1.268   1.471  13.849 -0.3603  0.8017  0.4581
    4MPD2    C413865   1.244   1.490  13.983  0.5392  0.0888  0.6962
    4MPD2    C513866   1.117   1.527  14.022 -0.1346  0.3678  0.8682
    4MPD2     H13867   1.188   1.460  13.650  0.6923  0.6896 -0.2600
    4MPD2    H113868   1.315   1.471  14.062  1.4499  1.4205  0.1948
    4MPD2    H213869   0.913   1.563  13.970 -0.2064 -2.4797 -0.6680
    4MPD2    H313870   1.093   1.545  14.126 -1.0152  3.0467  0.1946
    4MPD2     N13871   1.397   1.438  13.799  0.3735 -0.6552 -0.1958
    4MPD2    H513872   1.408   1.431  13.698  1.7686 -0.3306 -0.0725
    4MPD2    N113873   0.923   1.556  13.708 -0.5737 -0.4699 -0.2492
    4MPD2    H713874   0.835   1.577  13.752 -0.0409 -0.1066  0.6290
    5TCq2    C113875   1.505   1.416  13.875  0.0565 -0.4201 -0.3888
    5TCq2    O213876   1.511   1.388  13.995 -0.0044 -0.1060  0.3518
    5TCq2    C213877   1.609   1.371  13.784 -0.5880 -0.0953 -0.4041
    5TCq2    C313878   1.609   1.404  13.646  0.9695  0.2060 -0.1176
    5TCq2    C413879   1.716   1.360  13.575 -0.6825 -0.0227  0.4600
    5TCq2    C513880   1.823   1.302  13.631 -0.1069 -0.7274  0.6098
    5TCq2    C613881   1.821   1.290  13.766 -0.0251 -0.3922  0.5376
    5TCq2    C713882   1.718   1.324  13.848 -0.2546 -0.5705  0.2552
    5TCq2    C813883   1.911   1.189  13.822  0.7770 -0.4953 -0.3877
    5TCq2    O413884   1.907   1.180  13.943 -0.1153 -0.1754 -0.2025
    5TCq2    C913885   1.721   1.381  13.434  0.0660  0.2412 -0.5080
    5TCq2    O513886   1.625   1.451  13.384  0.4303  0.2586  0.5705
    5TCq2    O613887   1.804   1.316  13.364  0.0789 -0.2153 -0.3136
    5TCq2    H213888   1.529   1.449  13.589  0.1110 -2.1282 -0.7379
    5TCq2    H313889   1.909   1.288  13.567  0.0707  0.1332  0.6650
    5TCq2    H413890   1.716   1.301  13.954 -4.3405 -2.4246 -0.2444
    6MPD1     C13891   0.852   3.369  13.129  0.0428 -0.5367 -0.4610
    6MPD1    C113892   0.802   3.339  13.258 -0.0453 -0.2299 -0.1334
    6MPD1    C213893   0.802   3.206  13.295 -0.5475  0.4057 -0.3107
    6MPD1    C313894   0.839   3.108  13.201 -0.1573  0.3028  0.1813
    6MPD1    C413895   0.867   3.143  13.069  0.4203  0.5100 -0.4250
    6MPD1    C513896   0.881   3.275  13.037 -0.9050 -0.1246  0.5363
    6MPD1     H13897   0.768   3.180  13.395  0.4319  0.6960  0.0920
    6MPD1    H113898   0.887   3.068  12.992 -2.4274 -0.6198 -0.0609
    6MPD1    H213899   0.866   3.472  13.099 -1.1126  0.0455  0.9662
    6MPD1    H313900   0.929   3.311  12.947 -0.5425 -1.9454 -0.0072
    6MPD1     N13901   0.848   2.969  13.237  0.1475 -0.0336  0.0296
    6MPD1    H513902   0.858   2.899  13.164 -0.2277  0.4244 -0.4545
    6MPD1    N113903   0.786   3.428  13.356  0.0144  0.3694  0.2991
    6MPD1    H613904   0.722   3.390  13.426  0.8266 -0.2734  0.6875
    6MPD1    H713905   0.738   3.511  13.322  0.3087  0.1728 -0.6077
    7MPD2     C13906   0.829   2.336  13.849 -0.7171  0.0002  0.5448
    7MPD2    C113907   0.836   2.313  13.714  0.0241 -0.1245 -0.0799
    7MPD2    C213908   0.777   2.196  13.669  0.1472  0.6602 -0.0509
    7MPD2    C313909   0.722   2.100  13.753  0.3892  0.2929 -0.2801
    7MPD2    C413910   0.719   2.123  13.881  0.0205 -0.5533  0.2475
    7MPD2    C513911   0.778   2.241  13.932 -0.5896  0.7274 -0.0760
    7MPD2     H13912   0.773   2.191  13.561  0.7955 -2.2634  0.0586
    7MPD2    H113913   0.691   2.048  13.954 -2.0847  0.6129  0.6569
    7MPD2    H213914   0.866   2.428  13.893 -1.6507  0.2927  0.7195
    7MPD2    H313915   0.788   2.257  14.038 -1.2425 -1.0853  0.2507
    7MPD2     N13916   0.683   1.975  13.698 -0.2823  0.5836 -0.1489
    7MPD2    H513917   0.661   1.906  13.769  1.3175  1.6782  1.4069
    7MPD2    N113918   0.895   2.403  13.621 -0.1969 -0.1112  0.1998
    7MPD2    H713919   0.915   2.362  13.531  0.1628  0.7793 -0.1184
    8TMC3    C113920   0.653   1.815  13.531 -0.9109 -0.3289 -0.2426
    8TMC3    C213921   0.735   1.724  13.593  0.0533  0.3130 -0.1762
    8TMC3    C313922   0.802   1.634  13.519  0.5996 -0.4961 -0.3940
    8TMC3    C413923   0.632   1.813  13.397 -0.4653  0.2139 -0.1293
    8TMC3    C513924   0.703   1.721  13.321 -0.1026 -0.1363  0.2566
    8TMC3    C613925   0.790   1.636  13.381  0.9097  0.3629 -0.3848
    8TMC3     C13926   0.665   1.949  13.562  0.0825  0.0686 -0.6824
    8TMC3     O13927   0.672   2.023  13.463  0.2791 -0.1845  0.3013
    8TMC3     H13928   0.772   1.743  13.693  2.4065 -0.7141 -0.8513
    8TMC3    H113929   0.557   1.877  13.354 -1.2762  0.6435  1.9455
    8TMC3    H213930   0.861   1.582  13.320  1.8217 -0.3205  1.2987
    8TMC3    C713931   0.754   1.779  13.200 -0.5676 -0.3709 -0.5971
    8TMC3    C813932   0.920   1.562  13.572  0.4871 -0.5271 -0.4617
    8TMC3    O113933   0.788   1.707  13.112 -0.1371 -0.5642  0.3911
    8TMC3    O213934   1.014   1.545  13.493  0.0326  0.0982  0.0008
    9TMC3    C113935   0.904   2.776  13.369  0.4442 -0.1055 -0.1812
    9TMC3    C213936   0.924   2.698  13.253 -0.7459  0.0793 -0.5392
    9TMC3    C313937   0.964   2.571  13.280  0.0963  0.7368  0.3047
    9TMC3    C413938   0.907   2.722  13.495  0.5068  0.8010 -0.0556
    9TMC3    C513939   0.961   2.596  13.513  0.4434 -0.0173 -0.4450
    9TMC3    C613940   0.986   2.516  13.405 -0.5911 -0.3440  0.2624
    9TMC3     C13941   0.863   2.917  13.365 -0.6581 -0.8395 -0.5043
    9TMC3     O13942   0.825   2.963  13.471 -0.0757 -0.8861  0.0120
    9TMC3     H13943   0.905   2.748  13.158  0.7220  2.2865  0.3228
    9TMC3    H113944   0.882   2.776  13.585 -0.3858  1.3764 -0.6499
    9TMC3    H213945   1.042   2.423  13.409  1.4694  0.8790 -0.1900
    9TMC3    C713946   0.932   2.534  13.641 -0.4646  0.1517 -0.1950
    9TMC3    C813947   0.928   2.477  13.175  0.3073 -0.1152  0.5192
    9TMC3    O113948   0.920   2.599  13.741  0.0420 -0.4470  0.5635
    9TMC3    O213949   0.894   2.521  13.062 -0.2510 -0.8483 -0.6078
   10MPD2     C13950   0.829   1.997  13.004  0.5521 -0.6166 -0.3196
   10MPD2    C113951   0.823   2.011  13.141 -0.0059  0.1516  0.8647
   10MPD2    C213952   0.848   2.126  13.200  0.4732  0.5975 -0.1976
   10MPD2    C313953   0.897   2.236  13.139  1.1492 -0.0007  0.2270
   10MPD2    C413954   0.897   2.235  13.004 -0.2716 -0.7295 -0.7992
   10MPD2    C513955   0.863   2.115  12.936 -0.7290  0.1289  0.1624
   10MPD2     H13956   0.849   2.124  13.309 -1.6417  4.3432 -0.1096
   10MPD2    H113957   0.938   2.325  12.959  2.2095 -1.1933  0.5167
   10MPD2    H213958   0.802   1.906  12.951 -0.7812 -1.1639  1.2977
   10MPD2    H313959   0.873   2.106  12.828  0.8139  0.4338  0.2843
   10MPD2     N13960   0.925   2.351  13.218  0.3159  0.0371 -0.1817
   10MPD2    H513961   0.946   2.321  13.313 -0.3691 -0.2561 -0.1237
   10MPD2    N113962   0.778   1.909  13.222 -0.0195  0.4168 -0.0125
   10MPD2    H713963   0.773   1.921  13.323  3.3284 -3.0297  0.5852
   11MPD2     C13964   2.160   0.747  13.816  0.3133 -0.2598  0.3226
   11MPD2    C113965   2.125   0.831  13.921  0.9548  0.1100 -0.1650
   11MPD2    C213966   2.069   0.954  13.894  0.3136  0.3834  0.0703
   11MPD2    C313967   2.037   0.979  13.766  0.1821  0.8201 -0.5776
   11MPD2    C413968   2.068   0.896  13.662 -0.4951  0.5903 -0.0764
   11MPD2    C513969   2.135   0.782  13.686  0.5570 -0.1428  0.2994
   11MPD2     H13970   2.067   1.034  13.966  0.1268 -0.1624  0.6739
   11MPD2    H113971   2.046   0.924  13.559 -0.1552 -1.0594 -0.5866
   11MPD2    H213972   2.215   0.658  13.846  0.0561  0.4617  2.9275
   11MPD2    H313973   2.168   0.715  13.607  0.3190 -0.2727  0.3117
   11MPD2     N13974   1.973   1.102  13.728  0.3894  0.0211  0.0904
   11MPD2    H513975   1.957   1.117  13.629 -0.3684 -2.9034 -0.2376
   11MPD2    N113976   2.171   0.789  14.052 -0.0203  0.0166  0.6641
   11MPD2    H713977   2.210   0.697  14.071  0.9228  0.2186 -0.2646
    1MPD1     C13978   3.896   2.256  17.442  0.4861  0.3681 -0.5658
    1MPD1    C113979   3.994   2.275  17.537 -0.1053 -0.4667  0.0884
    1MPD1    C213980   4.123   2.307  17.488 -0.1125  0.4570  0.3846
    1MPD1    C313981   4.160   2.312  17.355 -0.8530 -0.0467  0.3784
    1MPD1    C413982   4.061   2.291  17.262 -0.4696 -0.1225  0.4883
    1MPD1    C513983   3.930   2.263  17.304 -0.9940  0.3062 -0.1738
    1MPD1     H13984   4.198   2.295  17.565 -0.2527 -0.1985  0.4129
    1MPD1    H113985   4.075   2.302  17.155  0.0924 -0.8400  0.4870
    1MPD1    H213986   3.795   2.232  17.474  1.1959 -0.9666  0.6170
    1MPD1    H313987   3.861   2.245  17.222 -0.5702 -0.6536 -0.3303
    1MPD1     N13988   4.284   2.353  17.295  0.7785 -0.7554 -0.5063
    1MPD1    H513989   4.293   2.361  17.194  0.0666  3.7193 -0.1877
    1MPD1    N113990   3.962   2.264  17.674  0.3494 -0.6719 -0.3514
    1MPD1    H613991   4.034   2.238   0.063  1.6460  0.2808 -1.3632
    1MPD1    H713992   3.882   2.207   0.023  0.4303 -1.2343 -1.2986
    2MPD1     C13993   0.550   2.627  17.592  0.6110 -0.2826 -0.1062
    2MPD1    C113994   0.552   2.574  17.467 -0.3940  0.9462 -0.4763
    2MPD1    C213995   0.439   2.571  17.388  0.2092 -0.4509  0.0775
    2MPD1    C313996   0.314   2.600  17.440  0.1138  0.1122 -0.2248
    2MPD1    C413997   0.305   2.631  17.573 -0.4507 -0.0776  0.3707
    2MPD1    C513998   0.430   2.656  17.639 -0.5187 -0.3221  0.6543
    2MPD1     H13999   0.455   2.549  17.284 -0.2693 -3.6633  0.6819
    2MPD1    H114000   0.218   2.666  17.629 -1.8518 -0.5752 -1.4932
    2MPD1    H214001   0.642   2.648  17.646  0.9523  0.5010 -0.9932
    2MPD1    H314002   0.425   2.704   0.057 -0.8160  1.4659 -0.2516
    2MPD1     N14003   0.204   2.584  17.358  0.5930  0.2603  0.0805
    2MPD1    H514004   0.226   2.535  17.272 -1.1020 -0.5902  0.1442
    2MPD1    N114005   0.675   2.561  17.403 -0.5521 -0.2349 -0.5238
    2MPD1    H614006   0.745   2.524  17.467  0.6874  0.2321 -1.5928
    2MPD1    H714007   0.670   2.484  17.336  1.5195 -0.8538  0.0274
    3TMC3    C114008   4.696   2.574  17.297 -0.5298 -0.1431  0.5499
    3TMC3    C214009   0.020   2.515  17.181  0.2241  0.4773 -0.3049
    3TMC3    C314010   4.638   2.440  17.115 -0.3422  0.2701  0.5522
    3TMC3    C414011   4.569   2.549  17.359 -0.4289  0.1352  0.1749
    3TMC3    C514012   4.490   2.463  17.289  0.0618  0.4191  0.2280
    3TMC3    C614013   4.515   2.419  17.168 -0.1729  0.5788 -0.9368
    3TMC3     C14014   0.074   2.621  17.387 -0.2611 -0.1724  0.1469
    3TMC3     O14015   0.022   2.677  17.484  0.0684  0.3915 -0.1970
    3TMC3     H14016   0.114   2.545  17.135  0.7218 -0.5272  0.0577
    3TMC3    H114017   4.539   2.581  17.458  0.8433 -2.2068  1.3317
    3TMC3    H214018   4.465   2.347  17.104 -0.3257 -2.4796  2.6362
    3TMC3    C714019   4.386   2.409  17.374  0.1124  0.0123  0.0062
    3TMC3    C814020   4.679   2.372  16.986 -0.4631 -0.1148  1.1336
    3TMC3    O114021   4.390   2.414  17.497 -0.1584 -0.0110 -0.4106
    3TMC3    O214022   4.577   2.343  16.924 -0.3368  0.2770 -0.2215
    4MPD1     C14023   0.258   2.282  16.578  0.3054 -0.2553 -0.7983
    4MPD1    C114024   0.341   2.310  16.685 -0.1603  0.0488  0.2216
    4MPD1    C214025   0.281   2.336  16.810  0.3011  0.5467 -0.5478
    4MPD1    C314026   0.141   2.327  16.827  0.8268  0.0053  0.3003
    4MPD1    C414027   0.065   2.304  16.715  0.0375 -0.0903  0.3668
    4MPD1    C514028   0.125   2.276  16.595 -0.0132 -0.7448  0.3541
    4MPD1     H14029   0.352   2.374  16.883 -0.6623  0.2086  0.5521
    4MPD1    H114030   4.677   2.319  16.714 -0.3339 -2.6745  0.7590
    4MPD1    H214031   0.291   2.267  16.476  0.2810  1.6976 -1.0919
    4MPD1    H314032   0.062   2.253  16.510 -0.8127  0.4029  0.6283
    4MPD1     N14033   0.093   2.374  16.949 -0.2762 -0.3184  0.1330
    4MPD1    H514034   0.162   2.397  17.019 -0.1462 -2.1898  0.6106
    4MPD1    N114035   0.481   2.335  16.673  0.1457  0.0658 -0.2523
    4MPD1    H614036   0.526   2.308  16.585  0.4105  0.5659 -0.2670
    4MPD1    H714037   0.538   2.314  16.754 -0.6116 -1.0226  0.0010
    1TCq1    O114038   2.072   1.929  12.871  0.5933 -0.0490 -0.3681
    1TCq1    C114039   2.160   1.946  12.770  0.1417  0.1252  0.3659
    1TCq1    O214040   2.242   2.039  12.748 -0.1261 -0.0736 -0.3461
    1TCq1    C214041   2.122   1.843  12.674 -0.3424  0.5848  0.3285
    1TCq1    C314042   2.230   1.826  12.585  0.2225 -0.2374  0.2719
    1TCq1    C414043   2.215   1.742  12.480 -0.0284 -0.3575  0.0630
    1TCq1    C514044   2.090   1.719  12.434 -0.1567  0.6590 -0.7276
    1TCq1    C614045   1.982   1.761  12.511 -0.5243 -0.0958 -0.6962
    1TCq1    C714046   1.989   1.821  12.636  0.6576  0.7419 -0.4028
    1TCq1    C814047   1.853   1.758  12.453 -0.4955  0.3549  0.0374
    1TCq1    O414048   1.761   1.781  12.537 -0.1132 -0.3270 -0.2129
    1TCq1    C914049   2.324   1.738  12.385  0.0474 -0.3414 -0.0022
    1TCq1    O514050   2.410   1.833  12.391 -0.2211 -0.6038  0.3990
    1TCq1    O614051   2.332   1.643  12.302 -0.0433  0.6823 -0.1032
    1TCq1    H114052   2.021   1.846  12.858  1.7652 -0.6826 -0.9022
    1TCq1    H214053   2.333   1.844  12.615  0.5158 -0.0628 -0.8509
    1TCq1    H314054   2.074   1.680  12.334 -3.2047 -0.8310  0.3256
    1TCq1    H414055   1.902   1.843  12.697  0.4492 -0.9879 -0.0730
    2MPD1     C14056   1.498   1.750  12.076  0.0246 -0.3929  0.2530
    2MPD1    C114057   1.613   1.684  12.032  0.6758  0.2682  0.3791
    2MPD1    C214058   1.721   1.680  12.118  0.3793 -0.4340 -0.0036
    2MPD1    C314059   1.719   1.726  12.249  0.3900 -0.2524  1.0677
    2MPD1    C414060   1.595   1.774  12.293 -0.2656  0.1219 -0.7581
    2MPD1    C514061   1.490   1.794  12.204 -0.2094  0.2219 -0.6223
    2MPD1     H14062   1.810   1.637  12.074  0.6439 -0.0893  0.1959
    2MPD1    H114063   1.573   1.813  12.392 -0.2754 -3.0709  0.5052
    2MPD1    H214064   1.410   1.761  12.013  1.2545 -0.8006 -1.5586
    2MPD1    H314065   1.393   1.835  12.229  0.3525  0.3821  1.2708
    2MPD1     N14066   1.840   1.723  12.324  0.2912  0.5241 -0.1779
    2MPD1    H514067   1.925   1.697  12.275 -1.0209  0.2149 -2.2865
    2MPD1    N114068   1.614   1.624  11.904 -0.0214  0.1720  0.2716
    2MPD1    H614069   1.698   1.642  11.851 -0.3860 -0.2706 -0.4573
    2MPD1    H714070   1.535   1.645  11.843  1.0379 -0.6003 -1.3601
    1TCq1    O114071   3.327   4.409   1.738  0.1633 -0.5564  0.4516
    1TCq1    C114072   3.396   4.482   1.824 -0.0710  0.0990  0.6055
    1TCq1    O214073   3.357   4.537   1.926 -0.0337  0.6328 -0.0765
    1TCq1    C214074   3.536   4.471   1.788 -0.5045  0.5762  0.4034
    1TCq1    C314075   3.613   4.582   1.801  0.2391  0.2434 -0.4927
    1TCq1    C414076   3.749   4.566   1.808 -0.1392  0.1929  0.8478
    1TCq1    C514077   3.800   4.435   1.817  0.0198  0.3939  0.5782
    1TCq1    C614078   3.718   4.331   1.780 -0.1726  0.3597  0.0626
    1TCq1    C714079   3.581   4.347   1.769  0.3557  0.7200 -0.2891
    1TCq1    C814080   3.770   4.191   1.766  0.4622  0.8118 -0.4024
    1TCq1    O414081   3.700   4.098   1.731 -0.3496 -0.6452  0.2850
    1TCq1    C914082   3.832   4.666   1.863 -0.2512  0.0693 -0.1027
    1TCq1    O514083   3.949   4.623   1.896 -0.0251  0.0041  0.2815
    1TCq1    O614084   3.774   0.056   1.898 -0.0622  0.1976  0.0030
    1TCq1    H114085   3.383   4.391   1.659 -4.1619  1.8361 -3.1324
    1TCq1    H214086   3.564   4.676   1.826  1.4591  0.5045  0.8871
    1TCq1    H314087   3.904   4.416   1.841 -0.5326 -1.5040  1.4687
    1TCq1    H414088   3.518   4.259   1.767  0.6349  0.5699 -2.2282
    2MPD1     C14089   4.130   3.835   1.884  0.5849  1.0719  0.1671
    2MPD1    C114090   4.169   3.958   1.938  0.0288 -0.3876 -0.5335
    2MPD1    C214091   4.085   4.072   1.925  0.5509  1.0295 -0.5294
    2MPD1    C314092   3.978   4.071   1.842  0.0244  0.1245 -0.1359
    2MPD1    C414093   3.947   3.954   1.779 -0.1135 -0.0648 -0.6240
    2MPD1    C514094   4.019   3.835   1.802  0.5247  0.0786  0.1167
    2MPD1     H14095   4.104   4.168   1.970  1.8874  0.2179  0.6505
    2MPD1    H114096   3.868   3.941   1.706  0.0367 -0.6211 -0.6867
    2MPD1    H214097   4.179   3.740   1.903  1.8724  1.6483 -0.2752
    2MPD1    H314098   3.984   3.743   1.757  1.9362 -0.8336  0.8689
    2MPD1     N14099   3.894   4.179   1.829  0.3324  0.8972 -0.4318
    2MPD1    H514100   3.918   4.268   1.871 -0.6126 -0.3334  2.7442
    2MPD1    N114101   4.275   3.954   2.024 -0.2375 -0.3693 -0.2778
    2MPD1    H614102   4.348   3.888   1.997 -1.6341 -2.1029  0.1988
    2MPD1    H714103   4.317   4.045   2.045 -1.1936  0.3557 -1.5625
    1MPD1     C14104   2.423   2.205  11.291  0.5658  0.7255 -0.1504
    1MPD1    C114105   2.481   2.284  11.194 -0.8314 -0.0247  0.8832
    1MPD1    C214106   2.602   2.342  11.223  0.2864 -0.7383 -0.5836
    1MPD1    C314107   2.675   2.314  11.335  0.1607 -0.1679 -0.1036
    1MPD1    C414108   2.619   2.221  11.423  0.8382 -0.1464 -0.3842
    1MPD1    C514109   2.492   2.176  11.405  0.6275  0.4232  0.9379
    1MPD1     H14110   2.640   2.396  11.137  0.0177 -2.1515 -1.6006
    1MPD1    H114111   2.649   2.215  11.527  1.1903  0.4173 -0.4543
    1MPD1    H214112   2.320   2.172  11.294  1.4529 -2.2825 -1.8502
    1MPD1    H314113   2.448   2.130  11.492  0.3258 -1.5434 -0.2532
    1MPD1     N14114   2.808   2.368  11.362 -0.0384 -0.0207  0.4444
    1MPD1    H514115   2.839   2.444  11.303  1.5665 -0.5783  0.5747
    1MPD1    N114116   2.391   2.326  11.093 -0.1318 -0.2569 -0.1282
    1MPD1    H614117   2.426   2.360  11.003  0.2328 -0.3159 -0.0091
    1MPD1    H714118   2.329   2.250  11.066  0.2130 -0.4010 -0.5315
    2MPD1     C14119   3.369   1.516  11.124  0.5683  0.3755 -0.8074
    2MPD1    C114120   3.237   1.484  11.089  0.4851  0.5274 -0.8098
    2MPD1    C214121   3.183   1.544  10.978 -0.1497 -0.3707  0.1213
    2MPD1    C314122   3.260   1.630  10.896  0.2213  0.2463 -0.0499
    2MPD1    C414123   3.396   1.655  10.932  0.1241  0.7553 -0.2179
    2MPD1    C514124   3.447   1.601  11.052 -0.5541  0.5195  0.2911
    2MPD1     H14125   3.078   1.531  10.955 -0.7519  0.8002  2.2384
    2MPD1    H114126   3.459   1.727  10.880  2.5898 -0.3251  1.2737
    2MPD1    H214127   3.415   1.483  11.217 -2.4155 -1.7114 -0.0722
    2MPD1    H314128   3.552   1.615  11.075  0.0571 -0.6099 -1.8435
    2MPD1     N14129   3.213   1.692  10.779 -0.2744  0.3203 -0.2166
    2MPD1    H514130   3.277   1.762  10.744  1.1453 -1.0293 -0.2748
    2MPD1    N114131   3.168   1.379  11.149  0.5622  0.6963 -0.4532
    2MPD1    H614132   3.214   1.340  11.232 -2.1478  0.1379  0.7811
    2MPD1    H714133   3.067   1.376  11.142  0.4690  0.0979  1.1703
    3MPD1     C14134   2.291   1.797  10.404 -0.5482 -0.1889 -0.0439
    3MPD1    C114135   2.343   1.759  10.527 -0.3374 -0.1971  0.7288
    3MPD1    C214136   2.482   1.750  10.530  0.3485  0.3784 -0.2688
    3MPD1    C314137   2.566   1.794  10.435 -0.3849 -0.0656  0.1319
    3MPD1    C414138   2.513   1.835  10.314  0.1937 -0.1231 -0.2690
    3MPD1    C514139   2.378   1.845  10.303  0.0604 -0.3380  0.2384
    3MPD1     H14140   2.511   1.717  10.629 -3.0587 -1.4908  0.1040
    3MPD1    H114141   2.567   1.877  10.229  1.2370 -0.3537  0.2713
    3MPD1    H214142   2.183   1.806  10.394 -0.5284  0.0190 -0.0821
    3MPD1    H314143   2.344   1.888  10.210  1.3566  0.2646  0.0583
    3MPD1     N14144   2.706   1.805  10.459  0.3350  0.5822 -0.4232
    3MPD1    H514145   2.743   1.788  10.552 -1.3449 -0.2276  0.0961
    3MPD1    N114146   2.256   1.708  10.622 -0.6452  0.4071  0.9192
    3MPD1    H614147   2.287   1.724  10.718  2.2234 -1.4511  0.3095
    3MPD1    H714148   2.166   1.751  10.603 -1.9327 -3.2301 -1.2071
    4MPD2     C14149   3.238   2.785  11.006  0.5506  1.0028  0.5264
    4MPD2    C114150   3.307   2.694  11.085 -0.1863 -0.3679  0.0287
    4MPD2    C214151   3.431   2.646  11.035 -0.1112  0.7664 -0.2083
    4MPD2    C314152   3.474   2.677  10.913  0.1631 -0.8007  0.3538
    4MPD2    C414153   3.400   2.762  10.837  0.6229 -0.0856 -0.9273
    4MPD2    C514154   3.278   2.810  10.879  0.1149  0.0374  0.7420
    4MPD2     H14155   3.479   2.581  11.107  0.7069  2.4186  0.7453
    4MPD2    H114156   3.436   2.791  10.740 -0.0996  0.3855 -1.0503
    4MPD2    H214157   3.144   2.827  11.037  1.1765  0.6780  2.9167
    4MPD2    H314158   3.224   2.880  10.817  1.1833 -1.0894 -1.4594
    4MPD2     N14159   3.589   2.609  10.875 -0.0426 -0.5808  0.2147
    4MPD2    H514160   3.627   2.544  10.943  0.4477 -0.5598 -0.0385
    4MPD2    N114161   3.268   2.658  11.212  0.4646  0.4252 -0.1253
    4MPD2    H714162   3.323   2.587  11.260  2.0616  0.6471 -1.6228
    5TMC3    C114163   3.133   2.615  11.412 -0.0113  0.2518  0.4609
    5TMC3    C214164   3.019   2.546  11.414 -0.2112 -0.1409  0.2171
    5TMC3    C314165   3.016   2.420  11.470  0.1605 -0.1930 -0.4341
    5TMC3    C414166   3.252   2.561  11.448 -0.5626  0.4200 -0.4523
    5TMC3    C514167   3.257   2.432  11.490 -0.0414  0.4784 -0.4589
    5TMC3    C614168   3.137   2.356  11.502 -0.5969 -0.2983 -0.2114
    5TMC3     C14169   3.158   2.698  11.284  0.0920  1.0061 -0.2543
    5TMC3     O14170   3.072   2.772  11.236 -0.7894 -0.0277  0.3515
    5TMC3     H14171   2.924   2.586  11.380 -0.7464 -0.4762  1.3373
    5TMC3    H114172   3.345   2.616  11.437 -0.9941  0.8434 -1.9746
    5TMC3    H214173   3.142   2.250  11.524  0.0146 -0.3723 -0.7036
    5TMC3    C714174   3.366   2.372  11.410  0.4339  0.0511  0.1929
    5TMC3    C814175   2.888   2.340  11.475 -0.0376 -0.7151 -0.1218
    5TMC3    O114176   3.434   2.453  11.344 -0.5752  0.6912 -0.1499
    5TMC3    O214177   2.882   2.244  11.549  0.7487  0.1493  0.4786
    6TMC3    C114178   3.073   1.738  10.594 -0.1037 -0.3099 -0.0413
    6TMC3    C214179   2.941   1.770  10.556  0.8517 -0.7612  0.4672
    6TMC3    C314180   2.933   1.834  10.431  0.8602  0.4207 -0.1251
    6TMC3    C414181   3.180   1.771  10.518 -0.2724 -0.4050 -0.1119
    6TMC3    C514182   3.162   1.826  10.398  0.6674  0.1503  0.0750
    6TMC3    C614183   3.043   1.857  10.353 -0.2638  0.0234 -0.6293
    6TMC3     C14184   3.091   1.673  10.722 -0.7846  0.3684  0.4564
    6TMC3     O14185   2.992   1.616  10.770 -0.3562 -0.6008 -0.1971
    6TMC3     H14186   2.863   1.732  10.621 -1.3468  1.8614 -0.6152
    6TMC3    H114187   3.281   1.755  10.551  0.1708 -1.3249 -1.9097
    6TMC3    H214188   3.032   1.867  10.245 -0.6032  2.5166 -0.3606
    6TMC3    C714189   3.270   1.893  10.326  0.9200 -0.2547 -0.1340
    6TMC3    C814190   2.808   1.851  10.373  0.0660  0.2312 -0.2503
    6TMC3    O114191   3.381   1.853  10.360 -0.1824  0.3792  0.5539
    6TMC3    O214192   2.813   1.891  10.258 -0.4496  0.5743  0.0434
    7MPD2     C14193   3.571   1.977  11.154 -1.2473  0.7148  0.2827
    7MPD2    C114194   3.595   2.113  11.138 -0.1105  1.1606  0.3925
    7MPD2    C214195   3.536   2.198  11.231  0.1002 -0.1600 -0.1584
    7MPD2    C314196   3.433   2.151  11.317 -0.4488 -0.0255  0.4652
    7MPD2    C414197   3.405   2.021  11.315  0.6148 -0.1453 -0.3011
    7MPD2    C514198   3.473   1.931  11.239 -0.2422  0.6643 -0.1500
    7MPD2     H14199   3.564   2.303  11.236 -1.1412  0.0709  1.6379
    7MPD2    H114200   3.319   1.979  11.366 -0.6642 -0.9261 -3.0989
    7MPD2    H214201   3.619   1.905  11.089 -0.5504 -0.1992  1.8103
    7MPD2    H314202   3.449   1.825  11.246  1.6823  0.2781  0.4145
    7MPD2     N14203   3.364   2.236  11.403  0.1182 -0.1045 -0.8843
    7MPD2    H514204   3.297   2.198  11.470 -0.3002 -0.5851 -1.5617
    7MPD2    N114205   3.680   2.157  11.038  0.4450 -0.6962  0.0790
    7MPD2    H714206   3.717   2.092  10.970 -1.5000 -0.5543 -1.1305
    8TMC3    C114207   3.758   2.320  10.879  0.1811 -0.0474 -0.1440
    8TMC3    C214208   3.734   2.232  10.774  0.7563 -0.0550  0.4278
    8TMC3    C314209   3.722   2.290  10.644  0.6186 -0.3696 -0.4482
    8TMC3    C414210   3.777   2.451  10.863 -0.2620  0.0166  0.3443
    8TMC3    C514211   3.750   2.507  10.745  0.1180  0.5698 -0.1746
    8TMC3    C614212   3.731   2.430  10.632  0.1220  0.0516 -0.5269
    8TMC3     C14213   3.711   2.288  11.015  0.2685  0.0971 -0.3500
    8TMC3     O14214   3.693   2.390  11.081 -0.2101  0.7540 -0.6777
    8TMC3     H14215   3.731   2.125  10.789  1.7754 -0.1400  0.0118
    8TMC3    H114216   3.816   2.506  10.948  4.2030 -3.6000  0.6348
    8TMC3    H214217   3.695   2.481  10.543  3.0971  0.6715 -1.3548
    8TMC3    C714218   3.654   2.613  10.754  0.6645  0.4189 -0.6946
    8TMC3    C814219   3.622   2.224  10.567  0.1977 -0.0486 -0.1647
    8TMC3    O114220   3.623   2.664  10.648  0.2336 -0.2279  0.1620
    8TMC3    O214221   3.578   2.122  10.611 -0.2773 -1.0583  0.7109
    9MPD2     C14222   3.497   2.343  10.246  0.2841 -0.1499 -0.2068
    9MPD2    C114223   3.508   2.251  10.351  0.0814 -0.3615  1.0268
    9MPD2    C214224   3.433   2.138  10.360 -0.1998 -0.1323  0.0815
    9MPD2    C314225   3.333   2.124  10.267 -0.0994  0.1981  0.0598
    9MPD2    C414226   3.307   2.216  10.169  0.1238 -0.3920 -0.2338
    9MPD2    C514227   3.397   2.313  10.153 -0.2889  0.4109  0.4364
    9MPD2     H14228   3.449   2.064  10.438  0.0614  0.4960  0.6236
    9MPD2    H114229   3.235   2.187  10.093  2.2921 -0.9407 -2.0452
    9MPD2    H214230   3.557   2.434  10.245 -0.0135  0.0401 -1.7288
    9MPD2    H314231   3.386   2.389  10.077  2.8079  0.8153  0.3736
    9MPD2     N14232   3.247   2.012  10.270 -0.7163  0.6274 -0.1550
    9MPD2    H514233   3.156   2.035  10.232 -0.7769 -0.8569 -0.8937
    9MPD2    N114234   3.600   2.290  10.451 -0.0247  0.0214  0.1027
    9MPD2    H714235   3.667   2.360  10.421  0.4834 -0.7614 -0.5807
    1MPD1     C14236   1.627   0.630  16.840  0.0723 -0.0780  0.1380
    1MPD1    C114237   1.548   0.524  16.786 -0.0582 -1.3788  0.1668
    1MPD1    C214238   1.443   0.484  16.863  0.1708  0.1675  0.2754
    1MPD1    C314239   1.394   0.577  16.953 -0.7595  0.0669  0.2486
    1MPD1    C414240   1.454   0.700  16.977 -0.2518  0.3037 -0.3191
    1MPD1    C514241   1.583   0.719  16.934  0.6698 -0.0137  0.0046
    1MPD1     H14242   1.391   0.390  16.846  0.6625 -0.0094 -0.2520
    1MPD1    H114243   1.413   0.767  17.051 -2.5185  0.7482 -1.9685
    1MPD1    H214244   1.729   0.647  16.805  0.1777 -0.0829  0.4388
    1MPD1    H314245   1.647   0.803  16.958  1.3222 -0.7003  0.6824
    1MPD1     N14246   1.270   0.554  17.022  0.0558  0.3723 -0.1308
    1MPD1    H514247   1.239   0.618  17.095  0.9711 -0.4757  0.9978
    1MPD1    N114248   1.600   0.425  16.695 -0.2246  0.4832  0.0868
    1MPD1    H614249   1.523   0.397  16.634 -1.0470  1.5370  0.6285
    1MPD1    H714250   1.673   0.462  16.635  0.0625  1.1735  0.8660
    2MPD1     C14251   0.303   0.055  17.188  0.2159  0.3053  0.4317
    2MPD1    C114252   0.310   0.155  17.280  0.0106  0.5091 -0.0607
    2MPD1    C214253   0.425   0.236  17.282 -0.4454  0.1394 -0.2489
    2MPD1    C314254   0.542   0.201  17.207 -0.4677 -0.3278 -0.1358
    2MPD1    C414255   0.538   0.084  17.129  0.4369 -0.5978 -0.5847
    2MPD1    C514256   0.420   0.017  17.121 -0.7115  0.9183 -0.9721
    2MPD1     H14257   0.431   0.319  17.352  1.4585  0.5282 -0.8642
    2MPD1    H114258   0.612   0.041  17.062  0.0092 -0.5447 -1.0868
    2MPD1    H214259   0.211   4.716  17.183  0.5934 -0.2444 -0.1214
    2MPD1    H314260   0.414   4.648  17.058 -2.2612 -0.2339  0.7954
    2MPD1     N14261   0.664   0.283  17.224  0.0114  0.3353 -0.4660
    2MPD1    H514262   0.650   0.367  17.280  0.3572  0.0073  0.1074
    2MPD1    N114263   0.189   0.192  17.344 -0.7156  0.3460  1.0550
    2MPD1    H614264   0.214   0.251  17.423  0.8287 -0.6077  1.2828
    2MPD1    H714265   0.146   0.114  17.393 -0.5889  0.4330  1.3033
    3TCq2    C114266   0.784   0.255  17.166  0.1623  0.2349 -0.4325
    3TCq2    O214267   0.816   0.144  17.114  0.5445  0.3882  0.0052
    3TCq2    C214268   0.882   0.365  17.169  0.0222  0.2220 -0.1075
    3TCq2    C314269   0.840   0.480  17.225 -0.4846  0.4655  0.1291
    3TCq2    C414270   0.923   0.590  17.214  0.5923  0.3797 -0.7952
    3TCq2    C514271   1.036   0.590  17.130 -0.0075 -0.2085  0.3541
    3TCq2    C614272   1.075   0.466  17.091  0.5761  0.4823  0.0997
    3TCq2    C714273   1.000   0.353  17.098  0.0944 -0.3114  0.1509
    3TCq2    C814274   1.191   0.453  17.004 -0.0156 -0.1180  0.3127
    3TCq2    O414275   1.200   0.350  16.943  0.0482  0.2070 -0.4280
    3TCq2    C914276   0.881   0.714  17.275 -0.1905  0.2181 -0.1147
    3TCq2    O514277   0.953   0.814  17.271 -0.1729 -0.4392 -0.1239
    3TCq2    O614278   0.765   0.718  17.325 -0.1173 -0.4320 -0.6419
    3TCq2    H214279   0.745   0.487  17.277 -0.0267  0.0173  1.0292
    3TCq2    H314280   1.092   0.683  17.128  0.6997 -0.5873  2.1430
    3TCq2    H414281   1.028   0.259  17.050  3.2577  0.2703  0.8635
    1TCq1    O114282   0.220   4.568  12.880  0.2653  0.1962  0.2583
    1TCq1    C114283   0.249   4.492  12.986  0.6183 -0.5977 -0.1266
    1TCq1    O214284   0.175   4.400  13.021 -0.1160 -0.2780 -0.4029
    1TCq1    C214285   0.300   4.599  13.071  0.0107  0.3420 -0.0640
    1TCq1    C314286   0.199   4.657  13.146  0.2749 -0.2613 -0.3774
    1TCq1    C414287   0.225   0.058  13.210 -0.1767  0.1869  0.2518
    1TCq1    C514288   0.339   0.124  13.176 -0.4184  0.1259 -0.0965
    1TCq1    C614289   0.418   0.078  13.071 -0.3730 -0.1640  0.1655
    1TCq1    C714290   0.400   4.676  13.016  0.3473 -0.4059 -0.0661
    1TCq1    C814291   0.555   0.120  13.063 -0.1957  0.6515  0.4104
    1TCq1    O414292   0.596   0.119  12.948  0.2779 -0.3745 -0.3491
    1TCq1    C914293   0.141   0.091  13.319 -0.2440 -0.3828  0.8090
    1TCq1    O514294   0.157   0.205  13.368  0.0998  0.2486 -0.6377
    1TCq1    O614295   0.052   0.011  13.357 -0.4968 -0.0932  0.0962
    1TCq1    H114296   0.290   4.635  12.864 -1.2093  1.4602 -0.8398
    1TCq1    H214297   0.113   4.599  13.177  1.1897 -1.9130 -0.9082
    1TCq1    H314298   0.366   0.216  13.226 -1.3112  1.1884 -1.5644
    1TCq1    H414299   0.474   4.621  12.960  0.4123 -0.3936  0.0071
    2MPD2     C14300   0.833   0.185  13.089 -0.3535 -1.0093 -0.3684
    2MPD2    C114301   0.740   0.219  13.184 -0.3766 -0.1199 -1.1244
    2MPD2    C214302   0.785   0.293  13.296  0.0884 -0.0752  0.7040
    2MPD2    C314303   0.921   0.330  13.317 -0.5269 -0.1816 -0.2844
    2MPD2    C414304   1.011   0.285  13.225 -0.6022 -0.5571  0.0136
    2MPD2    C514305   0.966   0.204  13.121 -0.2666 -0.3001  0.7843
    2MPD2     H14306   0.715   0.315  13.376  1.1529  0.1207  1.5966
    2MPD2    H114307   1.119   0.292  13.226 -0.6039 -0.6610  1.8649
    2MPD2    H214308   0.812   0.135  12.996  0.1030  1.6307 -1.8961
    2MPD2    H314309   1.034   0.165  13.046 -1.1725  0.2650 -0.3342
    2MPD2     N14310   0.954   0.404  13.433 -0.2687 -1.0320  0.6165
    2MPD2    H514311   0.880   0.438  13.495  0.6415 -0.7231  1.5261
    2MPD2    N114312   0.601   0.180  13.173 -0.8959 -0.2204 -0.4982
    2MPD2    H714313   0.543   0.171  13.256  1.2148  0.0644  1.0388
    3TCq1    O114314   0.813   0.492  13.881  0.4254  0.0273 -0.3934
    3TCq1    C114315   0.886   0.605  13.859  0.1138  0.4124 -0.3264
    3TCq1    O214316   0.847   0.719  13.833 -0.1377 -0.3411 -0.2800
    3TCq1    C214317   1.013   0.558  13.813  0.5432  0.1239 -0.1003
    3TCq1    C314318   1.099   0.663  13.807 -0.2367  0.1645  0.1524
    3TCq1    C414319   1.191   0.677  13.711 -0.2527 -0.4172  1.0132
    3TCq1    C514320   1.190   0.599  13.598  0.5695 -0.3268  0.5927
    3TCq1    C614321   1.095   0.505  13.597 -0.4223  0.3163 -0.2069
    3TCq1    C714322   1.005   0.481  13.696  0.5659 -0.2959 -0.7746
    3TCq1    C814323   1.087   0.423  13.471 -1.0804 -0.1036 -0.6084
    3TCq1    O414324   1.194   0.425  13.408 -0.1772  0.3395 -0.3013
    3TCq1    C914325   1.294   0.779  13.720  0.7015 -0.3926 -0.0310
    3TCq1    O514326   1.371   0.789  13.618  0.2090 -0.2290 -0.3754
    3TCq1    O614327   1.278   0.860  13.819 -0.1866  0.1015 -0.0165
    3TCq1    H114328   0.869   0.413  13.889 -0.4764 -0.5682  0.0608
    3TCq1    H214329   1.102   0.726  13.894  1.4985  1.9839 -1.2174
    3TCq1    H314330   1.264   0.603  13.519 -0.0111 -0.1835  0.0580
    3TCq1    H414331   0.936   0.398  13.689 -1.2388  1.1963 -0.7509
    1MPD2     C14332   4.154   0.763  15.325 -0.5350 -0.8180  0.0834
    1MPD2    C114333   4.044   0.748  15.237  0.6750 -0.0093  0.6961
    1MPD2    C214334   4.060   0.663  15.128  0.2931 -0.4445 -0.3811
    1MPD2    C314335   4.188   0.608  15.097  1.0164 -0.5902 -0.1897
    1MPD2    C414336   4.291   0.625  15.183  0.1377 -0.5292  0.4475
    1MPD2    C514337   4.275   0.700  15.288 -0.0200 -0.4684 -0.6672
    1MPD2     H14338   3.980   0.650  15.055 -2.2703 -1.2651  2.5669
    1MPD2    H114339   4.387   0.581  15.159  0.4287 -0.1550  0.9469
    1MPD2    H214340   4.158   0.831  15.409  1.3343 -0.9448  0.0926
    1MPD2    H314341   4.361   0.711  15.355 -0.2280  0.1173 -0.4907
    1MPD2     N14342   4.205   0.530  14.979 -0.1717  0.3317  0.3467
    1MPD2    H514343   4.298   0.498  14.954 -0.0405 -0.8425  2.3260
    1MPD2    N114344   3.926   0.824  15.263 -0.5021 -0.1709 -0.6523
    1MPD2    H714345   3.920   0.900  15.331  1.2940  0.3766 -1.1037
    2TMC3    C114346   3.699   0.898  15.233  0.3879  0.3816  0.1075
    2TMC3    C214347   3.584   0.835  15.185  0.3550 -0.1043 -0.4500
    2TMC3    C314348   3.495   0.900  15.107 -0.5573  0.8135  0.6201
    2TMC3    C414349   3.721   1.027  15.198 -0.8483 -0.2625  0.3667
    2TMC3    C514350   3.623   1.091  15.124  0.0331  0.2397 -0.3268
    2TMC3    C614351   3.504   1.031  15.082 -0.4694 -0.1848  0.2406
    2TMC3     C14352   3.806   0.805  15.198 -0.3924 -0.0006  0.0312
    2TMC3     O14353   3.775   0.716  15.116 -0.3298 -0.7307  0.4300
    2TMC3     H14354   3.573   0.730  15.208  2.0864 -0.2284 -0.2218
    2TMC3    H114355   3.789   1.099  15.243  2.1718 -1.2176 -2.6693
    2TMC3    H214356   3.429   1.082  15.023  0.4487  0.3570 -0.4707
    2TMC3    C714357   3.621   1.238  15.124  0.1490 -0.7317 -0.1373
    2TMC3    C814358   3.458   0.824  14.991  0.2657 -0.9887  0.0997
    2TMC3    O114359   3.507   1.287  15.122 -0.7662  0.5310  0.0023
    2TMC3    O214360   3.359   0.866  14.934 -0.1818  0.1813 -0.8115
    3TCq1    O114361   4.582   2.063  15.048 -0.0954  0.2603 -0.1988
    3TCq1    C114362   4.470   2.073  14.976 -0.0086 -0.3295 -0.5951
    3TCq1    O214363   4.403   2.172  14.965 -0.4721 -0.3385 -0.1761
    3TCq1    C214364   4.416   1.941  14.959 -0.4970  0.5421 -0.0447
    3TCq1    C314365   4.502   1.837  14.952  0.1995 -0.4600 -0.3797
    3TCq1    C414366   4.450   1.711  14.938 -0.2890  0.0975  0.2787
    3TCq1    C514367   4.309   1.690  14.933 -0.2004  0.0315  0.2974
    3TCq1    C614368   4.229   1.796  14.944  0.0008 -0.2267  0.3330
    3TCq1    C714369   4.283   1.931  14.951 -0.0534 -0.0152 -0.2686
    3TCq1    C814370   4.090   1.781  14.970 -1.3466 -0.9946  0.7403
    3TCq1    O414371   4.021   1.884  14.974  0.3323 -0.1836 -0.3873
    3TCq1    C914372   4.541   1.598  14.928 -0.3806  0.2962  0.3700
    3TCq1    O514373   4.482   1.487  14.903 -0.0069 -0.0864  0.3231
    3TCq1    O614374   4.662   1.618  14.938  0.3830  0.1823  0.6220
    3TCq1    H114375   4.622   1.980  15.015 -0.7730 -0.5109  0.9104
    3TCq1    H214376   4.609   1.850  14.958 -0.1299  0.8191  3.1590
    3TCq1    H314377   4.274   1.588  14.925 -1.8868  0.5709  0.6823
    3TCq1    H414378   4.224   2.019  14.973  0.0712 -0.2797  1.0919
    4MPD2     C14379   3.821   1.709  15.067 -0.1287  0.3482  0.3965
    4MPD2    C114380   3.925   1.619  15.049 -0.3002  0.1198  0.0600
    4MPD2    C214381   3.896   1.485  15.062  0.5793 -0.8916  0.2468
    4MPD2    C314382   3.772   1.434  15.093  0.3445 -0.7135 -0.6449
    4MPD2    C414383   3.675   1.526  15.120 -0.1834  0.5912 -0.0127
    4MPD2    C514384   3.699   1.662  15.103  0.0775 -0.5023  0.3821
    4MPD2     H14385   3.973   1.410  15.048  2.9842  1.9298 -1.5764
    4MPD2    H114386   3.574   1.501  15.151  0.1256 -1.8713 -1.0551
    4MPD2    H214387   3.829   1.815  15.046 -1.2489  0.0015 -1.7119
    4MPD2    H314388   3.618   1.732  15.121 -0.0604 -0.3051 -1.0142
    4MPD2     N14389   3.747   1.294  15.111 -0.2078  0.2384  0.6578
    4MPD2    H514390   3.829   1.238  15.092  0.2765  0.7448  1.2181
    4MPD2    N114391   4.055   1.651  14.995 -0.4926  1.0936  1.0130
    4MPD2    H714392   4.127   1.580  14.989 -1.6921  0.2190 -3.2285
    5TMC2    C114393   4.040   0.441  14.566  0.1097  0.2183 -0.2891
    5TMC2    C214394   4.147   0.514  14.516 -0.1139 -0.7996 -0.0701
    5TMC2    C314395   4.259   0.535  14.589  0.7133 -0.8619 -0.3130
    5TMC2    C414396   4.052   0.393  14.696 -0.3763  0.0440 -0.5119
    5TMC2    C514397   4.160   0.430  14.771 -0.0916  0.2822  0.0279
    5TMC2    C614398   4.260   0.508  14.723  0.3036 -0.0305  0.2040
    5TMC2     C14399   3.913   0.480  14.521  0.2980  0.3074 -0.5407
    5TMC2     O14400   3.893   0.498  14.402  0.0245 -0.6726  0.2139
    5TMC2     H14401   4.134   0.566  14.422  2.3810 -1.0786 -0.5516
    5TMC2    H114402   3.978   0.328  14.741  0.6690 -0.7628  0.0351
    5TMC2    H214403   4.350   0.522  14.782  1.2518 -3.5490 -0.4065
    5TMC2    C714404   4.107   0.485  14.896 -0.0820  0.0700  0.5142
    5TMC2    C814405   4.381   0.604  14.544 -0.2831 -0.5801  0.1910
    5TMC2    O114406   3.985   0.485  14.915 -0.5087 -0.0352  0.1385
    5TMC2    O214407   4.487   0.606  14.608  0.7102  0.3404  0.3642
    5TMC2    O514408   4.350   0.684  14.439 -0.5216  0.1317 -0.2987
    5TMC2    H514409   4.257   0.692  14.410 -0.2357  0.7279 -1.0400
    6MPD2     C14410   3.482   0.712  14.713  0.1425  0.0261 -0.3115
    6MPD2    C114411   3.570   0.684  14.818  0.4469 -0.2037  0.0947
    6MPD2    C214412   3.688   0.630  14.789 -0.7705  0.2047 -0.1536
    6MPD2    C314413   3.722   0.593  14.659 -0.1246  0.4436 -0.2674
    6MPD2    C414414   3.628   0.611  14.557 -0.3268  0.1221 -0.4006
    6MPD2    C514415   3.512   0.671  14.584 -0.5951 -0.1526  0.6717
    6MPD2     H14416   3.770   0.628  14.860 -2.9150  0.0086  2.3628
    6MPD2    H114417   3.651   0.575  14.458  0.1067 -0.3857 -0.1137
    6MPD2    H214418   3.383   0.753  14.728 -0.6443 -1.5826 -1.0585
    6MPD2    H314419   3.440   0.702  14.508  0.2159 -0.3696 -0.1919
    6MPD2     N14420   3.845   0.519  14.635 -0.5672  0.1521  0.5233
    6MPD2    H514421   3.902   0.499  14.716 -2.1095  0.3139  1.6329
    6MPD2    N114422   3.553   0.736  14.950  0.3235  0.0106 -0.0387
    6MPD2    H714423   3.632   0.727  15.013  0.5641  1.2689 -0.1484
  945NH3     N114424   2.135   3.071  12.661 -0.0072  0.0580  0.3684
  945NH3     H214425   2.071   3.143  12.629  0.8900  0.4160 -0.6334
  945NH3     H314426   2.083   2.987  12.640 -2.0849  0.8254  2.4898
  945NH3     H414427   2.118   3.063  12.761  1.4300 -0.8954  0.5379
  946SOD     NA14428   2.849   4.699  12.752 -0.4118 -0.2384 -0.1874
  947SOD     NA14429   1.505   1.098  13.117 -0.3215  0.4914 -0.4708
  948SOD     NA14430   0.873   4.483  16.924 -0.2022 -0.6221 -0.4542
  949SOD     NA14431   4.261   1.969   2.071  0.7004  0.0238  0.0818
  950SOD     NA14432   0.099   2.336   8.722 -0.2452 -0.1216 -0.0567
  951SOD     NA14433   3.777   3.264   7.958 -0.2827 -0.4556 -0.0487
  952SOD     NA14434   3.691   1.207   2.470  0.0492 -0.2788 -0.2399
  953SOD     NA14435   1.233   4.307  11.920 -0.4324  0.0029  0.1647
  954SOD     NA14436   1.647   1.523  13.175 -0.3567  0.2684 -0.5763
  955SOD     NA14437   2.597   4.271  13.657  0.3148  0.2705  0.0669
  956SOD     NA14438   3.847   2.638   9.179 -0.0522  0.2509 -0.1176
  957SOD     NA14439   1.570   4.079  16.818 -0.0606 -0.1109 -0.5043
  958SOD     NA14440   1.553   2.169  14.423 -0.3910 -0.1088  0.0463
  959SOD     NA14441   2.858   3.681  14.980  0.1849 -0.1865  0.0059
  960SOD     NA14442   1.845   2.787  11.537  0.1536 -0.3555  0.3755
  961SOD     NA14443   3.317   1.787   3.018  0.3149  0.0123 -0.3517
  962SOD     NA14444   0.646   0.571  11.663  0.0294  0.3915  0.3358
  963SOD     NA14445   1.339   4.477  11.680  0.6605 -0.0229 -0.0583
  964SOD     NA14446   1.587   1.458   2.797 -0.4510  0.4937 -0.1548
  965SOD     NA14447   1.739   4.219   0.674  0.0839 -0.4930  0.3306
  966SOD     NA14448   2.190   0.688  14.964 -0.1977 -0.6085 -0.0961
  967SOD     NA14449   2.156   3.942   6.238  0.8112 -0.1695 -0.0468
  968SOD     NA14450   3.700   4.619  10.716 -0.3753  0.1113  0.7821
  969SOD     NA14451   4.056   3.955  10.902  0.1075 -0.2079  0.2419
  970SOD     NA14452   1.713   2.716   1.456 -0.2931  0.3797  0.2929
  971SOD     NA14453   1.130   0.314  11.761  0.3269  0.3848  0.0290
  972SOD     NA14454   1.278   1.510   1.454  0.3986  0.7057  0.1727
  973SOD     NA14455   0.227   3.089  10.517  0.3164  0.3001  0.1825
  974SOD     NA14456   0.792   2.651  12.904 -0.0536 -0.1996  0.0534
  975SOD     NA14457   2.737   3.815   1.684 -0.1907  0.4442 -0.3814
  976SOD     NA14458   2.570   3.545  12.653  0.0734 -0.4235  0.4212
  977SOD     NA14459   1.428   4.194  10.196  0.4386  0.0981  0.1845
  978SOD     NA14460   1.214   2.775   3.491 -0.2485 -0.1259  0.2882
  979SOD     NA14461   1.023   4.088  12.971 -0.0873  0.1277  0.0063
  980SOD     NA14462   1.378   0.195  13.866  0.0800 -0.5584 -0.3186
  981SOD     NA14463   3.086   3.940  11.111 -0.5752 -0.5473  0.2647
  982SOD     NA14464   1.054   1.002  17.294 -0.2568  0.2810 -0.2718
  983SOD     NA14465   1.265   4.390   0.898  0.1379  0.0439 -0.5414
  984SOD     NA14466   3.856   0.212   4.259  0.0969 -0.0160 -0.2600
  985SOD     NA14467   0.861   3.760   8.651 -0.3991  0.2227 -0.2969
  986SOD     NA14468   1.260   1.690  15.111  0.1971  1.0141  0.2837
  987SOD     NA14469   0.615   4.293   0.017 -0.3470 -0.3431  0.7563
  988SOD     NA14470   0.046   3.368  10.146 -0.1542  0.1213  0.0427
  989SOD     NA14471   1.163   3.903  16.410 -0.0482  0.0641 -0.1906
  990SOD     NA14472   3.766   2.098   7.104  0.5443 -0.4578  0.4517
  991SOD     NA14473   1.999   1.169  14.145  0.5593  0.6014 -0.0747
  992SOD     NA14474   0.483   1.246  14.151 -0.1225  0.2160 -0.6307
  993SOD     NA14475   0.764   1.745  11.619 -0.3920 -0.6962  0.1320
  994SOD     NA14476   2.522   3.515  13.576  0.1498 -0.4196 -0.3412
  995SOD     NA14477   2.117   1.250  15.952 -0.1326  0.0984 -0.3744
  996SOD     NA14478   4.362   3.089   3.372 -0.1383  0.0921  0.0945
  997SOD     NA14479   1.943   0.267   9.617  0.0168 -0.1194  0.2262
  998SOD     NA14480   1.949   1.159   3.601 -0.3558 -0.0879  0.0892
  999SOD     NA14481   4.209   2.675   9.408  0.1095  0.0832 -0.1325
 1000SOD     NA14482   4.059   1.162   2.277  0.0047  0.5873 -0.3439
 1001SOD     NA14483   1.310   0.426   1.711 -0.1570 -0.1792 -0.3259
 1002SOD     NA14484   2.758   1.604  13.372 -0.6076 -0.1890 -0.2451
 1003SOD     NA14485   4.611   0.253   9.574 -0.0500 -0.1535  0.0937
 1004SOD     NA14486   0.611   0.201  12.736  0.6567 -0.1462 -0.4110
 1005SOD     NA14487   3.666   4.395  13.451  0.3139  0.2217  0.2492
 1006SOD     NA14488   4.558   4.557   5.041 -0.0970  0.0227  0.1553
 1007SOD     NA14489   2.451   3.674   1.610  0.0396  0.3643 -0.2580
 1008SOD     NA14490   4.458   1.064  15.062  0.0327 -0.6585 -0.4811
 1009SOD     NA14491   4.536   1.283  14.896 -0.0578 -0.2218  0.0855
 1010SOD     NA14492   0.378   2.841  10.370 -0.0695 -0.0217  0.3612
 1011SOD     NA14493   0.641   1.546  10.306 -0.1872 -0.0677 -0.3196
 1012SOL     OW14494   0.511   3.599   0.443 -0.3386 -0.0831  0.1242
 1012SOL    HW114495   0.488   3.570   0.355 -2.3168 -0.4124  0.7323
 1012SOL    HW214496   0.601   3.568   0.440 -0.6106 -1.0337  1.5115
 1013SOL     OW14497   2.382   0.061   5.732 -0.1533 -0.0313 -0.1685
 1013SOL    HW114498   2.343   4.694   5.716  1.2315 -0.6166 -0.4169
 1013SOL    HW214499   2.473   0.044   5.708 -0.0597  1.2109 -0.6868
 1014SOL     OW14500   3.316   4.275  13.088  0.2038  0.6083  0.2681
 1014SOL    HW114501   3.233   4.236  13.115 -0.1685 -0.2425 -2.0675
 1014SOL    HW214502   3.327   4.227  13.006  1.2750 -0.9463  1.3260
 1015SOL     OW14503   2.760   4.245  16.259 -0.2729  0.0952  0.0933
 1015SOL    HW114504   2.758   4.327  16.210 -1.5549  0.1380  0.2372
 1015SOL    HW214505   2.771   4.177  16.192 -1.6569 -0.5817  0.5599
 1016SOL     OW14506   2.455   3.487   8.711 -0.0411  0.0593 -0.7219
 1016SOL    HW114507   2.535   3.443   8.738 -1.0300 -0.9308  0.5866
 1016SOL    HW214508   2.445   3.551   8.782  0.3003  0.8123 -1.3585
 1017SOL     OW14509   3.660   0.321   4.750 -0.4630 -0.1117 -0.0645
 1017SOL    HW114510   3.600   0.319   4.824  0.7506 -1.4551  0.8632
 1017SOL    HW214511   3.617   0.388   4.696  3.5926  3.0731  0.6454
 1018SOL     OW14512   1.661   4.060  17.222  0.4479  0.3238 -0.1163
 1018SOL    HW114513   1.665   4.108  17.305  1.2734  0.4639 -0.2293
 1018SOL    HW214514   1.568   4.040  17.216  0.1558  1.8770 -0.8050
 1019SOL     OW14515   3.458   4.210   4.570  0.0868 -0.2852  0.3609
 1019SOL    HW114516   3.400   4.207   4.646  1.2435  0.0722  1.2672
 1019SOL    HW214517   3.412   4.275   4.517 -1.1987  0.3040  2.1963
 1020SOL     OW14518   1.882   3.175   6.871 -0.0617 -0.2915 -0.1995
 1020SOL    HW114519   1.966   3.143   6.841 -2.0028 -1.4387 -4.3626
 1020SOL    HW214520   1.900   3.260   6.912  1.2977 -0.1134 -1.1982
 1021SOL     OW14521   4.687   1.941   4.272  0.0962  0.0712 -0.6395
 1021SOL    HW114522   4.678   1.975   4.183 -2.0560  1.0809 -0.0365
 1021SOL    HW214523   4.608   1.891   4.294  0.3998 -0.1412 -0.0046
 1022SOL     OW14524   3.911   4.460   2.980  0.1408  0.2216 -0.0835
 1022SOL    HW114525   3.865   4.441   3.061  1.4179 -0.1994  0.5486
 1022SOL    HW214526   3.960   4.537   3.009  1.6108 -1.1307  1.0503
 1023SOL     OW14527   0.626   2.954   5.497  0.0980  0.3720 -0.1851
 1023SOL    HW114528   0.657   3.010   5.568 -0.8531 -0.7379  1.0936
 1023SOL    HW214529   0.608   2.868   5.534 -0.6712  1.1271  1.1760
 1024SOL     OW14530   3.475   3.185   8.274 -0.3788 -0.2574 -0.0753
 1024SOL    HW114531   3.415   3.118   8.242 -1.5265 -0.0731  1.6928
 1024SOL    HW214532   3.556   3.133   8.283 -1.3717 -1.5212  1.5609
 1025SOL     OW14533   4.061   1.710  10.819 -0.4289 -0.1517 -0.0726
 1025SOL    HW114534   4.076   1.630  10.768  1.1378 -1.2284  2.0901
 1025SOL    HW214535   4.085   1.680  10.906 -1.1694 -1.7898 -0.4485
 1026SOL     OW14536   4.524   3.135   4.314  0.1801 -0.2582  0.0624
 1026SOL    HW114537   4.442   3.174   4.282 -0.6085 -1.9619 -0.0169
 1026SOL    HW214538   4.596   3.160   4.257 -0.1188  3.1250  1.2017
 1027SOL     OW14539   0.984   4.184  17.514  0.3515  0.7599  0.4918
 1027SOL    HW114540   0.909   4.132  17.545 -0.7845  2.1033  0.0272
 1027SOL    HW214541   0.982   4.264  17.565 -2.0318  1.0579 -0.0399
 1028SOL     OW14542   3.724   2.593   3.664  0.2987  0.2503 -0.1690
 1028SOL    HW114543   3.800   2.622   3.613  0.4846 -1.4849 -0.8763
 1028SOL    HW214544   3.766   2.582   3.750 -0.8903  3.9022  0.8508
 1029SOL     OW14545   2.543   1.768  16.975  0.1059  0.2384 -0.1194
 1029SOL    HW114546   2.529   1.812  17.059 -0.4578  0.4368 -0.3175
 1029SOL    HW214547   2.534   1.681  17.013  0.4312 -0.2229 -1.1178
 1030SOL     OW14548   0.681   0.128  15.497 -0.0511  0.2395  0.3597
 1030SOL    HW114549   0.686   0.036  15.471  0.5631  0.5020 -0.4130
 1030SOL    HW214550   0.684   0.171  15.412  1.5019 -0.1797  0.2073
 1031SOL     OW14551   1.760   4.429   5.074  0.0759  0.2270 -0.1876
 1031SOL    HW114552   1.681   4.459   5.031  1.3568  1.6374 -1.5516
 1031SOL    HW214553   1.823   4.476   5.019  0.3058  1.6242  1.2625
 1032SOL     OW14554   2.003   2.583   7.495 -0.8013 -0.3707 -0.4846
 1032SOL    HW114555   2.021   2.660   7.441 -1.1520  0.9391  1.2724
 1032SOL    HW214556   1.910   2.600   7.507 -0.8666 -0.5891 -0.6887
 1033SOL     OW14557   4.021   2.795   5.188 -0.1963 -0.1537  0.7447
 1033SOL    HW114558   3.974   2.861   5.240 -0.2215 -1.8069  2.8032
 1033SOL    HW214559   4.106   2.787   5.230  0.3023 -0.5208 -0.3663
 1034SOL     OW14560   0.437   3.471   6.807 -0.5788 -0.9700  0.2672
 1034SOL    HW114561   0.342   3.475   6.819 -0.3614 -0.8890  1.9570
 1034SOL    HW214562   0.462   3.380   6.823  1.0380 -0.4446  0.7465
 1035SOL     OW14563   1.071   0.553   4.268 -0.6112  0.2376 -0.0083
 1035SOL    HW114564   1.133   0.487   4.236 -1.4676  0.5141 -2.2312
 1035SOL    HW214565   1.005   0.554   4.200  0.2532  1.5342 -0.8288
 1036SOL     OW14566   2.487   3.190   0.396  0.2858  0.3067 -0.5042
 1036SOL    HW114567   2.451   3.275   0.422 -0.1891  0.1316 -0.5957
 1036SOL    HW214568   2.419   3.143   0.350  0.4594 -1.3222  0.9036
 1037SOL     OW14569   2.896   1.806   9.548  0.0107  0.5709  0.3161
 1037SOL    HW114570   2.817   1.824   9.598 -0.4100 -1.5129  0.3967
 1037SOL    HW214571   2.889   1.714   9.525  4.6184  0.1333  0.5348
 1038SOL     OW14572   0.144   1.840  10.951  0.4973  0.0715  0.4389
 1038SOL    HW114573   0.122   1.931  10.971 -0.0134 -0.1531  0.8973
 1038SOL    HW214574   0.094   1.802  11.023  1.7953  1.4327  2.0675
 1039SOL     OW14575   0.897   3.989   4.236 -0.1883 -0.3290 -0.3540
 1039SOL    HW114576   0.878   4.058   4.173  1.8115 -1.4430 -2.1668
 1039SOL    HW214577   0.872   3.917   4.177 -1.5555  1.5913 -2.0950
 1040SOL     OW14578   1.637   1.303   4.975  0.6088 -0.5021  0.4256
 1040SOL    HW114579   1.695   1.247   5.025  1.8486 -1.0908 -1.6572
 1040SOL    HW214580   1.659   1.286   4.883 -1.3531 -0.7578 -0.0065
 1041SOL     OW14581   3.103   2.830  10.531 -0.2281  0.2094  0.4033
 1041SOL    HW114582   3.016   2.863  10.557  0.4111 -0.3622  3.3206
 1041SOL    HW214583   3.136   2.904  10.482 -0.0610  1.3362  2.2062
 1042SOL     OW14584   4.558   4.302  15.308 -1.1209  0.2096  0.4229
 1042SOL    HW114585   4.589   4.211  15.307 -2.2295 -0.1095 -3.6946
 1042SOL    HW214586   4.543   4.323  15.401 -0.2701  0.1975  0.5597
 1043SOL     OW14587   0.375   4.271   8.149 -0.7860 -0.6227  0.2594
 1043SOL    HW114588   0.348   4.181   8.130  1.0250 -1.0723 -0.1705
 1043SOL    HW214589   0.348   4.286   8.240 -1.6647 -2.4407  0.3163
 1044SOL     OW14590   3.307   2.134  11.692  0.1804 -0.1908  0.0445
 1044SOL    HW114591   3.389   2.088  11.707  0.3063 -0.3422 -1.1293
 1044SOL    HW214592   3.246   2.060  11.687 -0.0868  0.1213 -1.2638
 1045SOL     OW14593   0.589   0.279   3.609  0.7985 -0.1962 -0.8517
 1045SOL    HW114594   0.531   0.231   3.668 -0.4476  0.9377 -1.1433
 1045SOL    HW214595   0.632   0.209   3.561  2.1966 -0.4131  0.7083
 1046SOL     OW14596   4.226   1.052   4.146 -0.0712 -0.4923 -0.5164
 1046SOL    HW114597   4.191   0.965   4.165  1.7536 -1.3458 -1.0528
 1046SOL    HW214598   4.210   1.054   4.052 -1.2077 -1.5343 -0.3384
 1047SOL     OW14599   4.199   1.787   9.245  0.0658 -0.0577  0.4081
 1047SOL    HW114600   4.181   1.837   9.165 -1.8300 -0.7046  0.4308
 1047SOL    HW214601   4.280   1.742   9.222  0.7723  1.1706  0.4551
 1048SOL     OW14602   0.622   4.051  11.698 -0.3909 -0.3002  0.4766
 1048SOL    HW114603   0.543   4.058  11.753 -0.7472 -1.6805  0.1385
 1048SOL    HW214604   0.604   4.120  11.635  1.5049 -0.9358 -0.7585
 1049SOL     OW14605   3.915   4.379   3.722  0.2954 -0.0960  0.3465
 1049SOL    HW114606   4.009   4.363   3.728  0.5082  1.2489  0.6226
 1049SOL    HW214607   3.888   4.331   3.801 -3.6412  2.6073  0.6694
 1050SOL     OW14608   3.370   3.150  11.930  0.1486 -0.0796 -0.0217
 1050SOL    HW114609   3.394   3.097  11.854  1.3378  1.1712 -0.5209
 1050SOL    HW214610   3.456   3.185  11.955  1.1790 -2.2020 -0.5594
 1051SOL     OW14611   2.415   2.083   0.300  0.0743  0.4492 -0.7137
 1051SOL    HW114612   2.476   2.025   0.346 -1.5502  0.5455  1.5698
 1051SOL    HW214613   2.340   2.055   0.352  0.0616 -2.6094 -2.3812
 1052SOL     OW14614   0.949   1.362   3.237 -0.3135  0.1919  0.0354
 1052SOL    HW114615   0.926   1.303   3.309 -0.1002 -0.4589 -0.4205
 1052SOL    HW214616   0.885   1.432   3.246 -1.4834 -1.1585  2.3341
 1053SOL     OW14617   0.637   3.610   6.204  0.3035  0.1277 -0.6364
 1053SOL    HW114618   0.724   3.600   6.166  0.6538  0.6930  0.0139
 1053SOL    HW214619   0.634   3.540   6.269 -2.1043  1.0943  0.3141
 1054SOL     OW14620   0.508   0.579   2.872  0.1956 -0.0441  0.1771
 1054SOL    HW114621   0.481   0.564   2.782  1.3661  0.8425 -0.3237
 1054SOL    HW214622   0.446   0.647   2.900 -0.6400 -0.3862 -0.8297
 1055SOL     OW14623   1.793   4.429  13.021 -0.3356 -0.3890 -0.0773
 1055SOL    HW114624   1.783   4.334  13.017 -0.1822 -0.4850  2.1781
 1055SOL    HW214625   1.723   4.459  12.962  0.8072  1.4149 -0.5040
 1056SOL     OW14626   3.822   1.393   2.582 -0.0588 -0.2591 -0.1631
 1056SOL    HW114627   3.775   1.465   2.540  0.0165  0.4396  0.9396
 1056SOL    HW214628   3.824   1.418   2.675 -1.0909  2.3114 -0.8320
 1057SOL     OW14629   0.804   1.363  14.778  0.1259  0.0409 -0.0512
 1057SOL    HW114630   0.774   1.446  14.815 -1.4354 -0.9289  0.8527
 1057SOL    HW214631   0.746   1.298  14.819 -2.6680  2.1462 -0.6308
 1058SOL     OW14632   1.574   2.532  12.452  0.5842  0.0055  0.2057
 1058SOL    HW114633   1.546   2.603  12.510  1.6651  1.0205 -0.5140
 1058SOL    HW214634   1.507   2.468  12.478  0.8513  0.1370  1.2176
 1059SOL     OW14635   0.811   3.901  11.846  0.6852  0.0241  0.3062
 1059SOL    HW114636   0.749   3.949  11.791  1.1151 -0.2488 -0.4102
 1059SOL    HW214637   0.758   3.845  11.903 -1.3198  0.7041 -0.8758
 1060SOL     OW14638   1.047   4.100   0.246 -0.8686 -0.0425 -0.2194
 1060SOL    HW114639   0.989   4.152   0.191 -1.3019 -0.3332 -0.0405
 1060SOL    HW214640   1.056   4.025   0.187  1.6276 -1.4528  1.9601
 1061SOL     OW14641   3.031   4.654   5.044 -0.3199  0.4752  0.2819
 1061SOL    HW114642   3.115   4.609   5.047  0.2452  1.3236 -2.3831
 1061SOL    HW214643   3.017   4.694   4.958  0.8430  1.4733  0.5638
 1062SOL     OW14644   2.424   1.796   6.494  0.1797  0.1597  0.0726
 1062SOL    HW114645   2.354   1.746   6.453 -0.4427  0.1115  1.1996
 1062SOL    HW214646   2.499   1.757   6.450 -0.7510  2.3124 -3.4224
 1063SOL     OW14647   2.203   4.464   3.724  0.2105  0.1674 -0.0575
 1063SOL    HW114648   2.258   4.392   3.754 -0.0125 -0.3762 -0.9434
 1063SOL    HW214649   2.117   4.422   3.732 -0.3226  1.2536 -0.1018
 1064SOL     OW14650   3.102   4.378   0.501  0.4188 -0.3409 -0.8433
 1064SOL    HW114651   3.049   4.436   0.556  1.8213  1.3733 -1.2755
 1064SOL    HW214652   3.037   4.342   0.440 -0.9565 -3.0216  2.1750
 1065SOL     OW14653   3.652   1.968  10.192  0.6612 -0.1560  0.0378
 1065SOL    HW114654   3.695   1.895  10.147  0.8868 -2.2526  3.6008
 1065SOL    HW214655   3.579   1.919  10.230 -0.1701  1.5472  0.6286
 1066SOL     OW14656   0.364   4.683   2.138  0.5182  0.1003 -0.3110
 1066SOL    HW114657   0.338   0.035   2.080 -0.5156 -0.8687 -1.0254
 1066SOL    HW214658   0.280   4.648   2.166  0.0606  1.5882  0.1786
 1067SOL     OW14659   3.498   4.539  12.483  0.3283  0.3091 -0.1877
 1067SOL    HW114660   3.501   4.443  12.490 -1.5022  0.2361 -0.3156
 1067SOL    HW214661   3.517   4.538  12.389 -3.2074  2.2919 -0.9006
 1068SOL     OW14662   3.854   1.530  14.626  0.3687  0.0132  0.0425
 1068SOL    HW114663   3.869   1.622  14.646 -1.0694 -0.2560  2.2577
 1068SOL    HW214664   3.941   1.517  14.587  0.3257  1.6027 -0.5930
 1069SOL     OW14665   1.316   2.143  17.324  0.2535  0.6305  0.6135
 1069SOL    HW114666   1.286   2.156  17.234 -1.0222 -0.1436  0.9210
 1069SOL    HW214667   1.405   2.178  17.319  0.5260 -0.1545 -0.1825
 1070SOL     OW14668   1.860   2.215  17.235  0.1098  0.5360 -0.3684
 1070SOL    HW114669   1.882   2.305  17.212  2.7671 -0.0084  0.0119
 1070SOL    HW214670   1.946   2.175  17.244 -0.8242 -1.0604  1.6703
 1071SOL     OW14671   2.869   4.579   8.472 -0.9073  0.2078  0.2445
 1071SOL    HW114672   2.831   4.493   8.453  0.2924 -0.2273 -0.1314
 1071SOL    HW214673   2.941   4.582   8.410 -0.9310 -0.3252  0.1946
 1072SOL     OW14674   3.068   3.883   6.058 -0.1987 -0.5498  0.0303
 1072SOL    HW114675   3.154   3.899   6.098 -1.1392  0.6994  1.5509
 1072SOL    HW214676   3.004   3.887   6.129 -1.7763 -1.6119 -1.3369
 1073SOL     OW14677   3.040   3.205   8.762 -0.5656 -0.4281 -0.4803
 1073SOL    HW114678   3.124   3.198   8.807 -1.5600 -0.9318  1.3176
 1073SOL    HW214679   2.971   3.200   8.828  0.3137  2.0275  0.6370
 1074SOL     OW14680   1.496   2.880   7.852  0.0820  0.6240  0.3760
 1074SOL    HW114681   1.429   2.870   7.785  0.4285  0.8891 -0.0100
 1074SOL    HW214682   1.528   2.790   7.857 -1.2217  0.0779 -1.1411
 1075SOL     OW14683   3.352   0.820   1.975  0.0126  0.1254  0.0415
 1075SOL    HW114684   3.291   0.893   1.983  1.2072  1.0890  0.3614
 1075SOL    HW214685   3.323   0.769   1.900  1.3079  1.3756 -1.3102
 1076SOL     OW14686   2.452   3.970   7.617  0.2174  0.0979 -0.6321
 1076SOL    HW114687   2.392   3.964   7.691 -1.5233  0.7483 -1.9992
 1076SOL    HW214688   2.508   4.046   7.634  1.0959 -1.3578  2.9303
 1077SOL     OW14689   0.764   3.375   5.894  0.2928  0.4501  0.1432
 1077SOL    HW114690   0.787   3.321   5.818  0.4611  1.2352 -0.3660
 1077SOL    HW214691   0.800   3.461   5.869 -1.8572  1.9275  2.1735
 1078SOL     OW14692   0.338   3.467   3.682  0.2423  0.0808  0.4081
 1078SOL    HW114693   0.414   3.518   3.656 -0.0491  0.1871 -0.2282
 1078SOL    HW214694   0.312   3.535   3.743 -0.4525  0.1064  0.0861
 1079SOL     OW14695   3.820   0.013   3.232 -0.0860  0.4517  0.2080
 1079SOL    HW114696   3.864   0.057   3.305 -2.1882  1.3476  0.9384
 1079SOL    HW214697   3.900   0.008   3.180  0.7523 -1.6861  1.7219
 1080SOL     OW14698   3.327   1.315   4.421 -0.1257 -0.5161  0.3369
 1080SOL    HW114699   3.327   1.276   4.333 -0.5262 -2.6197  1.2779
 1080SOL    HW214700   3.377   1.394   4.399 -0.4175  0.0241  1.6068
 1081SOL     OW14701   1.685   1.893  10.581 -0.1817 -1.1193 -0.3838
 1081SOL    HW114702   1.613   1.862  10.525 -0.0906 -1.5026 -0.2920
 1081SOL    HW214703   1.662   1.982  10.604 -0.2281 -1.2173 -0.0527
 1082SOL     OW14704   0.656   4.685   6.913  0.1629  0.4831 -0.0072
 1082SOL    HW114705   0.740   4.695   6.958  0.0588  0.5521  0.1708
 1082SOL    HW214706   0.597   0.014   6.971  0.4419  0.8968 -0.0663
 1083SOL     OW14707   1.585   2.962   7.065  0.5097 -0.4446 -0.0945
 1083SOL    HW114708   1.613   3.041   7.112  0.6423 -0.4464 -0.1713
 1083SOL    HW214709   1.624   2.894   7.120  2.2735  0.1883 -0.5561
 1084SOL     OW14710   1.231   4.395   0.067  0.1820  1.0360 -0.0125
 1084SOL    HW114711   1.208   4.370   0.157 -1.6302  2.5371 -0.0568
 1084SOL    HW214712   1.147   4.423   0.031 -0.6951  1.1220  2.0732
 1085SOL     OW14713   0.222   4.708   3.145  0.6364  0.3043 -0.0096
 1085SOL    HW114714   0.203   0.070   3.192  1.3369  0.7427 -0.4657
 1085SOL    HW214715   0.281   4.665   3.206  1.2303  1.5092  0.2741
 1086SOL     OW14716   1.024   2.808   4.775  0.3761 -0.5239 -0.0512
 1086SOL    HW114717   1.060   2.815   4.863  1.7921 -3.5124 -0.3639
 1086SOL    HW214718   0.999   2.898   4.757  2.2898  0.6428  3.1213
 1087SOL     OW14719   4.400   1.413  11.038 -0.0568 -0.2513 -0.1188
 1087SOL    HW114720   4.394   1.354  11.113 -1.9773 -0.6852 -0.6052
 1087SOL    HW214721   4.493   1.418  11.019  0.0754  0.3903  0.6781
 1088SOL     OW14722   1.013   2.190  13.475 -0.1771  0.5277  0.0359
 1088SOL    HW114723   1.064   2.206  13.555  2.7546  0.3067 -1.8048
 1088SOL    HW214724   1.011   2.095  13.480 -0.6205  0.5961  1.2004
 1089SOL     OW14725   0.682   1.782  13.907 -0.3081 -0.5073 -0.2580
 1089SOL    HW114726   0.663   1.735  13.988 -0.2640  2.5295  1.5047
 1089SOL    HW214727   0.763   1.830  13.920 -0.2687 -0.7772  0.4908
 1090SOL     OW14728   4.632   3.935   7.065  0.2577  0.2617 -0.0199
 1090SOL    HW114729   4.689   3.876   7.017 -2.1355 -1.7879 -0.3737
 1090SOL    HW214730   4.589   3.881   7.132 -0.4431  0.2221 -0.4959
 1091SOL     OW14731   0.357   4.574  10.543 -0.3052  0.1148  0.0897
 1091SOL    HW114732   0.341   4.480  10.544  0.5482 -0.0255  0.2759
 1091SOL    HW214733   0.267   4.597  10.566 -1.7072 -1.9368 -3.3081
 1092SOL     OW14734   2.293   2.230   8.305 -0.6519  0.2216 -0.4106
 1092SOL    HW114735   2.311   2.301   8.366  0.8861 -0.3412 -0.2233
 1092SOL    HW214736   2.354   2.168   8.345 -0.2073  0.8346 -0.1401
 1093SOL     OW14737   2.429   0.362   5.210  0.8255 -0.0388  0.1214
 1093SOL    HW114738   2.481   0.282   5.214  0.8543 -0.0280 -0.0342
 1093SOL    HW214739   2.444   0.390   5.300 -0.9210  0.0675  0.3682
 1094SOL     OW14740   0.521   0.845   4.760 -0.4581 -0.2879 -0.3678
 1094SOL    HW114741   0.564   0.785   4.699  0.2995  1.5027 -1.6018
 1094SOL    HW214742   0.594   0.897   4.792 -1.4598  1.2366 -0.5814
 1095SOL     OW14743   3.009   1.923   3.183 -0.2967 -0.4462 -0.1329
 1095SOL    HW114744   3.004   1.950   3.091  0.1146 -1.4470 -0.4441
 1095SOL    HW214745   3.029   1.831   3.166 -1.8470 -0.5970 -1.1112
 1096SOL     OW14746   2.099   4.189   5.538 -0.1527 -0.3453  0.1648
 1096SOL    HW114747   2.016   4.149   5.566 -0.9519  0.3405 -1.2416
 1096SOL    HW214748   2.071   4.241   5.462 -2.6265 -2.8276 -0.6100
 1097SOL     OW14749   3.212   1.827   0.502  0.4344  0.8406 -0.4532
 1097SOL    HW114750   3.227   1.734   0.481 -0.0716  0.5481  0.4818
 1097SOL    HW214751   3.197   1.858   0.413  2.6613 -1.8987 -1.7888
 1098SOL     OW14752   2.223   0.608   9.454  0.2592  0.7430 -0.1967
 1098SOL    HW114753   2.254   0.658   9.529 -2.1751 -1.4543  2.2626
 1098SOL    HW214754   2.235   0.665   9.378 -1.0759  1.0567 -0.1801
 1099SOL     OW14755   0.504   4.304   8.619 -0.1602  0.3225  0.4101
 1099SOL    HW114756   0.464   4.375   8.568 -1.1310 -0.0865  0.6039
 1099SOL    HW214757   0.586   4.346   8.645 -0.2164  0.3479  0.5470
 1100SOL     OW14758   1.336   2.392  13.732 -0.2057 -0.0650 -0.0961
 1100SOL    HW114759   1.381   2.318  13.691  0.9295  1.0828 -0.8914
 1100SOL    HW214760   1.397   2.463  13.714 -0.7942  0.3364 -0.5157
 1101SOL     OW14761   0.982   3.091  13.855 -0.0797 -0.2079 -0.9924
 1101SOL    HW114762   0.889   3.072  13.839 -0.7131  1.9519  0.1932
 1101SOL    HW214763   1.015   3.071  13.767 -2.7425  1.4860 -2.3820
 1102SOL     OW14764   0.867   3.886   7.120 -0.4842  0.0369 -0.4888
 1102SOL    HW114765   0.830   3.962   7.165 -2.3701 -0.9944 -0.2867
 1102SOL    HW214766   0.780   3.859   7.089 -0.1097 -0.1795 -1.3420
 1103SOL     OW14767   4.308   3.280   4.185 -0.0992  0.0567 -0.0562
 1103SOL    HW114768   4.244   3.344   4.153  1.1407  1.1185 -0.4381
 1103SOL    HW214769   4.310   3.215   4.115 -1.1745 -1.1586  1.0537
 1104SOL     OW14770   0.009   3.939   9.598  0.1491  0.5383  0.0396
 1104SOL    HW114771   0.084   3.879   9.604 -1.5905 -1.6613 -0.5637
 1104SOL    HW214772   4.661   3.872   9.587  1.9243 -1.2489  0.2159
 1105SOL     OW14773   4.342   4.465   5.106 -0.4238 -0.0568 -0.6695
 1105SOL    HW114774   4.352   4.383   5.154  0.1132  0.1748 -0.3863
 1105SOL    HW214775   4.254   4.496   5.127  0.7598  2.2005  0.9655
 1106SOL     OW14776   4.301   1.230   7.686 -0.5061 -0.3511  0.3226
 1106SOL    HW114777   4.206   1.222   7.696 -0.4627  0.5600  1.4621
 1106SOL    HW214778   4.321   1.281   7.764 -2.1917 -0.8283  1.0636
 1107SOL     OW14779   0.230   2.183   0.539  0.0063  0.7616  0.3003
 1107SOL    HW114780   0.259   2.265   0.578 -2.1709  0.9765  1.4520
 1107SOL    HW214781   0.201   2.135   0.617  3.4252 -1.8302 -0.0102
 1108SOL     OW14782   2.371   4.625   5.132 -0.1933  0.3117 -0.7888
 1108SOL    HW114783   2.408   4.538   5.122  1.5607  0.9174  0.3925
 1108SOL    HW214784   2.306   4.623   5.062 -0.2657 -0.8234 -0.6820
 1109SOL     OW14785   1.757   1.099   1.673 -0.2021 -0.3116 -0.0582
 1109SOL    HW114786   1.840   1.108   1.720  2.0395 -0.5286 -3.9143
 1109SOL    HW214787   1.781   1.155   1.599  2.2434  1.4705  2.0688
 1110SOL     OW14788   0.975   2.223  14.892  0.0346  0.0548 -0.1340
 1110SOL    HW114789   0.950   2.136  14.925 -0.2980  0.7846  1.5617
 1110SOL    HW214790   0.901   2.231  14.832 -0.9095  1.9280  1.2701
 1111SOL     OW14791   1.751   1.479   3.295  0.1769  0.0633 -0.0455
 1111SOL    HW114792   1.780   1.402   3.343 -0.1506 -0.1879 -0.2517
 1111SOL    HW214793   1.823   1.490   3.233  0.8537 -1.8774  0.4026
 1112SOL     OW14794   3.224   3.954   2.841 -0.3695 -0.3500  0.7950
 1112SOL    HW114795   3.302   3.962   2.897 -0.6920  1.2447  1.0145
 1112SOL    HW214796   3.220   4.042   2.803  0.7171 -0.7528 -0.2780
 1113SOL     OW14797   4.055   0.349  12.050 -0.4010  0.4673 -0.4891
 1113SOL    HW114798   4.026   0.353  11.959  0.8135  0.4653 -0.8799
 1113SOL    HW214799   4.133   0.404  12.040  0.3055 -0.6891 -1.3499
 1114SOL     OW14800   0.009   3.990   4.516  0.1471  0.3044  0.4895
 1114SOL    HW114801   0.091   4.040   4.516  0.7328 -0.6272  2.5796
 1114SOL    HW214802   4.666   4.049   4.559  1.4285  2.2445 -0.3361
 1115SOL     OW14803   1.711   4.241   5.785 -0.2195  0.2365  0.0281
 1115SOL    HW114804   1.689   4.324   5.826 -1.6500 -0.0249 -0.1850
 1115SOL    HW214805   1.783   4.215   5.843 -0.6227  1.5889  1.1194
 1116SOL     OW14806   3.601   3.575   4.528 -0.4209  0.1571  0.1745
 1116SOL    HW114807   3.614   3.497   4.475 -0.6764  0.7828 -0.8057
 1116SOL    HW214808   3.506   3.583   4.523 -0.2358  0.3353 -2.9124
 1117SOL     OW14809   4.497   4.257   3.245 -0.0160  0.6149 -0.2276
 1117SOL    HW114810   4.524   4.316   3.175  0.4305  2.1139  1.2105
 1117SOL    HW214811   4.482   4.318   3.316 -0.2290 -1.5638  1.5949
 1118SOL     OW14812   4.385   1.929   4.383  0.4106  0.3949  0.1346
 1118SOL    HW114813   4.383   1.888   4.296 -0.3926  1.7453 -0.4705
 1118SOL    HW214814   4.330   1.862   4.424  1.6776 -1.0287 -0.4483
 1119SOL     OW14815   1.304   3.820  11.629 -0.5873 -1.3713  0.5268
 1119SOL    HW114816   1.353   3.901  11.643 -0.6451 -1.2620  0.0997
 1119SOL    HW214817   1.371   3.753  11.620  0.3313 -0.7585  2.7883
 1120SOL     OW14818   0.352   0.508   5.151 -0.3659  0.3017 -0.6027
 1120SOL    HW114819   0.368   0.553   5.068 -0.2358  1.5763  0.1200
 1120SOL    HW214820   0.439   0.477   5.177 -0.9249 -0.5668  0.2523
 1121SOL     OW14821   1.977   2.475   6.205 -0.3165 -0.1425  0.1336
 1121SOL    HW114822   1.893   2.443   6.174 -0.2469  1.5134 -1.7764
 1121SOL    HW214823   1.944   2.539   6.268  0.2457 -2.4850  2.8138
 1122SOL     OW14824   3.103   1.743  10.037 -0.5749  0.3745  0.3534
 1122SOL    HW114825   3.197   1.761  10.046 -0.2306 -2.7545  2.7180
 1122SOL    HW214826   3.093   1.765   9.944 -2.3841 -1.1598  0.1797
 1123SOL     OW14827   1.883   4.291   0.825  0.5860  0.0328 -0.4686
 1123SOL    HW114828   1.923   4.371   0.860 -0.3997 -0.5494  1.9649
 1123SOL    HW214829   1.889   4.248   0.911  0.5858 -0.8522 -0.9109
 1124SOL     OW14830   1.187   1.124   1.533  0.4308  0.9154 -0.2125
 1124SOL    HW114831   1.179   1.214   1.503  1.2287  2.2097  3.3878
 1124SOL    HW214832   1.281   1.111   1.519  0.3143  1.3432 -1.3614
 1125SOL     OW14833   2.783   3.140   9.530  0.3390  0.2957  0.3043
 1125SOL    HW114834   2.719   3.151   9.460 -0.0693  0.5639  0.7137
 1125SOL    HW214835   2.766   3.228   9.564 -3.5359 -1.3816  2.7256
 1126SOL     OW14836   4.399   3.916  16.734  0.1525  0.2892 -0.0709
 1126SOL    HW114837   4.309   3.937  16.708 -0.3454 -3.8168 -1.6705
 1126SOL    HW214838   4.427   3.991  16.786 -0.5573 -0.3413  1.2110
 1127SOL     OW14839   1.121   2.523   0.393 -0.2662 -0.1913 -0.2441
 1127SOL    HW114840   1.048   2.462   0.384 -1.2028  0.9500 -0.3024
 1127SOL    HW214841   1.148   2.544   0.303  2.0613 -0.1316  0.4663
 1128SOL     OW14842   2.883   2.741   6.759  0.3496  0.1357 -0.0820
 1128SOL    HW114843   2.924   2.771   6.678 -0.6550 -2.3600 -1.4869
 1128SOL    HW214844   2.874   2.650   6.730  3.0841 -0.0840 -0.2454
 1129SOL     OW14845   1.910   0.867   2.144  0.3154  0.2442 -0.1546
 1129SOL    HW114846   1.940   0.784   2.107 -1.2142 -0.2877 -0.2029
 1129SOL    HW214847   1.955   0.869   2.229 -1.2395  0.3918  0.6800
 1130SOL     OW14848   2.032   4.226   6.470  0.2839  0.1945  0.1503
 1130SOL    HW114849   2.121   4.262   6.464  0.4282 -0.1179  0.4836
 1130SOL    HW214850   2.010   4.256   6.558 -1.0404  0.4037 -0.2506
 1131SOL     OW14851   3.917   0.627   7.102  0.2781 -0.4942  0.0184
 1131SOL    HW114852   3.844   0.573   7.130 -1.1468  2.5903  2.2960
 1131SOL    HW214853   3.955   0.589   7.023 -0.2392  0.6831 -0.8005
 1132SOL     OW14854   2.264   4.325   0.792 -0.6920  0.2242  0.6196
 1132SOL    HW114855   2.308   4.253   0.836 -0.1952  1.6825  2.5304
 1132SOL    HW214856   2.191   4.281   0.748  1.4214 -2.6761  0.0366
 1133SOL     OW14857   1.359   1.874   7.774 -0.2088 -0.1158  0.4126
 1133SOL    HW114858   1.413   1.951   7.793 -0.0558 -0.3349  0.8704
 1133SOL    HW214859   1.377   1.854   7.682 -1.8880  0.6594 -0.0779
 1134SOL     OW14860   4.625   3.117   2.356 -0.1235  0.3635  0.1688
 1134SOL    HW114861   4.536   3.151   2.348 -0.5369 -0.7558  0.0100
 1134SOL    HW214862   4.677   3.188   2.318 -2.1487  2.3839  1.1358
 1135SOL     OW14863   1.486   2.543   9.527 -0.4963 -0.2524  0.7949
 1135SOL    HW114864   1.506   2.526   9.436 -0.3400  1.1839  0.5537
 1135SOL    HW214865   1.397   2.509   9.534 -0.2497 -1.2865 -1.2540
 1136SOL     OW14866   1.782   3.432   8.819 -0.2371 -0.2453 -0.0328
 1136SOL    HW114867   1.844   3.504   8.811  1.2505 -1.4399  0.8284
 1136SOL    HW214868   1.739   3.449   8.903 -0.8695  1.6900 -0.7648
 1137SOL     OW14869   1.202   1.278   8.756 -0.0708  0.0102 -0.3921
 1137SOL    HW114870   1.200   1.309   8.665 -1.7469 -1.6128 -0.9032
 1137SOL    HW214871   1.128   1.332   8.784 -0.6060 -0.7390 -0.3603
 1138SOL     OW14872   2.704   4.531   2.108  0.1472 -0.3120 -0.4784
 1138SOL    HW114873   2.744   4.451   2.075  0.5502 -0.3632  0.1325
 1138SOL    HW214874   2.672   4.575   2.029  0.3419 -1.3235 -1.1212
 1139SOL     OW14875   0.739   2.035   3.706 -0.5410 -0.5241 -0.1260
 1139SOL    HW114876   0.816   2.009   3.656  1.5838 -0.1319  2.9972
 1139SOL    HW214877   0.666   1.985   3.668  0.1309 -1.9015  0.4192
 1140SOL     OW14878   0.759   1.637   9.154 -0.6001 -0.1907 -1.2768
 1140SOL    HW114879   0.732   1.556   9.111 -0.6753 -0.1911 -1.2276
 1140SOL    HW214880   0.846   1.659   9.120  0.1821  1.4097  1.7902
 1141SOL     OW14881   1.647   1.247   2.847  0.3417 -0.4418 -0.4504
 1141SOL    HW114882   1.639   1.182   2.776  3.0990  0.7217 -1.8301
 1141SOL    HW214883   1.579   1.207   2.901 -0.1107  0.0829 -0.6333
 1142SOL     OW14884   0.757   1.254  15.142 -0.2883  0.1224 -0.1247
 1142SOL    HW114885   0.686   1.280  15.201 -0.2059  1.6765 -0.7000
 1142SOL    HW214886   0.750   1.159  15.140  0.3747  0.0416  1.3391
 1143SOL     OW14887   3.949   1.775  12.705 -0.2804  0.3759  1.0555
 1143SOL    HW114888   3.880   1.785  12.772  0.5623 -2.2580  2.2918
 1143SOL    HW214889   4.024   1.761  12.763  0.7081  1.2352 -0.0131
 1144SOL     OW14890   3.367   2.198   2.070  0.4943 -0.5734  0.1421
 1144SOL    HW114891   3.418   2.247   2.005  2.0171 -1.4029  0.7135
 1144SOL    HW214892   3.303   2.260   2.104 -0.4613 -1.6678  0.3465
 1145SOL     OW14893   4.580   2.645   7.267  0.1807 -0.7343 -0.3933
 1145SOL    HW114894   4.660   2.692   7.248 -1.5192  2.4364  0.3236
 1145SOL    HW214895   4.579   2.586   7.191 -1.0483 -1.8433  0.4699
 1146SOL     OW14896   2.933   3.683  16.340  0.1867  0.4234  0.0972
 1146SOL    HW114897   2.990   3.628  16.286 -1.1256  0.5279 -1.4053
 1146SOL    HW214898   2.849   3.637  16.337  0.6264 -0.4407  1.2331
 1147SOL     OW14899   1.824   0.152   8.100 -0.7689 -0.3055 -0.2754
 1147SOL    HW114900   1.771   0.077   8.127 -1.0891  0.0464  0.0695
 1147SOL    HW214901   1.903   0.137   8.152 -1.3149  1.2490  0.9955
 1148SOL     OW14902   1.524   1.500   6.925  0.1234 -0.4738  0.3416
 1148SOL    HW114903   1.444   1.540   6.889 -0.7540 -1.2085  1.4636
 1148SOL    HW214904   1.513   1.406   6.914  0.5302 -0.7771  2.4886
 1149SOL     OW14905   1.777   2.968  13.967 -0.3636  0.0495  0.2925
 1149SOL    HW114906   1.703   2.988  13.911 -0.3117  1.5773  0.7899
 1149SOL    HW214907   1.856   3.015  13.940 -0.1984 -0.6387 -0.4214
 1150SOL     OW14908   2.554   1.963   2.710 -0.2416  0.1853 -0.2045
 1150SOL    HW114909   2.553   2.038   2.770  1.2569 -1.3950  1.7855
 1150SOL    HW214910   2.464   1.935   2.725 -0.6409  1.6144  0.1185
 1151SOL     OW14911   0.397   3.657   6.111 -0.0602  0.2680 -0.0571
 1151SOL    HW114912   0.390   3.646   6.016 -1.1337  2.4398 -0.2179
 1151SOL    HW214913   0.490   3.649   6.129 -0.0773 -0.0605 -0.1148
 1152SOL     OW14914   1.847   0.162   0.995 -0.0224 -0.4437 -0.3558
 1152SOL    HW114915   1.787   0.171   0.921 -2.9355  1.2138  2.1838
 1152SOL    HW214916   1.895   0.087   0.961  1.6281  0.3960  0.1205
 1153SOL     OW14917   2.235   4.350   7.389 -0.5172 -0.1461  0.2800
 1153SOL    HW114918   2.158   4.402   7.366 -0.2049  0.4861  0.6705
 1153SOL    HW214919   2.214   4.329   7.480 -0.2809  0.2825  0.4340
 1154SOL     OW14920   1.468   3.688  12.378  0.2299 -0.1412 -0.2429
 1154SOL    HW114921   1.461   3.721  12.289  0.9611 -1.8060 -0.9071
 1154SOL    HW214922   1.527   3.614  12.365  0.8064 -0.0032  1.4305
 1155SOL     OW14923   3.127   3.776   7.285  0.3246  0.2614  0.4567
 1155SOL    HW114924   3.067   3.748   7.354  0.7827  1.8228  1.4871
 1155SOL    HW214925   3.078   3.728   7.219 -1.2246  1.9377  0.4035
 1156SOL     OW14926   2.350   4.639   2.596 -0.0427 -0.2781  0.6197
 1156SOL    HW114927   2.420   4.597   2.645 -0.1458 -0.8876  0.2379
 1156SOL    HW214928   2.329   4.564   2.540  0.0794  0.4691 -0.4261
 1157SOL     OW14929   3.255   0.876  15.953  0.1829 -0.8642  0.0835
 1157SOL    HW114930   3.202   0.797  15.956 -3.1042  1.3048 -0.6635
 1157SOL    HW214931   3.248   0.912  16.041  1.3788 -2.4163  0.8095
 1158SOL     OW14932   1.288   4.404   8.529 -0.1508 -0.5851  0.0197
 1158SOL    HW114933   1.330   4.321   8.509 -0.1387 -0.5834  0.0384
 1158SOL    HW214934   1.218   4.410   8.464 -0.7427 -1.0595  0.6113
 1159SOL     OW14935   0.257   3.035   1.783  0.3855 -0.0043  1.0771
 1159SOL    HW114936   0.261   2.949   1.825  0.5109 -0.5793 -0.1050
 1159SOL    HW214937   0.340   3.034   1.735  0.4515  0.4643  1.1821
 1160SOL     OW14938   3.502   2.056   9.961  0.2918  0.4774  0.4545
 1160SOL    HW114939   3.590   2.056   9.924  0.6403 -0.4714  1.2684
 1160SOL    HW214940   3.535   2.078  10.048 -0.8251  0.5352  0.8626
 1161SOL     OW14941   4.484   2.674   2.136  0.1734  0.1683 -0.3689
 1161SOL    HW114942   4.550   2.680   2.067  2.2020 -0.7597  1.5122
 1161SOL    HW214943   4.406   2.666   2.081 -1.8763 -1.3709  2.7349
 1162SOL     OW14944   4.337   0.872   4.848 -0.1921 -0.1762 -0.6502
 1162SOL    HW114945   4.388   0.950   4.871 -0.8732  0.4711 -1.3322
 1162SOL    HW214946   4.318   0.827   4.930  2.0511 -0.4609 -0.2940
 1163SOL     OW14947   1.900   2.369   2.733 -0.5999 -0.2610  0.4854
 1163SOL    HW114948   1.912   2.430   2.805  2.0544 -1.1304  0.7744
 1163SOL    HW214949   1.815   2.406   2.709  0.7794  1.6655 -1.3973
 1164SOL     OW14950   0.359   3.315   2.139  0.3834  0.2441  0.0705
 1164SOL    HW114951   0.451   3.297   2.119 -0.4890 -4.1629  0.1665
 1164SOL    HW214952   0.331   3.381   2.075 -1.9909  0.2628  1.1199
 1165SOL     OW14953   1.768   3.306  12.997 -0.1436  0.6280  0.3301
 1165SOL    HW114954   1.764   3.349  12.912 -1.0455  0.7482  0.4303
 1165SOL    HW214955   1.774   3.368  13.070  0.9251 -1.0743  1.6795
 1166SOL     OW14956   4.336   4.413   2.926  0.5035 -0.5339 -0.2472
 1166SOL    HW114957   4.268   4.423   2.993  0.9418  3.8694 -0.4558
 1166SOL    HW214958   4.353   4.506   2.912  1.2219 -0.5508  0.4946
 1167SOL     OW14959   1.331   0.134  15.504 -0.5992  0.4678  0.2806
 1167SOL    HW114960   1.277   0.209  15.530 -0.0821  1.0773 -0.4313
 1167SOL    HW214961   1.262   0.068  15.493  0.2747 -0.1683 -1.2979
 1168SOL     OW14962   0.887   2.504  12.765  0.5316 -0.1018 -0.4609
 1168SOL    HW114963   0.870   2.415  12.735  1.3824 -0.1103 -0.9030
 1168SOL    HW214964   0.951   2.534  12.700 -0.2292  1.1749 -0.6408
 1169SOL     OW14965   2.224   0.052   9.372  0.2991  0.3911 -0.0290
 1169SOL    HW114966   2.210   0.112   9.445 -0.4362 -1.0774  1.0288
 1169SOL    HW214967   2.239   4.686   9.412  1.9124 -0.2040 -1.9321
 1170SOL     OW14968   3.669   2.738  15.901  0.0773 -0.1854  0.0028
 1170SOL    HW114969   3.760   2.769  15.904  0.3445 -0.7173 -2.4870
 1170SOL    HW214970   3.678   2.644  15.889 -1.6356 -0.3673  0.2346
 1171SOL     OW14971   2.209   1.669  17.534  0.6299 -0.1827 -0.1683
 1171SOL    HW114972   2.191   1.622  17.615 -0.5203  1.0615  0.3024
 1171SOL    HW214973   2.229   1.753  17.575  0.5423  0.2370 -0.9670
 1172SOL     OW14974   1.501   3.534   7.102 -0.2029 -0.7733 -0.4333
 1172SOL    HW114975   1.463   3.563   7.019  1.2936 -2.3521 -1.6571
 1172SOL    HW214976   1.462   3.447   7.108  0.6937 -1.2686 -2.0042
 1173SOL     OW14977   1.763   1.854   1.330  0.0085 -0.1498  0.2487
 1173SOL    HW114978   1.814   1.825   1.406  3.3494 -0.3665 -2.1011
 1173SOL    HW214979   1.738   1.768   1.295  1.2289  0.2937 -1.6642
 1174SOL     OW14980   2.455   3.834   9.329 -0.7599  0.2369 -0.5568
 1174SOL    HW114981   2.380   3.775   9.329  0.4248 -1.3029 -1.2356
 1174SOL    HW214982   2.500   3.813   9.247  3.4488  0.5496  1.6805
 1175SOL     OW14983   2.360   3.311  10.490  0.2519 -0.1873 -0.9486
 1175SOL    HW114984   2.408   3.230  10.508  0.0359 -0.6232 -2.3359
 1175SOL    HW214985   2.409   3.335  10.411 -1.3364 -0.8549 -2.1445
 1176SOL     OW14986   2.067   4.164   6.171 -0.9342 -0.0493 -0.0714
 1176SOL    HW114987   2.047   4.230   6.104  0.8777 -0.2974 -0.8577
 1176SOL    HW214988   2.048   4.210   6.252 -0.2423  0.0277  0.0459
 1177SOL     OW14989   1.590   0.775   0.942  0.0648  0.0910  0.0997
 1177SOL    HW114990   1.567   0.772   0.849  1.4213 -1.5014 -0.1806
 1177SOL    HW214991   1.583   0.685   0.974  0.4153 -0.9900 -2.8436
 1178SOL     OW14992   0.007   4.542   1.272  0.0027  0.7074  0.4185
 1178SOL    HW114993   0.042   4.621   1.314  1.2018  1.2010 -1.5363
 1178SOL    HW214994   4.633   4.562   1.273 -0.2785 -0.6436  0.4813
 1179SOL     OW14995   4.571   1.344   8.128 -0.1257 -0.3741 -0.4406
 1179SOL    HW114996   4.522   1.308   8.054 -1.0295  1.5758 -0.7666
 1179SOL    HW214997   4.511   1.343   8.203  2.7496 -1.8780  1.8409
 1180SOL     OW14998   0.663   3.125   8.531 -0.2375  0.3423 -0.1677
 1180SOL    HW114999   0.733   3.143   8.469 -2.1168  1.6010 -1.9389
 1180SOL    HW215000   0.622   3.212   8.529 -1.1289 -0.0197  1.5405
 1181SOL     OW15001   1.435   3.171   2.239 -0.0834 -0.0622  0.5036
 1181SOL    HW115002   1.429   3.211   2.152 -0.5981 -0.3509  0.4039
 1181SOL    HW215003   1.510   3.219   2.274 -0.1781 -0.2602  0.9756
 1182SOL     OW15004   3.752   4.137  13.142  0.3272 -0.1886  0.1022
 1182SOL    HW115005   3.678   4.193  13.165  1.4112  0.3592  2.3145
 1182SOL    HW215006   3.718   4.076  13.077 -0.0375  0.6135 -0.4569
 1183SOL     OW15007   1.978   2.988   7.595 -0.3718 -0.2216  0.0153
 1183SOL    HW115008   2.002   3.080   7.582 -0.6945 -0.4446 -2.0778
 1183SOL    HW215009   2.063   2.944   7.608  0.3517  1.3524  0.6442
 1184SOL     OW15010   2.809   3.717   3.209  0.1278 -0.0713 -0.0374
 1184SOL    HW115011   2.836   3.640   3.158  1.0181 -0.7722  1.5031
 1184SOL    HW215012   2.726   3.675   3.232 -0.5889 -1.1988 -4.6086
 1185SOL     OW15013   3.646   0.915   6.765 -0.2486  0.3798  0.3704
 1185SOL    HW115014   3.657   0.832   6.811 -0.8331 -0.3928 -0.8888
 1185SOL    HW215015   3.690   0.979   6.822  0.6414  0.0833  0.0051
 1186SOL     OW15016   4.425   3.300  11.964 -0.4131 -0.2773 -0.0458
 1186SOL    HW115017   4.357   3.285  12.031  1.4496  2.3688  2.4469
 1186SOL    HW215018   4.401   3.392  11.954  0.3980 -0.1945 -1.1956
 1187SOL     OW15019   2.413   0.774   2.402 -0.4821 -0.5974  0.1406
 1187SOL    HW115020   2.422   0.708   2.471  1.5353  0.5916  1.0235
 1187SOL    HW215021   2.384   0.710   2.338 -1.7550 -1.2410  1.3406
 1188SOL     OW15022   1.119   1.331  11.501 -0.4568  0.0635 -0.6814
 1188SOL    HW115023   1.042   1.278  11.521 -0.6600  1.0753  1.2812
 1188SOL    HW215024   1.126   1.321  11.406 -0.2558  1.2938 -0.7996
 1189SOL     OW15025   0.346   1.804   4.420  0.2193 -0.4274 -0.2027
 1189SOL    HW115026   0.311   1.727   4.375 -0.9905 -0.8556  1.4809
 1189SOL    HW215027   0.287   1.798   4.495  2.9531 -2.7454  1.8122
 1190SOL     OW15028   4.532   4.477   3.769 -0.3722 -0.1586 -0.2275
 1190SOL    HW115029   4.550   4.571   3.771 -1.8165  0.1167  0.0743
 1190SOL    HW215030   4.439   4.480   3.746 -0.6241 -1.2979  0.6123
 1191SOL     OW15031   3.802   2.226  10.124  0.0819  0.7451 -0.7583
 1191SOL    HW115032   3.861   2.163  10.083  0.6447  0.3210  0.7183
 1191SOL    HW215033   3.733   2.163  10.148  1.4631  0.1421  1.6302
 1192SOL     OW15034   3.824   3.194  13.465  0.4275 -0.1237  0.0796
 1192SOL    HW115035   3.865   3.254  13.528 -2.9293 -0.0120  2.1629
 1192SOL    HW215036   3.891   3.167  13.402  2.3251  2.6467  0.9135
 1193SOL     OW15037   1.624   3.009   4.291  0.2300 -0.1308  0.4692
 1193SOL    HW115038   1.545   3.045   4.331  0.5150  0.9663  0.0455
 1193SOL    HW215039   1.676   3.088   4.302  0.6874 -0.4895  0.8624
 1194SOL     OW15040   2.719   2.512  14.516 -0.3268  0.3699 -0.2749
 1194SOL    HW115041   2.753   2.558  14.440 -0.9765  2.7241  0.8700
 1194SOL    HW215042   2.776   2.541  14.587  0.9672  0.6622 -1.4331
 1195SOL     OW15043   3.317   2.859   8.570 -0.9608  0.4445  0.4888
 1195SOL    HW115044   3.266   2.827   8.644  0.2337 -1.9333  0.2774
 1195SOL    HW215045   3.346   2.943   8.606  0.7096 -0.1767  0.5815
 1196SOL     OW15046   1.803   0.998   3.544 -0.2161 -0.2666 -0.3174
 1196SOL    HW115047   1.760   0.975   3.462  0.7129  0.2937 -0.9568
 1196SOL    HW215048   1.750   1.056   3.598  0.1797  1.0694 -1.3828
 1197SOL     OW15049   1.811   1.700   4.688 -0.0652  0.0733 -0.0497
 1197SOL    HW115050   1.763   1.658   4.617 -1.0204  0.6971  0.2362
 1197SOL    HW215051   1.748   1.695   4.759 -0.5934  2.9450 -0.3052
 1198SOL     OW15052   4.521   3.548   1.779  0.3525 -0.4038 -0.2888
 1198SOL    HW115053   4.514   3.465   1.733  1.4280  0.3241 -1.7572
 1198SOL    HW215054   4.595   3.587   1.733 -0.2815  1.7393  0.4592
 1199SOL     OW15055   1.376   1.970   3.363 -0.5519  0.0511  0.0995
 1199SOL    HW115056   1.326   1.962   3.281 -0.6427  2.0453 -0.0442
 1199SOL    HW215057   1.333   1.908   3.422  1.0824 -0.8766  0.2877
 1200SOL     OW15058   4.353   0.622  12.837 -0.2847 -0.5393  0.0291
 1200SOL    HW115059   4.347   0.533  12.872 -0.5799  0.2913  2.0995
 1200SOL    HW215060   4.261   0.643  12.821 -0.6278 -2.2003 -0.1761
 1201SOL     OW15061   0.331   4.117   6.634  0.4810  0.9428 -0.2768
 1201SOL    HW115062   0.421   4.119   6.603  0.8219 -1.6203  0.5871
 1201SOL    HW215063   0.339   4.094   6.726 -2.0512 -1.2356 -0.5862
 1202SOL     OW15064   0.890   3.376   0.562 -0.3253 -0.3286  0.0616
 1202SOL    HW115065   0.845   3.452   0.597  0.0131  0.8743 -2.1011
 1202SOL    HW215066   0.845   3.307   0.611 -0.7484  0.9121  1.3972
 1203SOL     OW15067   1.077   4.099   8.246  0.2205 -0.2861 -0.2416
 1203SOL    HW115068   0.981   4.096   8.241  0.2837 -4.4967  1.3931
 1203SOL    HW215069   1.108   4.024   8.296  1.6019  0.4669  0.0042
 1204SOL     OW15070   2.217   0.749   8.165 -0.2674 -0.4235 -0.4298
 1204SOL    HW115071   2.231   0.686   8.094 -1.2533 -1.6419  0.4591
 1204SOL    HW215072   2.306   0.782   8.175  0.2738 -1.7521 -0.8021
 1205SOL     OW15073   0.330   0.333   7.446 -0.3259  0.1021 -0.8285
 1205SOL    HW115074   0.305   0.423   7.466 -3.0835 -0.8821  0.0781
 1205SOL    HW215075   0.247   0.292   7.422 -0.7654 -0.3538  1.5003
 1206SOL     OW15076   1.560   1.531   0.133 -0.6901 -0.1937 -0.1088
 1206SOL    HW115077   1.550   1.624   0.111  0.0076 -0.1602 -0.2836
 1206SOL    HW215078   1.653   1.536   0.158 -0.5526  0.0214 -0.6581
 1207SOL     OW15079   3.311   2.610   2.360 -0.1004 -0.1268  0.7393
 1207SOL    HW115080   3.319   2.700   2.391 -0.6923  1.0311 -2.4449
 1207SOL    HW215081   3.242   2.631   2.297  1.7529 -1.0157 -1.6084
 1208SOL     OW15082   1.538   1.914   4.085  0.3553 -0.0704 -0.3299
 1208SOL    HW115083   1.457   1.956   4.056 -0.4530 -1.1129  0.4291
 1208SOL    HW215084   1.516   1.872   4.168 -0.5377  0.1153 -0.4755
 1209SOL     OW15085   2.671   4.397   1.053  0.3856 -0.6168 -0.2974
 1209SOL    HW115086   2.663   4.448   0.973  0.4169 -0.3837 -0.1526
 1209SOL    HW215087   2.626   4.455   1.115 -1.0007  0.6628 -2.5026
 1210SOL     OW15088   0.858   0.558   6.173 -0.1976  0.4553 -0.1788
 1210SOL    HW115089   0.941   0.534   6.132 -1.3968 -3.1251 -0.5771
 1210SOL    HW215090   0.833   0.471   6.205 -1.1386 -0.3555 -3.0820
 1211SOL     OW15091   1.401   4.356   4.598 -0.0385  0.1723  0.1020
 1211SOL    HW115092   1.369   4.363   4.508 -4.8627  0.5424  1.8103
 1211SOL    HW215093   1.346   4.282   4.623  0.9538 -0.7003 -0.3237
 1212SOL     OW15094   0.134   3.611   6.195  0.7903 -0.0863  0.5627
 1212SOL    HW115095   0.154   3.582   6.284 -1.3609 -1.5070  0.5927
 1212SOL    HW215096   0.207   3.663   6.162 -0.9234  1.4181 -0.8571
 1213SOL     OW15097   1.737   0.123  10.163 -0.7517  0.6973 -0.2303
 1213SOL    HW115098   1.709   0.178  10.090 -1.4730 -1.4435 -1.5630
 1213SOL    HW215099   1.821   0.162  10.190 -0.9160 -0.4407  1.9507
 1214SOL     OW15100   2.171   3.397  17.357 -0.7263 -0.0277  0.2536
 1214SOL    HW115101   2.215   3.439  17.284  0.5326  0.2457  1.1559
 1214SOL    HW215102   2.243   3.367  17.414 -1.3945  0.8526  1.5578
 1215SOL     OW15103   1.606   2.377  14.530 -0.3365 -0.0491 -0.4058
 1215SOL    HW115104   1.570   2.463  14.551 -1.6960 -0.2584 -1.8462
 1215SOL    HW215105   1.690   2.411  14.500 -0.9536  1.9743  0.1426
 1216SOL     OW15106   0.847   1.262   6.167  0.7284 -0.2425 -0.3469
 1216SOL    HW115107   0.805   1.214   6.238  0.2599  1.1472  0.3025
 1216SOL    HW215108   0.845   1.199   6.095 -0.5317 -1.3576  0.6731
 1217SOL     OW15109   3.657   0.154  12.758 -0.2127  0.9387 -0.3166
 1217SOL    HW115110   3.567   0.178  12.782 -1.2012 -2.3062 -0.8797
 1217SOL    HW215111   3.715   0.200  12.818  1.1533  0.6432 -1.4281
 1218SOL     OW15112   2.448   3.623  16.695 -0.4518  0.1068 -0.5354
 1218SOL    HW115113   2.490   3.698  16.653  0.0274 -0.7084 -1.5044
 1218SOL    HW215114   2.442   3.564  16.620 -1.2215  2.0005 -1.9766
 1219SOL     OW15115   2.859   4.486  12.815  0.1823  0.5972 -0.2658
 1219SOL    HW115116   2.900   4.477  12.901  0.6943  0.9117 -0.4780
 1219SOL    HW215117   2.925   4.430  12.775  0.3035 -0.4678  1.4240
 1220SOL     OW15118   3.181   0.866   5.863  0.4460 -0.8664  0.1685
 1220SOL    HW115119   3.212   0.781   5.892  0.6770 -0.8776 -0.1128
 1220SOL    HW215120   3.239   0.887   5.790  2.2150  2.7972  2.6216
 1221SOL     OW15121   0.169   4.625  14.566  0.3044  0.4803 -0.2572
 1221SOL    HW115122   0.089   4.667  14.596 -0.3224 -2.5005  2.2168
 1221SOL    HW215123   0.223   4.695  14.529 -2.0506  1.6984 -1.3845
 1222SOL     OW15124   1.749   3.544   4.520  0.3335  0.2207  0.2404
 1222SOL    HW115125   1.713   3.512   4.603  0.4132  1.2812  0.6902
 1222SOL    HW215126   1.804   3.472   4.490 -0.7219 -0.7450  0.6506
 1223SOL     OW15127   2.632   2.538   9.666 -0.1090  0.5706 -0.1845
 1223SOL    HW115128   2.704   2.481   9.695 -0.3239 -0.4922 -1.7088
 1223SOL    HW215129   2.606   2.592   9.741  1.4674  0.0216  0.7611
 1224SOL     OW15130   1.147   2.735   9.136 -0.0260 -0.0935  0.1128
 1224SOL    HW115131   1.177   2.773   9.054  0.4511  1.6835  1.1053
 1224SOL    HW215132   1.199   2.787   9.197 -0.4490  1.9700 -1.2656
 1225SOL     OW15133   2.007   1.457  11.993 -0.5702  0.2151 -0.0627
 1225SOL    HW115134   2.090   1.458  12.039 -0.7942 -0.8401  0.3585
 1225SOL    HW215135   2.016   1.393  11.922  0.2062 -1.1414  1.2652
 1226SOL     OW15136   1.202   2.138   9.453  0.3705 -0.3247  0.0461
 1226SOL    HW115137   1.117   2.095   9.463  0.7613 -0.7225  1.7853
 1226SOL    HW215138   1.201   2.177   9.366 -1.8453 -0.7036 -0.1058
 1227SOL     OW15139   3.940   1.536   3.503  0.3667 -0.4659  0.0381
 1227SOL    HW115140   3.941   1.624   3.465  2.5194 -0.2719  0.5610
 1227SOL    HW215141   4.002   1.486   3.449 -0.2458  0.5130 -1.5790
 1228SOL     OW15142   4.275   0.674  11.764  0.2592  0.0935 -0.8204
 1228SOL    HW115143   4.361   0.633  11.769  0.6746  0.9746 -0.8678
 1228SOL    HW215144   4.256   0.664  11.671  1.1273 -1.8614 -0.7970
 1229SOL     OW15145   0.849   4.443   7.063  0.4308 -0.5478  0.4920
 1229SOL    HW115146   0.878   4.532   7.082  1.8438 -1.2224  1.5024
 1229SOL    HW215147   0.907   4.415   6.992 -1.2339 -0.5846 -0.8669
 1230SOL     OW15148   1.895   3.009   5.324 -0.0362  0.5753  0.1183
 1230SOL    HW115149   1.808   3.001   5.286  0.3719 -2.2838 -0.1701
 1230SOL    HW215150   1.890   2.965   5.409  0.1324  0.5773  0.1305
 1231SOL     OW15151   4.284   0.104   5.645  0.3670 -0.2271 -0.2976
 1231SOL    HW115152   4.341   0.111   5.569  0.3384 -1.7084 -0.4583
 1231SOL    HW215153   4.204   0.142   5.608  1.1266  0.2055 -1.4834
 1232SOL     OW15154   2.526   0.320   3.986 -0.0029 -0.3654  0.0152
 1232SOL    HW115155   2.539   0.296   3.894  0.1180 -1.2957  0.2723
 1232SOL    HW215156   2.597   0.383   3.999  0.3380 -0.5603 -0.8939
 1233SOL     OW15157   0.297   0.798   2.286 -0.2626  0.2196  0.4161
 1233SOL    HW115158   0.216   0.802   2.337  0.3849  0.4480  1.4349
 1233SOL    HW215159   0.258   0.770   2.204 -1.1092 -0.0895  0.9190
 1234SOL     OW15160   1.091   0.682  15.308  0.0734 -0.3306 -0.3576
 1234SOL    HW115161   1.031   0.751  15.279  0.7343 -0.2802 -1.5948
 1234SOL    HW215162   1.131   0.653  15.227 -0.5345  0.8071 -1.0662
 1235SOL     OW15163   1.579   3.419   9.961 -0.1043 -0.2271  0.1393
 1235SOL    HW115164   1.602   3.512   9.953  0.5557 -0.3083  1.0896
 1235SOL    HW215165   1.530   3.428  10.043  2.1356  1.1555  1.3272
 1236SOL     OW15166   3.507   1.677   8.133 -0.4519  0.5390  0.1723
 1236SOL    HW115167   3.422   1.722   8.141 -0.8990 -0.2244 -0.3412
 1236SOL    HW215168   3.568   1.742   8.169 -0.1643  1.7387 -2.4662
 1237SOL     OW15169   2.327   3.397   7.160  0.0115 -0.1121 -0.2438
 1237SOL    HW115170   2.381   3.476   7.161  0.5134 -0.4478 -0.4144
 1237SOL    HW215171   2.240   3.431   7.179  0.8922  1.1470  1.5045
 1238SOL     OW15172   3.119   2.280   5.107  0.0616 -0.3107  0.4210
 1238SOL    HW115173   3.127   2.262   5.014 -1.1981  0.2363  0.2047
 1238SOL    HW215174   3.200   2.328   5.123 -0.1136  0.3943 -0.7668
 1239SOL     OW15175   1.628   3.053   9.311 -0.3660 -0.4348 -0.5629
 1239SOL    HW115176   1.595   2.978   9.363  1.4479 -1.7216 -1.2638
 1239SOL    HW215177   1.547   3.101   9.296  0.2741 -0.3991 -3.7604
 1240SOL     OW15178   3.797   0.449  15.081 -0.2475  0.0936 -0.1724
 1240SOL    HW115179   3.872   0.463  15.024  1.5884 -0.3078  2.1142
 1240SOL    HW215180   3.777   0.540  15.103  0.9826  0.0830  1.0195
 1241SOL     OW15181   4.224   2.188   3.976 -0.2152  0.6870 -0.4170
 1241SOL    HW115182   4.309   2.146   3.992 -0.5949 -0.9224 -2.6340
 1241SOL    HW215183   4.184   2.119   3.923  0.9553  0.4650 -1.0200
 1242SOL     OW15184   3.015   1.360   9.630  0.0908  0.0451  0.7335
 1242SOL    HW115185   2.980   1.271   9.628 -0.1955  0.1842 -0.6108
 1242SOL    HW215186   2.955   1.397   9.695 -0.3894 -0.7465  0.7458
 1243SOL     OW15187   3.233   0.288   3.228 -0.7060  0.1592 -0.5256
 1243SOL    HW115188   3.183   0.348   3.172 -0.1481  0.5050 -0.6507
 1243SOL    HW215189   3.175   0.212   3.223  0.0071 -0.5797  2.4191
 1244SOL     OW15190   3.004   2.549  15.495  0.6436  0.5464  0.4436
 1244SOL    HW115191   2.992   2.511  15.582 -0.1015 -0.0916  0.0636
 1244SOL    HW215192   2.959   2.632  15.513  0.8689  0.8642 -0.4360
 1245SOL     OW15193   0.457   1.504   7.516  0.0888  0.0757 -0.2923
 1245SOL    HW115194   0.515   1.428   7.509  0.0317  0.2950 -2.9582
 1245SOL    HW215195   0.473   1.529   7.607  1.0400 -2.2305  0.1838
 1246SOL     OW15196   3.856   4.166   6.300 -0.1835 -0.8314 -0.4289
 1246SOL    HW115197   3.824   4.079   6.276 -3.6102  1.3292 -3.7126
 1246SOL    HW215198   3.949   4.156   6.280 -0.2760  0.5363 -1.5088
 1247SOL     OW15199   4.236   1.781   7.807  0.5182 -0.3103 -0.3154
 1247SOL    HW115200   4.245   1.742   7.720  0.2084 -0.0594 -0.4647
 1247SOL    HW215201   4.293   1.721   7.854 -0.9277 -0.6384  1.0254
 1248SOL     OW15202   2.909   3.969   7.085 -0.5192  0.2559 -0.6767
 1248SOL    HW115203   2.953   3.993   7.004 -2.6303  0.7121 -1.6797
 1248SOL    HW215204   2.871   3.885   7.060  0.7873 -1.0277  1.6259
 1249SOL     OW15205   0.992   1.392   7.956  0.1286  0.6148  0.3778
 1249SOL    HW115206   1.058   1.425   8.017  0.0681  0.5443  0.4818
 1249SOL    HW215207   0.996   1.301   7.984 -0.6902 -0.3790 -2.8215
 1250SOL     OW15208   1.314   4.308   3.868  0.5878  0.1052 -0.3847
 1250SOL    HW115209   1.367   4.251   3.812  0.9808 -2.7799  2.8789
 1250SOL    HW215210   1.377   4.369   3.905  0.0434  0.9987 -0.9154
 1251SOL     OW15211   2.663   4.351  10.237  0.2484  0.3481 -0.4341
 1251SOL    HW115212   2.725   4.279  10.226 -0.2087  0.0300 -0.9321
 1251SOL    HW215213   2.724   4.405  10.287  2.2605 -0.2552 -2.1962
 1252SOL     OW15214   1.519   4.056   7.707 -0.3260  0.1863  0.4248
 1252SOL    HW115215   1.601   4.103   7.692  1.5710 -3.7533 -1.4742
 1252SOL    HW215216   1.532   4.034   7.799  0.9214 -0.7247  0.0284
 1253SOL     OW15217   0.435   3.537   0.177  0.6673 -0.0870  0.2896
 1253SOL    HW115218   0.354   3.485   0.178  0.4878  0.2179  1.4235
 1253SOL    HW215219   0.448   3.565   0.086  0.8306  0.1105  0.3731
 1254SOL     OW15220   0.594   3.441   1.959 -0.1786  0.0830  0.4280
 1254SOL    HW115221   0.637   3.510   1.908 -0.0075 -0.1867  0.2013
 1254SOL    HW215222   0.669   3.390   1.992  1.3091  1.8228 -0.2796
 1255SOL     OW15223   1.013   0.594   5.794  0.0842 -0.1158  0.4189
 1255SOL    HW115224   0.978   0.682   5.781 -0.8010  0.0866  3.9631
 1255SOL    HW215225   0.934   0.541   5.804  1.1389 -1.3669  2.0784
 1256SOL     OW15226   0.053   1.878   5.696 -0.0532  0.3595  0.3968
 1256SOL    HW115227   0.108   1.886   5.619  2.0903 -0.1740  1.8547
 1256SOL    HW215228   0.116   1.843   5.760  1.5938  1.3771 -0.6566
 1257SOL     OW15229   2.884   2.296   2.957  0.3463 -0.3724  0.1571
 1257SOL    HW115230   2.976   2.273   2.965  0.5536 -0.2574 -1.7126
 1257SOL    HW215231   2.858   2.323   3.045  1.0073 -0.8234  0.4839
 1258SOL     OW15232   1.180   3.743  14.789 -0.1690 -0.0356  0.0006
 1258SOL    HW115233   1.166   3.697  14.707 -0.2859  0.6664 -0.3682
 1258SOL    HW215234   1.268   3.776  14.771 -0.6450  1.4289  0.3146
 1259SOL     OW15235   0.645   1.675  14.152  0.2264 -0.1233 -0.7701
 1259SOL    HW115236   0.711   1.624  14.199 -0.1771  1.1587  1.1760
 1259SOL    HW215237   0.583   1.603  14.137  0.1426 -0.1775 -0.1581
 1260SOL     OW15238   1.942   1.740   1.529 -0.0808  0.2635  0.2667
 1260SOL    HW115239   1.887   1.743   1.608 -0.0658 -3.1761  0.4004
 1260SOL    HW215240   1.920   1.650   1.504  1.9107 -0.5258  1.3546
 1261SOL     OW15241   0.798   1.634  17.639 -0.5039 -0.0718  0.4516
 1261SOL    HW115242   0.777   1.542  17.622 -0.3661  0.0065 -0.1415
 1261SOL    HW215243   0.826   1.654  17.550 -1.6677 -1.5991 -0.2626
 1262SOL     OW15244   1.748   0.252   4.538 -0.1961 -0.1680  0.4906
 1262SOL    HW115245   1.794   0.334   4.522  1.0841 -0.6042  1.9616
 1262SOL    HW215246   1.660   0.289   4.530  0.0427  0.3076  0.0408
 1263SOL     OW15247   3.503   3.952  17.011  0.1769  0.1655 -0.3460
 1263SOL    HW115248   3.525   3.954  17.104  0.5172  3.2960 -0.5192
 1263SOL    HW215249   3.422   3.899  17.015  0.1652  0.1037 -1.4762
 1264SOL     OW15250   1.562   4.003   2.335  0.3466 -0.4604 -0.8031
 1264SOL    HW115251   1.595   3.968   2.252 -1.3219  0.1912 -1.7354
 1264SOL    HW215252   1.474   3.966   2.345  0.2451  0.4350  1.5754
 1265SOL     OW15253   3.758   2.273   4.142 -0.2272  0.0972 -0.4067
 1265SOL    HW115254   3.807   2.277   4.060  1.2668  2.9821  0.6011
 1265SOL    HW215255   3.815   2.326   4.197  0.7883 -1.7240  0.2956
 1266SOL     OW15256   3.647   4.246   0.592  0.0459 -0.0392 -0.0229
 1266SOL    HW115257   3.568   4.297   0.575 -0.3167 -0.2652  0.9731
 1266SOL    HW215258   3.688   4.269   0.509 -0.0127  0.3559  0.0575
 1267SOL     OW15259   4.025   1.313   3.116  0.1069  0.3120 -0.0254
 1267SOL    HW115260   4.043   1.346   3.028 -0.4469 -0.7373 -0.5367
 1267SOL    HW215261   4.053   1.223   3.102 -0.2241  0.1331  0.4808
 1268SOL     OW15262   1.361   0.378  15.214  0.0262  0.8019  0.0792
 1268SOL    HW115263   1.367   0.469  15.246  1.5771 -0.0181  2.1412
 1268SOL    HW215264   1.334   0.382  15.122  2.6061 -0.6556 -0.7495
 1269SOL     OW15265   0.831   2.182  12.410  0.1591 -0.1201 -0.0668
 1269SOL    HW115266   0.735   2.185  12.411  0.2227  2.0192 -0.2063
 1269SOL    HW215267   0.857   2.246  12.344  0.3449  0.4075  0.5168
 1270SOL     OW15268   0.296   0.253   9.870  0.0428  0.1634 -0.6020
 1270SOL    HW115269   0.357   0.315   9.910 -0.8814  0.3759  0.4884
 1270SOL    HW215270   0.279   0.198   9.947 -0.4463  0.4021 -0.5404
 1271SOL     OW15271   2.010   3.365   7.253 -0.0438 -0.0684  0.8583
 1271SOL    HW115272   1.937   3.407   7.207  0.2508 -0.9390 -0.4299
 1271SOL    HW215273   2.007   3.277   7.216  2.0975  0.0430  0.4367
 1272SOL     OW15274   4.540   1.611   0.659  0.3135  0.1065 -0.3093
 1272SOL    HW115275   4.451   1.584   0.638 -0.1024  1.0455  0.2417
 1272SOL    HW215276   4.528   1.651   0.745 -2.7361 -2.1795  0.3514
 1273SOL     OW15277   1.861   4.374   0.536  0.1011  0.1761 -0.0028
 1273SOL    HW115278   1.907   4.387   0.453  0.0715 -0.7761 -0.1664
 1273SOL    HW215279   1.773   4.407   0.516 -0.2961 -0.1831  1.1431
 1274SOL     OW15280   2.189   1.760  13.516 -0.1806 -0.5504 -0.2204
 1274SOL    HW115281   2.135   1.776  13.593  0.9300  0.7849  0.2674
 1274SOL    HW215282   2.146   1.821  13.457  1.3711  0.2737 -0.4942
 1275SOL     OW15283   1.566   4.562   8.996  0.3382  1.0002 -0.5467
 1275SOL    HW115284   1.626   4.529   8.928  0.3122  0.6563 -0.4015
 1275SOL    HW215285   1.589   4.654   9.008 -0.6447  1.4871 -2.4430
 1276SOL     OW15286   4.196   3.955  13.260  0.0392 -0.7017  0.2130
 1276SOL    HW115287   4.271   3.955  13.201 -1.7363  1.7888 -2.0433
 1276SOL    HW215288   4.190   3.867  13.296 -1.0688 -0.2529  1.1511
 1277SOL     OW15289   1.136   2.632  17.539 -0.4418  0.0852  0.3800
 1277SOL    HW115290   1.177   2.651  17.455  0.5997 -0.4728  0.7531
 1277SOL    HW215291   1.130   2.716  17.583 -1.1348 -0.1992  0.8363
 1278SOL     OW15292   1.703   3.253   4.842  0.3292  0.5647 -0.0332
 1278SOL    HW115293   1.797   3.258   4.823  0.5171 -0.5328  0.5879
 1278SOL    HW215294   1.708   3.279   4.934  4.0043 -0.2941 -0.0086
 1279SOL     OW15295   0.673   2.520  16.302 -0.3857  0.1156 -0.4657
 1279SOL    HW115296   0.619   2.595  16.277  2.5179  2.2430 -0.3188
 1279SOL    HW215297   0.608   2.469  16.351 -1.5578 -1.6162 -3.8249
 1280SOL     OW15298   0.040   1.311   2.125  0.4054 -0.5097  0.1066
 1280SOL    HW115299   0.112   1.290   2.066  0.0629 -0.8004 -0.2015
 1280SOL    HW215300   0.098   1.342   2.195  2.2296  0.9199 -2.0261
 1281SOL     OW15301   1.915   0.167   2.560 -0.4291 -0.4296 -0.5086
 1281SOL    HW115302   1.837   0.218   2.536  0.0760  0.9007  0.6887
 1281SOL    HW215303   1.986   0.232   2.560 -1.8821  1.1503 -1.8926
 1282SOL     OW15304   2.335   1.927  15.216 -0.1045  0.1392  0.0747
 1282SOL    HW115305   2.428   1.940  15.200 -0.2647  0.8644 -0.2786
 1282SOL    HW215306   2.306   1.915  15.125 -1.4082 -0.1317  0.5295
 1283SOL     OW15307   3.467   0.098   3.827 -0.2762  0.3124  0.2064
 1283SOL    HW115308   3.466   0.005   3.801 -0.3774 -0.0585  1.5112
 1283SOL    HW215309   3.413   0.133   3.757  0.6217  0.7567 -0.2558
 1284SOL     OW15310   0.024   0.198   3.683 -0.1021  0.0435 -0.5352
 1284SOL    HW115311   4.717   0.118   3.639  0.8054 -0.3263 -0.3896
 1284SOL    HW215312   0.097   0.233   3.631  0.4457  0.1969  0.3333
 1285SOL     OW15313   2.285   2.699   6.442 -0.1994 -0.3994 -0.6696
 1285SOL    HW115314   2.233   2.667   6.516 -0.7868  0.0844 -0.8719
 1285SOL    HW215315   2.334   2.620   6.422  1.7437  0.5834  0.1728
 1286SOL     OW15316   0.157   3.506   4.816  0.5461 -0.9087  0.1832
 1286SOL    HW115317   0.166   3.423   4.769  1.3047 -0.5631 -0.2860
 1286SOL    HW215318   0.236   3.554   4.792 -0.3844  1.1452  1.2105
 1287SOL     OW15319   2.107   4.179   9.590 -0.2465  0.4768 -0.0523
 1287SOL    HW115320   2.161   4.255   9.613 -0.6535  1.3775 -2.0362
 1287SOL    HW215321   2.080   4.200   9.500 -1.0497  1.8513  0.5116
 1288SOL     OW15322   1.281   4.580   3.333 -0.4161 -0.0402 -0.8645
 1288SOL    HW115323   1.268   4.574   3.239  1.3882 -2.6424 -0.9430
 1288SOL    HW215324   1.322   4.666   3.341  1.5015 -0.8843 -1.4791
 1289SOL     OW15325   0.374   2.244   7.249 -0.1226  0.7515 -0.6752
 1289SOL    HW115326   0.339   2.253   7.337 -0.5295 -2.9962 -0.4583
 1289SOL    HW215327   0.384   2.337   7.231  1.0658  0.3283 -2.2402
 1290SOL     OW15328   0.947   3.884  15.202  0.1656 -0.1063 -0.0376
 1290SOL    HW115329   0.922   3.953  15.263  1.5457  1.3841 -1.1157
 1290SOL    HW215330   1.010   3.846  15.263  0.2162  0.1918  0.0961
 1291SOL     OW15331   4.543   0.327   7.288 -0.0084 -0.2931 -0.8398
 1291SOL    HW115332   4.622   0.376   7.309 -1.1489  1.0528  0.3129
 1291SOL    HW215333   4.477   0.391   7.314  1.3688  1.2308 -1.1398
 1292SOL     OW15334   4.247   1.225   2.182 -0.4597 -0.1697 -0.1054
 1292SOL    HW115335   4.279   1.311   2.209  0.1206  0.3327 -2.3874
 1292SOL    HW215336   4.324   1.175   2.153 -1.3510 -0.1307 -2.5597
 1293SOL     OW15337   0.670   4.534  11.556  0.4420  0.6679 -0.0151
 1293SOL    HW115338   0.654   4.441  11.539  1.6454  0.1910  1.4480
 1293SOL    HW215339   0.665   4.571  11.468  1.1512 -1.7908 -1.1134
 1294SOL     OW15340   3.080   0.794  14.124 -0.1811 -0.5992 -0.4862
 1294SOL    HW115341   3.067   0.886  14.146 -1.4084 -0.8371 -0.2129
 1294SOL    HW215342   3.174   0.791  14.141 -0.5961  0.4897  2.0837
 1295SOL     OW15343   3.818   3.215   6.444  0.0240 -0.1267 -0.2682
 1295SOL    HW115344   3.757   3.249   6.510 -1.8104 -1.2495 -1.3789
 1295SOL    HW215345   3.905   3.232   6.479  0.0533  1.0814 -0.9265
 1296SOL     OW15346   0.954   0.847   8.077  0.5569 -0.6297 -0.4318
 1296SOL    HW115347   0.930   0.862   8.168  1.1391 -0.0569 -0.3699
 1296SOL    HW215348   0.893   0.777   8.053  0.5136 -0.4024 -1.0009
 1297SOL     OW15349   3.017   1.673  15.529  0.0806  0.5216 -0.0335
 1297SOL    HW115350   3.023   1.650  15.622  0.1053 -0.4481 -0.2773
 1297SOL    HW215351   2.959   1.598  15.516  0.1979  0.9506 -2.9694
 1298SOL     OW15352   0.344   2.020   4.731 -0.4422  0.2651 -0.3590
 1298SOL    HW115353   0.286   1.953   4.695 -1.2376  1.0166 -0.4852
 1298SOL    HW215354   0.425   1.973   4.752 -1.1831 -1.1693 -0.6705
 1299SOL     OW15355   3.280   1.844   3.249 -0.2523 -0.1239  0.6493
 1299SOL    HW115356   3.224   1.918   3.273 -0.2822  0.8639 -2.4024
 1299SOL    HW215357   3.309   1.815   3.335 -0.8705  2.9632  1.8778
 1300SOL     OW15358   4.366   2.819   9.326  0.3336 -0.0958 -0.5769
 1300SOL    HW115359   4.438   2.842   9.384 -0.0139 -0.1350 -0.1361
 1300SOL    HW215360   4.345   2.904   9.287  0.3966 -0.0839 -0.5851
 1301SOL     OW15361   0.378   3.315   9.573  0.1687 -0.3283 -0.4950
 1301SOL    HW115362   0.367   3.221   9.562  1.0055 -0.3392 -1.2542
 1301SOL    HW215363   0.360   3.334   9.665 -0.4337  0.4616 -0.7672
 1302SOL     OW15364   0.467   3.445  16.850  0.6323 -0.7808  0.0126
 1302SOL    HW115365   0.457   3.421  16.942 -2.6362 -1.4750 -0.5324
 1302SOL    HW215366   0.419   3.376  16.806  0.1049 -1.2283  1.2919
 1303SOL     OW15367   1.651   2.336   9.570 -0.2600  0.0644 -0.2010
 1303SOL    HW115368   1.566   2.296   9.551 -0.0181 -0.3769 -0.3471
 1303SOL    HW215369   1.618   2.424   9.590 -2.2569 -0.3551 -1.6580
 1304SOL     OW15370   3.698   3.102  10.667 -0.3599 -0.0301 -0.3889
 1304SOL    HW115371   3.618   3.059  10.637 -0.6885  1.0244 -1.0380
 1304SOL    HW215372   3.709   3.153  10.587 -1.5803  0.6790 -0.1116
 1305SOL     OW15373   2.096   0.430   7.143 -0.1775 -0.2132 -0.3819
 1305SOL    HW115374   2.117   0.441   7.050 -0.9015  0.4842 -0.4638
 1305SOL    HW215375   2.015   0.382   7.125 -2.4160  1.9782  3.8760
 1306SOL     OW15376   1.606   0.744  15.768 -0.3373  0.2848  0.0680
 1306SOL    HW115377   1.676   0.723  15.706  0.7286  1.0238  1.0278
 1306SOL    HW215378   1.606   0.840  15.767  2.3248  0.3002  2.7397
 1307SOL     OW15379   2.309   4.346   8.014  0.7137  0.1824  0.6444
 1307SOL    HW115380   2.311   4.441   8.020 -2.0620  0.3807 -1.4510
 1307SOL    HW215381   2.378   4.322   7.952  1.7728  2.7894  0.8419
 1308SOL     OW15382   3.122   4.137   3.723  0.4513 -0.4843  0.4187
 1308SOL    HW115383   3.060   4.183   3.667  0.3080 -0.0687  0.9145
 1308SOL    HW215384   3.097   4.046   3.706 -0.5207 -0.3875  1.2698
 1309SOL     OW15385   2.772   2.895   8.762 -0.4790  0.3708 -0.0772
 1309SOL    HW115386   2.805   2.806   8.753 -0.7943  0.3820 -1.3748
 1309SOL    HW215387   2.826   2.934   8.694 -0.8121 -0.7868 -1.0083
 1310SOL     OW15388   1.575   1.216   7.189  0.3687  0.1584  0.3123
 1310SOL    HW115389   1.640   1.242   7.253  1.7061 -0.7793 -0.6558
 1310SOL    HW215390   1.493   1.244   7.230  0.9211 -0.5085  1.8571
 1311SOL     OW15391   2.986   0.520  16.573 -0.5154  0.0886  0.0034
 1311SOL    HW115392   2.995   0.496  16.665 -0.3784 -0.2614 -0.1001
 1311SOL    HW215393   2.897   0.555  16.570 -0.8035 -0.7042 -0.6437
 1312SOL     OW15394   1.182   2.158   6.925 -0.3048 -0.1950 -0.8089
 1312SOL    HW115395   1.117   2.096   6.893 -1.1809 -0.0098  0.6103
 1312SOL    HW215396   1.162   2.236   6.872  0.0041 -0.5521 -1.4525
 1313SOL     OW15397   3.036   1.858   4.387 -0.4277  0.2649  0.3927
 1313SOL    HW115398   2.991   1.939   4.411 -0.1881 -0.2129  2.4731
 1313SOL    HW215399   3.116   1.883   4.434  0.5795 -0.4621 -0.9428
 1314SOL     OW15400   1.904   2.814  17.184 -0.3032  0.6359 -0.1313
 1314SOL    HW115401   1.858   2.864  17.253 -1.4167 -0.6966  0.0900
 1314SOL    HW215402   1.832   2.800  17.122  1.6714 -2.4142 -1.6797
 1315SOL     OW15403   3.248   0.370   5.785 -0.1060  0.2836 -0.1127
 1315SOL    HW115404   3.200   0.398   5.863  0.4749 -2.9025  1.3502
 1315SOL    HW215405   3.331   0.413   5.807  0.1041  1.3253 -2.8848
 1316SOL     OW15406   1.669   2.959   5.147 -0.4039 -0.4713 -0.5100
 1316SOL    HW115407   1.689   3.048   5.118  0.4717 -0.2052  0.9045
 1316SOL    HW215408   1.600   2.944   5.083 -2.0018  0.0251  1.0926
 1317SOL     OW15409   1.133   1.686   7.997 -0.2463 -0.2431  0.5763
 1317SOL    HW115410   1.197   1.625   7.959 -3.1273 -1.4600 -2.3774
 1317SOL    HW215411   1.058   1.671   7.940 -0.5738 -2.3475  1.5535
 1318SOL     OW15412   0.864   4.008  12.074  0.3448 -1.1337  0.9663
 1318SOL    HW115413   0.852   4.097  12.040  2.2338 -0.6078  1.6587
 1318SOL    HW215414   0.871   3.961  11.991 -2.4505  0.2727 -0.0581
 1319SOL     OW15415   4.692   2.474   9.198  0.2194  0.4964  0.3452
 1319SOL    HW115416   0.015   2.392   9.170 -1.1933  0.2467 -1.0353
 1319SOL    HW215417   4.652   2.440   9.278  0.1235 -0.2436 -0.0180
 1320SOL     OW15418   0.029   1.080   8.835 -0.4684 -0.3551 -0.2838
 1320SOL    HW115419   0.048   1.173   8.820  2.0289 -0.7633  0.3920
 1320SOL    HW215420   0.030   1.081   8.931  0.4993 -0.1719 -0.2956
 1321SOL     OW15421   1.353   3.545   3.858 -0.2176  0.0396 -0.0738
 1321SOL    HW115422   1.372   3.561   3.766  0.1452  1.9994  0.3338
 1321SOL    HW215423   1.395   3.619   3.902  1.3389 -0.8011 -0.1496
 1322SOL     OW15424   2.327   1.294  15.869 -0.5081  0.3651 -0.2957
 1322SOL    HW115425   2.344   1.385  15.893 -1.1286  0.0252  1.4686
 1322SOL    HW215426   2.410   1.269  15.829 -0.8895 -2.1104  0.4381
 1323SOL     OW15427   0.174   0.112  15.086 -0.4853  0.4235  0.1771
 1323SOL    HW115428   0.099   0.056  15.105  0.1891 -0.3253  0.5915
 1323SOL    HW215429   0.220   0.051  15.029 -0.0425  0.6634  0.2716
 1324SOL     OW15430   3.022   3.984   7.937  0.0025  0.3018  0.0447
 1324SOL    HW115431   3.026   4.068   7.983 -2.0149 -0.0104  0.8161
 1324SOL    HW215432   2.989   3.945   8.018  0.9186  1.2213  0.8471
 1325SOL     OW15433   1.422   2.999   3.853 -0.2454  0.5721 -0.4234
 1325SOL    HW115434   1.501   2.958   3.818 -0.8125  0.3883 -1.4661
 1325SOL    HW215435   1.427   3.092   3.832  1.6759  0.6086  0.1758
 1326SOL     OW15436   4.215   2.554   8.685 -0.2012  0.3083  0.7548
 1326SOL    HW115437   4.143   2.564   8.622  0.3154  2.1176  0.4455
 1326SOL    HW215438   4.205   2.461   8.704 -0.0704 -0.2364 -1.7918
 1327SOL     OW15439   1.030   0.812   9.540  0.5418 -0.2923  0.0598
 1327SOL    HW115440   0.971   0.817   9.615  0.7012  0.7057  0.1137
 1327SOL    HW215441   1.046   0.717   9.539  0.1847 -0.3599  0.5492
 1328SOL     OW15442   0.275   0.270   2.214  0.4748 -0.6210 -0.1879
 1328SOL    HW115443   0.338   0.315   2.271 -0.4817  1.6625 -0.9148
 1328SOL    HW215444   0.213   0.229   2.275  0.7719  1.1663  1.3150
 1329SOL     OW15445   2.395   0.807   2.777  0.4912 -0.1820 -0.1657
 1329SOL    HW115446   2.314   0.833   2.822  1.5887  0.5362  1.3814
 1329SOL    HW215447   2.455   0.823   2.849  1.1533  1.0233 -1.0034
 1330SOL     OW15448   1.661   2.301   4.165  0.1220 -0.3192 -0.3127
 1330SOL    HW115449   1.702   2.269   4.085 -0.0916 -2.6452  0.5165
 1330SOL    HW215450   1.569   2.276   4.156 -0.0076 -0.1206  0.4229
 1331SOL     OW15451   1.837   3.846   4.459 -0.4558 -0.0225 -0.5153
 1331SOL    HW115452   1.768   3.855   4.525 -0.1763  0.9462 -0.3495
 1331SOL    HW215453   1.858   3.756   4.483  0.8209  0.2133 -0.7316
 1332SOL     OW15454   3.160   0.374   2.757  0.2305  0.0539  0.3445
 1332SOL    HW115455   3.158   0.468   2.740  0.2122 -0.1422 -0.7708
 1332SOL    HW215456   3.198   0.336   2.678 -2.0257  0.7300 -1.0732
 1333SOL     OW15457   0.341   1.067   8.069 -0.5041 -0.2160 -0.3318
 1333SOL    HW115458   0.334   0.975   8.042  1.3155 -0.4453  0.0177
 1333SOL    HW215459   0.246   1.082   8.066 -0.5368 -0.4729 -0.6553
 1334SOL     OW15460   2.989   4.177   6.110  0.4184  0.0903  0.2868
 1334SOL    HW115461   2.917   4.197   6.169 -1.1939 -1.4246 -1.1532
 1334SOL    HW215462   2.954   4.122   6.040 -1.9582  2.2006 -0.1779
 1335SOL     OW15463   0.121   1.062   7.109 -0.5114  0.8409 -0.2465
 1335SOL    HW115464   0.188   0.998   7.086  0.4858  1.8646 -0.1903
 1335SOL    HW215465   0.074   1.023   7.183  1.4644 -1.6980 -0.3276
 1336SOL     OW15466   3.737   2.282   7.500 -1.1102 -0.4243  0.3527
 1336SOL    HW115467   3.719   2.188   7.494 -0.3220 -0.5424 -0.2606
 1336SOL    HW215468   3.657   2.316   7.539 -0.9932 -0.5157  0.6760
 1337SOL     OW15469   1.533   3.789   6.152  0.3642 -0.2217 -0.2527
 1337SOL    HW115470   1.485   3.847   6.211  1.5425  1.0029 -0.4943
 1337SOL    HW215471   1.470   3.717   6.145 -0.5155  0.3956  1.4051
 1338SOL     OW15472   1.226   2.341   4.536  0.7856  0.2276 -0.7291
 1338SOL    HW115473   1.206   2.349   4.443  0.8327 -1.1017 -0.8532
 1338SOL    HW215474   1.185   2.256   4.552 -0.7728  1.2165  0.5066
 1339SOL     OW15475   2.029   3.464   5.901  0.4594 -0.3347 -0.6073
 1339SOL    HW115476   2.098   3.399   5.886  1.4643  1.1081 -2.2178
 1339SOL    HW215477   2.079   3.546   5.902 -0.1478  0.0110  2.8739
 1340SOL     OW15478   3.348   3.963   8.946  0.3121  0.3648  0.1557
 1340SOL    HW115479   3.338   3.868   8.954 -0.0459  0.3916  0.0233
 1340SOL    HW215480   3.362   3.975   8.852 -2.2615  0.5882 -0.2123
 1341SOL     OW15481   0.759   0.759   9.679  0.8642 -0.1520 -0.5385
 1341SOL    HW115482   0.744   0.669   9.649 -2.0616  0.3117 -0.4796
 1341SOL    HW215483   0.771   0.754   9.773  0.5550 -1.4329 -0.5699
 1342SOL     OW15484   3.630   3.897  15.107 -0.1594  0.3267  0.3412
 1342SOL    HW115485   3.649   3.986  15.137 -0.9502  0.4590  0.4684
 1342SOL    HW215486   3.553   3.912  15.051  0.6286  0.7667 -0.6231
 1343SOL     OW15487   2.049   3.544   1.408 -1.0772  0.6445 -0.3119
 1343SOL    HW115488   2.008   3.475   1.355 -1.7533  0.7021  0.1276
 1343SOL    HW215489   1.982   3.610   1.388 -2.1214  0.2674  2.0005
 1344SOL     OW15490   2.607   1.584  12.805  0.0424  0.0343  0.3923
 1344SOL    HW115491   2.628   1.674  12.779  0.6321 -0.0937  0.4391
 1344SOL    HW215492   2.632   1.534  12.728 -2.7785 -0.4435 -0.2205
 1345SOL     OW15493   1.350   3.147   6.073 -0.1957  0.3551  0.5105
 1345SOL    HW115494   1.283   3.140   6.006  0.7951  3.3415 -0.7592
 1345SOL    HW215495   1.348   3.059   6.112  3.1938  0.1716  0.2781
 1346SOL     OW15496   1.442   3.241  14.543 -0.2515  0.0322  0.2431
 1346SOL    HW115497   1.486   3.244  14.458  0.4788  1.4662  0.6853
 1346SOL    HW215498   1.372   3.307  14.542  0.9260  1.2959  1.8350
 1347SOL     OW15499   0.849   3.162  15.967 -0.5812  0.7358 -0.3735
 1347SOL    HW115500   0.866   3.081  16.017  1.7050  1.4961  0.0704
 1347SOL    HW215501   0.773   3.200  16.012 -1.5083 -0.1136 -1.2125
 1348SOL     OW15502   2.484   4.565   9.178 -0.2724 -0.3581  0.4833
 1348SOL    HW115503   2.464   4.489   9.233 -2.1609  0.6902  1.2344
 1348SOL    HW215504   2.424   4.633   9.210 -0.6163  0.7354 -2.4345
 1349SOL     OW15505   0.482   0.164   4.520  0.0578  0.2948  0.5911
 1349SOL    HW115506   0.500   0.090   4.578 -2.0719 -1.0912 -0.5373
 1349SOL    HW215507   0.392   0.148   4.492  0.4475 -0.5983 -0.1385
 1350SOL     OW15508   3.769   4.149   2.316  0.1616  0.7077 -0.7914
 1350SOL    HW115509   3.803   4.189   2.396  0.9698  0.0181 -0.7969
 1350SOL    HW215510   3.698   4.205   2.286  0.0558  1.2036  0.3644
 1351SOL     OW15511   2.270   3.064   2.447 -0.0434  0.1929 -0.0412
 1351SOL    HW115512   2.226   3.021   2.375  1.8848 -0.0850 -1.0658
 1351SOL    HW215513   2.190   3.108   2.475  0.8313 -0.5862  3.6684
 1352SOL     OW15514   1.723   2.059   7.297 -0.4533  0.2836  0.4627
 1352SOL    HW115515   1.768   2.045   7.380  1.7620  0.9886 -0.6077
 1352SOL    HW215516   1.748   1.976   7.258  1.8601  1.5630 -0.7334
 1353SOL     OW15517   4.354   2.551   2.351 -0.0183  0.5331  0.1215
 1353SOL    HW115518   4.323   2.475   2.301  1.2568 -1.3452  2.2006
 1353SOL    HW215519   4.408   2.595   2.286  0.8734 -0.4728  0.1858
 1354SOL     OW15520   4.702   1.156   5.673 -0.2291 -0.0301  0.4784
 1354SOL    HW115521   0.032   1.075   5.689 -3.0713 -1.4291  2.2173
 1354SOL    HW215522   4.659   1.178   5.756 -0.4517  1.0145  0.0908
 1355SOL     OW15523   3.779   1.906  10.850 -0.3445 -0.5348  0.1724
 1355SOL    HW115524   3.828   1.825  10.867 -2.4560 -2.3682 -2.4881
 1355SOL    HW215525   3.850   1.964  10.824 -0.4431 -0.4002  0.2085
 1356SOL     OW15526   1.492   1.868   6.097  0.1294  0.2315 -0.0756
 1356SOL    HW115527   1.562   1.806   6.119 -0.0326  0.6035  1.5184
 1356SOL    HW215528   1.448   1.827   6.023  0.8542  1.6026 -1.2654
 1357SOL     OW15529   2.844   2.307  14.170 -0.0747 -0.2225 -0.2599
 1357SOL    HW115530   2.910   2.275  14.109  0.4449 -1.9358  1.1933
 1357SOL    HW215531   2.825   2.216  14.195 -0.3544 -0.9087 -2.9911
 1358SOL     OW15532   0.030   3.700   1.187  0.4137 -0.3902 -0.0395
 1358SOL    HW115533   0.087   3.624   1.177  1.1648 -0.0946  1.9089
 1358SOL    HW215534   0.065   3.741   1.266 -1.8278  2.7867 -0.6768
 1359SOL     OW15535   3.487   1.977   8.501 -0.2870 -0.4720 -1.0582
 1359SOL    HW115536   3.575   1.962   8.537 -0.9362 -1.5385  0.0925
 1359SOL    HW215537   3.434   1.906   8.538 -0.9306  0.3865 -0.3401
 1360SOL     OW15538   0.277   0.340   2.769 -0.4675  0.2336  0.7582
 1360SOL    HW115539   0.260   0.253   2.806  0.1076  0.1273  0.7709
 1360SOL    HW215540   0.334   0.304   2.701 -0.2181  0.8263  0.6579
 1361SOL     OW15541   0.040   4.416   8.485 -0.0550  0.5020  0.4235
 1361SOL    HW115542   4.718   4.344   8.436 -0.3483 -0.8103  2.6066
 1361SOL    HW215543   0.057   4.472   8.409 -0.0481  0.2871  0.2631
 1362SOL     OW15544   4.615   4.263  13.037 -0.4457  0.6176  0.5596
 1362SOL    HW115545   4.630   4.347  13.081 -1.2231  1.9584 -1.7398
 1362SOL    HW215546   4.599   4.295  12.948  2.2028  2.2308  0.6473
 1363SOL     OW15547   0.570   1.868  11.677 -0.0296  0.2198  0.0712
 1363SOL    HW115548   0.509   1.798  11.698  1.7957 -1.7922 -1.3084
 1363SOL    HW215549   0.515   1.935  11.637  0.6477 -0.2422 -1.6440
 1364SOL     OW15550   1.832   0.242   6.785  0.1894 -0.6539  0.3157
 1364SOL    HW115551   1.808   0.323   6.830  1.1826 -1.3394  2.0804
 1364SOL    HW215552   1.826   0.176   6.854  0.2516 -2.0635 -1.0115
 1365SOL     OW15553   1.352   2.700  15.877 -0.1504 -0.2669  0.0182
 1365SOL    HW115554   1.311   2.786  15.868  1.4251  0.7825  2.9815
 1365SOL    HW215555   1.354   2.687  15.972  0.7527  0.1148  0.0525
 1366SOL     OW15556   1.026   0.114  11.752  0.4335  0.1167  0.0211
 1366SOL    HW115557   0.946   0.071  11.783 -1.5766  2.6490 -1.7375
 1366SOL    HW215558   1.081   0.039  11.775  3.6109  2.4241 -0.1068
 1367SOL     OW15559   0.838   3.053  15.570  0.1736  0.3595  0.0926
 1367SOL    HW115560   0.767   3.007  15.614  0.6659  0.6150  1.1647
 1367SOL    HW215561   0.808   3.066  15.480 -4.2567  0.6975  1.6393
 1368SOL     OW15562   3.846   0.294   0.407  0.2229  0.6314 -0.1490
 1368SOL    HW115563   3.863   0.252   0.322 -1.2817 -0.6979  0.2182
 1368SOL    HW215564   3.788   0.365   0.381 -1.6836 -0.5491  0.9261
 1369SOL     OW15565   0.993   2.881   6.703  0.3342 -0.3976  0.1728
 1369SOL    HW115566   1.079   2.911   6.731  0.3059  0.3904 -0.6091
 1369SOL    HW215567   1.010   2.842   6.617 -0.1606 -1.9072  0.7437
 1370SOL     OW15568   1.327   0.184   4.629 -0.1909  0.3696  0.6756
 1370SOL    HW115569   1.385   0.259   4.612 -0.2122  0.0051 -1.0696
 1370SOL    HW215570   1.276   0.184   4.547 -1.4185  1.5664  1.4340
 1371SOL     OW15571   1.441   1.282  12.996  0.3075  0.4559 -0.2393
 1371SOL    HW115572   1.524   1.327  12.981  1.3772 -1.5058 -0.3091
 1371SOL    HW215573   1.383   1.329  12.937 -0.2105 -0.0118 -0.1067
 1372SOL     OW15574   0.422   1.727   3.645 -0.3973 -0.3769 -0.2516
 1372SOL    HW115575   0.420   1.659   3.712  0.7116 -0.5525 -0.3976
 1372SOL    HW215576   0.398   1.806   3.694  0.1166 -0.6407  0.4302
 1373SOL     OW15577   1.580   4.401   0.715 -0.0125  0.5880 -0.1952
 1373SOL    HW115578   1.526   4.377   0.791  0.8870 -1.2257 -0.1118
 1373SOL    HW215579   1.524   4.397   0.637 -1.0351 -2.2255  0.6669
 1374SOL     OW15580   3.157   3.676   1.166  0.4531 -0.5638 -0.2167
 1374SOL    HW115581   3.154   3.684   1.262 -4.9638  1.5105 -0.5428
 1374SOL    HW215582   3.251   3.659   1.160  0.7449  0.8048  0.3261
 1375SOL     OW15583   1.154   3.856   3.507  0.3903 -0.5874  0.4826
 1375SOL    HW115584   1.082   3.915   3.534  0.2532 -0.5851  0.1070
 1375SOL    HW215585   1.121   3.818   3.426 -0.2123 -1.1033  0.9636
 1376SOL     OW15586   4.533   2.907  12.240  0.3143 -0.1532 -0.0543
 1376SOL    HW115587   4.562   2.875  12.154 -1.9019 -1.0393 -0.4864
 1376SOL    HW215588   4.611   2.944  12.282 -1.0984  1.9311  0.6831
 1377SOL     OW15589   3.583   2.828   5.032 -0.2003  0.4291 -0.3096
 1377SOL    HW115590   3.506   2.773   5.015 -0.1993 -0.5738  2.8551
 1377SOL    HW215591   3.540   2.895   5.086  1.4973  0.3914  1.0933
 1378SOL     OW15592   0.692   1.764   0.637 -0.2342 -0.0862 -1.1028
 1378SOL    HW115593   0.635   1.719   0.575 -0.9385  0.6328 -0.9890
 1378SOL    HW215594   0.637   1.825   0.686  1.0199 -0.5527  0.8875
 1379SOL     OW15595   2.762   3.896  12.462  0.4196 -0.5211 -0.1681
 1379SOL    HW115596   2.838   3.945  12.494 -0.3251  1.7107 -1.7806
 1379SOL    HW215597   2.804   3.836  12.400  1.3802 -0.8391  0.7921
 1380SOL     OW15598   3.318   3.719   5.145  0.2370  0.5329 -0.4620
 1380SOL    HW115599   3.343   3.714   5.237  0.8822  0.7702 -0.6234
 1380SOL    HW215600   3.287   3.630   5.127 -0.7599  0.5173  1.3749
 1381SOL     OW15601   1.434   2.201   0.503  0.0747  0.0659 -0.3421
 1381SOL    HW115602   1.413   2.212   0.411 -0.4632  2.2943  0.0456
 1381SOL    HW215603   1.372   2.265   0.539  0.5247 -0.3872  1.2625
 1382SOL     OW15604   4.461   1.612   1.109 -0.0057 -0.0088  0.6945
 1382SOL    HW115605   4.469   1.682   1.174 -0.3874  0.5411  0.1472
 1382SOL    HW215606   4.516   1.542   1.144 -2.4587 -2.1943  0.2431
 1383SOL     OW15607   3.263   3.683   5.975  0.4395  0.3221 -0.6572
 1383SOL    HW115608   3.185   3.735   5.990  0.6326  0.7352 -1.0696
 1383SOL    HW215609   3.311   3.702   6.056  0.3826 -1.0936 -0.3008
 1384SOL     OW15610   0.201   1.212   5.880 -0.7124 -0.4637 -0.1119
 1384SOL    HW115611   0.292   1.239   5.891 -0.8878 -0.0546  0.3379
 1384SOL    HW215612   0.177   1.252   5.797 -0.1635 -1.6078 -0.8182
 1385SOL     OW15613   4.451   0.887   7.994 -0.2402  0.1115  0.3237
 1385SOL    HW115614   4.411   0.929   8.070  2.2812  0.9732  1.1761
 1385SOL    HW215615   4.411   0.941   7.926  0.9974  0.6887  0.0627
 1386SOL     OW15616   4.139   4.414   4.178 -0.1889 -0.7897  0.0988
 1386SOL    HW115617   4.152   4.392   4.271  1.1812 -0.8853 -0.1164
 1386SOL    HW215618   4.140   4.325   4.145  0.2178 -1.0198  0.7221
 1387SOL     OW15619   0.915   4.335  15.631 -0.0214  0.5028  0.0995
 1387SOL    HW115620   0.843   4.272  15.636 -0.3165  0.8200 -0.0769
 1387SOL    HW215621   0.986   4.280  15.598  0.3865  0.3597  1.2395
 1388SOL     OW15622   1.649   3.082   6.773 -0.0539  0.5558 -0.5736
 1388SOL    HW115623   1.622   3.035   6.852 -2.5163  1.3755 -0.9223
 1388SOL    HW215624   1.717   3.132   6.819  0.6490  1.6886 -2.8392
 1389SOL     OW15625   1.754   1.865   5.622 -0.8229  0.0633  0.1033
 1389SOL    HW115626   1.809   1.859   5.700  1.1033  2.6794 -1.0707
 1389SOL    HW215627   1.820   1.899   5.562  1.6724 -1.3342  2.0251
 1390SOL     OW15628   0.789   3.887   2.109 -0.0097 -0.4432 -0.1791
 1390SOL    HW115629   0.700   3.912   2.084 -0.0327 -1.3209 -0.9393
 1390SOL    HW215630   0.766   3.807   2.157 -3.5981  0.1195 -0.9629
 1391SOL     OW15631   1.578   1.763  14.773  0.2772 -0.3302 -0.4134
 1391SOL    HW115632   1.645   1.816  14.815  1.5950 -3.5138  1.5732
 1391SOL    HW215633   1.618   1.677  14.758  1.4411 -0.0320  1.0150
 1392SOL     OW15634   2.718   4.318   7.329  0.2279 -0.1937  0.1766
 1392SOL    HW115635   2.639   4.337   7.380  0.5509  1.2343  0.1269
 1392SOL    HW215636   2.683   4.321   7.240 -1.2582  1.9551  0.8151
 1393SOL     OW15637   0.055   1.284   6.970  0.3973 -0.2482 -0.0453
 1393SOL    HW115638   0.059   1.199   7.013 -1.5207 -0.2588  0.1055
 1393SOL    HW215639   0.034   1.253   6.882 -0.9123  0.7885 -0.0911
 1394SOL     OW15640   3.158   0.527   7.705 -0.2974 -0.3985 -0.0851
 1394SOL    HW115641   3.118   0.489   7.784  0.9337 -0.3415  0.5612
 1394SOL    HW215642   3.231   0.575   7.744 -0.5412  0.3841 -0.5949
 1395SOL     OW15643   2.555   2.339   8.323  0.1625 -0.0845 -0.4639
 1395SOL    HW115644   2.648   2.336   8.302  0.6468 -1.9701  2.0809
 1395SOL    HW215645   2.558   2.358   8.416 -1.5898  2.2826 -0.8679
 1396SOL     OW15646   4.143   2.450  10.976  0.4529  0.0884 -0.0893
 1396SOL    HW115647   4.168   2.452  10.884  0.5477 -1.5508 -0.1016
 1396SOL    HW215648   4.142   2.545  10.990 -0.3419 -0.1254  1.3342
 1397SOL     OW15649   4.275   0.660   6.777  0.0738 -0.2901 -0.6682
 1397SOL    HW115650   4.339   0.599   6.740  0.8131  1.1034 -1.6642
 1397SOL    HW215651   4.202   0.613   6.737 -1.2607 -1.0727  2.6041
 1398SOL     OW15652   0.586   0.942   3.995  0.0053 -0.1659 -0.3306
 1398SOL    HW115653   0.588   0.958   3.901  0.3441  1.8054  0.0230
 1398SOL    HW215654   0.509   0.886   4.004  0.6121 -0.6129  2.2253
 1399SOL     OW15655   0.702   1.615   4.413 -1.1726  0.1868  0.0627
 1399SOL    HW115656   0.796   1.634   4.417 -1.2678  0.4592  0.9739
 1399SOL    HW215657   0.693   1.558   4.336 -2.1376  2.6686 -1.6699
 1400SOL     OW15658   3.830   0.989   6.503  0.5319  0.0558  0.2937
 1400SOL    HW115659   3.800   0.960   6.589  1.3116  1.4161  1.0283
 1400SOL    HW215660   3.785   1.071   6.483 -0.3996 -0.1170  1.7269
 1401SOL     OW15661   0.614   3.232   6.655  0.2100 -0.0962  0.0929
 1401SOL    HW115662   0.589   3.218   6.747 -3.1530  0.9615 -0.6979
 1401SOL    HW215663   0.682   3.297   6.673  2.3514 -2.2634 -0.1976
 1402SOL     OW15664   3.863   3.606   8.082  0.2425 -0.3615 -0.1742
 1402SOL    HW115665   3.842   3.691   8.121  1.5332 -0.3896  0.5852
 1402SOL    HW215666   3.877   3.634   7.991 -1.2952 -1.4825 -0.7619
 1403SOL     OW15667   0.641   0.659   4.598 -0.5162  0.5393  0.1650
 1403SOL    HW115668   0.615   0.696   4.513  1.6305  1.1066 -0.2534
 1403SOL    HW215669   0.679   0.576   4.570  1.1166  0.9696  1.1129
 1404SOL     OW15670   2.782   4.619  11.364  0.4658 -0.1785 -0.0268
 1404SOL    HW115671   2.695   4.589  11.339 -0.5332  1.6780  1.2296
 1404SOL    HW215672   2.829   4.568  11.298 -0.2074  0.3180 -0.8839
 1405SOL     OW15673   3.236   0.276   0.787  0.2211  0.2182  0.2718
 1405SOL    HW115674   3.169   0.340   0.809 -2.0577 -1.9224 -0.5132
 1405SOL    HW215675   3.246   0.229   0.869 -3.3646 -1.7820 -0.4696
 1406SOL     OW15676   0.371   0.464   4.282 -0.5086  0.0733  0.2131
 1406SOL    HW115677   0.333   0.539   4.329  1.2722  1.1192  0.0002
 1406SOL    HW215678   0.292   0.421   4.250 -0.4672 -0.4812  0.8648
 1407SOL     OW15679   3.504   4.622   4.827 -0.3688  0.1186  0.1109
 1407SOL    HW115680   3.535   4.605   4.738  0.3729  0.8059  0.2419
 1407SOL    HW215681   3.455   4.703   4.818 -0.2283  0.0486 -1.2463
 1408SOL     OW15682   2.075   3.599  11.821 -0.0423 -0.2486 -0.3124
 1408SOL    HW115683   2.048   3.643  11.902 -0.7152 -0.8287 -0.2165
 1408SOL    HW215684   2.141   3.535  11.846  1.0202  0.3641 -1.5374
 1409SOL     OW15685   1.405   2.869   2.113 -0.0952 -0.0257 -0.0218
 1409SOL    HW115686   1.414   2.956   2.074  1.7551 -1.0771 -1.9652
 1409SOL    HW215687   1.457   2.879   2.193  1.1711 -0.1720 -0.8200
 1410SOL     OW15688   0.887   2.935   1.365 -0.0673 -0.0073  0.3574
 1410SOL    HW115689   0.822   2.902   1.428 -2.4601  2.5044 -0.7825
 1410SOL    HW215690   0.835   3.014   1.350  0.5585 -0.0884 -2.2961
 1411SOL     OW15691   4.466   2.264   2.688 -0.5532 -0.5403 -0.2946
 1411SOL    HW115692   4.382   2.288   2.648 -0.2858  0.3292 -0.3155
 1411SOL    HW215693   4.510   2.348   2.696  0.4207 -1.0464 -0.3717
 1412SOL     OW15694   0.019   0.951   7.985 -0.2295 -0.3865  0.2133
 1412SOL    HW115695   0.040   0.929   8.076 -2.6404  0.2784  0.9362
 1412SOL    HW215696   4.655   0.907   7.966 -0.3200 -0.5084  0.8993
 1413SOL     OW15697   2.386   3.533   5.708 -0.1637 -0.4719 -0.0133
 1413SOL    HW115698   2.346   3.455   5.748  3.1022 -1.5278  1.1841
 1413SOL    HW215699   2.310   3.553   5.653  0.3113  1.8075  0.1824
 1414SOL     OW15700   1.920   3.701   8.024 -0.0937 -0.3249 -0.1025
 1414SOL    HW115701   2.002   3.670   8.061 -0.0340  0.8192  0.7176
 1414SOL    HW215702   1.890   3.626   7.973  0.2821 -0.1658 -0.5534
 1415SOL     OW15703   3.040   2.386   7.650 -0.8273 -0.2995 -0.3584
 1415SOL    HW115704   2.992   2.345   7.578 -0.9532 -0.8168  0.0195
 1415SOL    HW215705   3.015   2.331   7.724  2.4881 -1.1030  0.1639
 1416SOL     OW15706   4.212   1.968   3.455 -0.6011 -0.2669 -0.1200
 1416SOL    HW115707   4.236   2.035   3.392  0.2268  0.1311  0.6150
 1416SOL    HW215708   4.292   1.970   3.508  0.0728 -0.7525 -1.1356
 1417SOL     OW15709   0.422   2.246  16.213  0.2085 -0.0030  0.1762
 1417SOL    HW115710   0.408   2.341  16.210  0.8124  0.0337 -1.6974
 1417SOL    HW215711   0.373   2.211  16.138 -1.3574  1.1100  0.6584
 1418SOL     OW15712   1.427   2.689   3.645 -0.3703  0.1057  0.7102
 1418SOL    HW115713   1.385   2.727   3.722 -1.4845  0.4942 -0.0904
 1418SOL    HW215714   1.418   2.597   3.668  0.5352 -0.6523 -1.9375
 1419SOL     OW15715   2.938   2.999  10.279 -0.0109  0.1653 -0.1699
 1419SOL    HW115716   3.032   2.984  10.288  0.4275  2.5808 -0.6052
 1419SOL    HW215717   2.902   3.004  10.367  0.3686 -2.9705  0.1689
 1420SOL     OW15718   3.356   0.569   6.741 -0.5589  0.4567  0.1339
 1420SOL    HW115719   3.330   0.577   6.649  1.2312  0.6263 -0.3696
 1420SOL    HW215720   3.418   0.499   6.723  1.5299  1.4601  3.5270
 1421SOL     OW15721   3.181   1.349   9.855  0.4813 -0.7214 -0.4340
 1421SOL    HW115722   3.161   1.369   9.764  0.1932  0.2239 -0.1593
 1421SOL    HW215723   3.142   1.422   9.903 -0.8435 -0.8004 -1.3812
 1422SOL     OW15724   0.255   0.701  12.816 -0.0817 -0.0920  0.2645
 1422SOL    HW115725   0.201   0.766  12.862  1.4147  0.4654  1.2318
 1422SOL    HW215726   0.295   0.670  12.897 -0.3927 -2.0021 -0.3208
 1423SOL     OW15727   1.731   0.194   3.161  0.2274  0.0277 -0.4472
 1423SOL    HW115728   1.662   0.260   3.164 -0.8362 -1.1261  0.3389
 1423SOL    HW215729   1.775   0.208   3.245  1.2759 -0.0942 -0.9730
 1424SOL     OW15730   1.408   3.531  15.860  0.5150  0.2766 -0.1355
 1424SOL    HW115731   1.362   3.469  15.803 -2.3699 -0.5129  3.0401
 1424SOL    HW215732   1.474   3.570  15.803  0.3564 -0.6368 -0.9403
 1425SOL     OW15733   2.759   0.558  11.582  0.4194 -0.3717  0.1259
 1425SOL    HW115734   2.698   0.548  11.509  1.5668 -1.1056 -0.7455
 1425SOL    HW215735   2.742   0.645  11.619  2.5226 -0.0172  0.2724
 1426SOL     OW15736   3.163   2.851   7.254  0.0695 -0.3261  0.2484
 1426SOL    HW115737   3.128   2.777   7.205  1.9118 -1.8600  1.2634
 1426SOL    HW215738   3.155   2.826   7.347 -0.4539  0.4677  0.4202
 1427SOL     OW15739   0.436   2.802  10.157 -0.5657 -0.7311 -0.3871
 1427SOL    HW115740   0.522   2.845  10.151 -0.3431 -1.2847 -1.1902
 1427SOL    HW215741   0.400   2.863  10.093 -1.0891  0.0125  0.6289
 1428SOL     OW15742   2.678   0.361   8.281 -0.1059  0.0924  0.5099
 1428SOL    HW115743   2.612   0.399   8.223  1.3722 -0.1131 -1.3119
 1428SOL    HW215744   2.630   0.382   8.361 -1.4480 -0.4126 -0.1553
 1429SOL     OW15745   4.288   1.006   3.880 -0.4097  0.5322 -0.1650
 1429SOL    HW115746   4.378   0.974   3.886 -1.3149 -1.5080  2.2645
 1429SOL    HW215747   4.254   0.968   3.799 -0.7476 -1.7408  1.0491
 1430SOL     OW15748   3.898   1.174  11.281 -0.3124 -0.2485 -0.3837
 1430SOL    HW115749   3.861   1.159  11.368  0.0136 -0.0474 -0.2130
 1430SOL    HW215750   3.905   1.269  11.283  0.8117 -0.3329 -0.5533
 1431SOL     OW15751   4.641   3.146   8.840 -0.0888 -0.0461  0.0609
 1431SOL    HW115752   0.000   3.134   8.787  0.2407  1.0846  0.3076
 1431SOL    HW215753   4.577   3.173   8.774  0.8778 -1.9605 -1.6765
 1432SOL     OW15754   1.011   2.127   7.243  0.4863 -0.2911 -0.4334
 1432SOL    HW115755   0.992   2.109   7.335  3.3991 -0.9077  0.0278
 1432SOL    HW215756   0.960   2.052   7.212  0.1807  0.3049 -1.3969
 1433SOL     OW15757   1.166   1.096   8.476 -0.0448 -0.7789 -0.2461
 1433SOL    HW115758   1.121   1.062   8.554 -1.5045 -0.1507 -0.8112
 1433SOL    HW215759   1.086   1.129   8.434 -0.8700 -1.1054  1.0589
 1434SOL     OW15760   2.222   3.398   8.589 -0.0365  0.2660 -0.0137
 1434SOL    HW115761   2.265   3.313   8.578  0.2002  0.5632 -1.4013
 1434SOL    HW215762   2.295   3.439   8.636 -0.5812 -1.9724  2.7726
 1435SOL     OW15763   2.105   2.192  11.116  0.5261  0.1807 -0.2946
 1435SOL    HW115764   2.077   2.118  11.062 -0.4492  1.6899 -1.8276
 1435SOL    HW215765   2.073   2.181  11.205  0.6437  0.7814 -0.1774
 1436SOL     OW15766   4.107   0.608   5.167 -0.1103 -0.7456  0.2559
 1436SOL    HW115767   4.059   0.645   5.242  0.2826 -2.3031  1.2852
 1436SOL    HW215768   4.067   0.523   5.147 -0.0649 -0.4633 -0.9971
 1437SOL     OW15769   1.008   1.834   0.452 -0.0610  0.1238  0.8134
 1437SOL    HW115770   0.975   1.772   0.518 -0.0896  0.0646  0.7437
 1437SOL    HW215771   0.929   1.849   0.401  0.2195  0.4328  0.4716
 1438SOL     OW15772   3.192   2.408   2.039  0.3162 -0.4711  0.1997
 1438SOL    HW115773   3.270   2.440   1.993  1.1086  0.1266  1.9518
 1438SOL    HW215774   3.173   2.493   2.079  1.4748  0.4311 -1.1847
 1439SOL     OW15775   3.926   1.642   0.685  0.7346  0.1938 -0.2225
 1439SOL    HW115776   3.865   1.700   0.640  0.4417 -0.3464 -0.5222
 1439SOL    HW215777   3.898   1.558   0.649  2.0434 -0.5234  0.4041
 1440SOL     OW15778   0.300   4.270  10.060  0.2363  0.5619 -0.0930
 1440SOL    HW115779   0.285   4.182  10.026  2.7458  0.6479 -1.3957
 1440SOL    HW215780   0.213   4.306  10.044  0.1117  0.5848  0.6195
 1441SOL     OW15781   2.252   3.201  16.426  0.3752 -0.2491 -0.7787
 1441SOL    HW115782   2.220   3.205  16.336  0.4640  0.0960 -0.7928
 1441SOL    HW215783   2.301   3.119  16.439  1.1052  0.0831 -1.4443
 1442SOL     OW15784   4.343   0.606   4.811  0.7680  0.0286  0.1025
 1442SOL    HW115785   4.247   0.603   4.818  0.5533  0.8391 -2.2802
 1442SOL    HW215786   4.373   0.692   4.840  0.6185  0.1160  0.0031
 1443SOL     OW15787   0.345   4.237   3.332 -0.0235  0.1641  0.5293
 1443SOL    HW115788   0.343   4.144   3.354  1.1981  0.0359  0.1458
 1443SOL    HW215789   0.278   4.244   3.264  1.9618  1.4882 -1.3037
 1444SOL     OW15790   1.644   4.440   6.275  0.3449  0.1300 -0.0317
 1444SOL    HW115791   1.695   4.509   6.233  0.8272  0.3987  0.9999
 1444SOL    HW215792   1.661   4.461   6.366  3.1022 -0.1627 -0.4714
 1445SOL     OW15793   2.859   3.394  17.102 -0.0365 -0.0610 -0.3835
 1445SOL    HW115794   2.827   3.431  17.185  0.1313 -0.0160 -0.3382
 1445SOL    HW215795   2.782   3.350  17.067  0.6068 -2.3636  1.0498
 1446SOL     OW15796   2.259   0.554   4.609  0.3875 -0.0524  0.5451
 1446SOL    HW115797   2.318   0.607   4.554 -0.1441  0.4216  0.4340
 1446SOL    HW215798   2.231   0.478   4.557  0.7356 -0.1400  0.4833
 1447SOL     OW15799   0.462   0.182   2.606  0.0795 -0.5861 -0.4694
 1447SOL    HW115800   0.441   0.092   2.582  1.4777 -0.8490 -0.6964
 1447SOL    HW215801   0.547   0.159   2.643 -1.2885 -2.9548  1.2136
 1448SOL     OW15802   2.250   2.994   8.201 -0.2314  0.0441  0.3229
 1448SOL    HW115803   2.195   2.916   8.194 -0.2911  0.0198  1.0991
 1448SOL    HW215804   2.314   2.957   8.262 -0.2811  0.5869  0.7084
 1449SOL     OW15805   3.299   4.550   5.040  0.6066 -0.9669 -0.1483
 1449SOL    HW115806   3.320   4.578   4.951 -0.2241 -0.1612 -0.0979
 1449SOL    HW215807   3.385   4.515   5.065  1.6231 -0.3252 -2.8061
 1450SOL     OW15808   1.078   3.896   0.043 -0.6416  0.0454  0.2450
 1450SOL    HW115809   1.163   3.937   0.058 -0.4925  0.4596 -1.6846
 1450SOL    HW215810   1.089   3.805   0.070  1.1024  0.0058 -0.5593
 1451SOL     OW15811   1.197   3.305   6.890  0.1850 -0.8151  0.3493
 1451SOL    HW115812   1.281   3.346   6.872  0.6416 -0.5181  3.2322
 1451SOL    HW215813   1.220   3.243   6.959 -0.3979 -1.4305 -0.0036
 1452SOL     OW15814   4.582   0.552   1.812 -0.2315 -0.3574 -0.3260
 1452SOL    HW115815   4.504   0.608   1.813  0.3791  0.4899  0.6038
 1452SOL    HW215816   4.651   0.616   1.831  0.0180  0.1454 -2.9170
 1453SOL     OW15817   0.421   1.084  17.343  0.8317  0.3439  0.0173
 1453SOL    HW115818   0.496   1.028  17.366  0.4198 -1.1518 -2.2033
 1453SOL    HW215819   0.350   1.025  17.317  2.3728 -1.1393 -0.8573
 1454SOL     OW15820   4.610   0.551  13.725  0.7376  0.4878  0.1974
 1454SOL    HW115821   4.571   0.613  13.663  1.2862  1.4695  0.8312
 1454SOL    HW215822   4.556   0.473  13.715  0.5367  1.0435 -3.0423
 1455SOL     OW15823   3.940   1.932   2.959  0.5079  0.1670 -0.4229
 1455SOL    HW115824   3.936   2.022   2.992 -1.4406 -0.7028  1.6597
 1455SOL    HW215825   3.859   1.925   2.907  1.2711 -1.2328 -1.4253
 1456SOL     OW15826   2.267   4.532   5.704 -0.0310  0.0565 -0.4132
 1456SOL    HW115827   2.220   4.478   5.767 -0.1829  2.5556  1.6180
 1456SOL    HW215828   2.302   4.462   5.650  0.6898 -0.0348  0.1754
 1457SOL     OW15829   1.499   2.229   4.432  0.3954  0.4215 -0.1669
 1457SOL    HW115830   1.444   2.153   4.417  0.3298  0.6719 -1.1902
 1457SOL    HW215831   1.503   2.279   4.350  0.5574  2.3979  1.0345
 1458SOL     OW15832   2.558   1.603   8.427 -0.6378  0.0272 -0.1086
 1458SOL    HW115833   2.567   1.680   8.370 -0.5150  0.8222  0.9986
 1458SOL    HW215834   2.636   1.555   8.402 -1.6500 -2.1607  0.8820
 1459SOL     OW15835   0.601   3.853  17.437 -0.4763  0.1272  0.3741
 1459SOL    HW115836   0.541   3.922  17.410  0.1822  1.0299  1.2236
 1459SOL    HW215837   0.688   3.888  17.454  0.3984 -2.1989  0.7549
 1460SOL     OW15838   2.601   3.041   0.608  0.2075 -0.2271  0.1788
 1460SOL    HW115839   2.540   3.056   0.680 -1.2189  1.6824 -1.4307
 1460SOL    HW215840   2.573   3.115   0.553  1.1500 -0.2749 -0.3694
 1461SOL     OW15841   2.313   1.396   8.224 -0.1006 -0.2021  0.3908
 1461SOL    HW115842   2.318   1.489   8.243  1.3115 -0.6088  2.0402
 1461SOL    HW215843   2.389   1.381   8.166 -2.1900  2.1040 -2.9047
 1462SOL     OW15844   3.378   1.190  16.794  0.5036 -0.5699  0.3937
 1462SOL    HW115845   3.349   1.280  16.810  1.6382 -0.7490  3.4108
 1462SOL    HW215846   3.467   1.210  16.765 -0.0203  0.9955 -0.1752
 1463SOL     OW15847   2.916   4.354   2.475  0.3688  0.2614  0.0715
 1463SOL    HW115848   2.940   4.422   2.413 -0.5377  0.4826 -0.0346
 1463SOL    HW215849   2.987   4.292   2.457 -0.6191 -1.1394  1.0182
 1464SOL     OW15850   4.004   4.385  11.669 -0.1825  0.1148  0.1530
 1464SOL    HW115851   4.066   4.435  11.616 -1.5142 -0.2455 -1.7539
 1464SOL    HW215852   3.918   4.409  11.633 -0.2849 -0.8972 -0.2596
 1465SOL     OW15853   0.844   4.139   8.832  0.2550 -0.6771  0.0207
 1465SOL    HW115854   0.761   4.133   8.880 -0.9697  0.1220 -2.0033
 1465SOL    HW215855   0.835   4.231   8.809 -0.4088 -0.3978  1.3952
 1466SOL     OW15856   4.615   3.576  12.989  0.1880 -0.0649  0.0661
 1466SOL    HW115857   4.524   3.546  12.988  0.7716 -1.8300 -0.7710
 1466SOL    HW215858   4.589   3.660  13.028  0.9147 -0.6019  1.7025
 1467SOL     OW15859   0.844   3.105  14.140 -0.0729  0.6189 -0.2314
 1467SOL    HW115860   0.856   3.193  14.105 -1.4733  0.5447 -0.8881
 1467SOL    HW215861   0.929   3.061  14.141  0.4844  1.7664  3.1184
 1468SOL     OW15862   4.285   1.520   0.504 -0.4038  0.3573  0.5720
 1468SOL    HW115863   4.285   1.456   0.576 -1.3160  0.9815  1.1330
 1468SOL    HW215864   4.191   1.532   0.495 -0.5027  0.3816  1.5632
 1469SOL     OW15865   2.034   3.040   2.271  0.1186  0.0736  0.3117
 1469SOL    HW115866   1.958   2.982   2.277 -0.7764  1.0798 -1.0949
 1469SOL    HW215867   2.077   3.012   2.190 -0.6729  0.3869 -0.2191
 1470SOL     OW15868   4.067   4.213   2.939  0.2756  0.3237  0.2704
 1470SOL    HW115869   3.984   4.168   2.924  0.1798  0.6854 -0.2870
 1470SOL    HW215870   4.042   4.297   2.977 -0.7977  0.7347 -1.3472
 1471SOL     OW15871   1.676   4.542   0.413  0.3331  0.1662 -0.5765
 1471SOL    HW115872   1.641   4.621   0.372  3.1055  0.7344 -1.8592
 1471SOL    HW215873   1.648   4.476   0.350  0.8088 -1.1017  0.5546
 1472SOL     OW15874   4.386   2.393   1.934 -0.8568  0.4590 -0.1314
 1472SOL    HW115875   4.448   2.440   1.878 -2.1813  3.6495  1.0938
 1472SOL    HW215876   4.323   2.465   1.936  0.4075  1.5312  1.4996
 1473SOL     OW15877   0.127   0.372   4.187  0.4436  0.0080  0.5921
 1473SOL    HW115878   0.047   0.388   4.237 -1.2654 -2.8464 -1.2598
 1473SOL    HW215879   0.122   0.277   4.178 -1.8596  0.0768  1.1737
 1474SOL     OW15880   0.022   0.744   6.441 -0.1431  0.1799  0.1539
 1474SOL    HW115881   0.043   0.747   6.534 -0.0549 -0.3819  0.1469
 1474SOL    HW215882   0.044   0.655   6.413 -0.4372 -0.1402  0.9590
 1475SOL     OW15883   3.924   4.040  15.237  0.1910  0.5724 -0.4290
 1475SOL    HW115884   3.836   4.075  15.221  0.6899 -0.5826 -5.6123
 1475SOL    HW215885   3.920   3.975  15.167  0.8368  1.6873 -1.4940
 1476SOL     OW15886   3.761   0.143   0.207 -0.3170  0.2314 -0.3991
 1476SOL    HW115887   3.806   0.078   0.153 -1.2299 -2.0674  1.6286
 1476SOL    HW215888   3.678   0.140   0.159 -0.5012  0.7458 -0.1153
 1477SOL     OW15889   0.384   4.628   9.275 -0.1718 -0.0705  0.1323
 1477SOL    HW115890   0.384   4.540   9.238  0.1879 -0.0626  0.1118
 1477SOL    HW215891   0.293   4.652   9.260 -0.2843 -0.0392  0.8840
 1478SOL     OW15892   3.000   3.818   9.107 -0.3286  0.3839 -0.5052
 1478SOL    HW115893   3.064   3.747   9.109  0.9843  1.5796  0.6232
 1478SOL    HW215894   3.025   3.861   9.189  0.7531  1.4301 -1.3629
 1479SOL     OW15895   3.872   3.729   5.369 -0.0244  0.0878  1.2360
 1479SOL    HW115896   3.928   3.652   5.361 -1.7341 -1.2686  2.2158
 1479SOL    HW215897   3.918   3.792   5.314  0.2900 -0.8578  0.4161
 1480SOL     OW15898   2.900   3.524   9.566  0.3832  0.3566 -0.2339
 1480SOL    HW115899   2.834   3.580   9.525 -1.3460 -0.2285  1.6939
 1480SOL    HW215900   2.935   3.573   9.640  0.7846 -0.7770  0.3356
 1481SOL     OW15901   1.536   1.856   1.023  0.4931  0.2988  0.3171
 1481SOL    HW115902   1.593   1.781   1.004  0.4822 -0.0367  1.5811
 1481SOL    HW215903   1.577   1.912   0.957  2.1700 -0.7994  0.4237
 1482SOL     OW15904   0.234   2.653   3.747 -0.4448  0.5140 -0.2514
 1482SOL    HW115905   0.275   2.717   3.806 -1.8145  0.9143  0.2684
 1482SOL    HW215906   0.271   2.575   3.788  0.2961  0.2896 -1.3448
 1483SOL     OW15907   1.712   3.591   3.285 -0.4147  0.0465  0.2213
 1483SOL    HW115908   1.756   3.569   3.202 -1.2323 -1.7316  0.2488
 1483SOL    HW215909   1.635   3.538   3.263 -1.0882  1.2697 -0.4161
 1484SOL     OW15910   0.976   4.628   7.426 -0.3122 -0.5623 -0.0752
 1484SOL    HW115911   0.958   0.003   7.435  0.6908 -0.1951 -1.8001
 1484SOL    HW215912   0.962   4.601   7.517  1.3363  0.2465  0.4055
 1485SOL     OW15913   3.249   1.368   1.630 -0.0298 -0.6723 -0.6004
 1485SOL    HW115914   3.311   1.403   1.565  1.4818 -0.8184  0.7465
 1485SOL    HW215915   3.182   1.436   1.633  1.7715  1.1079 -0.4109
 1486SOL     OW15916   4.636   2.665  14.962 -0.5531 -0.1553 -0.1325
 1486SOL    HW115917   4.549   2.692  14.931 -0.4202  0.7479  0.2734
 1486SOL    HW215918   4.633   2.572  14.941 -1.3030  0.1349 -1.3378
 1487SOL     OW15919   2.376   4.506   7.031 -0.4460  0.8826 -0.2817
 1487SOL    HW115920   2.422   4.456   6.964 -1.3027 -3.1017  2.1521
 1487SOL    HW215921   2.296   4.526   6.981  1.1344  2.6080 -2.1586
 1488SOL     OW15922   0.879   4.206   4.030  0.1006  0.9234 -0.0695
 1488SOL    HW115923   0.947   4.264   4.063 -0.2831  2.7253 -2.3816
 1488SOL    HW215924   0.925   4.152   3.966 -2.8648 -1.0755 -0.5104
 1489SOL     OW15925   1.756   3.025   8.807  0.2589  0.9977 -0.1151
 1489SOL    HW115926   1.718   3.106   8.771  0.1134  0.0719 -2.0644
 1489SOL    HW215927   1.840   3.061   8.837  0.8121 -1.8078  1.6352
 1490SOL     OW15928   4.494   2.815   9.711  0.3706 -0.6019  0.2422
 1490SOL    HW115929   4.548   2.844   9.785  0.6762 -0.6033  0.0227
 1490SOL    HW215930   4.429   2.885   9.705  1.4645  0.3345 -0.6678
 1491SOL     OW15931   1.371   1.052   8.753 -0.1704 -0.6061  0.2280
 1491SOL    HW115932   1.373   1.066   8.658 -0.1318 -1.3556  0.1237
 1491SOL    HW215933   1.316   1.123   8.786  2.9218  1.5189  0.7442
 1492SOL     OW15934   3.823   3.366   8.158 -0.0628  0.2420 -0.5008
 1492SOL    HW115935   3.775   3.364   8.241 -0.4532  1.1664 -0.7016
 1492SOL    HW215936   3.832   3.460   8.142  0.7742  0.2851  0.2364
 1493SOL     OW15937   3.661   4.233   5.032 -0.1589  0.0048 -0.7702
 1493SOL    HW115938   3.673   4.240   5.127 -0.8608 -3.5089 -0.4228
 1493SOL    HW215939   3.743   4.269   5.001 -0.3343 -0.3259 -1.6130
 1494SOL     OW15940   2.039   3.752   8.612  0.2868  0.1070 -0.1013
 1494SOL    HW115941   2.030   3.671   8.664  3.7744 -0.8595 -1.0138
 1494SOL    HW215942   1.966   3.807   8.641  1.4586  1.4369  0.2918
 1495SOL     OW15943   2.434   3.315  13.185 -0.3918  0.0688  0.0909
 1495SOL    HW115944   2.496   3.383  13.158  0.1717  0.0639  1.3777
 1495SOL    HW215945   2.353   3.348  13.145 -1.1521 -2.3132 -0.2959
 1496SOL     OW15946   0.343   3.442   9.343  0.1114  0.1217  0.6219
 1496SOL    HW115947   0.371   3.406   9.427  2.7078  0.8468  0.0763
 1496SOL    HW215948   0.278   3.377   9.316 -1.4073  1.6279  0.6865
 1497SOL     OW15949   0.008   1.143   5.069  0.4166 -0.4991 -0.0462
 1497SOL    HW115950   0.062   1.197   5.011 -0.6692 -0.6621 -1.2029
 1497SOL    HW215951   0.076   1.106   5.125  0.2391  0.0196  0.5193
 1498SOL     OW15952   3.796   3.038   9.386  0.2944 -0.0018  0.0012
 1498SOL    HW115953   3.771   3.090   9.462  1.4026  0.5549 -0.0140
 1498SOL    HW215954   3.793   3.104   9.317 -0.7663  0.5935  0.6301
 1499SOL     OW15955   2.213   1.361   6.433  0.0931 -0.7064 -0.3003
 1499SOL    HW115956   2.161   1.284   6.406  0.9577 -2.1338  2.1316
 1499SOL    HW215957   2.283   1.360   6.368  0.6698  1.1891  0.2966
 1500SOL     OW15958   4.235   2.582   0.908 -0.1652 -0.2338  0.1802
 1500SOL    HW115959   4.252   2.491   0.886 -2.6025 -0.2055 -1.7770
 1500SOL    HW215960   4.160   2.604   0.854  0.9206  3.3624  0.0998
 1501SOL     OW15961   1.016   2.740   1.248 -0.5064  0.5875  0.2473
 1501SOL    HW115962   0.955   2.805   1.282 -3.8582 -0.2677 -4.1836
 1501SOL    HW215963   1.027   2.783   1.163  1.3015  0.4608  0.4183
 1502SOL     OW15964   3.322   2.834  14.900 -0.3174  0.0654  0.3336
 1502SOL    HW115965   3.357   2.921  14.920 -0.6787  0.0331  1.1084
 1502SOL    HW215966   3.326   2.838  14.805 -0.8786 -0.2738  0.2911
 1503SOL     OW15967   2.596   1.840  13.882 -0.1109  0.5453  0.1016
 1503SOL    HW115968   2.654   1.765  13.892  1.0521  1.6664  1.6953
 1503SOL    HW215969   2.653   1.916  13.864  2.1453 -1.3527 -0.7237
 1504SOL     OW15970   0.409   3.326   4.946 -0.0154 -0.3722 -0.3252
 1504SOL    HW115971   0.367   3.390   5.002 -0.1580 -0.6088 -0.1620
 1504SOL    HW215972   0.335   3.266   4.933  0.7287 -1.2216 -0.6350
 1505SOL     OW15973   3.711   3.752   6.703  0.6829  0.2243 -1.0638
 1505SOL    HW115974   3.641   3.776   6.644 -1.1573 -0.2710  0.9207
 1505SOL    HW215975   3.707   3.657   6.710  0.9848  0.4008  1.7223
 1506SOL     OW15976   2.117   0.010   4.395 -0.4082 -0.1924  0.6287
 1506SOL    HW115977   2.208   0.034   4.416  0.0949 -1.3595 -0.2426
 1506SOL    HW215978   2.140   4.679   4.317  2.1138 -1.1775  1.9813
 1507SOL     OW15979   2.343   1.771   8.565 -0.4566  0.2500 -0.2434
 1507SOL    HW115980   2.434   1.743   8.554 -0.3984  0.1926  0.4241
 1507SOL    HW215981   2.336   1.798   8.656 -0.8127 -0.4396 -0.0704
 1508SOL     OW15982   2.794   4.418   4.701  0.3221  0.5665  0.9054
 1508SOL    HW115983   2.784   4.329   4.668  0.0952  1.3117 -1.0234
 1508SOL    HW215984   2.868   4.450   4.649  1.0807 -1.1448  0.9225
 1509SOL     OW15985   1.767   0.236   9.765  0.0407 -0.1315  0.5029
 1509SOL    HW115986   1.762   0.174   9.838 -1.9559 -0.7510 -0.1449
 1509SOL    HW215987   1.688   0.205   9.720 -0.7015 -0.4166  2.0032
 1510SOL     OW15988   2.909   3.082   2.832  0.3124  0.2984 -0.3236
 1510SOL    HW115989   2.920   3.018   2.761  1.9182  0.7305 -0.4582
 1510SOL    HW215990   2.885   3.155   2.775 -3.4073 -1.9372 -1.6730
 1511SOL     OW15991   1.790   2.392   1.198  0.3282  0.1044 -0.2176
 1511SOL    HW115992   1.781   2.340   1.119  0.2447 -1.1983  0.6528
 1511SOL    HW215993   1.705   2.377   1.240  1.0396 -1.8256  0.5363
 1512SOL     OW15994   4.066   0.054   5.244  0.0352  0.3605  0.2972
 1512SOL    HW115995   4.030   4.709   5.305 -2.6904  2.9911  1.4823
 1512SOL    HW215996   4.054   0.009   5.160 -0.5210  1.4137 -0.1920
 1513SOL     OW15997   2.361   3.519   0.560 -0.3545  0.2882 -0.3717
 1513SOL    HW115998   2.366   3.586   0.628  0.4847 -0.4089  0.2609
 1513SOL    HW215999   2.402   3.444   0.603 -2.3136 -1.2180 -1.1248
 1514SOL     OW16000   4.038   0.074   9.248  0.1987  0.2884  0.2344
 1514SOL    HW116001   3.984   0.004   9.211  3.2033 -3.2850  2.5448
 1514SOL    HW216002   3.994   0.095   9.330 -1.0695  0.0791 -0.3913
 1515SOL     OW16003   3.132   2.257   3.004  0.2835 -0.4251 -0.0306
 1515SOL    HW116004   3.193   2.276   2.933  0.3834  1.2651  0.5089
 1515SOL    HW216005   3.178   2.282   3.084  0.2054  2.1383 -0.8026
 1516SOL     OW16006   2.510   2.765   6.068 -0.0297  0.3586  0.4248
 1516SOL    HW116007   2.574   2.835   6.058  1.9536 -1.4921 -0.0061
 1516SOL    HW216008   2.481   2.771   5.977  1.2420  1.3671  0.0875
 1517SOL     OW16009   0.675   1.042  13.297  0.1332  0.4026  0.2438
 1517SOL    HW116010   0.736   1.102  13.255 -0.0858  0.8500  0.5666
 1517SOL    HW216011   0.729   0.975  13.340 -1.2731 -1.6955 -1.2525
 1518SOL     OW16012   2.630   3.398  11.066 -0.1310  1.1738 -0.7654
 1518SOL    HW116013   2.577   3.373  10.990  0.1651 -2.6526  0.2887
 1518SOL    HW216014   2.612   3.491  11.081  2.9954  1.4037  1.6318
 1519SOL     OW16015   3.422   3.157   5.436 -0.2994 -0.3921 -0.2149
 1519SOL    HW116016   3.373   3.131   5.514  0.3233 -0.4561  0.1482
 1519SOL    HW216017   3.505   3.193   5.468 -0.6846  0.1631  0.1639
 1520SOL     OW16018   1.217   4.232  17.322 -0.1246 -0.3718 -0.0326
 1520SOL    HW116019   1.134   4.221  17.368 -0.1893 -0.9426 -0.2816
 1520SOL    HW216020   1.213   4.321  17.287 -2.8758  0.1626  1.6801
 1521SOL     OW16021   2.492   1.945   7.386 -0.3021  0.1919  0.3355
 1521SOL    HW116022   2.472   2.009   7.318 -0.5540 -0.5496 -0.2794
 1521SOL    HW216023   2.521   1.871   7.332 -0.6386 -1.3607  2.2720
 1522SOL     OW16024   3.131   2.789   4.342 -0.7748 -0.2691 -0.0731
 1522SOL    HW116025   3.193   2.841   4.290 -0.8623 -0.3344 -0.2430
 1522SOL    HW216026   3.127   2.718   4.278 -2.1755 -0.1076 -0.1726
 1523SOL     OW16027   3.305   0.452   6.471  0.1950  0.9726  0.1789
 1523SOL    HW116028   3.314   0.384   6.538 -1.6395 -0.9618 -1.5204
 1523SOL    HW216029   3.212   0.457   6.448  0.3341 -0.4949 -0.7435
 1524SOL     OW16030   4.096   1.635   6.689  0.0569  0.4165 -0.2053
 1524SOL    HW116031   4.184   1.662   6.716 -0.0995  0.6268  0.0993
 1524SOL    HW216032   4.062   1.713   6.645 -0.2222  1.5017  1.9237
 1525SOL     OW16033   2.508   2.050   9.224 -0.4731 -1.3714  0.2495
 1525SOL    HW116034   2.556   1.995   9.286 -3.3938  0.3178  4.0369
 1525SOL    HW216035   2.448   1.987   9.184 -1.7770  0.2197 -0.2916
 1526SOL     OW16036   4.075   1.954   9.057  0.0455  0.1962  0.1121
 1526SOL    HW116037   3.983   1.948   9.029  0.4809 -1.9608 -0.9111
 1526SOL    HW216038   4.123   1.902   8.993 -0.9781 -2.8450  1.7851
 1527SOL     OW16039   3.016   1.391   4.291  0.1038  0.2311 -0.7546
 1527SOL    HW116040   2.934   1.422   4.331  0.9365  2.1570 -0.5420
 1527SOL    HW216041   3.072   1.463   4.319  2.1101 -1.6250 -0.0448
 1528SOL     OW16042   2.674   0.413   7.562  0.8096 -0.2415  0.1704
 1528SOL    HW116043   2.686   0.431   7.468  0.9243  1.2960  0.4752
 1528SOL    HW216044   2.608   0.478   7.587  2.0674  1.0041  0.2551
 1529SOL     OW16045   3.471   3.348   9.712  0.0597  0.7789  0.4521
 1529SOL    HW116046   3.448   3.393   9.631 -0.7150 -0.3654  0.0449
 1529SOL    HW216047   3.504   3.418   9.770  0.8008 -0.0828  1.0696
 1530SOL     OW16048   3.391   3.184   7.654  1.0293 -0.3133 -0.6828
 1530SOL    HW116049   3.473   3.160   7.610  1.8566 -0.5027  0.9617
 1530SOL    HW216050   3.372   3.266   7.608 -0.1183 -0.3238 -0.2063
 1531SOL     OW16051   4.306   1.651  10.519  0.4426 -0.1449 -0.1148
 1531SOL    HW116052   4.326   1.626  10.609 -0.7949  0.4520  0.3250
 1531SOL    HW216053   4.256   1.570  10.503 -0.9859  1.1811 -2.3553
 1532SOL     OW16054   3.594   1.203   3.000 -0.6131 -0.0730 -0.2668
 1532SOL    HW116055   3.674   1.169   2.959 -1.0052 -1.5711  0.1861
 1532SOL    HW216056   3.537   1.189   2.925  1.6568  1.2016 -2.2384
 1533SOL     OW16057   3.252   2.386   5.409  0.3133  0.0098 -0.0715
 1533SOL    HW116058   3.261   2.297   5.444 -0.3647 -0.7468 -1.8613
 1533SOL    HW216059   3.279   2.377   5.318  0.9080  0.0325  0.0993
 1534SOL     OW16060   1.680   3.929  16.632 -0.0768 -0.5452  0.2492
 1534SOL    HW116061   1.642   3.844  16.654  0.2293 -0.2801  1.8283
 1534SOL    HW216062   1.694   3.909  16.539  0.2400 -0.0221  0.1828
 1535SOL     OW16063   4.623   4.224  16.552 -0.0282  0.3041 -0.0345
 1535SOL    HW116064   4.644   4.316  16.539 -0.6266  0.3974 -0.3708
 1535SOL    HW216065   4.552   4.237  16.614 -2.0504 -3.9365 -1.4510
 1536SOL     OW16066   0.860   2.731  15.039  0.2827  0.1948 -0.1755
 1536SOL    HW116067   0.923   2.793  15.003 -1.9000  1.7019 -1.4246
 1536SOL    HW216068   0.853   2.666  14.969  0.0589 -1.2818  1.2340
 1537SOL     OW16069   0.986   1.295  15.774 -0.4401 -0.0919 -0.2409
 1537SOL    HW116070   0.995   1.200  15.769 -1.3271 -0.3092  1.9955
 1537SOL    HW216071   1.078   1.315  15.762  0.0185 -1.1669  1.4238
 1538SOL     OW16072   0.532   2.392   7.931  0.1308 -0.4912 -0.1746
 1538SOL    HW116073   0.576   2.307   7.928 -3.3723 -2.3152  0.8821
 1538SOL    HW216074   0.545   2.424   8.020 -0.6311 -0.7825  0.0437
 1539SOL     OW16075   3.220   4.205   2.747  0.1276 -0.6659 -0.4210
 1539SOL    HW116076   3.205   4.215   2.653 -2.1695  0.7577  0.0877
 1539SOL    HW216077   3.161   4.266   2.791  0.2329  0.6686 -2.1345
 1540SOL     OW16078   4.135   0.760   7.214 -0.1709 -0.4360 -0.4694
 1540SOL    HW116079   4.206   0.737   7.154 -0.8979 -2.8274 -0.4155
 1540SOL    HW216080   4.082   0.681   7.202 -0.0394 -0.6528  0.4153
 1541SOL     OW16081   0.321   3.529   1.852  0.0490 -0.2326 -0.0255
 1541SOL    HW116082   0.351   3.554   1.765 -0.3138  3.8157  1.0031
 1541SOL    HW216083   0.397   3.540   1.908 -0.7840 -1.4259  1.3517
 1542SOL     OW16084   1.359   0.388   2.984  0.5394 -0.7979  0.2383
 1542SOL    HW116085   1.410   0.353   3.058 -1.6139  0.1674  2.1595
 1542SOL    HW216086   1.350   0.305   2.938  1.2325 -1.5266  1.3952
 1543SOL     OW16087   3.095   4.381   9.016 -0.1723  0.4284 -0.0999
 1543SOL    HW116088   3.069   4.380   8.924 -1.5120 -1.4395  0.3003
 1543SOL    HW216089   3.142   4.464   9.022  0.1557  0.3221 -1.3649
 1544SOL     OW16090   0.201   3.902   1.985  0.2216  0.2406  0.3583
 1544SOL    HW116091   0.274   3.856   2.027  1.7538 -0.1225 -2.6952
 1544SOL    HW216092   0.230   3.900   1.894  1.2970 -1.3236  0.7311
 1545SOL     OW16093   2.763   1.942   0.164  0.6655 -0.8944 -0.2083
 1545SOL    HW116094   2.735   1.857   0.200 -1.7839 -0.9540 -2.2663
 1545SOL    HW216095   2.841   1.956   0.218 -0.5036 -0.5908  1.4058
 1546SOL     OW16096   1.544   0.307   5.824 -0.2479 -0.2884  0.1112
 1546SOL    HW116097   1.475   0.243   5.840 -2.5472  2.7539  2.4961
 1546SOL    HW216098   1.585   0.306   5.911 -2.1087 -1.2326  0.9760
 1547SOL     OW16099   0.598   4.434   3.819 -0.0802 -0.3444 -1.0693
 1547SOL    HW116100   0.659   4.360   3.812  4.2306  3.4460 -3.9669
 1547SOL    HW216101   0.597   4.477   3.734 -2.6616  0.9734 -0.3547
 1548SOL     OW16102   3.183   2.518   9.207  1.2034 -0.2117  0.1076
 1548SOL    HW116103   3.173   2.424   9.223 -0.5759  0.0742  0.6448
 1548SOL    HW216104   3.125   2.556   9.273  0.5616  1.0763 -1.2038
 1549SOL     OW16105   3.905   3.245   2.323 -0.1956 -0.2094  0.6574
 1549SOL    HW116106   3.867   3.163   2.354 -1.5889  0.2844  0.2307
 1549SOL    HW216107   3.993   3.210   2.335  0.1400 -0.0144 -1.1575
 1550SOL     OW16108   3.541   3.670   6.961  0.2672 -0.2293  0.0998
 1550SOL    HW116109   3.565   3.729   7.032 -2.8467  0.7945  0.2753
 1550SOL    HW216110   3.539   3.581   6.998  2.9168 -1.0506 -1.6875
 1551SOL     OW16111   2.100   3.505   3.505 -0.0111  0.3802 -0.5281
 1551SOL    HW116112   2.117   3.488   3.412 -0.3824 -1.3825 -0.2766
 1551SOL    HW216113   2.018   3.457   3.519 -0.3515  0.8958 -0.7328
 1552SOL     OW16114   0.605   3.675   1.078  0.2093  0.2512 -0.0061
 1552SOL    HW116115   0.648   3.639   1.000 -0.2022 -1.8559  0.7486
 1552SOL    HW216116   0.518   3.694   1.043  0.7151  1.9250 -0.3867
 1553SOL     OW16117   1.412   1.230  17.379  0.0360  0.0758  0.3992
 1553SOL    HW116118   1.489   1.256  17.329  0.6644 -1.2465  0.6782
 1553SOL    HW216119   1.365   1.313  17.388  1.1672  0.5653  1.8851
 1554SOL     OW16120   0.735   3.288  12.301  0.0337  0.0823 -0.2518
 1554SOL    HW116121   0.670   3.353  12.327  0.3502  0.2178  0.1846
 1554SOL    HW216122   0.726   3.220  12.368 -1.2921 -0.5922 -1.0968
 1555SOL     OW16123   3.252   4.380   4.721  0.5150 -0.0168  0.5232
 1555SOL    HW116124   3.309   4.361   4.795 -0.0060  0.5287  1.0694
 1555SOL    HW216125   3.201   4.300   4.707 -1.4751  1.5223 -1.1865
 1556SOL     OW16126   1.919   3.259   2.418  0.0700 -0.4249  0.4782
 1556SOL    HW116127   1.964   3.185   2.377  0.4894 -0.4098  0.9107
 1556SOL    HW216128   1.889   3.216   2.498 -1.5177  1.1618  0.7353
 1557SOL     OW16129   4.602   4.308   2.418  0.5066 -0.1386 -0.3033
 1557SOL    HW116130   4.517   4.327   2.457  0.4577 -4.1404  1.4949
 1557SOL    HW216131   4.620   4.396   2.384 -0.8095  1.0204  1.9642
 1558SOL     OW16132   1.644   1.549   2.994  0.1493 -0.1332 -0.0729
 1558SOL    HW116133   1.666   1.642   3.006  0.4907 -0.0999 -1.0170
 1558SOL    HW216134   1.610   1.527   3.081  2.0751 -0.2247  0.6508
 1559SOL     OW16135   2.234   1.672   5.180 -0.6056  0.4854 -0.1527
 1559SOL    HW116136   2.173   1.644   5.113 -1.0402 -1.1012  0.8973
 1559SOL    HW216137   2.242   1.589   5.227  0.4106  0.4806 -0.3293
 1560SOL     OW16138   1.124   2.448   0.077 -0.0593 -0.6275  0.4701
 1560SOL    HW116139   1.166   2.521   0.032 -1.6778 -2.0779 -3.4517
 1560SOL    HW216140   1.167   2.374   0.033  0.5187 -0.8200  1.3648
 1561SOL     OW16141   0.849   4.040   6.619 -0.7219  0.1658 -0.0027
 1561SOL    HW116142   0.905   4.088   6.558  0.1367 -0.3904  0.3557
 1561SOL    HW216143   0.884   4.069   6.703 -1.7905 -0.0517  0.5098
 1562SOL     OW16144   3.321   0.170   4.080  0.0986  0.8821  0.4509
 1562SOL    HW116145   3.382   0.121   4.134 -0.9954 -0.5858  0.3646
 1562SOL    HW216146   3.372   0.178   3.999 -3.8860  1.8899 -1.9716
 1563SOL     OW16147   2.956   2.848   3.898  0.3817 -0.2551  0.6473
 1563SOL    HW116148   3.015   2.811   3.833  0.9890  1.8771  0.0004
 1563SOL    HW216149   2.908   2.770   3.926 -1.6305  0.5796 -0.5056
 1564SOL     OW16150   3.495   2.287   7.713  0.2299 -0.1702 -0.1722
 1564SOL    HW116151   3.458   2.203   7.685 -1.3307  0.0376  1.2966
 1564SOL    HW216152   3.422   2.349   7.715  1.1876  0.9775 -0.4213
 1565SOL     OW16153   3.304   3.968   8.142  0.3109  0.0915 -0.0161
 1565SOL    HW116154   3.325   3.920   8.223  1.7795 -1.6239 -1.4131
 1565SOL    HW216155   3.250   4.036   8.182  1.4176  0.5318  0.7286
 1566SOL     OW16156   0.064   4.478   3.386  0.5402 -0.3231 -0.2986
 1566SOL    HW116157   4.697   4.438   3.397 -0.2594  1.0565 -1.4306
 1566SOL    HW216158   0.056   4.563   3.428 -0.0483  0.0182 -1.0886
 1567SOL     OW16159   0.999   0.892   5.214  0.4261  0.2390  0.7466
 1567SOL    HW116160   1.002   0.806   5.258  2.5309 -0.2894 -0.4789
 1567SOL    HW216161   0.911   0.926   5.231  0.6127  0.9327  0.3283
 1568SOL     OW16162   2.927   0.881  16.464  0.3923 -0.3237 -0.5333
 1568SOL    HW116163   2.862   0.813  16.450 -0.3531  0.3319 -0.2955
 1568SOL    HW216164   2.977   0.859  16.542 -2.2105 -2.0359  0.6367
 1569SOL     OW16165   0.462   2.210   3.724 -0.4258 -0.1261 -0.6195
 1569SOL    HW116166   0.526   2.161   3.775  0.8314  2.4631  0.3183
 1569SOL    HW216167   0.395   2.239   3.787  2.4591 -0.7133  2.7256
 1570SOL     OW16168   3.587   3.049  13.042 -0.6209  0.2883  0.1385
 1570SOL    HW116169   3.615   2.958  13.048  0.0870  0.4308 -0.9983
 1570SOL    HW216170   3.593   3.068  12.949 -5.7456 -0.8329 -0.4330
 1571SOL     OW16171   4.128   0.475   8.925  0.1466  0.3704  0.4628
 1571SOL    HW116172   4.065   0.406   8.943 -1.0175  1.4143  0.4474
 1571SOL    HW216173   4.086   0.514   8.847  0.9674  0.4667  0.0686
 1572SOL     OW16174   0.419   4.531  11.316 -0.2305  0.1541  0.0087
 1572SOL    HW116175   0.513   4.548  11.323  0.0513 -2.2908  1.9722
 1572SOL    HW216176   0.428   4.436  11.324 -1.1221  0.1014  0.4101
 1573SOL     OW16177   4.384   1.327  16.624  0.1126 -0.3974  0.3486
 1573SOL    HW116178   4.296   1.294  16.641 -0.5975  1.6201  0.5561
 1573SOL    HW216179   4.446   1.259  16.653  1.9085  0.9411 -0.3383
 1574SOL     OW16180   2.123   1.704   0.956 -0.4826  0.1395  0.3448
 1574SOL    HW116181   2.145   1.794   0.977  1.3427 -0.1330 -0.3913
 1574SOL    HW216182   2.131   1.660   1.040 -1.0853 -0.4156  0.1136
 1575SOL     OW16183   4.409   4.208   6.094  0.7695 -0.2128 -0.0348
 1575SOL    HW116184   4.488   4.153   6.091 -0.3749 -1.6865 -3.0842
 1575SOL    HW216185   4.430   4.263   6.169  1.2438 -0.4465  0.0060
 1576SOL     OW16186   3.431   4.574   3.677 -0.3505  0.3018 -0.7495
 1576SOL    HW116187   3.465   4.544   3.593 -0.3757  0.4450 -0.8104
 1576SOL    HW216188   3.472   4.512   3.736 -0.6419 -0.5466 -1.4451
 1577SOL     OW16189   2.635   2.612   6.864  0.2372  0.7060 -0.0125
 1577SOL    HW116190   2.616   2.564   6.783 -0.7350  0.9982  0.0395
 1577SOL    HW216191   2.687   2.683   6.826 -0.6296 -0.0124 -2.5852
 1578SOL     OW16192   4.660   1.645   4.379 -0.0243  0.1672 -0.6356
 1578SOL    HW116193   4.650   1.665   4.472 -0.5116  0.0899 -0.6741
 1578SOL    HW216194   4.613   1.562   4.372 -1.2843  0.7691  0.7747
 1579SOL     OW16195   3.663   0.355  12.482  0.0143  0.6648 -0.2618
 1579SOL    HW116196   3.626   0.267  12.496  2.8582 -0.6811 -1.2673
 1579SOL    HW216197   3.745   0.331  12.439  0.0415  0.6513 -0.2023
 1580SOL     OW16198   4.243   2.401  17.001  0.4309 -0.1646  0.3223
 1580SOL    HW116199   4.293   2.464  16.949 -1.3358  0.0149 -1.1556
 1580SOL    HW216200   4.158   2.414  16.958 -1.0265 -2.4392  2.4817
 1581SOL     OW16201   4.044   2.249   2.787  0.5002  0.0517 -0.9241
 1581SOL    HW116202   4.098   2.328   2.790  0.5563 -0.0009 -0.6052
 1581SOL    HW216203   3.970   2.270   2.843  1.2195  0.2824 -0.0636
 1582SOL     OW16204   1.589   1.136   9.595  0.1865  0.3241 -0.3957
 1582SOL    HW116205   1.506   1.171   9.629  0.2908 -0.8159  1.0257
 1582SOL    HW216206   1.564   1.110   9.506  1.5700 -0.4433 -0.5602
 1583SOL     OW16207   3.289   2.898   4.135  0.3659 -0.1409 -1.1186
 1583SOL    HW116208   3.291   2.993   4.146 -2.2845  0.0843 -2.5171
 1583SOL    HW216209   3.268   2.895   4.041 -0.1610  0.1240 -1.0121
 1584SOL     OW16210   4.702   1.934   7.826 -0.1111 -0.3082 -0.3120
 1584SOL    HW116211   4.610   1.948   7.848  0.5438  0.1367  2.1080
 1584SOL    HW216212   4.685   1.867   7.759 -0.5380  1.8721 -2.3825
 1585SOL     OW16213   3.225   2.830   1.469 -0.6304 -0.2880  0.2115
 1585SOL    HW116214   3.215   2.804   1.560  0.6387 -1.1181  0.0978
 1585SOL    HW216215   3.152   2.778   1.435  1.0855 -2.5327 -0.0178
 1586SOL     OW16216   3.351   3.490   5.546  0.0127  0.8040 -0.2611
 1586SOL    HW116217   3.321   3.554   5.482 -0.3972  0.4325 -0.4359
 1586SOL    HW216218   3.437   3.463   5.514  0.0546 -0.2815  0.7667
 1587SOL     OW16219   2.694   1.358   1.297 -0.3742 -0.0368 -0.2971
 1587SOL    HW116220   2.676   1.295   1.366 -1.0621 -0.9999 -1.3503
 1587SOL    HW216221   2.650   1.327   1.217 -1.1574 -0.8307  0.4504
 1588SOL     OW16222   3.777   4.670  16.785  0.3183  0.5479 -0.0962
 1588SOL    HW116223   3.754   4.679  16.693 -1.2035 -1.5494  0.1027
 1588SOL    HW216224   3.723   4.600  16.821  0.7820  0.8062  1.1008
 1589SOL     OW16225   0.939   4.192   7.489  0.9156 -0.0416  0.3415
 1589SOL    HW116226   1.007   4.176   7.555  1.1611  0.7650  0.2858
 1589SOL    HW216227   0.967   4.126   7.427 -0.3480  0.7987 -1.1230
 1590SOL     OW16228   0.056   3.221   1.714 -0.2836 -0.8622 -0.6325
 1590SOL    HW116229   0.111   3.150   1.748  0.8307  0.4583  0.2969
 1590SOL    HW216230   0.112   3.269   1.653 -1.4537  0.1705 -0.8925
 1591SOL     OW16231   2.464   4.393   0.060  0.7608 -0.2009  0.0219
 1591SOL    HW116232   2.447   4.461   0.124 -0.9269  0.3890 -1.0532
 1591SOL    HW216233   2.485   4.319   0.117  0.2149  0.7287  1.4440
 1592SOL     OW16234   4.607   0.745   4.403 -0.0969  0.1159  0.2924
 1592SOL    HW116235   4.610   0.734   4.308  1.5767 -0.5370  0.4243
 1592SOL    HW216236   4.573   0.663   4.439 -1.5032  0.0940 -1.1081
 1593SOL     OW16237   1.839   2.264   6.600  0.3205  0.1461 -0.2012
 1593SOL    HW116238   1.859   2.247   6.508  1.1498  2.3724 -0.4192
 1593SOL    HW216239   1.857   2.175   6.631  0.9651 -0.4120 -2.1623
 1594SOL     OW16240   3.415   3.973  13.633  0.1136 -0.3565 -0.4262
 1594SOL    HW116241   3.364   4.029  13.692  1.7410  1.0537 -0.3520
 1594SOL    HW216242   3.505   4.000  13.653  0.1649 -0.6162 -0.3085
 1595SOL     OW16243   3.845   2.951  17.086 -0.3175 -0.3025  0.0443
 1595SOL    HW116244   3.854   2.855  17.086  0.5261 -0.2349  2.1096
 1595SOL    HW216245   3.803   2.955  17.172  0.5214 -0.1307  0.4484
 1596SOL     OW16246   4.417   3.765  10.885  0.4764 -0.4289 -0.1873
 1596SOL    HW116247   4.462   3.848  10.902 -0.2908  0.1013 -0.7257
 1596SOL    HW216248   4.457   3.710  10.952 -1.5310 -0.8925  0.6407
 1597SOL     OW16249   3.530   3.226   7.262 -0.1086 -0.3318  0.0605
 1597SOL    HW116250   3.564   3.220   7.352 -1.0941  0.1508  0.4540
 1597SOL    HW216251   3.446   3.181   7.266 -0.0897 -0.2742  1.1176
 1598SOL     OW16252   4.413   3.291   2.319 -0.0007 -0.3542  0.6015
 1598SOL    HW116253   4.450   3.349   2.253 -2.5616  0.0763 -0.4232
 1598SOL    HW216254   4.377   3.360   2.375 -1.3633 -0.4117 -0.2145
 1599SOL     OW16255   4.240   4.058  11.001 -0.2014  0.4427  0.3098
 1599SOL    HW116256   4.249   4.142  10.957  0.6385  0.9949  1.5404
 1599SOL    HW216257   4.329   4.050  11.035 -0.6821 -0.0039  1.4658
 1600SOL     OW16258   3.908   3.934   0.738 -0.0667 -0.2871 -0.0004
 1600SOL    HW116259   3.922   4.023   0.707  2.5868 -1.0937 -1.1429
 1600SOL    HW216260   3.882   3.956   0.827  0.6162  0.7794 -0.0574
 1601SOL     OW16261   1.847   4.021   7.452  0.2248  0.2460  0.1519
 1601SOL    HW116262   1.828   4.105   7.493 -0.2983 -0.7542  1.9597
 1601SOL    HW216263   1.759   3.990   7.431 -0.1751  0.6217  1.2943
 1602SOL     OW16264   1.912   1.899   7.461  0.1579 -0.4089  0.5163
 1602SOL    HW116265   1.962   1.981   7.466  0.5400 -0.5788 -0.4866
 1602SOL    HW216266   1.938   1.876   7.371 -0.1255 -1.2461  0.6562
 1603SOL     OW16267   3.229   2.808  15.646 -0.3290  0.6674 -0.8163
 1603SOL    HW116268   3.134   2.804  15.642 -0.2900 -2.0858  1.1205
 1603SOL    HW216269   3.251   2.736  15.588 -0.8690 -2.1414  2.4683
 1604SOL     OW16270   1.436   3.812   3.275  0.8302  0.0550  0.1096
 1604SOL    HW116271   1.369   3.819   3.207  1.3024  0.9245 -0.2646
 1604SOL    HW216272   1.521   3.846   3.245 -0.0206  1.8821 -0.2316
 1605SOL     OW16273   1.268   4.134   8.061  0.4046  0.2553  0.8638
 1605SOL    HW116274   1.285   4.042   8.040  0.1012  0.1936  0.8966
 1605SOL    HW216275   1.187   4.123   8.110 -0.5259  1.9938 -0.2746
 1606SOL     OW16276   4.264   1.883  14.395  0.2485 -0.0115  0.0386
 1606SOL    HW116277   4.296   1.794  14.407 -0.7774 -0.5245 -0.9656
 1606SOL    HW216278   4.172   1.860  14.405  0.4147  0.1394  1.8786
 1607SOL     OW16279   0.614   4.285   3.425  0.0835 -0.1717 -0.1107
 1607SOL    HW116280   0.632   4.218   3.491  1.8322 -0.5798 -1.0294
 1607SOL    HW216281   0.526   4.270   3.391 -0.5820 -0.7865  1.9031
 1608SOL     OW16282   0.249   3.307   4.284 -0.0665 -0.0477 -0.1516
 1608SOL    HW116283   0.172   3.284   4.233 -0.1222  0.6855 -0.3917
 1608SOL    HW216284   0.213   3.384   4.327  0.9542  1.1759 -1.4769
 1609SOL     OW16285   2.266   0.145  13.519  0.0565  0.2131 -0.2039
 1609SOL    HW116286   2.245   0.064  13.565  0.4982  0.9158  1.2085
 1609SOL    HW216287   2.263   0.201  13.596 -1.1031 -0.4619  0.2381
 1610SOL     OW16288   1.658   1.012   5.123 -0.1747 -0.7571  0.1593
 1610SOL    HW116289   1.589   1.037   5.185 -1.7055 -2.3236 -0.9131
 1610SOL    HW216290   1.614   0.950   5.065  1.1231  0.6546 -2.3547
 1611SOL     OW16291   4.455   1.894   4.826 -0.3111  0.0031 -0.1567
 1611SOL    HW116292   4.368   1.858   4.808  0.7648 -2.2104 -0.8966
 1611SOL    HW216293   4.434   1.959   4.893 -4.1867  0.8792 -2.1979
 1612SOL     OW16294   2.518   0.669   8.795  0.1163 -0.7473 -0.0031
 1612SOL    HW116295   2.586   0.724   8.757 -1.6634  2.2485  1.1579
 1612SOL    HW216296   2.469   0.658   8.714 -0.7169 -2.6498  0.7594
 1613SOL     OW16297   2.178   4.495   8.470 -0.2043 -0.0791  0.4400
 1613SOL    HW116298   2.171   4.485   8.565 -3.4662  1.6062  0.3798
 1613SOL    HW216299   2.190   4.403   8.448  1.4574  0.3622 -0.5627
 1614SOL     OW16300   1.023   2.972   8.564 -0.1255  0.0078 -0.7249
 1614SOL    HW116301   1.018   3.013   8.478  0.8700  1.6289 -0.0198
 1614SOL    HW216302   1.113   2.940   8.569  0.5797  2.1352  0.1844
 1615SOL     OW16303   3.758   3.326  17.035 -0.3426 -0.0648 -0.0641
 1615SOL    HW116304   3.838   3.279  17.010  0.7703  1.1841  1.1236
 1615SOL    HW216305   3.758   3.307  17.128 -1.4014  0.4942  0.0525
 1616SOL     OW16306   2.937   4.156  17.227 -0.0949 -0.2371 -0.4095
 1616SOL    HW116307   2.962   4.249  17.221  2.5180 -0.8184  1.6079
 1616SOL    HW216308   2.888   4.157  17.144 -3.1502 -0.7808  1.3972
 1617SOL     OW16309   2.179   3.486   5.537  0.4023 -0.5298 -0.3393
 1617SOL    HW116310   2.174   3.505   5.444  3.5423 -0.0285 -0.4173
 1617SOL    HW216311   2.087   3.475   5.559 -0.0320  0.2245 -1.8124
 1618SOL     OW16312   3.332   2.684   5.882  0.5907  0.4128  0.2159
 1618SOL    HW116313   3.325   2.687   5.787  1.1494  0.0647  0.1636
 1618SOL    HW216314   3.428   2.686   5.889  0.6593  0.8008 -0.7698
 1619SOL     OW16315   4.040   1.118   4.858 -0.0809 -0.0209  0.3174
 1619SOL    HW116316   3.989   1.195   4.882 -0.5557 -0.0536 -0.5931
 1619SOL    HW216317   3.973   1.057   4.828  0.4219  0.0709 -0.9625
 1620SOL     OW16318   0.448   3.234   3.232  0.2914 -0.7154 -0.1038
 1620SOL    HW116319   0.362   3.219   3.193 -0.7667  1.0770  1.5593
 1620SOL    HW216320   0.471   3.142   3.244 -1.2106 -1.2737 -1.4826
 1621SOL     OW16321   3.934   1.373   8.552  0.0682  0.3119 -0.6003
 1621SOL    HW116322   4.007   1.426   8.583 -1.8516  1.8924  1.2814
 1621SOL    HW216323   3.860   1.434   8.559 -1.0305 -1.1203  0.3498
 1622SOL     OW16324   2.123   2.628   9.114  0.2256 -0.1549 -1.0190
 1622SOL    HW116325   2.178   2.569   9.165 -0.8949  1.1237  1.6976
 1622SOL    HW216326   2.054   2.566   9.091  0.9768 -0.4409 -2.4734
 1623SOL     OW16327   0.298   2.934   9.080  0.0938  0.0189  0.5409
 1623SOL    HW116328   0.253   2.941   8.996  0.7597 -2.1934  0.0047
 1623SOL    HW216329   0.391   2.952   9.068  0.4251 -1.5220  0.9021
 1624SOL     OW16330   1.671   0.618   2.581  0.0031  0.8038  0.1602
 1624SOL    HW116331   1.646   0.601   2.490  0.2254 -1.5927  0.5548
 1624SOL    HW216332   1.588   0.613   2.629  0.9217 -0.2596  1.6182
 1625SOL     OW16333   2.934   0.245   2.928 -0.3664  0.1085 -0.0196
 1625SOL    HW116334   2.850   0.290   2.922 -0.0894  0.7605  0.9996
 1625SOL    HW216335   2.986   0.285   2.859  2.6692 -0.1138  2.1489
 1626SOL     OW16336   0.649   3.451   6.423 -0.3921 -0.1737  0.1956
 1626SOL    HW116337   0.707   3.526   6.419 -0.7387  0.1073  0.4090
 1626SOL    HW216338   0.687   3.398   6.493  0.3895 -0.0961 -0.1751
 1627SOL     OW16339   2.420   0.811   6.665 -0.3198  0.2430 -0.3718
 1627SOL    HW116340   2.340   0.831   6.617 -0.7377  4.4861  2.1452
 1627SOL    HW216341   2.410   0.718   6.686  0.7272  0.1451 -0.2632
 1628SOL     OW16342   3.897   4.225   3.951  0.5136 -0.7208 -0.2877
 1628SOL    HW116343   3.852   4.261   4.028 -0.5468 -2.4607 -0.0896
 1628SOL    HW216344   3.889   4.131   3.967 -0.1746 -0.4296  1.0434
 1629SOL     OW16345   2.204   3.870  12.930  0.1149  0.1996  0.0330
 1629SOL    HW116346   2.210   3.924  12.850 -4.1859 -1.3045 -1.3037
 1629SOL    HW216347   2.162   3.933  12.988 -0.9390  0.8174 -1.3934
 1630SOL     OW16348   2.283   4.539  11.567 -0.5064  0.1750  0.1823
 1630SOL    HW116349   2.203   4.577  11.604 -0.5185 -0.1786  0.5206
 1630SOL    HW216350   2.348   4.607  11.581 -0.2889  0.4373 -2.1796
 1631SOL     OW16351   0.990   2.452  10.425 -0.1293 -0.1149 -0.3297
 1631SOL    HW116352   1.050   2.387  10.388 -0.3012 -0.7955  0.6067
 1631SOL    HW216353   0.968   2.410  10.508  1.3446  2.1844  1.2229
 1632SOL     OW16354   2.549   0.904   7.062  0.1155 -0.2227 -0.8008
 1632SOL    HW116355   2.523   0.976   7.120  2.3355 -0.9345  1.0978
 1632SOL    HW216356   2.473   0.848   7.071 -1.7809  2.5026  0.0287
 1633SOL     OW16357   2.966   0.268   1.625 -0.1316 -0.3183  0.0933
 1633SOL    HW116358   2.911   0.255   1.547  0.5730  0.4320 -0.5204
 1633SOL    HW216359   2.926   0.211   1.691  0.8868 -0.7915  0.2927
 1634SOL     OW16360   4.238   0.030   9.632 -0.1837  0.1431  0.0020
 1634SOL    HW116361   4.309   0.052   9.572 -1.3837  2.3489 -0.6068
 1634SOL    HW216362   4.221   0.110   9.682 -1.8909 -0.6537  0.6998
 1635SOL     OW16363   4.359   0.322   5.349 -0.5351 -0.6029 -0.6629
 1635SOL    HW116364   4.399   0.408   5.363 -1.6019 -0.1640 -0.2964
 1635SOL    HW216365   4.426   0.276   5.297 -1.2285  1.2933 -3.2298
 1636SOL     OW16366   3.076   3.578   8.126 -0.0797  0.2251  0.0880
 1636SOL    HW116367   3.022   3.500   8.133 -1.0912  1.0650  1.4929
 1636SOL    HW216368   3.166   3.544   8.125 -0.0131  0.3512  1.5921
 1637SOL     OW16369   2.845   1.125  16.316  0.0834  0.9706 -0.2129
 1637SOL    HW116370   2.760   1.125  16.271 -1.2500  2.0906  2.3170
 1637SOL    HW216371   2.870   1.033  16.316  0.2192  1.0239  2.7510
 1638SOL     OW16372   1.232   3.764   8.563 -0.9096 -0.4319 -0.1695
 1638SOL    HW116373   1.151   3.739   8.608  0.0025 -0.6977  1.3257
 1638SOL    HW216374   1.282   3.814   8.628 -2.1284  0.9687 -0.3166
 1639SOL     OW16375   2.268   1.542   9.137  0.7530 -0.6018  0.3792
 1639SOL    HW116376   2.269   1.476   9.067 -1.6466  1.6173 -1.7799
 1639SOL    HW216377   2.173   1.550   9.148  0.4769 -0.6792 -1.8708
 1640SOL     OW16378   0.930   3.759   5.421  0.4133 -0.2175 -0.0451
 1640SOL    HW116379   0.983   3.811   5.481 -1.9489  2.5835 -0.3832
 1640SOL    HW216380   0.988   3.773   5.346  1.2264 -0.3941  0.5574
 1641SOL     OW16381   0.847   1.530   7.238  0.1412  0.1933 -0.3007
 1641SOL    HW116382   0.759   1.525   7.277 -0.4604  0.5956 -1.6149
 1641SOL    HW216383   0.839   1.585   7.160 -0.7427 -1.1363 -1.1612
 1642SOL     OW16384   3.861   4.627  13.797 -0.4125  0.7545  0.0197
 1642SOL    HW116385   3.858   4.643  13.703  0.1707 -1.4291 -0.3663
 1642SOL    HW216386   3.950   4.592  13.803 -0.3798  1.2842  2.6099
 1643SOL     OW16387   2.540   3.533   6.356  0.0146  0.8529  0.2041
 1643SOL    HW116388   2.620   3.481   6.357  0.2698  1.2201 -0.5879
 1643SOL    HW216389   2.480   3.460   6.366  0.4824  0.3662 -0.5686
 1644SOL     OW16390   1.006   0.175   1.991  0.6001 -0.3578 -0.2544
 1644SOL    HW116391   1.016   0.094   2.040  1.4239 -0.2377 -0.2284
 1644SOL    HW216392   0.918   0.169   1.954  0.9768  1.4902 -1.4588
 1645SOL     OW16393   0.384   4.559   8.082 -0.0110  0.4390  0.3722
 1645SOL    HW116394   0.437   4.625   8.038 -1.0816  1.6362  0.8963
 1645SOL    HW216395   0.427   4.557   8.168  1.4332 -1.3296 -0.3918
 1646SOL     OW16396   2.833   2.721   5.132 -0.7120 -0.2998 -0.2217
 1646SOL    HW116397   2.847   2.718   5.037  0.6875 -1.1924  0.0207
 1646SOL    HW216398   2.739   2.700   5.137 -0.8535 -0.0046 -1.5807
 1647SOL     OW16399   3.245   3.366   9.209 -0.2865 -0.5366 -0.2017
 1647SOL    HW116400   3.326   3.355   9.160 -0.1804  1.3735 -0.4614
 1647SOL    HW216401   3.203   3.281   9.192 -0.8896 -0.0370 -1.2351
 1648SOL     OW16402   3.160   3.787   4.586  0.2373  0.3620 -0.0538
 1648SOL    HW116403   3.085   3.749   4.632 -1.9489  2.6010 -1.8314
 1648SOL    HW216404   3.130   3.776   4.496  1.0924  1.3706 -0.4566
 1649SOL     OW16405   3.695   3.549  15.595 -0.4271  0.9542 -0.2387
 1649SOL    HW116406   3.668   3.614  15.530  0.4412  0.4551 -1.0970
 1649SOL    HW216407   3.670   3.467  15.553  1.4422  0.1207  0.2907
 1650SOL     OW16408   1.406   4.052   2.022 -0.3754  0.9424 -0.1335
 1650SOL    HW116409   1.473   4.037   2.089  1.5273  2.6778 -1.6419
 1650SOL    HW216410   1.360   4.128   2.059  0.4367  1.7582 -0.8106
 1651SOL     OW16411   2.780   3.546   3.577 -0.3538  0.6467 -0.0492
 1651SOL    HW116412   2.756   3.453   3.586  1.3214  0.1212 -0.9927
 1651SOL    HW216413   2.725   3.569   3.502  1.2085 -1.3641 -1.8445
 1652SOL     OW16414   2.756   0.753   7.323  0.0041 -0.1725 -0.3033
 1652SOL    HW116415   2.826   0.818   7.319 -1.1164  1.0719  0.2362
 1652SOL    HW216416   2.682   0.808   7.350 -0.0912 -1.1398  1.3719
 1653SOL     OW16417   1.343   2.704   5.882 -0.6288  0.0876 -0.4436
 1653SOL    HW116418   1.310   2.768   5.819 -0.7452  1.6631  1.2117
 1653SOL    HW216419   1.434   2.727   5.897 -0.3863  0.6196 -2.7953
 1654SOL     OW16420   2.166   0.888   6.975  0.1584 -0.3148  0.3661
 1654SOL    HW116421   2.127   0.961   7.023 -0.6258  0.0765 -0.8836
 1654SOL    HW216422   2.219   0.930   6.907 -1.3942 -0.3530 -0.8470
 1655SOL     OW16423   4.167   0.030   6.518  0.4873 -0.0429  0.0982
 1655SOL    HW116424   4.244   0.081   6.493  0.9713 -0.6822  0.3060
 1655SOL    HW216425   4.212   4.665   6.515  0.3216 -0.1853  1.7136
 1656SOL     OW16426   3.177   3.050  13.684  0.1016 -0.4353  0.7222
 1656SOL    HW116427   3.217   3.027  13.767 -1.2339  1.2786  1.8482
 1656SOL    HW216428   3.089   3.083  13.703 -0.3646 -1.1508 -0.1913
 1657SOL     OW16429   1.100   0.368   3.080  0.0117  0.2663 -0.0107
 1657SOL    HW116430   1.084   0.454   3.041  1.1191  0.4984  0.0525
 1657SOL    HW216431   1.185   0.353   3.039  0.5200 -0.0347  1.1443
 1658SOL     OW16432   2.738   2.558   4.756  0.4677 -0.5338 -0.3250
 1658SOL    HW116433   2.767   2.467   4.747 -0.6682 -0.8739 -0.6579
 1658SOL    HW216434   2.673   2.561   4.685 -1.2884  0.5590  1.3467
 1659SOL     OW16435   4.471   1.885   3.251 -0.2828 -0.2981  0.2955
 1659SOL    HW116436   4.490   1.927   3.167 -1.0825 -0.4496  0.0344
 1659SOL    HW216437   4.559   1.876   3.287  0.0125  2.5363  0.2616
 1660SOL     OW16438   4.164   1.419  11.661  0.4919  0.9050  0.2293
 1660SOL    HW116439   4.200   1.384  11.743 -1.1963  0.7809  0.9353
 1660SOL    HW216440   4.218   1.497  11.654  1.1064  0.5427  0.9160
 1661SOL     OW16441   2.899   1.664   7.419  0.8117 -0.2390 -0.2917
 1661SOL    HW116442   2.941   1.716   7.488  0.4413  0.1796 -0.3821
 1661SOL    HW216443   2.827   1.626   7.468  1.7427 -2.2107 -0.4711
 1662SOL     OW16444   2.035   0.539  14.944 -0.8817 -0.1114  0.2196
 1662SOL    HW116445   1.967   0.500  14.889 -0.2043 -0.5815 -0.2868
 1662SOL    HW216446   2.068   0.460  14.988 -1.7101  0.0294  1.0953
 1663SOL     OW16447   0.528   2.512   5.831  0.0219  0.3237  0.2970
 1663SOL    HW116448   0.497   2.558   5.909 -2.2360  0.4028 -0.6427
 1663SOL    HW216449   0.559   2.428   5.864 -1.0178  0.3947  1.4654
 1664SOL     OW16450   3.453   3.699   5.382 -0.4751 -0.2270  0.8167
 1664SOL    HW116451   3.530   3.662   5.427 -0.2639 -0.7308  0.0333
 1664SOL    HW216452   3.450   3.787   5.420  2.0939  0.6177 -0.9017
 1665SOL     OW16453   2.338   3.870   3.251  0.5218 -0.4263 -0.4785
 1665SOL    HW116454   2.335   3.919   3.169 -1.7375  0.8909  0.3743
 1665SOL    HW216455   2.313   3.944   3.307  2.6753 -0.0144 -0.0957
 1666SOL     OW16456   3.095   3.999   9.811  0.2023 -0.7286 -0.3395
 1666SOL    HW116457   3.083   4.081   9.764 -0.7188 -0.2124  0.7842
 1666SOL    HW216458   3.187   4.005   9.837 -0.0919  1.6878  0.1863
 1667SOL     OW16459   0.218   1.564   7.392  0.0656 -0.6994  0.0367
 1667SOL    HW116460   0.309   1.539   7.405  0.2920  0.3114  0.3868
 1667SOL    HW216461   0.177   1.478   7.382 -2.2143  0.3283  0.4415
 1668SOL     OW16462   4.238   1.766  12.763  0.1627  0.8881  0.4347
 1668SOL    HW116463   4.309   1.720  12.807 -0.4618  0.6115  1.1544
 1668SOL    HW216464   4.263   1.748  12.673  0.4474  0.5993  0.5711
 1669SOL     OW16465   2.945   2.671   1.998  0.4730  0.1439  0.5829
 1669SOL    HW116466   2.945   2.594   1.941  1.5614  2.0056 -1.9744
 1669SOL    HW216467   2.950   2.740   1.932 -0.2653 -1.7442 -1.4578
 1670SOL     OW16468   0.222   3.271   6.511 -0.1742  0.1497  0.2236
 1670SOL    HW116469   0.138   3.226   6.498  0.0800 -0.6095  1.2876
 1670SOL    HW216470   0.278   3.193   6.513 -0.9011 -0.4550 -2.2716
 1671SOL     OW16471   0.219   3.694   3.801  0.0926  0.0140  0.6216
 1671SOL    HW116472   0.286   3.757   3.773  0.6610 -0.1732  1.5488
 1671SOL    HW216473   0.217   3.715   3.895  0.5924 -1.5495  0.9752
 1672SOL     OW16474   0.333   0.771   3.703  0.1969 -0.9695 -0.0659
 1672SOL    HW116475   0.352   0.702   3.639 -0.1386 -0.7817 -0.3615
 1672SOL    HW216476   0.413   0.824   3.708 -1.4183  1.3656  0.9592
 1673SOL     OW16477   4.495   3.758  10.099 -0.1706 -0.0291 -0.0957
 1673SOL    HW116478   4.578   3.764  10.051 -0.4415  0.2326 -0.5286
 1673SOL    HW216479   4.488   3.849  10.129  0.3534  0.6794 -2.1030
 1674SOL     OW16480   0.919   1.213   8.391 -0.0316 -0.0811 -0.4681
 1674SOL    HW116481   0.828   1.186   8.379 -0.7075  1.6947  0.7499
 1674SOL    HW216482   0.902   1.307   8.391 -1.3407 -0.3142 -0.9616
 1675SOL     OW16483   3.206   3.664  14.881 -0.3695  0.0291 -0.4769
 1675SOL    HW116484   3.129   3.719  14.871  0.2663  1.0791  0.5009
 1675SOL    HW216485   3.163   3.578  14.881 -0.5293  0.1086 -2.3927
 1676SOL     OW16486   0.561   1.669   7.339 -0.2152  0.1532  0.3410
 1676SOL    HW116487   0.532   1.635   7.255  1.9631  0.3622 -0.4880
 1676SOL    HW216488   0.518   1.608   7.399  2.5570 -1.4363  0.7174
 1677SOL     OW16489   2.865   2.619   4.000  0.1561 -0.6080  0.3021
 1677SOL    HW116490   2.817   2.548   4.043  1.9968 -0.4613  2.6039
 1677SOL    HW216491   2.935   2.629   4.065  0.7485 -1.9064 -0.1397
 1678SOL     OW16492   1.725   1.708   4.963  0.2335 -0.1086 -0.2331
 1678SOL    HW116493   1.721   1.795   5.004  0.5203  0.8832 -2.3107
 1678SOL    HW216494   1.686   1.658   5.035  2.5327  1.2277  1.9798
 1679SOL     OW16495   1.110   2.115   4.621  0.1877  0.6520 -0.1264
 1679SOL    HW116496   1.036   2.144   4.674  0.2202  2.2913 -0.9579
 1679SOL    HW216497   1.073   2.046   4.566 -0.2813  0.8041 -0.0020
 1680SOL     OW16498   0.181   3.693   9.304 -0.2710  0.3110  0.2188
 1680SOL    HW116499   0.241   3.621   9.324 -0.1779  0.5175  0.6736
 1680SOL    HW216500   0.111   3.671   9.366 -1.4035  0.3281 -1.0478
 1681SOL     OW16501   2.045   3.616   9.383  0.1433 -0.7112  0.6120
 1681SOL    HW116502   2.046   3.605   9.288  0.1164  1.9284  0.2934
 1681SOL    HW216503   2.139   3.628   9.392  0.2044 -0.6830 -0.0386
 1682SOL     OW16504   4.064   2.031   8.311 -0.4043  0.3707  0.4645
 1682SOL    HW116505   4.139   1.979   8.339  0.5854  1.1137 -0.7965
 1682SOL    HW216506   4.037   1.980   8.235  2.1931 -2.1824  1.2687
 1683SOL     OW16507   3.113   1.101   9.907 -0.0658 -0.4135  0.0606
 1683SOL    HW116508   3.116   1.196   9.896  0.6042 -0.4091  0.2683
 1683SOL    HW216509   3.198   1.065   9.930 -0.0384  0.5067  1.3621
 1684SOL     OW16510   2.465   4.106   1.903 -0.2575 -0.0354  0.3612
 1684SOL    HW116511   2.437   4.065   1.821  1.3225  2.8634 -1.6113
 1684SOL    HW216512   2.395   4.167   1.927 -1.2659 -0.8830 -0.4530
 1685SOL     OW16513   1.047   4.137   3.002  0.7181 -0.2650 -0.2239
 1685SOL    HW116514   1.036   4.138   2.907 -0.8492  3.1780 -0.0105
 1685SOL    HW216515   1.001   4.058   3.030 -0.9293  0.7849  0.0165
 1686SOL     OW16516   4.276   0.446   8.562 -0.6702 -0.2305 -0.2251
 1686SOL    HW116517   4.348   0.448   8.499 -0.8733 -1.9835 -0.5161
 1686SOL    HW216518   4.308   0.518   8.616  0.7087  0.2626 -1.7178
 1687SOL     OW16519   0.817   0.170   5.043  0.2428  0.1353 -0.1300
 1687SOL    HW116520   0.874   0.104   5.083  1.5905  1.2638 -0.1846
 1687SOL    HW216521   0.789   0.203   5.129  0.6355  0.4079 -0.1073
 1688SOL     OW16522   1.583   0.767   2.897  0.0761 -0.4193  0.1991
 1688SOL    HW116523   1.504   0.732   2.937  1.1579  1.2689  3.7920
 1688SOL    HW216524   1.542   0.810   2.822  1.1701 -0.0203 -0.1765
 1689SOL     OW16525   4.001   0.187   6.667 -0.8664  0.0848 -0.0155
 1689SOL    HW116526   4.054   0.121   6.622  0.3504  1.5859 -0.7766
 1689SOL    HW216527   3.992   0.251   6.597 -0.0939  0.3335  0.1085
 1690SOL     OW16528   1.126   4.330  12.118  0.3235  0.1004 -0.1211
 1690SOL    HW116529   1.187   4.329  12.192  1.2940  0.4141 -0.9192
 1690SOL    HW216530   1.060   4.395  12.142 -0.4672 -0.7343 -0.0563
 1691SOL     OW16531   1.805   0.707   0.228  0.0535  0.6611 -0.2713
 1691SOL    HW116532   1.822   0.724   0.320  1.2778 -2.1186  0.0156
 1691SOL    HW216533   1.892   0.708   0.188  0.2550  0.0712  0.1649
 1692SOL     OW16534   0.896   1.448  13.060  0.1828 -0.2299  0.6881
 1692SOL    HW116535   0.815   1.428  13.107 -0.8988  0.6074 -0.8353
 1692SOL    HW216536   0.886   1.543  13.052 -1.3461 -0.2770  2.0198
 1693SOL     OW16537   3.141   4.455  17.322 -0.2985 -0.0015 -0.0880
 1693SOL    HW116538   3.047   4.457  17.303 -0.2666 -1.1201 -0.3528
 1693SOL    HW216539   3.171   4.405  17.246 -2.4681  0.3340 -1.1624
 1694SOL     OW16540   0.118   2.588   6.727  0.1628 -0.4228 -1.0782
 1694SOL    HW116541   0.088   2.679   6.717  0.1080 -0.3785 -0.5376
 1694SOL    HW216542   0.178   2.572   6.654 -0.4771 -3.1030 -0.9895
 1695SOL     OW16543   0.347   3.589   7.310  0.2238  0.3510 -0.2928
 1695SOL    HW116544   0.439   3.612   7.326  0.3545  0.1959 -0.8012
 1695SOL    HW216545   0.329   3.564   7.400 -1.5369  1.7385 -0.2607
 1696SOL     OW16546   2.594   0.204   0.261 -0.3296 -0.6942 -0.4059
 1696SOL    HW116547   2.580   0.289   0.219  0.6292  0.4519  1.6032
 1696SOL    HW216548   2.662   0.235   0.321 -1.0409 -1.1483  0.6336
 1697SOL     OW16549   2.935   2.120   3.816 -0.3636 -0.0396  0.4682
 1697SOL    HW116550   2.948   2.076   3.900 -1.4331  0.5145  0.9234
 1697SOL    HW216551   3.024   2.153   3.805 -0.3468 -0.0145  0.6759
 1698SOL     OW16552   0.627   1.318   3.864 -0.5198  0.3375  0.1063
 1698SOL    HW116553   0.681   1.395   3.879 -2.7093  2.2533 -1.7107
 1698SOL    HW216554   0.694   1.258   3.832  0.5924  0.8263  1.5190
 1699SOL     OW16555   0.726   1.578  10.514 -0.4635 -0.4696 -0.1764
 1699SOL    HW116556   0.675   1.634  10.573  0.2417  0.0607 -0.0773
 1699SOL    HW216557   0.787   1.537  10.575  0.4849 -0.7105 -1.3087
 1700SOL     OW16558   2.816   1.280   7.569  0.1371  0.2511 -0.2544
 1700SOL    HW116559   2.896   1.242   7.606  1.9118  1.0312 -3.3219
 1700SOL    HW216560   2.758   1.206   7.586  0.4476 -0.1492 -0.9303
 1701SOL     OW16561   3.358   1.381   3.051 -0.1714 -0.6299  0.2172
 1701SOL    HW116562   3.411   1.318   3.003 -0.8636  0.3815 -1.9323
 1701SOL    HW216563   3.271   1.340   3.052 -1.1234  1.2377 -2.9551
 1702SOL     OW16564   4.372   1.121   2.481  0.1260  0.2004  0.2539
 1702SOL    HW116565   4.284   1.093   2.454  0.0884  2.8207 -2.3365
 1702SOL    HW216566   4.428   1.072   2.420 -1.7517  0.5602 -1.7873
 1703SOL     OW16567   1.363   2.540  13.413 -0.2221 -0.0026 -0.0188
 1703SOL    HW116568   1.315   2.473  13.366 -2.2839  1.0839  0.5290
 1703SOL    HW216569   1.456   2.536  13.390  0.3381  0.1189  2.1527
 1704SOL     OW16570   1.521   2.503  16.267  0.5658  0.0557  0.1834
 1704SOL    HW116571   1.592   2.566  16.253 -1.6768  2.3917 -0.7851
 1704SOL    HW216572   1.457   2.549  16.213 -0.3137 -1.8032 -0.3469
 1705SOL     OW16573   1.340   0.738   2.536  0.2528  0.0081 -0.1361
 1705SOL    HW116574   1.416   0.792   2.557 -0.3027  0.7158  0.0395
 1705SOL    HW216575   1.357   0.662   2.591 -1.5366 -1.3085 -1.4011
 1706SOL     OW16576   2.481   1.611   8.912 -0.0033  0.1351  0.0512
 1706SOL    HW116577   2.534   1.640   8.837  1.0114  1.2450  1.1902
 1706SOL    HW216578   2.452   1.532   8.867  0.1629  0.3971 -0.5106
 1707SOL     OW16579   1.170   1.030   5.387 -0.1070 -0.2896  0.1251
 1707SOL    HW116580   1.109   0.983   5.330 -3.5086  2.3557  1.5946
 1707SOL    HW216581   1.168   0.956   5.447  0.8635 -0.0693  0.4348
 1708SOL     OW16582   0.327   4.548   7.171 -0.0890  0.3941 -0.3268
 1708SOL    HW116583   0.332   4.640   7.197 -1.8009  0.2984  0.3142
 1708SOL    HW216584   0.400   4.508   7.219  0.1641  2.2837  0.8858
 1709SOL     OW16585   1.210   3.168   8.096  0.1531 -0.4583 -0.2047
 1709SOL    HW116586   1.167   3.241   8.141 -1.6097 -1.4389 -0.2816
 1709SOL    HW216587   1.168   3.178   8.010 -0.5722 -0.7140  0.1180
 1710SOL     OW16588   3.764   3.967   6.904  0.0381  0.1194  0.0023
 1710SOL    HW116589   3.782   3.898   6.841 -1.3278  1.0548 -1.4106
 1710SOL    HW216590   3.706   3.910   6.954 -0.0021 -0.1197 -0.3220
 1711SOL     OW16591   1.395   1.379   6.254 -0.0970  0.4883 -0.3619
 1711SOL    HW116592   1.421   1.427   6.332 -0.3227  0.6758 -0.4024
 1711SOL    HW216593   1.305   1.407   6.243 -0.2237 -0.2117 -1.1422
 1712SOL     OW16594   1.905   0.182   0.643 -0.0078 -0.4439 -0.1625
 1712SOL    HW116595   1.854   0.105   0.615 -2.9817  0.7100  2.0968
 1712SOL    HW216596   1.978   0.133   0.681 -0.1999 -0.4199  0.2357
 1713SOL     OW16597   3.513   1.485   7.027  0.3580 -0.8457  0.4267
 1713SOL    HW116598   3.421   1.460   7.032  0.4692 -1.4440 -0.5817
 1713SOL    HW216599   3.503   1.580   7.033 -2.6525 -0.9577 -3.1528
 1714SOL     OW16600   0.189   0.471   1.814 -0.2096 -0.2444  0.5705
 1714SOL    HW116601   0.279   0.477   1.845  0.2391  1.1564 -0.9662
 1714SOL    HW216602   0.183   0.565   1.797 -2.9584 -0.8769 -2.0265
 1715SOL     OW16603   2.672   1.283   9.698  0.0700 -0.1248 -0.0400
 1715SOL    HW116604   2.648   1.305   9.608 -1.3288  0.6844  0.5381
 1715SOL    HW216605   2.622   1.203   9.715 -1.6473  0.7625 -0.9908
 1716SOL     OW16606   3.445   2.191   4.389  0.2033 -0.0717  0.4682
 1716SOL    HW116607   3.505   2.157   4.456  0.8993 -0.0240 -0.1182
 1716SOL    HW216608   3.451   2.283   4.416 -3.9026  0.2789  0.1505
 1717SOL     OW16609   4.237   0.068   8.071 -0.2601 -0.1103 -0.1093
 1717SOL    HW116610   4.246   4.701   8.113 -0.7690  0.2596  0.7429
 1717SOL    HW216611   4.227   0.123   8.149  0.8216  2.3775 -1.6985
 1718SOL     OW16612   1.113   0.579  15.761 -0.7617 -0.6657  0.5027
 1718SOL    HW116613   1.160   0.625  15.691  0.3887 -0.5292  1.3602
 1718SOL    HW216614   1.126   0.634  15.838 -0.0604 -0.0718 -0.0381
 1719SOL     OW16615   3.865   4.083   4.577  0.2813 -0.2196  0.1736
 1719SOL    HW116616   3.802   4.033   4.526 -0.5773  1.5627 -0.5263
 1719SOL    HW216617   3.841   4.056   4.665  0.9020  0.8991  0.6811
 1720SOL     OW16618   2.549   0.782  11.981 -0.8818  0.3520 -0.0454
 1720SOL    HW116619   2.603   0.716  12.025 -1.7545 -0.8476 -0.7775
 1720SOL    HW216620   2.485   0.731  11.931 -1.0161  0.7636 -0.2930
 1721SOL     OW16621   2.320   0.304   6.225  0.3092 -0.4080  0.4824
 1721SOL    HW116622   2.320   0.262   6.139 -1.7032  0.3142  0.1323
 1721SOL    HW216623   2.389   0.256   6.271  0.4571 -1.7656 -1.1350
 1722SOL     OW16624   1.011   3.176   7.257 -0.1093  0.2585  0.7083
 1722SOL    HW116625   1.026   3.087   7.291 -2.0159 -0.2240  0.2827
 1722SOL    HW216626   1.048   3.224   7.331  1.4048 -0.1016  0.1973
 1723SOL     OW16627   1.920   2.629   5.529 -0.5327  0.6002  0.2781
 1723SOL    HW116628   1.835   2.589   5.547 -0.7692  0.6389 -0.7579
 1723SOL    HW216629   1.938   2.584   5.447 -2.8064  1.6912 -0.8263
 1724SOL     OW16630   2.519   4.345   5.796  0.2416  0.3923  0.4481
 1724SOL    HW116631   2.566   4.423   5.767  1.6184 -0.2257  0.9984
 1724SOL    HW216632   2.448   4.338   5.733 -0.2121  0.3801  0.9608
 1725SOL     OW16633   1.959   3.751  12.950 -0.2371 -0.7791  0.4016
 1725SOL    HW116634   1.912   3.822  12.994  2.4237  0.5743  1.1086
 1725SOL    HW216635   2.036   3.791  12.907 -1.1134  0.9510  0.4407
 1726SOL     OW16636   4.073   0.222  11.271 -0.1296  0.7371  0.3679
 1726SOL    HW116637   4.143   0.160  11.248 -0.5002  0.2451  0.5558
 1726SOL    HW216638   4.003   0.163  11.298 -1.3146  1.4764 -1.0906
 1727SOL     OW16639   2.133   4.264   5.812  0.1756  0.1222  0.0905
 1727SOL    HW116640   2.077   4.217   5.874 -1.7417 -0.6419 -2.1773
 1727SOL    HW216641   2.087   4.252   5.729 -0.1550 -0.0992  0.3038
 1728SOL     OW16642   0.294   1.876   4.150  0.3211 -0.0278  0.0169
 1728SOL    HW116643   0.385   1.853   4.130  0.5194  0.9938 -0.2283
 1728SOL    HW216644   0.283   1.818   4.226 -0.2971  0.5453  0.3649
 1729SOL     OW16645   0.333   2.970  15.849 -0.1792 -0.1758  0.1448
 1729SOL    HW116646   0.242   2.965  15.821  0.1862  0.0603 -1.0701
 1729SOL    HW216647   0.327   2.955  15.943  0.5033 -0.7457  0.1078
 1730SOL     OW16648   1.819   0.018   4.438 -0.4865 -0.6135  0.0509
 1730SOL    HW116649   1.775   0.087   4.487  0.8786 -1.4209  2.3848
 1730SOL    HW216650   1.912   0.040   4.445 -0.8918 -0.1573  3.8894
 1731SOL     OW16651   0.853   4.181   7.171  0.3867 -0.2663 -0.2345
 1731SOL    HW116652   0.843   4.276   7.163 -1.4518 -0.4501 -0.1939
 1731SOL    HW216653   0.948   4.173   7.164  0.3552 -1.8814  1.4160
 1732SOL     OW16654   0.883   4.648   3.572 -0.0356  0.6279  0.0378
 1732SOL    HW116655   0.898   4.645   3.666  1.8115  1.2351 -0.2432
 1732SOL    HW216656   0.966   4.610   3.542 -1.0121 -1.2235 -0.3698
 1733SOL     OW16657   0.041   3.523   2.856  0.2700  0.1743 -0.6264
 1733SOL    HW116658   4.703   3.454   2.823  0.8659 -1.3318  1.5150
 1733SOL    HW216659   0.108   3.521   2.788  0.1326  0.7372 -0.7760
 1734SOL     OW16660   3.474   1.432   6.036  0.2759  0.1687 -0.3086
 1734SOL    HW116661   3.570   1.432   6.034  0.2465  2.8246 -1.4217
 1734SOL    HW216662   3.431   1.490   5.973  0.3943  0.1824 -0.3787
 1735SOL     OW16663   4.394   4.265   7.306  0.0829  0.3795  0.0602
 1735SOL    HW116664   4.456   4.326   7.347  1.6952  0.1349 -1.9989
 1735SOL    HW216665   4.311   4.310   7.288  0.3198  0.1877 -1.5488
 1736SOL     OW16666   3.720   3.363   6.205  0.4405 -0.2764 -0.4430
 1736SOL    HW116667   3.765   3.326   6.281 -0.2316 -2.4389 -1.0931
 1736SOL    HW216668   3.757   3.451   6.207  1.0894 -0.5947  1.1022
 1737SOL     OW16669   4.398   1.811   1.963  0.5380  1.0867 -0.0423
 1737SOL    HW116670   4.348   1.765   1.896 -0.9247 -0.7883  2.3222
 1737SOL    HW216671   4.465   1.844   1.904  0.4943  2.3452  0.6242
 1738SOL     OW16672   0.777   0.914   0.205  0.2228  0.0124  0.2885
 1738SOL    HW116673   0.791   0.845   0.270  1.3438  0.8444  0.9290
 1738SOL    HW216674   0.729   0.977   0.260 -1.4920 -1.6268  0.6839
 1739SOL     OW16675   4.618   2.552  16.068 -0.1084  0.3070 -0.1482
 1739SOL    HW116676   4.524   2.565  16.066 -0.1028 -0.0893 -3.2635
 1739SOL    HW216677   4.624   2.488  16.139  0.8073  1.1912  0.5865
 1740SOL     OW16678   1.838   4.442  15.898  0.0529 -0.0918  0.5766
 1740SOL    HW116679   1.765   4.484  15.853  0.8377  2.6253  1.8741
 1740SOL    HW216680   1.862   4.509  15.962  0.3984  1.2094 -0.9182
 1741SOL     OW16681   2.335   4.473  14.688  0.7271 -0.3839  0.2699
 1741SOL    HW116682   2.344   4.548  14.746  0.2804 -0.7397  0.7997
 1741SOL    HW216683   2.244   4.484  14.660  1.3458  1.4654 -1.0062
 1742SOL     OW16684   2.708   0.146   5.745 -0.4159 -0.3644 -0.2935
 1742SOL    HW116685   2.794   0.163   5.707  0.9131  1.6721  3.6122
 1742SOL    HW216686   2.691   0.204   5.819  0.7273 -1.8052  1.0860
 1743SOL     OW16687   3.585   1.473   4.357  0.5708  0.3061 -0.2922
 1743SOL    HW116688   3.586   1.568   4.373 -2.6001  0.2140  0.4852
 1743SOL    HW216689   3.620   1.451   4.444  0.0933 -2.0099 -0.6832
 1744SOL     OW16690   0.810   0.641   7.723 -0.6173  0.1809  0.6616
 1744SOL    HW116691   0.886   0.634   7.666 -0.2490 -0.6245  1.2395
 1744SOL    HW216692   0.744   0.617   7.658  0.3468  2.2928 -1.0782
 1745SOL     OW16693   3.558   2.430   9.748 -0.2505  0.5270  0.0273
 1745SOL    HW116694   3.598   2.516   9.760  0.9034 -0.2768  2.0292
 1745SOL    HW216695   3.633   2.376   9.721 -1.8045 -0.5048 -2.1467
 1746SOL     OW16696   2.058   0.706   7.694  0.3699  0.1974 -0.0809
 1746SOL    HW116697   2.019   0.787   7.728 -0.2040 -0.2288  0.2643
 1746SOL    HW216698   2.109   0.672   7.768 -0.0877  0.7253  0.4795
 1747SOL     OW16699   2.423   3.358   7.917 -0.0465  0.1923  0.1239
 1747SOL    HW116700   2.484   3.327   7.849 -1.1458 -2.2388  0.2267
 1747SOL    HW216701   2.482   3.395   7.982  1.0204  2.1700 -1.9505
 1748SOL     OW16702   0.990   1.663   4.378  0.1645  0.0228 -0.1594
 1748SOL    HW116703   0.989   1.757   4.397  0.0520 -0.3828  1.8503
 1748SOL    HW216704   1.021   1.638   4.465  2.1695 -0.9207 -1.1604
 1749SOL     OW16705   4.207   1.383   5.259 -0.6008 -0.4085  0.5444
 1749SOL    HW116706   4.300   1.402   5.246 -0.7494 -0.5877 -0.7687
 1749SOL    HW216707   4.164   1.446   5.200  1.4061 -0.2161 -0.7135
 1750SOL     OW16708   4.023   2.494   2.247 -0.4968  0.1613  0.3149
 1750SOL    HW116709   4.053   2.583   2.232  0.2808 -0.4983 -2.1104
 1750SOL    HW216710   4.005   2.466   2.157  0.5504  0.8557 -0.1117
 1751SOL     OW16711   0.489   2.196  13.335  0.0633  0.2817 -0.0467
 1751SOL    HW116712   0.559   2.132  13.351  2.0229  2.3520 -0.2901
 1751SOL    HW216713   0.418   2.141  13.303  0.3665  1.1294 -2.1975
 1752SOL     OW16714   2.975   3.410  12.821 -0.6208 -0.3342  0.8651
 1752SOL    HW116715   3.009   3.346  12.758 -2.1259 -0.6766  0.4101
 1752SOL    HW216716   2.947   3.471  12.752  0.3650  0.5320  1.2352
 1753SOL     OW16717   0.696   2.906   1.547  0.9555 -0.2518  0.5663
 1753SOL    HW116718   0.604   2.897   1.572  0.5388  0.0249 -0.8857
 1753SOL    HW216719   0.730   2.981   1.597 -0.3318  0.0495  0.9987
 1754SOL     OW16720   2.623   3.342  17.232  0.0723  0.3786 -0.1439
 1754SOL    HW116721   2.558   3.371  17.168  0.2150  1.4329  0.1898
 1754SOL    HW216722   2.575   3.328  17.314 -0.2847  2.1594 -0.0595
 1755SOL     OW16723   0.134   3.794  15.737 -0.1650 -0.2361  0.7124
 1755SOL    HW116724   0.174   3.762  15.656 -1.3707  0.1871 -0.0445
 1755SOL    HW216725   0.101   3.880  15.712 -0.9976 -0.2627  1.7221
 1756SOL     OW16726   3.607   0.236   1.772 -0.0964  0.7638 -0.4648
 1756SOL    HW116727   3.646   0.181   1.840 -0.3624 -0.1664 -1.0636
 1756SOL    HW216728   3.649   0.208   1.691  0.2689  1.9700 -0.6786
 1757SOL     OW16729   1.692   1.854   7.612 -0.1320 -0.7750  0.1123
 1757SOL    HW116730   1.712   1.919   7.680  1.1912  0.3884 -1.3948
 1757SOL    HW216731   1.777   1.844   7.570 -0.4496  2.0241 -1.1948
 1758SOL     OW16732   1.137   0.336   2.200 -0.2743  0.1338  0.1255
 1758SOL    HW116733   1.105   0.268   2.141 -3.4121  0.2613  1.6555
 1758SOL    HW216734   1.202   0.291   2.254  0.8278  0.9149 -0.5456
 1759SOL     OW16735   3.142   3.535  17.137  0.2829 -0.1282 -0.2421
 1759SOL    HW116736   3.133   3.528  17.232 -0.9051 -0.9062 -0.3975
 1759SOL    HW216737   3.049   3.528  17.115  0.6379  0.2523 -1.8663
 1760SOL     OW16738   2.153   3.897  17.592  0.0626 -0.5007  0.2867
 1760SOL    HW116739   2.143   3.908  17.498 -0.8781  3.9358  0.8952
 1760SOL    HW216740   2.229   3.955  17.601 -1.7761  1.5807  2.3577
 1761SOL     OW16741   1.394   2.982   8.107  0.0312  0.2979 -0.2428
 1761SOL    HW116742   1.412   2.980   8.013 -0.2495  1.3360 -0.3230
 1761SOL    HW216743   1.322   3.046   8.111  1.1933  1.5240  0.9263
 1762SOL     OW16744   4.557   3.728   4.416 -0.3746 -0.4831 -0.1885
 1762SOL    HW116745   4.538   3.774   4.334  0.0554 -0.2170 -0.1404
 1762SOL    HW216746   4.484   3.745   4.474 -1.1402  0.9050 -1.5518
 1763SOL     OW16747   0.888   3.299   6.232 -0.0962  0.4668  0.5034
 1763SOL    HW116748   0.907   3.230   6.296  1.2859  2.1333  1.9097
 1763SOL    HW216749   0.798   3.275   6.210 -0.2549  1.2012  0.3431
 1764SOL     OW16750   1.037   1.105   7.974 -0.2312  0.4476 -0.0077
 1764SOL    HW116751   1.020   1.034   8.036 -0.4203  1.8732  1.5669
 1764SOL    HW216752   1.010   1.072   7.888  0.8215 -1.6853  0.4841
 1765SOL     OW16753   1.525   2.194  14.187  0.0107  0.0150  0.1761
 1765SOL    HW116754   1.452   2.251  14.164 -0.6836 -0.5999  0.8496
 1765SOL    HW216755   1.586   2.208  14.114  1.2519 -2.4726  0.7261
 1766SOL     OW16756   1.251   1.525   5.928 -0.5770  0.4432  0.2956
 1766SOL    HW116757   1.293   1.457   5.982 -0.6631  0.0639 -0.1200
 1766SOL    HW216758   1.165   1.488   5.910 -1.5538  2.7385  0.3890
 1767SOL     OW16759   2.550   3.090   4.776 -0.7301 -0.0728 -0.9751
 1767SOL    HW116760   2.497   3.089   4.856  1.2809  0.5614  0.3836
 1767SOL    HW216761   2.586   3.001   4.777 -1.6695 -0.4404  1.0195
 1768SOL     OW16762   0.686   1.499   2.405 -0.2690  0.6583 -0.6907
 1768SOL    HW116763   0.779   1.505   2.428 -0.3395  0.1357 -0.2652
 1768SOL    HW216764   0.652   1.579   2.444  0.5273  0.3026  0.7467
 1769SOL     OW16765   3.148   4.459   3.681 -0.5883  0.0658 -0.1921
 1769SOL    HW116766   3.224   4.514   3.660  0.9713 -0.7080  3.5400
 1769SOL    HW216767   3.145   4.463   3.776  0.4737 -0.8482 -0.1089
 1770SOL     OW16768   2.571   0.916   1.397 -0.0188 -0.1699  0.1098
 1770SOL    HW116769   2.511   0.896   1.325  2.8777  0.7166 -2.5732
 1770SOL    HW216770   2.631   0.841   1.396 -0.9864 -0.9867  2.8538
 1771SOL     OW16771   1.937   2.133   6.374 -0.4885 -0.5076  0.0874
 1771SOL    HW116772   1.897   2.047   6.362 -1.1728 -0.1651 -0.0614
 1771SOL    HW216773   1.904   2.182   6.299 -0.7396 -3.1886 -1.5650
 1772SOL     OW16774   3.857   3.548  15.852 -0.0593 -0.2628 -0.2583
 1772SOL    HW116775   3.814   3.550  15.766  0.4452 -1.3948 -0.5470
 1772SOL    HW216776   3.780   3.540  15.909  1.7796 -0.7711  2.1381
 1773SOL     OW16777   4.172   0.661  13.074  0.0718 -0.4512 -0.4159
 1773SOL    HW116778   4.214   0.718  13.011 -1.1219  0.2915 -0.5423
 1773SOL    HW216779   4.161   0.733  13.136  0.0537  0.4814 -1.4973
 1774SOL     OW16780   3.199   2.217   5.728 -0.5865 -0.0247  0.4987
 1774SOL    HW116781   3.275   2.272   5.710 -1.4669  0.7160 -1.0103
 1774SOL    HW216782   3.237   2.158   5.793  1.3305  1.2696  0.5424
 1775SOL     OW16783   3.937   4.556   2.185  0.4596 -0.5784  0.0454
 1775SOL    HW116784   3.950   4.585   2.095  1.1795 -1.2489 -0.0648
 1775SOL    HW216785   3.941   4.643   2.226  0.9758 -1.1253  1.1437
 1776SOL     OW16786   1.019   0.490   3.318  0.0480  0.3365  0.4241
 1776SOL    HW116787   1.089   0.480   3.382 -0.0371 -2.2380  0.0862
 1776SOL    HW216788   1.064   0.448   3.244  0.3968 -0.7145  1.2420
 1777SOL     OW16789   4.463   3.399   2.015  0.9029 -0.1508 -0.2600
 1777SOL    HW116790   4.482   3.456   1.941 -1.9183 -1.6002 -2.0987
 1777SOL    HW216791   4.539   3.420   2.070  1.2093 -0.4696 -0.5554
 1778SOL     OW16792   4.672   3.253   9.066 -0.0164 -0.2082  0.5485
 1778SOL    HW116793   4.657   3.218   8.979 -0.0863  0.1638  0.4117
 1778SOL    HW216794   4.702   3.178   9.117  3.2479  0.8001  0.1182
 1779SOL     OW16795   4.133   0.034   4.531 -0.2345 -0.3734 -0.0269
 1779SOL    HW116796   4.111   0.121   4.500 -0.0541 -0.3774 -0.1652
 1779SOL    HW216797   4.112   0.050   4.623 -1.5360 -0.9415 -0.2172
 1780SOL     OW16798   1.482   0.558   5.744 -0.2019  0.0726 -0.0483
 1780SOL    HW116799   1.509   0.467   5.759  0.0231  0.1281 -0.1114
 1780SOL    HW216800   1.393   0.529   5.758 -0.2014 -1.4870 -3.4003
 1781SOL     OW16801   1.949   2.671   3.375 -0.4591  0.1446  0.0857
 1781SOL    HW116802   1.971   2.764   3.371 -1.5059  0.3555 -0.9467
 1781SOL    HW216803   2.035   2.630   3.374  0.6599  2.5244 -0.3561
 1782SOL     OW16804   4.146   0.922   3.615 -0.5232 -0.2286  0.0189
 1782SOL    HW116805   4.063   0.928   3.662 -0.4736 -0.3973  0.1303
 1782SOL    HW216806   4.110   0.909   3.527  1.8183 -0.6916 -0.8624
 1783SOL     OW16807   3.356   2.427   4.085  0.2634 -0.0535 -0.6038
 1783SOL    HW116808   3.437   2.473   4.061  0.2069  0.2289 -0.2627
 1783SOL    HW216809   3.372   2.336   4.062  1.0802 -0.3302  1.0153
 1784SOL     OW16810   2.530   0.643   7.893 -0.4623 -0.1845 -0.5349
 1784SOL    HW116811   2.524   0.617   7.801  0.0299  0.6742 -0.8140
 1784SOL    HW216812   2.581   0.571   7.931 -0.9094 -0.3918 -0.3313
 1785SOL     OW16813   0.243   3.680   0.432  0.6050  0.4039 -0.0200
 1785SOL    HW116814   0.296   3.758   0.448 -1.4608  1.3049  2.4129
 1785SOL    HW216815   0.319   3.624   0.452  0.1982  0.7867  2.6593
 1786SOL     OW16816   3.054   4.547   4.627 -0.7189  0.5722 -0.5758
 1786SOL    HW116817   3.125   4.491   4.659 -0.7830  0.0248 -1.3862
 1786SOL    HW216818   3.049   4.615   4.693 -0.7809  1.1518 -1.1802
 1787SOL     OW16819   2.955   2.803  15.589 -0.0720  0.4589 -0.2215
 1787SOL    HW116820   2.894   2.844  15.650 -1.0575 -1.8617  0.3426
 1787SOL    HW216821   2.932   2.854  15.512 -0.9900  0.0054 -0.2553
 1788SOL     OW16822   0.167   3.919   6.501 -0.1636 -0.1582  0.4078
 1788SOL    HW116823   0.218   3.884   6.428  0.2535  1.4462 -0.0627
 1788SOL    HW216824   0.213   4.001   6.518  1.9218 -0.7583 -2.4063
 1789SOL     OW16825   3.519   4.383   5.856  0.6549  0.1570 -0.2045
 1789SOL    HW116826   3.499   4.462   5.806 -0.8428  0.4622  0.9019
 1789SOL    HW216827   3.551   4.426   5.935 -0.1569  0.6891 -0.1748
 1790SOL     OW16828   3.228   3.601   1.709 -0.3411  0.1438 -0.5514
 1790SOL    HW116829   3.224   3.527   1.769  1.1895  0.5769  0.0764
 1790SOL    HW216830   3.322   3.597   1.689 -0.7381  1.5714 -2.7127
 1791SOL     OW16831   1.212   1.216   7.023  0.3384  0.1948  0.1151
 1791SOL    HW116832   1.259   1.235   6.942 -0.8565  2.5227 -0.0249
 1791SOL    HW216833   1.131   1.265   7.009 -0.0237 -0.4611 -0.1222
 1792SOL     OW16834   0.602   3.115   5.127  0.4297  0.2872  0.5308
 1792SOL    HW116835   0.537   3.173   5.088  0.2789 -0.9512 -1.0927
 1792SOL    HW216836   0.668   3.106   5.058  0.5604  0.9834  0.5643
 1793SOL     OW16837   3.502   1.062   8.033  0.1312  0.1019  0.7621
 1793SOL    HW116838   3.575   1.033   8.088 -0.6089 -2.0879  0.5756
 1793SOL    HW216839   3.517   1.157   8.033 -0.4735  0.1967  0.7794
 1794SOL     OW16840   3.455   2.787  12.732  0.3579  0.3426  0.2316
 1794SOL    HW116841   3.428   2.696  12.738 -0.3373  0.7086  2.6091
 1794SOL    HW216842   3.539   2.772  12.687  0.0826 -1.4685  0.3251
 1795SOL     OW16843   0.963   2.268   5.479  0.1396  0.3902  0.7110
 1795SOL    HW116844   0.965   2.190   5.534  0.1970  1.2717  1.9479
 1795SOL    HW216845   0.874   2.301   5.494 -0.0433  0.1161  0.2342
 1796SOL     OW16846   1.031   3.113   6.358  0.0869 -0.0357  0.5618
 1796SOL    HW116847   0.985   3.030   6.365  1.3959 -0.7378  0.7295
 1796SOL    HW216848   1.106   3.104   6.417  1.7546 -0.3367 -1.5947
 1797SOL     OW16849   2.578   2.175   2.913  0.2608 -0.5763 -0.1222
 1797SOL    HW116850   2.547   2.176   3.004 -2.9035 -0.3065 -1.2286
 1797SOL    HW216851   2.654   2.231   2.929  0.1743 -0.2379 -0.9411
 1798SOL     OW16852   3.710   4.568   0.694 -0.5920  0.2575 -0.2340
 1798SOL    HW116853   3.686   4.657   0.722  4.0541  0.3440  3.3466
 1798SOL    HW216854   3.656   4.564   0.615  2.3683 -2.1026 -2.0893
 1799SOL     OW16855   1.570   4.480  11.718 -0.0181 -0.3736 -0.1455
 1799SOL    HW116856   1.591   4.563  11.762 -1.1755 -1.2293  1.9957
 1799SOL    HW216857   1.586   4.414  11.785  0.3695  0.3882  0.5044
 1800SOL     OW16858   3.618   0.636  11.587  0.2329  0.5380  0.1228
 1800SOL    HW116859   3.622   0.620  11.492  2.1987  0.5742  0.1996
 1800SOL    HW216860   3.679   0.710  11.586 -0.3861  1.0484 -0.2645
 1801SOL     OW16861   4.298   0.940   7.757  0.4497 -0.2177  0.2876
 1801SOL    HW116862   4.306   1.028   7.720 -0.9520  0.7841  2.3394
 1801SOL    HW216863   4.378   0.901   7.721  0.5502 -1.4401  1.8117
 1802SOL     OW16864   2.229   2.042   4.982  0.3192  0.5222  0.2069
 1802SOL    HW116865   2.273   1.977   4.928 -0.4463  0.2185 -0.0614
 1802SOL    HW216866   2.289   2.111   4.953  2.5242 -1.6703 -0.4141
 1803SOL     OW16867   0.264   2.313  14.748  0.3382  0.4205  0.4864
 1803SOL    HW116868   0.282   2.339  14.658  3.3160 -0.6674  0.7551
 1803SOL    HW216869   0.248   2.391  14.801 -0.3627  0.3204  0.4215
 1804SOL     OW16870   0.541   1.289   4.802  0.3726  0.3255  0.0854
 1804SOL    HW116871   0.528   1.349   4.729 -1.3360 -2.3602 -1.7955
 1804SOL    HW216872   0.574   1.355   4.864  0.6457 -0.4122  0.7286
 1805SOL     OW16873   2.870   2.039   6.175 -0.2100  0.3803 -0.5036
 1805SOL    HW116874   2.915   1.957   6.154 -0.2425  0.5228 -1.1349
 1805SOL    HW216875   2.839   2.029   6.265  0.9218  2.5373  0.1403
 1806SOL     OW16876   3.944   1.649  12.238  0.7386  0.0255 -0.2350
 1806SOL    HW116877   3.992   1.656  12.320 -2.4370 -1.2836  1.7704
 1806SOL    HW216878   3.870   1.596  12.267  1.1125  0.2866  1.1811
 1807SOL     OW16879   0.724   0.153   8.630  0.7060 -0.0463 -0.1632
 1807SOL    HW116880   0.664   0.215   8.589  1.1940  1.0450  0.7654
 1807SOL    HW216881   0.661   0.083   8.646 -1.4566  1.9254  0.0318
 1808SOL     OW16882   1.473   1.946  14.407 -0.6105 -0.0659  0.9550
 1808SOL    HW116883   1.445   1.908  14.490 -0.7114  1.9304  1.8324
 1808SOL    HW216884   1.420   1.910  14.335  1.7204  1.4437 -1.5250
 1809SOL     OW16885   3.572   3.469   7.873 -0.6631  0.4135 -0.4574
 1809SOL    HW116886   3.478   3.459   7.862 -0.4628 -1.9296  0.0883
 1809SOL    HW216887   3.575   3.560   7.904 -0.9922 -0.2665  1.5801
 1810SOL     OW16888   0.773   4.256   5.575  0.6042 -0.0759 -0.0069
 1810SOL    HW116889   0.778   4.161   5.568  1.1566 -0.0885  0.5055
 1810SOL    HW216890   0.814   4.273   5.491 -0.9611  0.4564 -0.6568
 1811SOL     OW16891   0.699   3.985   3.483  0.0264 -0.4934 -0.1507
 1811SOL    HW116892   0.714   3.898   3.519  1.6768 -0.2602 -0.2585
 1811SOL    HW216893   0.771   3.978   3.420 -0.2646 -1.0154 -0.4199
 1812SOL     OW16894   0.601   0.257   6.317 -0.3966  0.2467 -0.1786
 1812SOL    HW116895   0.555   0.195   6.261 -0.5318 -0.6984  0.9791
 1812SOL    HW216896   0.598   0.217   6.404  0.5171  0.3600 -0.0962
 1813SOL     OW16897   1.914   2.879   8.514 -0.1246  0.1296 -0.2907
 1813SOL    HW116898   1.826   2.905   8.487 -1.2054 -3.3826 -0.1841
 1813SOL    HW216899   1.952   2.966   8.509 -0.5834  0.2839 -1.1073
 1814SOL     OW16900   1.188   2.326  12.401  0.2972  0.1941 -0.3825
 1814SOL    HW116901   1.216   2.332  12.492  0.0325 -2.2104 -0.1421
 1814SOL    HW216902   1.267   2.295  12.359  1.0714 -1.1260  2.0864
 1815SOL     OW16903   0.020   0.062   9.901 -0.1939  0.1064 -0.2200
 1815SOL    HW116904   0.013   0.079   9.995 -1.3989 -0.5778 -0.1776
 1815SOL    HW216905   0.090   4.716   9.904  0.6794  1.0042 -1.4491
 1816SOL     OW16906   4.054   1.586   4.852 -0.6252  0.2601 -0.7046
 1816SOL    HW116907   4.051   1.530   4.774 -0.1721  0.2301 -0.6957
 1816SOL    HW216908   4.105   1.523   4.902 -1.2279  2.3780  2.5261
 1817SOL     OW16909   3.881   4.526  11.092  0.3927 -0.0752  0.4372
 1817SOL    HW116910   3.907   4.580  11.167 -1.3866  1.0102  0.2883
 1817SOL    HW216911   3.961   4.528  11.040 -1.5455  0.3845 -2.5387
 1818SOL     OW16912   3.678   3.339   8.390  0.2415  0.7493  0.2698
 1818SOL    HW116913   3.645   3.262   8.437 -0.5179  1.8634  1.5595
 1818SOL    HW216914   3.634   3.407   8.442 -1.9133  0.8249 -1.6081
 1819SOL     OW16915   1.751   0.440   3.457 -0.1068  0.0668 -0.4153
 1819SOL    HW116916   1.753   0.519   3.511 -3.1692 -0.9637  1.1526
 1819SOL    HW216917   1.678   0.393   3.496 -0.5788  2.3883  1.5343
 1820SOL     OW16918   0.515   3.308  14.118 -0.3456 -1.2287  0.0113
 1820SOL    HW116919   0.483   3.230  14.165 -0.2845 -0.9619  0.5016
 1820SOL    HW216920   0.452   3.316  14.046  0.6828  0.9206 -0.6310
 1821SOL     OW16921   2.807   2.082   9.369  0.0280 -0.3630 -0.0625
 1821SOL    HW116922   2.741   2.014   9.382  0.0402 -0.8375 -2.5851
 1821SOL    HW216923   2.876   2.015   9.371 -0.6549 -1.1286 -3.1024
 1822SOL     OW16924   4.407   3.051   7.615  0.4862  0.2425  0.4882
 1822SOL    HW116925   4.459   3.097   7.549  0.4353 -2.3285 -1.3375
 1822SOL    HW216926   4.334   3.111   7.630 -0.3168 -1.4512  3.4366
 1823SOL     OW16927   0.052   4.183   6.989 -0.4147 -0.1565 -0.1220
 1823SOL    HW116928   0.030   4.137   7.070  2.1363 -2.7517 -0.9074
 1823SOL    HW216929   0.054   4.275   7.015  0.6259  0.2679 -1.6775
 1824SOL     OW16930   2.136   2.788  11.304  0.1519  0.3609 -0.0746
 1824SOL    HW116931   2.163   2.797  11.395 -0.1636  0.3602  0.0175
 1824SOL    HW216932   2.214   2.753  11.260  1.3482  1.2373  1.3777
 1825SOL     OW16933   3.916   3.332   2.953 -0.2332  0.0939  0.6070
 1825SOL    HW116934   3.996   3.285   2.929 -1.9262 -2.0267 -0.9022
 1825SOL    HW216935   3.934   3.425   2.943 -1.0541  0.2678  0.7924
 1826SOL     OW16936   0.544   1.599   0.936 -0.5229  0.2108  0.5595
 1826SOL    HW116937   0.573   1.528   0.877  0.3409 -0.0375  1.2766
 1826SOL    HW216938   0.483   1.652   0.886 -0.1251  0.5029  0.3811
 1827SOL     OW16939   1.927   1.000   8.243 -0.3414 -0.1567 -0.4590
 1827SOL    HW116940   2.015   1.036   8.228 -0.0708  0.4515  2.5270
 1827SOL    HW216941   1.886   1.063   8.302 -1.0089  0.1966 -1.2885
 1828SOL     OW16942   0.049   3.810   0.916 -0.6746  0.7166  0.4392
 1828SOL    HW116943   0.024   3.901   0.931 -2.6116  0.2671  0.0340
 1828SOL    HW216944   0.084   3.784   1.001 -0.7836  0.2525  0.3398
 1829SOL     OW16945   4.630   1.918   8.747  0.4909 -0.4278 -0.3684
 1829SOL    HW116946   4.596   1.853   8.809 -1.0380 -0.4030 -1.1654
 1829SOL    HW216947   0.004   1.896   8.747  0.5243 -0.2710  0.2041
 1830SOL     OW16948   3.409   1.305   5.211  0.6735  0.1375  0.5320
 1830SOL    HW116949   3.321   1.298   5.172 -0.0046 -0.7238  2.1766
 1830SOL    HW216950   3.425   1.213   5.233 -0.4740 -0.2784 -0.3255
 1831SOL     OW16951   1.479   1.663  16.562 -0.2075  0.2353  0.1750
 1831SOL    HW116952   1.510   1.696  16.477  1.0550 -1.9021 -0.2049
 1831SOL    HW216953   1.563   1.633  16.598  0.3267 -0.1612 -1.3563
 1832SOL     OW16954   2.552   1.534   7.807  0.1579  0.0292  0.3359
 1832SOL    HW116955   2.578   1.609   7.861  2.6893 -1.1403  0.7452
 1832SOL    HW216956   2.613   1.543   7.734  1.5144 -1.4190  1.2961
 1833SOL     OW16957   3.730   3.809   8.180 -0.5751 -0.3965 -0.4279
 1833SOL    HW116958   3.676   3.879   8.144  0.5115  0.1192 -1.0429
 1833SOL    HW216959   3.697   3.820   8.269 -1.0647  1.8385 -0.8788
 1834SOL     OW16960   4.012   1.143  15.141  0.1459  0.1049 -0.0365
 1834SOL    HW116961   4.103   1.120  15.156  0.3945 -0.1270 -1.9293
 1834SOL    HW216962   3.997   1.204  15.213  1.2293  0.1955  0.1057
 1835SOL     OW16963   2.339   0.457   4.876 -0.4366 -0.4729 -0.0810
 1835SOL    HW116964   2.422   0.504   4.868 -1.4289  1.3649  0.5840
 1835SOL    HW216965   2.317   0.461   4.783 -0.0506 -1.3678 -0.2162
 1836SOL     OW16966   0.167   2.756  15.221  0.4724 -0.8861  0.1372
 1836SOL    HW116967   0.189   2.847  15.201  0.5758 -0.4137  2.3978
 1836SOL    HW216968   0.222   2.704  15.162 -0.8915 -2.1070 -0.0591
 1837SOL     OW16969   4.295   3.857   6.700  0.4240 -0.0473 -0.4560
 1837SOL    HW116970   4.346   3.824   6.626 -0.4497  0.5650 -1.3404
 1837SOL    HW216971   4.356   3.901   6.759 -0.2581  1.7052 -1.0579
 1838SOL     OW16972   0.071   4.046  15.541  0.5553  0.4367  0.2551
 1838SOL    HW116973   0.157   4.087  15.554  1.1548 -0.8108  0.2208
 1838SOL    HW216974   0.046   4.059  15.450  3.2502 -1.7570 -0.8112
 1839SOL     OW16975   2.055   0.026   0.795  0.1009 -0.6300  0.1122
 1839SOL    HW116976   2.147   0.022   0.821  0.1199 -0.7864  0.0209
 1839SOL    HW216977   2.052   4.670   0.735 -0.7995 -0.0274 -0.5969
 1840SOL     OW16978   2.489   0.704  11.157 -0.2779 -0.0654  0.1253
 1840SOL    HW116979   2.460   0.795  11.168  2.3144  0.7041  0.6686
 1840SOL    HW216980   2.416   0.670  11.105 -0.7771  0.0295  0.7731
 1841SOL     OW16981   3.389   2.248   7.989  0.1138 -0.6563  0.1930
 1841SOL    HW116982   3.416   2.232   7.898  1.1029 -0.8158  0.5135
 1841SOL    HW216983   3.297   2.271   7.983  0.0007 -1.5318 -1.6332
 1842SOL     OW16984   3.370   1.008   5.275 -0.0591  0.2876  0.2969
 1842SOL    HW116985   3.440   1.011   5.340 -1.1307 -0.4437  1.4625
 1842SOL    HW216986   3.291   0.972   5.314  1.8633 -2.5087  1.6107
 1843SOL     OW16987   1.942   3.184   8.911 -0.6086 -0.4231  0.7752
 1843SOL    HW116988   1.952   3.270   8.870 -4.4221 -0.7569 -0.8901
 1843SOL    HW216989   1.978   3.194   8.999  2.5337 -1.0485 -0.4399
 1844SOL     OW16990   0.522   2.946   7.801  0.0475  0.2166  0.3593
 1844SOL    HW116991   0.446   2.955   7.858  0.5132  0.3445  0.9540
 1844SOL    HW216992   0.476   2.925   7.720 -1.2802 -2.0323  1.6852
 1845SOL     OW16993   0.333   4.082   9.294 -0.2689 -0.2378 -0.1549
 1845SOL    HW116994   0.272   4.010   9.308 -0.6012  0.4107  1.8308
 1845SOL    HW216995   0.390   4.054   9.222  2.1955  1.9356  0.9315
 1846SOL     OW16996   4.355   2.191  12.876 -0.2588  0.2335 -0.0026
 1846SOL    HW116997   4.417   2.190  12.803  0.2808  1.7396  0.4354
 1846SOL    HW216998   4.362   2.284  12.896  1.3855 -0.1472  1.2477
 1847SOL     OW16999   0.937   4.171   7.915 -0.0514  0.5352  0.3532
 1847SOL    HW117000   0.882   4.230   7.968 -2.1114  1.1216 -2.4248
 1847SOL    HW217001   0.916   4.086   7.952 -0.2289  0.8306  0.9309
 1848SOL     OW17002   3.345   3.412  17.019  0.2588  0.6877  0.0573
 1848SOL    HW117003   3.388   3.368  17.093  1.8481 -0.8409 -1.7679
 1848SOL    HW217004   3.267   3.439  17.068 -0.5593 -3.1552  0.8375
 1849SOL     OW17005   2.059   1.132   6.354 -0.3359  0.0438 -0.5131
 1849SOL    HW117006   1.964   1.124   6.362 -0.1856 -1.9973 -0.5459
 1849SOL    HW217007   2.079   1.045   6.319  0.2207  0.6481 -1.6894
 1850SOL     OW17008   1.022   2.615   5.215  0.4511  0.7486  0.3658
 1850SOL    HW117009   0.949   2.553   5.220  0.0437  1.3089  1.3712
 1850SOL    HW217010   1.069   2.595   5.296  2.8572  0.3839 -1.1186
 1851SOL     OW17011   2.033   0.931   6.665  0.2747 -0.1194 -0.5731
 1851SOL    HW117012   1.940   0.910   6.657  0.5985 -2.2166  1.1559
 1851SOL    HW217013   2.068   0.853   6.622  1.3192 -0.1478  0.3337
 1852SOL     OW17014   3.960   3.165  16.964  0.1651 -0.3347  0.1534
 1852SOL    HW117015   4.043   3.153  17.010 -0.3569 -1.9415  0.6710
 1852SOL    HW217016   3.906   3.106  17.016 -1.8580  0.5274 -0.9674
 1853SOL     OW17017   0.389   1.362   6.597  0.8081 -0.3427 -0.1289
 1853SOL    HW117018   0.469   1.338   6.643 -0.0433  1.5811  2.3200
 1853SOL    HW217019   0.399   1.456   6.610 -1.5489 -0.0864 -0.0599
 1854SOL     OW17020   1.694   1.895   3.844  0.2276 -0.0466 -0.6453
 1854SOL    HW117021   1.648   1.877   3.926  1.8054 -3.6057 -0.5562
 1854SOL    HW217022   1.670   1.987   3.834 -0.2686 -0.2473 -1.2903
 1855SOL     OW17023   4.467   4.160   3.694 -0.5459  0.3347 -0.8523
 1855SOL    HW117024   4.442   4.068   3.706 -0.3740  0.3195 -0.6089
 1855SOL    HW217025   4.544   4.152   3.638  0.8422 -0.7942  1.1962
 1856SOL     OW17026   3.534   0.512   4.635  0.6268 -0.1704 -0.3760
 1856SOL    HW117027   3.545   0.590   4.580  2.0597  0.7807  1.2658
 1856SOL    HW217028   3.467   0.522   4.702  1.2705 -0.0582  0.2525
 1857SOL     OW17029   0.646   1.026   0.715  0.0485 -0.5204  0.0566
 1857SOL    HW117030   0.572   1.022   0.655 -0.9771 -0.9537  1.3541
 1857SOL    HW217031   0.708   0.959   0.685  0.3907 -0.8313  1.4701
 1858SOL     OW17032   2.787   3.971   3.214  0.6316  0.2990 -0.2520
 1858SOL    HW117033   2.804   3.877   3.216 -0.2456  0.1255 -0.9163
 1858SOL    HW217034   2.759   3.973   3.123  2.0141  3.3511 -0.6072
 1859SOL     OW17035   1.322   0.082   5.834  0.3214 -0.0095  0.3185
 1859SOL    HW117036   1.359   4.716   5.810  0.3171 -0.1013  0.6402
 1859SOL    HW217037   1.279   0.066   5.918 -0.4966  0.9949  0.0849
 1860SOL     OW17038   2.962   3.478   6.956  0.5300  0.0554 -0.0196
 1860SOL    HW117039   2.885   3.422   6.949  0.6897 -0.4440  2.4068
 1860SOL    HW217040   2.976   3.458   7.048 -1.2801 -2.2405 -0.2457
 1861SOL     OW17041   0.402   4.055  12.409 -0.5993  0.0177 -0.0609
 1861SOL    HW117042   0.421   4.109  12.332 -3.2158  1.0280  0.0136
 1861SOL    HW217043   0.354   4.112  12.468 -1.3411 -2.4615  1.7320
 1862SOL     OW17044   3.537   3.700   7.978 -0.3363 -0.2252 -0.5984
 1862SOL    HW117045   3.599   3.704   8.051 -0.0743  1.6146 -0.9248
 1862SOL    HW217046   3.490   3.783   7.989  0.7338  0.1230  1.2805
 1863SOL     OW17047   0.869   2.677   8.051  0.1649 -0.0071 -1.0918
 1863SOL    HW117048   0.956   2.642   8.072  0.4936  1.2066 -0.4051
 1863SOL    HW217049   0.866   2.668   7.956  0.1855 -1.1757 -0.9774
 1864SOL     OW17050   1.957   1.349   9.322  0.5582 -0.0268  0.4644
 1864SOL    HW117051   1.901   1.275   9.347 -2.1957  1.0328 -2.6032
 1864SOL    HW217052   1.971   1.384   9.409  2.0690 -0.1369  0.2784
 1865SOL     OW17053   3.436   0.645  15.927 -0.1177 -0.1241 -0.5314
 1865SOL    HW117054   3.368   0.611  15.869 -0.2406  0.4317 -0.7062
 1865SOL    HW217055   3.427   0.739  15.917  1.4005  0.0571 -0.1295
 1866SOL     OW17056   2.790   3.617  14.170  0.4118  0.0020  0.8166
 1866SOL    HW117057   2.717   3.587  14.116 -0.4922  2.0618  0.8761
 1866SOL    HW217058   2.829   3.540  14.211  1.8697  0.6317  0.6080
 1867SOL     OW17059   0.433   1.269   1.000 -0.1897  0.2450 -0.3936
 1867SOL    HW117060   0.415   1.363   0.998  0.5439  0.3376 -2.1304
 1867SOL    HW217061   0.397   1.253   0.913 -1.3667 -0.5116  0.2285
 1868SOL     OW17062   1.110   4.166  15.516  0.3905 -0.2942 -0.3180
 1868SOL    HW117063   1.185   4.174  15.457 -0.3855 -2.8728 -1.6650
 1868SOL    HW217064   1.061   4.088  15.489 -0.4186 -0.1663  0.8030
 1869SOL     OW17065   0.646   4.536  12.061 -0.1525 -0.1769  0.1845
 1869SOL    HW117066   0.705   4.597  12.016  1.1010 -0.2936  1.6305
 1869SOL    HW217067   0.710   4.491  12.117 -1.0957  0.2257  1.5854
 1870SOL     OW17068   1.156   0.529   6.369 -0.0210 -0.1000 -0.2446
 1870SOL    HW117069   1.096   0.580   6.424  0.0590 -0.3436  0.0680
 1870SOL    HW217070   1.134   0.558   6.281  2.1553 -0.5142 -0.9167
 1871SOL     OW17071   3.962   3.843   5.877 -0.6345 -0.1971  0.4615
 1871SOL    HW117072   3.923   3.929   5.893  1.6376  1.2733 -1.7705
 1871SOL    HW217073   4.032   3.845   5.812 -2.1065 -1.7178 -1.1613
 1872SOL     OW17074   1.989   0.047  11.558  0.0425 -0.1408  0.2166
 1872SOL    HW117075   1.940   4.706  11.614 -0.3880  0.0212  0.0134
 1872SOL    HW217076   1.936   0.043  11.478 -0.3906 -1.2867  0.5636
 1873SOL     OW17077   2.819   2.897   9.629  0.0515  0.2084 -0.2010
 1873SOL    HW117078   2.816   2.989   9.602  0.8442  0.5842  0.9985
 1873SOL    HW217079   2.814   2.900   9.724 -2.9242 -0.4003 -0.3215
 1874SOL     OW17080   1.667   3.270   2.302  0.7956 -0.3330 -0.3506
 1874SOL    HW117081   1.653   3.357   2.339 -1.8572 -0.7637 -0.3386
 1874SOL    HW217082   1.760   3.259   2.321  0.3603 -0.9526  1.4035
 1875SOL     OW17083   3.665   2.618   0.919  0.1502 -0.2365  0.0494
 1875SOL    HW117084   3.722   2.652   0.849 -0.5268 -0.2133 -0.4906
 1875SOL    HW217085   3.720   2.553   0.962 -1.7198 -0.8100  1.5424
 1876SOL     OW17086   4.064   3.749  11.010 -0.0960  0.2882 -0.3189
 1876SOL    HW117087   4.132   3.682  11.003  0.0961  0.4288  0.1989
 1876SOL    HW217088   3.983   3.705  11.032  0.2092 -0.5104 -0.7875
 1877SOL     OW17089   2.560   1.988  17.463 -0.3075 -0.1103 -0.3960
 1877SOL    HW117090   2.642   1.981  17.512  0.2847 -2.5377 -1.7054
 1877SOL    HW217091   2.588   2.046  17.392  0.0790 -0.9160 -0.9098
 1878SOL     OW17092   4.117   1.340  13.696  0.3730 -0.1455 -0.3993
 1878SOL    HW117093   4.158   1.263  13.658  2.8109  1.9588 -2.0528
 1878SOL    HW217094   4.031   1.331  13.655 -0.2452  0.3643  0.7815
 1879SOL     OW17095   0.846   2.180   6.709 -0.1974 -0.1558 -0.0961
 1879SOL    HW117096   0.938   2.200   6.728 -0.2657  0.2732 -0.2214
 1879SOL    HW217097   0.797   2.188   6.790  0.8640  2.1150  0.3274
 1880SOL     OW17098   3.437   1.435   7.338  0.4424 -0.1991  0.4088
 1880SOL    HW117099   3.506   1.499   7.349 -0.3214  0.5834  0.6616
 1880SOL    HW217100   3.374   1.499   7.305 -0.5276 -0.5828  1.5000
 1881SOL     OW17101   1.247   1.690  15.895  0.1530  0.3345 -0.8121
 1881SOL    HW117102   1.211   1.764  15.943  1.3289 -0.4310  1.2421
 1881SOL    HW217103   1.258   1.626  15.965  1.5114 -0.1376 -1.4566
 1882SOL     OW17104   2.669   4.700  10.771 -0.2298 -0.3620  0.1531
 1882SOL    HW117105   2.754   4.717  10.811 -0.4454 -2.0697  1.3366
 1882SOL    HW217106   2.672   0.048  10.702  0.9869 -0.1728  0.3880
 1883SOL     OW17107   2.051   2.701  12.812  0.0076  0.4185 -0.2040
 1883SOL    HW117108   2.030   2.608  12.806 -0.5443  0.3952  1.9285
 1883SOL    HW217109   2.117   2.711  12.743  0.6606 -0.0943  0.3461
 1884SOL     OW17110   4.046   2.711  16.805  0.1842 -0.7844  0.7923
 1884SOL    HW117111   4.003   2.780  16.755  0.1012 -1.1559  0.3466
 1884SOL    HW217112   4.135   2.744  16.822  0.4466 -0.9466 -0.2418
 1885SOL     OW17113   3.811   3.969   7.589  0.1065 -0.7622  0.2293
 1885SOL    HW117114   3.737   3.918   7.624 -0.9593  1.6286  1.4539
 1885SOL    HW217115   3.825   4.041   7.650 -1.0964  1.6417 -2.3809
 1886SOL     OW17116   0.621   0.840   7.775  0.2234 -1.1823 -0.1758
 1886SOL    HW117117   0.711   0.813   7.791  1.5128  2.6241 -1.1767
 1886SOL    HW217118   0.568   0.769   7.811 -0.6577 -1.0255 -1.1509
 1887SOL     OW17119   4.042   1.382  15.304  0.4471  0.3700  0.2217
 1887SOL    HW117120   3.950   1.393  15.327 -0.7844 -2.6016 -3.3185
 1887SOL    HW217121   4.076   1.448  15.365  0.8663  0.5530 -0.2057
 1888SOL     OW17122   0.869   2.773   6.099  0.5231 -0.2990  0.4178
 1888SOL    HW117123   0.833   2.757   6.012 -1.1830  1.0323  0.8877
 1888SOL    HW217124   0.964   2.771   6.093  0.4268 -0.6963 -0.9133
 1889SOL     OW17125   2.842   3.521  16.094  0.1793  0.1636  0.4543
 1889SOL    HW117126   2.909   3.529  16.026  0.0209  1.1541  0.4038
 1889SOL    HW217127   2.877   3.455  16.154 -1.7053  1.2458  2.7604
 1890SOL     OW17128   2.510   2.088  13.470  0.4539  0.2918 -0.0231
 1890SOL    HW117129   2.599   2.087  13.507 -0.3769 -0.2601  1.9907
 1890SOL    HW217130   2.479   2.009  13.514 -1.1331  1.2970  0.6566
 1891SOL     OW17131   3.227   3.232   3.556 -0.5013  0.7914 -0.1731
 1891SOL    HW117132   3.224   3.310   3.610  1.0926  1.6843 -1.3683
 1891SOL    HW217133   3.140   3.191   3.557 -0.4530  0.5962 -2.2863
 1892SOL     OW17134   1.163   0.598   0.727  0.2090  0.6322 -0.4098
 1892SOL    HW117135   1.125   0.613   0.813  0.2133 -2.9871  0.1909
 1892SOL    HW217136   1.220   0.674   0.710 -1.7197  1.8614 -1.3801
 1893SOL     OW17137   4.413   1.211   7.111  0.0743  0.0270  0.1223
 1893SOL    HW117138   4.464   1.146   7.062  0.3521 -1.4641  2.3746
 1893SOL    HW217139   4.322   1.189   7.091  0.4465 -0.2502 -1.2373
 1894SOL     OW17140   0.687   2.728  12.690  0.1047  0.3694 -0.4956
 1894SOL    HW117141   0.627   2.686  12.629 -0.8413  0.7543  0.1744
 1894SOL    HW217142   0.619   2.777  12.735  0.4531 -1.5067  2.0883
 1895SOL     OW17143   0.471   3.187  15.559 -0.0610 -0.4425 -0.1361
 1895SOL    HW117144   0.511   3.109  15.598 -2.5999 -2.2059 -1.0616
 1895SOL    HW217145   0.522   3.201  15.479 -0.2649  0.9407 -0.0219
 1896SOL     OW17146   1.555   0.484   8.105  0.1243  0.3438  0.4070
 1896SOL    HW117147   1.641   0.526   8.112  0.9662 -1.0868 -1.2368
 1896SOL    HW217148   1.538   0.433   8.184  0.7035  0.0835  0.3597
 1897SOL     OW17149   0.387   3.620   4.760  0.3798 -0.0523 -0.7226
 1897SOL    HW117150   0.412   3.633   4.669 -1.7746  1.8732 -1.0456
 1897SOL    HW217151   0.467   3.578   4.791  1.1008  0.1794 -2.2900
 1898SOL     OW17152   0.717   3.059  12.505  0.1698  0.3505  0.4510
 1898SOL    HW117153   0.657   2.997  12.463  1.4759 -1.2865  0.9871
 1898SOL    HW217154   0.804   3.024  12.487 -0.2879 -1.7994  2.3736
 1899SOL     OW17155   0.173   4.600   1.850 -0.3237 -0.0520  0.0859
 1899SOL    HW117156   0.261   4.562   1.857 -0.1322  0.3973  0.1230
 1899SOL    HW217157   0.191   4.684   1.893  0.6845 -0.7523  1.0393
 1900SOL     OW17158   2.521   1.627   5.156  0.7037  0.2155 -0.0604
 1900SOL    HW117159   2.528   1.651   5.063 -0.4287 -0.6678 -0.3789
 1900SOL    HW217160   2.425   1.634   5.162  0.5862 -1.7644  0.2040
 1901SOL     OW17161   1.956   1.571   2.243 -0.4140 -0.6423 -0.0822
 1901SOL    HW117162   1.995   1.489   2.215  0.7168  0.1425 -0.8309
 1901SOL    HW217163   2.027   1.606   2.296  1.1499  0.7310 -3.0993
 1902SOL     OW17164   1.841   0.496   6.059  0.0183  0.4660  0.2392
 1902SOL    HW117165   1.895   0.486   6.138  0.6755  1.1225 -0.1250
 1902SOL    HW217166   1.902   0.470   5.990 -0.6598  3.2410 -1.4232
 1903SOL     OW17167   3.117   1.144   4.249 -0.2520  0.1122 -0.5001
 1903SOL    HW117168   3.123   1.153   4.154 -3.1202  0.0554 -0.7032
 1903SOL    HW217169   3.086   1.233   4.267  0.6939  0.0808  1.3175
 1904SOL     OW17170   2.224   3.711  14.680  0.4571 -0.2376 -0.4161
 1904SOL    HW117171   2.284   3.726  14.607  1.1677 -0.8205  0.0453
 1904SOL    HW217172   2.139   3.699  14.638  0.7998 -2.8489 -0.3580
 1905SOL     OW17173   3.178   1.697  16.649 -0.3117  0.2176  0.4100
 1905SOL    HW117174   3.098   1.750  16.642  0.1073  0.8867  0.6980
 1905SOL    HW217175   3.151   1.627  16.589 -0.3831  1.5995 -1.2011
 1906SOL     OW17176   1.948   0.628   9.679  0.1763 -0.6126 -1.2470
 1906SOL    HW117177   1.961   0.690   9.752  0.4374 -0.2231 -1.6221
 1906SOL    HW217178   1.934   0.552   9.735 -1.3430 -0.7637 -1.8668
 1907SOL     OW17179   4.247   3.797   7.361 -0.1614  0.0647 -0.0385
 1907SOL    HW117180   4.171   3.855   7.367  0.1494  0.4365  0.4399
 1907SOL    HW217181   4.297   3.852   7.422  0.0148 -3.6210  3.1585
 1908SOL     OW17182   3.238   1.837   1.907 -0.0360 -0.4148  0.5842
 1908SOL    HW117183   3.143   1.824   1.906 -0.0578 -0.2509  0.3995
 1908SOL    HW217184   3.249   1.895   1.983 -0.3867  0.6174 -0.1547
 1909SOL     OW17185   0.086   1.254   6.696 -0.0025  0.4236  0.5596
 1909SOL    HW117186   0.070   1.341   6.660 -0.9312  0.5838  1.3376
 1909SOL    HW217187   0.180   1.255   6.715  0.2928  1.9191 -0.9525
 1910SOL     OW17188   1.346   0.383   7.727 -0.0353  0.0675 -0.0661
 1910SOL    HW117189   1.376   0.346   7.810  2.1414 -0.8426 -1.2533
 1910SOL    HW217190   1.412   0.355   7.664  1.9783  1.0075  1.6321
 1911SOL     OW17191   2.491   3.666   8.006  0.2773 -0.2206 -0.6460
 1911SOL    HW117192   2.557   3.694   8.069 -0.9327  2.7501 -0.7179
 1911SOL    HW217193   2.542   3.674   7.925 -2.1913  0.8098 -2.1112
 1912SOL     OW17194   3.049   4.660   2.730  0.5622  0.2322 -0.2348
 1912SOL    HW117195   2.980   4.648   2.795 -1.1954 -2.3673 -2.5806
 1912SOL    HW217196   3.107   0.004   2.773  0.9118 -0.1728 -0.1069
 1913SOL     OW17197   1.689   4.250  11.579  0.1208 -0.1743  0.4297
 1913SOL    HW117198   1.700   4.322  11.642  0.9116  1.4191 -1.5334
 1913SOL    HW217199   1.774   4.253  11.535  1.4870 -1.6186  2.9993
 1914SOL     OW17200   4.349   3.648   8.939  0.6680  0.4999 -0.5749
 1914SOL    HW117201   4.388   3.722   8.891 -0.2433  2.0911  1.1518
 1914SOL    HW217202   4.256   3.668   8.932  0.9860  2.1189 -0.2029
 1915SOL     OW17203   3.372   1.600  11.446  0.3580 -0.4038 -0.2233
 1915SOL    HW117204   3.458   1.642  11.443  0.0609  0.4082  2.5679
 1915SOL    HW217205   3.382   1.545  11.524 -2.6487 -1.5448 -0.6301
 1916SOL     OW17206   2.396   3.372   2.591  0.6923 -0.1592 -0.5495
 1916SOL    HW117207   2.344   3.410   2.520 -1.7608 -1.9444  0.3199
 1916SOL    HW217208   2.343   3.296   2.616  1.0699 -0.5282 -0.8532
 1917SOL     OW17209   0.950   1.280  14.257 -0.2113 -0.0061  0.2112
 1917SOL    HW117210   0.966   1.303  14.349 -0.1439  0.9381 -0.0426
 1917SOL    HW217211   1.025   1.227  14.230 -1.5786 -1.6627 -0.3436
 1918SOL     OW17212   4.141   3.055  15.955  0.0134  0.1781  0.2253
 1918SOL    HW117213   4.209   3.053  15.887  0.4408 -0.1052  0.6676
 1918SOL    HW217214   4.083   3.131  15.946  1.3749  1.0048 -1.6069
 1919SOL     OW17215   4.666   4.063   0.980 -0.2975  0.1214  0.1203
 1919SOL    HW117216   4.601   4.117   0.935 -2.5328 -1.2605  1.6801
 1919SOL    HW217217   4.687   4.119   1.055  0.3301 -0.5643  0.4532
 1920SOL     OW17218   3.836   2.192   5.110 -0.1076  0.4154 -1.3089
 1920SOL    HW117219   3.886   2.170   5.188 -0.7159  0.5755 -0.8738
 1920SOL    HW217220   3.895   2.221   5.041  1.3614 -0.2001 -0.2963
 1921SOL     OW17221   1.182   0.759  15.561 -0.2275 -0.0814  0.1245
 1921SOL    HW117222   1.177   0.725  15.472  0.4137  0.2945 -0.0542
 1921SOL    HW217223   1.241   0.832  15.543  1.1110 -1.4687 -1.1507
 1922SOL     OW17224   1.733   0.574   7.263 -0.4589  0.0305  0.3274
 1922SOL    HW117225   1.814   0.625   7.267 -0.1291 -0.4152 -0.5776
 1922SOL    HW217226   1.766   0.486   7.244  0.1662  0.4003 -0.3215
 1923SOL     OW17227   4.666   4.321   4.546 -0.1019  0.2626  0.2251
 1923SOL    HW117228   4.659   4.391   4.611 -4.5384 -0.7718  0.8599
 1923SOL    HW217229   4.627   4.251   4.598 -0.9288  0.4159 -0.1893
 1924SOL     OW17230   4.242   4.533   3.785 -0.1362 -0.1894  0.3286
 1924SOL    HW117231   4.216   4.443   3.800 -2.8073  0.4535 -0.3974
 1924SOL    HW217232   4.261   4.567   3.872 -1.1741 -4.3197  2.1669
 1925SOL     OW17233   2.832   1.990   7.414 -0.2736  0.3575  0.1622
 1925SOL    HW117234   2.778   1.924   7.457  0.1792 -0.3332 -0.3183
 1925SOL    HW217235   2.830   1.951   7.326  1.8333 -1.4114  0.8848
 1926SOL     OW17236   1.652   1.361  11.957 -0.1711 -0.1972  0.1396
 1926SOL    HW117237   1.652   1.457  11.960 -0.7081 -0.2513  2.1047
 1926SOL    HW217238   1.596   1.352  12.034  1.8099 -2.3003  1.3315
 1927SOL     OW17239   0.698   1.283  14.157 -0.1501 -0.7310  0.3057
 1927SOL    HW117240   0.768   1.332  14.199  0.0336 -0.0229 -0.8114
 1927SOL    HW217241   0.751   1.223  14.104  0.8999  0.9218 -0.5090
 1928SOL     OW17242   0.918   0.714   3.205 -0.5055 -0.4363 -0.0845
 1928SOL    HW117243   0.964   0.652   3.262 -0.5191  1.7358  2.2908
 1928SOL    HW217244   0.935   0.674   3.120  2.9049  0.2915  0.2449
 1929SOL     OW17245   0.007   3.810   3.627 -0.2702  0.5011 -0.2952
 1929SOL    HW117246   0.072   3.789   3.693 -0.1765 -0.0837 -0.5800
 1929SOL    HW217247   4.663   3.737   3.626  0.8045 -0.4112 -0.4658
 1930SOL     OW17248   2.303   3.793   1.751  0.7106 -0.4094 -0.2092
 1930SOL    HW117249   2.231   3.812   1.810  0.2877 -1.4628 -0.3766
 1930SOL    HW217250   2.331   3.880   1.722  0.8381 -1.1027 -2.1935
 1931SOL     OW17251   1.437   0.826   6.050  0.3804 -0.0424  0.3775
 1931SOL    HW117252   1.510   0.771   6.076  0.0628  0.0368  1.4197
 1931SOL    HW217253   1.490   0.897   6.013 -1.2661  1.1531  0.2852
 1932SOL     OW17254   2.574   3.283   4.207  0.1198  0.0702 -0.2185
 1932SOL    HW117255   2.576   3.187   4.206 -0.3222  0.0658 -0.6770
 1932SOL    HW217256   2.547   3.314   4.120 -0.6848  0.4405  0.1704
 1933SOL     OW17257   3.507   1.370  15.635 -0.1798  0.2351  0.6080
 1933SOL    HW117258   3.508   1.464  15.622  1.6794  0.3169  1.3131
 1933SOL    HW217259   3.495   1.341  15.545 -1.8472  2.2397  0.1786
 1934SOL     OW17260   3.308   2.253   6.538  0.2223  0.2564 -0.0599
 1934SOL    HW117261   3.381   2.303   6.502  0.5758 -0.8445 -0.8521
 1934SOL    HW217262   3.289   2.189   6.470  1.2390 -1.3431  1.1831
 1935SOL     OW17263   0.511   3.274  11.022  0.3139 -0.3517  0.0904
 1935SOL    HW117264   0.583   3.335  11.039 -0.3251  0.3169  0.4338
 1935SOL    HW217265   0.505   3.291  10.928 -2.9540 -0.1015  0.3178
 1936SOL     OW17266   4.402   4.009   2.602  0.3952  0.4592 -0.9083
 1936SOL    HW117267   4.419   3.920   2.632 -1.5936  0.4823  0.2702
 1936SOL    HW217268   4.435   4.057   2.678 -2.5337  0.3019  0.4793
 1937SOL     OW17269   2.815   4.140  10.263 -0.6213  0.0402 -0.5622
 1937SOL    HW117270   2.908   4.150  10.242 -0.7067 -0.1490 -1.0459
 1937SOL    HW217271   2.838   4.105  10.349 -0.5138 -1.8209 -1.3464
 1938SOL     OW17272   3.501   1.060  12.080 -0.7538  0.5833 -0.0551
 1938SOL    HW117273   3.546   1.049  12.164 -0.1019  2.0191 -0.2269
 1938SOL    HW217274   3.486   0.969  12.053  0.0702  0.2501  0.6057
 1939SOL     OW17275   1.162   4.598   3.089 -0.1621 -0.0829  0.1103
 1939SOL    HW117276   1.177   4.572   2.998 -1.3787  0.8132 -0.3474
 1939SOL    HW217277   1.124   4.518   3.124  0.4796 -1.0782 -1.4783
 1940SOL     OW17278   3.425   3.851  14.912 -0.1450 -0.1287 -0.7348
 1940SOL    HW117279   3.439   3.919  14.846  1.0956 -0.5757 -0.9308
 1940SOL    HW217280   3.366   3.791  14.865 -0.4987 -0.5947  0.3186
 1941SOL     OW17281   3.046   1.657   8.621  0.0545  0.5522 -0.2404
 1941SOL    HW117282   3.129   1.623   8.654  0.0343  1.7646  1.0707
 1941SOL    HW217283   3.033   1.732   8.680  0.0031  0.2421  0.1432
 1942SOL     OW17284   0.236   0.668  14.234 -0.4836  0.5193  0.3553
 1942SOL    HW117285   0.289   0.719  14.173 -1.1261  1.2427  0.4031
 1942SOL    HW217286   0.150   0.710  14.230  0.1753  1.8639  0.6306
 1943SOL     OW17287   2.208   1.643   4.292  0.3852 -0.1940  0.2705
 1943SOL    HW117288   2.156   1.712   4.250 -0.8797 -0.3490  1.5543
 1943SOL    HW217289   2.249   1.603   4.216  2.6066  0.2178  1.2690
 1944SOL     OW17290   1.976   4.090   3.760 -0.2708 -0.9303 -0.1336
 1944SOL    HW117291   1.986   4.178   3.797 -0.3953 -1.3797  0.9842
 1944SOL    HW217292   1.893   4.104   3.714  1.9652  1.5254 -3.4082
 1945SOL     OW17293   3.650   2.434  14.663  0.3366 -0.5183  0.3212
 1945SOL    HW117294   3.625   2.526  14.668 -0.6395 -0.8755  2.1414
 1945SOL    HW217295   3.689   2.428  14.750 -2.3176 -2.0757  1.4228
 1946SOL     OW17296   0.560   2.633   5.393  0.4768  0.0568  0.1856
 1946SOL    HW117297   0.516   2.644   5.477 -0.8606  1.4307 -0.6794
 1946SOL    HW217298   0.493   2.660   5.330  1.9526  0.3807 -1.2482
 1947SOL     OW17299   1.321   2.287  14.394  0.5403 -0.1351  0.2261
 1947SOL    HW117300   1.231   2.302  14.365  0.7388  0.3699 -0.1323
 1947SOL    HW217301   1.319   2.306  14.488 -2.7163 -1.0772  0.3395
 1948SOL     OW17302   0.958   0.475   7.183  0.2225 -0.0067 -0.3779
 1948SOL    HW117303   0.973   0.470   7.088 -2.0563 -1.7495 -0.6465
 1948SOL    HW217304   0.936   0.566   7.200  0.4897  0.1166 -0.6829
 1949SOL     OW17305   4.620   3.802   3.230  0.1546  0.3117  0.4348
 1949SOL    HW117306   4.651   3.892   3.234  0.2749  0.3500 -1.3367
 1949SOL    HW217307   4.625   3.787   3.135  0.4554  1.3317  0.2932
 1950SOL     OW17308   3.577   3.854   7.663  0.3694 -0.2032  0.0500
 1950SOL    HW117309   3.518   3.813   7.727  0.3366 -1.1522 -0.5944
 1950SOL    HW217310   3.515   3.920   7.631 -0.2549 -0.8849 -0.1481
 1951SOL     OW17311   3.465   3.763   2.301 -0.1257 -0.1908 -0.1685
 1951SOL    HW117312   3.541   3.820   2.304 -0.0151 -0.4650  1.8099
 1951SOL    HW217313   3.503   3.683   2.335  0.5065 -0.9586 -2.6547
 1952SOL     OW17314   3.286   2.780  11.666 -0.3098  0.3060 -0.4253
 1952SOL    HW117315   3.211   2.759  11.722  0.1797 -0.9129 -0.2345
 1952SOL    HW217316   3.352   2.716  11.692  0.2585  1.4176  0.8543
 1953SOL     OW17317   1.095   4.309   9.092  0.3897 -0.0281  0.5443
 1953SOL    HW117318   1.006   4.330   9.121  0.4827 -1.2411  1.7231
 1953SOL    HW217319   1.125   4.264   9.170  2.1660 -1.1553 -0.7857
 1954SOL     OW17320   4.150   2.729   2.175  0.8175  0.2092  0.0466
 1954SOL    HW117321   4.185   2.698   2.092  0.3652  2.4655 -0.9704
 1954SOL    HW217322   4.111   2.809   2.140 -1.0484 -1.4096 -1.5750
 1955SOL     OW17323   0.025   3.587   4.230 -0.1756  0.0246  0.1505
 1955SOL    HW117324   4.710   3.532   4.160 -1.1137  0.2405  0.4371
 1955SOL    HW217325   4.668   3.617   4.280 -0.0085  0.4949  0.1267
 1956SOL     OW17326   2.531   3.137   7.491 -0.2539 -0.0370  0.3026
 1956SOL    HW117327   2.467   3.208   7.487 -0.9423 -0.6382  0.8063
 1956SOL    HW217328   2.569   3.135   7.579 -2.1938 -0.9240  1.1119
 1957SOL     OW17329   1.484   0.083   5.528  0.0386 -0.2208  0.2259
 1957SOL    HW117330   1.546   0.151   5.553 -0.1093  0.6696 -1.8997
 1957SOL    HW217331   1.404   0.135   5.520 -1.6332 -3.0233 -1.4637
 1958SOL     OW17332   1.847   2.639   1.276 -0.2055  0.1246 -0.2699
 1958SOL    HW117333   1.909   2.686   1.220  0.1167 -1.8595 -1.5964
 1958SOL    HW217334   1.842   2.552   1.235  1.3353 -0.3945  0.6231
 1959SOL     OW17335   4.528   0.125  11.351 -0.3011 -0.3540  0.4397
 1959SOL    HW117336   4.551   0.216  11.334  0.4448 -0.1606  2.4972
 1959SOL    HW217337   4.555   0.116  11.442  1.0674 -0.2323  0.0396
 1960SOL     OW17338   1.996   0.765   8.375 -0.2066 -0.0629 -0.0146
 1960SOL    HW117339   2.016   0.852   8.341  0.5646 -0.7997 -1.4565
 1960SOL    HW217340   2.003   0.714   8.294 -1.9203  0.2285 -0.3468
 1961SOL     OW17341   2.206   4.682  10.735  0.7916 -0.5922  0.5217
 1961SOL    HW117342   2.292   4.695  10.775  1.6241  1.4895 -1.9570
 1961SOL    HW217343   2.145   4.702  10.806  0.1213 -0.6002 -0.0527
 1962SOL     OW17344   2.587   3.499  14.500  0.0943 -0.6056  0.3083
 1962SOL    HW117345   2.596   3.594  14.500  1.4390 -0.7308  0.3578
 1962SOL    HW217346   2.511   3.497  14.442  0.2198  0.7019  0.1079
 1963SOL     OW17347   3.759   1.468   6.147 -0.5797 -0.1742  0.4292
 1963SOL    HW117348   3.829   1.511   6.196  0.1045  0.8114 -1.4290
 1963SOL    HW217349   3.799   1.384   6.123  0.0022  0.7821 -1.9275
 1964SOL     OW17350   2.705   3.749   6.169  0.3185  0.1262 -0.3732
 1964SOL    HW117351   2.695   3.707   6.254  0.6041  0.6482 -0.0804
 1964SOL    HW217352   2.757   3.829   6.178 -0.6212  0.5442  1.4190
 1965SOL     OW17353   2.557   2.159  10.019 -0.1562 -0.1423  0.2233
 1965SOL    HW117354   2.639   2.184  10.061  0.0428 -1.1279  0.4101
 1965SOL    HW217355   2.507   2.159  10.101  1.3809  0.4013  1.1544
 1966SOL     OW17356   0.554   2.261   6.294 -0.4828 -0.0593 -0.5374
 1966SOL    HW117357   0.550   2.349   6.256  0.5016 -1.0809 -3.0279
 1966SOL    HW217358   0.513   2.273   6.379  3.1362  3.3896  0.7834
 1967SOL     OW17359   4.330   3.760   4.559 -0.2303  0.0972  0.2913
 1967SOL    HW117360   4.284   3.844   4.560  0.9252  0.7296  0.2653
 1967SOL    HW217361   4.314   3.730   4.648  4.1360 -2.0518  0.3466
 1968SOL     OW17362   3.380   4.435   0.302 -0.7760 -0.4035 -0.7497
 1968SOL    HW117363   3.296   4.401   0.269 -1.0294  0.0973 -0.6190
 1968SOL    HW217364   3.382   4.409   0.394  2.4203 -1.2172 -1.0581
 1969SOL     OW17365   0.430   1.640   6.588 -0.0940  0.7010 -0.0827
 1969SOL    HW117366   0.409   1.723   6.545 -1.9730 -0.8415 -2.1396
 1969SOL    HW217367   0.524   1.643   6.603 -0.1808  1.5595  0.3344
 1970SOL     OW17368   0.309   1.249   0.307 -0.0681  0.0929  0.1645
 1970SOL    HW117369   0.266   1.298   0.237 -2.0082 -0.9199  0.6710
 1970SOL    HW217370   0.344   1.176   0.256 -2.7332  1.0373 -3.0059
 1971SOL     OW17371   2.103   3.234   8.242 -0.7396  0.0458 -0.3739
 1971SOL    HW117372   2.146   3.151   8.223 -0.0637 -0.2594  2.4957
 1971SOL    HW217373   2.118   3.278   8.159 -0.8656 -1.9798 -1.4733
 1972SOL     OW17374   4.546   2.120   5.273 -0.0754 -0.2176  0.3490
 1972SOL    HW117375   4.539   2.052   5.206  0.0873  1.0264 -0.9442
 1972SOL    HW217376   4.545   2.070   5.354  0.9279 -0.4232  0.2300
 1973SOL     OW17377   3.754   1.776  10.033  0.2771  0.3754  0.6857
 1973SOL    HW117378   3.709   1.727   9.965  0.6185 -1.8781  2.0656
 1973SOL    HW217379   3.846   1.751  10.021 -0.5581 -1.4436 -1.8151
 1974SOL     OW17380   3.585   3.005   6.827 -0.3487  1.0120  0.1077
 1974SOL    HW117381   3.656   3.012   6.891 -0.3013 -0.4789  0.2191
 1974SOL    HW217382   3.602   2.914   6.804 -1.4131  1.0725 -0.9248
 1975SOL     OW17383   2.512   1.640   4.084  0.2209  0.3724 -0.2663
 1975SOL    HW117384   2.461   1.693   4.023 -0.8385 -0.2855  0.0497
 1975SOL    HW217385   2.541   1.696   4.156 -0.2470 -0.8372  0.8771
 1976SOL     OW17386   3.663   2.488   2.636 -0.0604 -0.4617 -0.0357
 1976SOL    HW117387   3.592   2.550   2.617  0.3419  0.3504  1.0810
 1976SOL    HW217388   3.650   2.420   2.570 -0.7390 -1.9497  1.5974
 1977SOL     OW17389   0.468   2.175   3.444  0.0443  0.3370  0.2923
 1977SOL    HW117390   0.514   2.099   3.409  2.0721  1.3996  0.6394
 1977SOL    HW217391   0.466   2.159   3.538 -3.3621 -0.5229  0.0650
 1978SOL     OW17392   4.690   4.514   0.604  1.0649 -0.3917  0.0316
 1978SOL    HW117393   0.026   4.453   0.555  0.4766 -1.2536  0.4386
 1978SOL    HW217394   4.607   4.471   0.585  1.8001 -1.2685 -1.1949
 1979SOL     OW17395   1.917   3.014   3.147  0.3586 -0.7004  0.1136
 1979SOL    HW117396   1.974   3.021   3.071 -0.9377  0.6627 -0.7154
 1979SOL    HW217397   1.982   2.997   3.215  1.0090  1.2849 -0.0310
 1980SOL     OW17398   2.282   0.981   1.605  0.5170  0.1466 -0.1978
 1980SOL    HW117399   2.298   0.976   1.700 -0.8356 -3.5693 -0.1598
 1980SOL    HW217400   2.265   0.890   1.582  0.4909  0.3678 -1.0191
 1981SOL     OW17401   4.647   3.708   5.444  0.7260  0.5053 -0.8981
 1981SOL    HW117402   0.020   3.699   5.467  0.6880  1.2321 -0.4563
 1981SOL    HW217403   4.671   3.699   5.352 -1.8763  0.0083 -1.5346
 1982SOL     OW17404   0.766   1.731   5.620 -0.2706 -0.2705 -0.3894
 1982SOL    HW117405   0.790   1.742   5.528  0.9900 -0.2601 -0.0669
 1982SOL    HW217406   0.848   1.690   5.649  0.0069  0.9068  0.4828
 1983SOL     OW17407   0.296   3.831   6.837  0.5568 -0.9733  1.0038
 1983SOL    HW117408   0.391   3.826   6.833  0.8764  3.3644  3.4989
 1983SOL    HW217409   0.290   3.920   6.870  3.9438 -0.3854  0.0118
 1984SOL     OW17410   1.416   3.236  15.265  0.1176 -0.2333 -0.3013
 1984SOL    HW117411   1.432   3.163  15.206  2.7263  0.8979 -0.9865
 1984SOL    HW217412   1.456   3.302  15.208 -1.0663  2.0807  1.5073
 1985SOL     OW17413   4.588   3.870   8.297  0.1499  0.5323  0.0709
 1985SOL    HW117414   4.654   3.896   8.360  0.1650 -0.8786  0.6388
 1985SOL    HW217415   4.580   3.776   8.309  0.3846  0.4584 -0.3508
 1986SOL     OW17416   0.704   4.033   5.061 -0.5973  0.6380 -0.4177
 1986SOL    HW117417   0.646   4.068   5.128 -0.4135 -1.6365  0.9330
 1986SOL    HW217418   0.681   3.940   5.060 -0.7430  0.6620  0.7491
 1987SOL     OW17419   2.343   2.507  17.641  0.4925  0.8519 -0.1152
 1987SOL    HW117420   2.271   2.557   0.001  0.5479  0.8055  0.0508
 1987SOL    HW217421   2.402   2.573  17.605 -0.4922  0.9031 -1.5989
 1988SOL     OW17422   0.330   3.550  11.224 -0.3352  0.9222 -0.3127
 1988SOL    HW117423   0.382   3.523  11.148 -0.1563 -3.2644  1.3163
 1988SOL    HW217424   0.391   3.537  11.297  0.1368  0.0253 -0.8660
 1989SOL     OW17425   1.799   3.678  14.013  0.6775 -0.8481 -0.1693
 1989SOL    HW117426   1.857   3.665  13.938  2.3096 -0.8510  1.0923
 1989SOL    HW217427   1.845   3.617  14.071  1.7387 -0.7760 -0.9323
 1990SOL     OW17428   0.840   0.579   5.175 -0.0086  0.2698  0.0011
 1990SOL    HW117429   0.873   0.615   5.257 -1.0223  0.1254  0.4712
 1990SOL    HW217430   0.918   0.545   5.131  1.3017 -0.1449  2.6086
 1991SOL     OW17431   0.232   4.321   8.977 -1.4242 -0.1925  0.7815
 1991SOL    HW117432   0.239   4.255   8.908  0.0624  1.2410 -0.4196
 1991SOL    HW217433   0.136   4.323   8.980 -1.3826  0.7325  1.4775
 1992SOL     OW17434   4.575   4.413   3.040 -0.3154 -0.1072  0.5272
 1992SOL    HW117435   4.603   4.496   3.000  2.2477 -0.4335  1.6391
 1992SOL    HW217436   4.499   4.404   2.983 -0.2976  2.2267  0.1094
 1993SOL     OW17437   3.530   2.885   4.540  0.0641  0.0383 -0.7152
 1993SOL    HW117438   3.513   2.926   4.625 -1.8090  1.5421 -1.8161
 1993SOL    HW217439   3.615   2.849   4.567  0.0750  0.6779  0.1092
 1994SOL     OW17440   2.129   4.705   7.549  0.5042  0.5014 -0.4837
 1994SOL    HW117441   2.089   4.633   7.501  2.0123 -0.4048 -0.3827
 1994SOL    HW217442   2.221   4.681   7.538  0.7411  1.7327 -1.2351
 1995SOL     OW17443   3.137   2.093   3.352 -0.1067 -0.4660  0.3655
 1995SOL    HW117444   3.086   2.058   3.279  0.2291  1.3309 -0.7300
 1995SOL    HW217445   3.102   2.035   3.419 -2.5988 -0.3903 -0.8745
 1996SOL     OW17446   1.971   2.312   4.471 -0.5728  0.0913 -0.1183
 1996SOL    HW117447   1.927   2.392   4.498  0.6805  0.3180  1.2348
 1996SOL    HW217448   2.002   2.334   4.382  0.0037 -0.3133 -0.0171
 1997SOL     OW17449   0.665   1.501  13.891  0.4819  0.0974 -0.6716
 1997SOL    HW117450   0.593   1.519  13.830  1.2874  1.8659 -1.0927
 1997SOL    HW217451   0.609   1.486  13.967  1.2570  1.2179  0.1237
 1998SOL     OW17452   3.387   1.677   5.538 -0.2444  0.0288 -0.3620
 1998SOL    HW117453   3.297   1.688   5.507 -0.9880  3.1472  2.8752
 1998SOL    HW217454   3.413   1.769   5.550  0.7020 -0.3402  0.4282
 1999SOL     OW17455   4.209   3.370   1.731 -0.0285  0.0332  0.2326
 1999SOL    HW117456   4.301   3.350   1.748  0.1045 -0.0227 -0.5591
 1999SOL    HW217457   4.169   3.397   1.814 -0.9730  0.9458 -0.5080
 2000SOL     OW17458   3.940   1.294   6.078 -0.4534  0.5344 -0.1591
 2000SOL    HW117459   4.009   1.293   6.012  0.7048 -0.4070  1.0599
 2000SOL    HW217460   3.923   1.200   6.086 -1.4182  0.8377  1.3339
 2001SOL     OW17461   4.258   0.251   4.051  0.0789  0.1542 -0.9249
 2001SOL    HW117462   4.221   0.242   3.963 -2.0679 -0.6382  0.0468
 2001SOL    HW217463   4.348   0.220   4.040  0.4629  1.7026 -2.0787
 2002SOL     OW17464   2.913   3.450   3.179 -0.2432 -0.3545  0.4164
 2002SOL    HW117465   2.960   3.401   3.247  2.0542  0.2940 -0.7066
 2002SOL    HW217466   2.979   3.519   3.176 -0.7859  0.1387  0.0032
 2003SOL     OW17467   1.175   2.432  13.986  0.1766  0.5683  0.2791
 2003SOL    HW117468   1.258   2.457  14.025  0.2896  2.4495 -1.1441
 2003SOL    HW217469   1.209   2.378  13.915 -0.3983 -1.4053  1.5045
 2004SOL     OW17470   2.549   3.587   9.195  0.3366  0.4747 -0.2800
 2004SOL    HW117471   2.605   3.619   9.125  2.8281 -1.9514  0.5902
 2004SOL    HW217472   2.513   3.505   9.161 -0.3517 -0.2032  2.1164
 2005SOL     OW17473   2.175   4.106  11.029  0.6232  0.0506 -0.1007
 2005SOL    HW117474   2.130   4.031  10.989  0.8936 -0.8569  1.3009
 2005SOL    HW217475   2.256   4.109  10.977  0.4197  1.0945 -0.3464
 2006SOL     OW17476   3.924   1.832   4.846  0.5996  0.1571 -0.7507
 2006SOL    HW117477   3.875   1.791   4.775 -0.7984  0.2984  0.1351
 2006SOL    HW217478   3.981   1.757   4.865  1.3624  0.4107 -2.0045
 2007SOL     OW17479   0.932   2.538   6.931 -0.1262  0.1477 -0.1841
 2007SOL    HW117480   0.887   2.500   7.007 -3.9202  1.4455 -1.7486
 2007SOL    HW217481   0.983   2.474   6.883  0.6991 -0.7879  1.9115
 2008SOL     OW17482   3.626   3.084   7.520 -0.2003  0.2091  0.2524
 2008SOL    HW117483   3.717   3.100   7.495 -0.6775 -0.3495 -1.8809
 2008SOL    HW217484   3.623   2.989   7.537 -2.2260  0.3343  0.5747
 2009SOL     OW17485   3.634   2.607  13.997  0.0380 -0.6872  0.2480
 2009SOL    HW117486   3.563   2.617  13.933  0.5972 -1.5099 -0.5002
 2009SOL    HW217487   3.650   2.513  14.007 -1.0008 -0.9833 -0.9904
 2010SOL     OW17488   1.504   2.053  10.883  0.2604  0.0093 -0.3402
 2010SOL    HW117489   1.442   2.125  10.887  0.6478  0.1859  2.5756
 2010SOL    HW217490   1.565   2.081  10.814  1.9404 -1.6290  0.4623
 2011SOL     OW17491   3.425   3.097  14.863 -0.4989 -0.2636 -0.0690
 2011SOL    HW117492   3.516   3.118  14.883 -0.2921 -1.1598 -0.0691
 2011SOL    HW217493   3.374   3.169  14.900  0.3716  1.1938 -1.6758
 2012SOL     OW17494   1.490   4.114   0.561  0.4846 -0.5669  0.4625
 2012SOL    HW117495   1.425   4.138   0.496  0.8394  0.7450  0.5721
 2012SOL    HW217496   1.526   4.030   0.532 -2.7443 -1.9329  0.4763
 2013SOL     OW17497   0.392   4.048  17.390 -0.3392 -0.0593  0.0208
 2013SOL    HW117498   0.297   4.060  17.392 -0.1567  0.8860  3.0211
 2013SOL    HW217499   0.408   4.092  17.306 -2.9676  1.4452  0.3155
 2014SOL     OW17500   1.005   0.262   8.581  0.4229 -0.1314  0.2876
 2014SOL    HW117501   1.064   0.259   8.656  2.0877  2.2293 -0.9201
 2014SOL    HW217502   0.921   0.233   8.618 -0.3307  2.3777  0.4977
 2015SOL     OW17503   0.607   4.453  10.588 -0.2397  0.3130 -0.3136
 2015SOL    HW117504   0.515   4.479  10.598  0.0658  0.8047  1.3171
 2015SOL    HW217505   0.610   4.360  10.607 -1.7083  0.3343  0.0093
 2016SOL     OW17506   4.048   2.208   6.351  0.0640  0.4552  0.3937
 2016SOL    HW117507   4.083   2.119   6.346 -1.1950 -0.0289  0.2486
 2016SOL    HW217508   4.091   2.238   6.431  2.2091  1.2773 -1.0786
 2017SOL     OW17509   4.550   4.521  13.193 -0.0381  0.3076  0.4626
 2017SOL    HW117510   4.512   4.527  13.106  0.6992  0.0968  0.1223
 2017SOL    HW217511   4.531   4.609  13.226 -0.8892 -0.5285  2.1897
 2018SOL     OW17512   3.267   2.220   9.577 -0.3794  0.3500 -0.2597
 2018SOL    HW117513   3.232   2.306   9.553 -0.2906  0.7528  1.0585
 2018SOL    HW217514   3.332   2.237   9.645  0.1574  2.2997 -1.2448
 2019SOL     OW17515   0.171   2.927   8.853  0.5309 -1.0117  0.3171
 2019SOL    HW117516   0.133   2.997   8.800  2.0124  0.2160  0.8727
 2019SOL    HW217517   0.255   2.922   8.809  0.7359  1.7567  0.3745
 2020SOL     OW17518   4.044   0.821   5.943  0.1511  0.4727  0.3824
 2020SOL    HW117519   4.105   0.747   5.942 -0.1721  0.2073  0.2523
 2020SOL    HW217520   3.970   0.770   5.910 -1.5247  3.8491 -1.0889
 2021SOL     OW17521   2.411   3.143  12.673  0.1439  0.3457 -0.8184
 2021SOL    HW117522   2.317   3.127  12.667 -0.0888  1.4830 -0.2404
 2021SOL    HW217523   2.435   3.112  12.586  1.0253  0.3535 -0.5709
 2022SOL     OW17524   2.091   3.817   8.354 -0.4195  0.4685 -0.1997
 2022SOL    HW117525   2.062   3.831   8.444  2.8715 -0.0143  0.9273
 2022SOL    HW217526   2.139   3.736   8.370 -2.6613 -0.6515  0.8395
 2023SOL     OW17527   0.408   2.048   7.826  0.0874 -0.3610  0.4952
 2023SOL    HW117528   0.368   2.116   7.772  1.6206  1.5315  1.7411
 2023SOL    HW217529   0.333   2.004   7.864  0.3955 -0.5512  0.8843
 2024SOL     OW17530   2.677   0.706  16.445 -0.4426  0.4744  0.1910
 2024SOL    HW117531   2.631   0.738  16.368 -2.2365 -0.2319  0.9570
 2024SOL    HW217532   2.615   0.741  16.509 -1.1596 -1.2697  0.4589
 2025SOL     OW17533   1.598   3.912   7.430  0.2454  0.0573 -0.0744
 2025SOL    HW117534   1.586   3.830   7.382  2.5736 -0.5420  0.3332
 2025SOL    HW217535   1.589   3.880   7.519  0.1306  0.0177 -0.1010
 2026SOL     OW17536   0.176   2.985  16.083  0.1908  0.3662  0.3970
 2026SOL    HW117537   0.086   3.010  16.102 -0.4425 -2.0593  0.4727
 2026SOL    HW217538   0.167   2.890  16.082  1.6879  0.1866  3.0456
 2027SOL     OW17539   2.489   0.184   2.580  0.3371  0.1228  0.0463
 2027SOL    HW117540   2.450   0.097   2.572 -1.6567  1.2218 -2.2915
 2027SOL    HW217541   2.570   0.170   2.530  0.2204  0.0606 -0.1248
 2028SOL     OW17542   0.606   2.898  17.199  0.4247 -0.0655 -0.2564
 2028SOL    HW117543   0.594   2.883  17.105 -0.9388  1.1800 -0.2726
 2028SOL    HW217544   0.533   2.951  17.231  0.1245 -0.9273  0.4815
 2029SOL     OW17545   1.637   0.744   8.820  0.0552 -0.1865  0.2619
 2029SOL    HW117546   1.645   0.745   8.725  2.1068 -2.2463  0.3906
 2029SOL    HW217547   1.664   0.654   8.841 -0.4697 -0.3019  0.4322
 2030SOL     OW17548   2.346   0.769   0.142 -0.3070 -0.3176 -0.2740
 2030SOL    HW117549   2.380   0.781   0.054  0.4403  0.1343  0.0774
 2030SOL    HW217550   2.428   0.788   0.187  1.7661 -1.3828 -3.5927
 2031SOL     OW17551   1.442   3.951  14.060 -0.4387  0.0891  0.4627
 2031SOL    HW117552   1.380   3.892  14.104 -0.8864  2.0091  2.4309
 2031SOL    HW217553   1.490   3.986  14.135 -0.7181 -1.0279  1.1688
 2032SOL     OW17554   1.043   3.594   8.706  0.0109 -0.1647 -0.4130
 2032SOL    HW117555   1.072   3.610   8.796 -1.6862  2.3590 -0.3106
 2032SOL    HW217556   1.062   3.500   8.699 -0.1467 -0.3238  1.3525
 2033SOL     OW17557   2.026   1.888   3.420 -0.4644 -0.5892 -0.4026
 2033SOL    HW117558   2.093   1.925   3.362 -0.3116  0.4161  0.4292
 2033SOL    HW217559   1.947   1.912   3.370  1.1517  1.8897 -1.7805
 2034SOL     OW17560   1.680   2.930  11.598  0.2748 -0.6048 -0.2796
 2034SOL    HW117561   1.656   3.018  11.627  2.7920 -0.0430  0.1091
 2034SOL    HW217562   1.605   2.879  11.631  0.4777  0.0980  1.2490
 2035SOL     OW17563   0.625   1.613   7.719  0.4989 -0.3144 -0.1856
 2035SOL    HW117564   0.635   1.635   7.812  2.8071 -0.2623 -0.4486
 2035SOL    HW217565   0.556   1.675   7.696  0.7076 -0.5493 -1.4481
 2036SOL     OW17566   0.706   2.400   7.377  0.1383 -0.5497 -0.7194
 2036SOL    HW117567   0.701   2.411   7.472 -1.0238  0.6197 -0.9118
 2036SOL    HW217568   0.612   2.404   7.362  0.3146  2.1758 -1.0911
 2037SOL     OW17569   1.897   4.114   9.801  0.0840  0.0323 -0.6332
 2037SOL    HW117570   1.831   4.066   9.751 -0.7387  0.6839 -0.1613
 2037SOL    HW217571   1.950   4.146   9.728 -1.5417  1.8487 -1.0241
 2038SOL     OW17572   2.373   0.509   0.396  0.0949 -0.1123 -0.0512
 2038SOL    HW117573   2.346   0.560   0.473 -3.9215 -2.1883 -0.1082
 2038SOL    HW217574   2.302   0.448   0.378  1.1887 -1.4525  0.1802
 2039SOL     OW17575   4.394   4.674   6.107 -0.4710  0.2619 -0.6446
 2039SOL    HW117576   4.407   4.591   6.062  3.7451  0.5994 -0.0657
 2039SOL    HW217577   4.428   0.011   6.037  0.8887  0.7660  0.4205
 2040SOL     OW17578   0.823   0.349   5.812 -0.3204  0.2914 -0.5345
 2040SOL    HW117579   0.856   0.333   5.900  1.0644 -0.9102 -1.2594
 2040SOL    HW217580   0.839   0.262   5.774  0.8127  1.5416 -2.9671
 2041SOL     OW17581   1.981   2.962   8.035 -0.3897  0.2871 -0.0196
 2041SOL    HW117582   1.889   2.988   8.042  0.1947  2.0291  1.1232
 2041SOL    HW217583   2.001   3.007   7.953 -1.2320  0.2073 -0.2650
 2042SOL     OW17584   3.500   4.236   7.391  0.5316  0.4562 -0.3785
 2042SOL    HW117585   3.578   4.283   7.421  1.4874 -0.5236 -1.3156
 2042SOL    HW217586   3.436   4.305   7.375  0.4690  0.3318 -0.6557
 2043SOL     OW17587   4.361   1.290   2.944  0.3585  0.5212 -0.1222
 2043SOL    HW117588   4.390   1.273   2.855 -2.9087  1.1081 -1.2764
 2043SOL    HW217589   4.339   1.382   2.950 -0.1462  0.4193 -0.4826
 2044SOL     OW17590   1.067   3.750   8.278 -0.1469 -0.1590  0.1606
 2044SOL    HW117591   1.149   3.702   8.287 -0.6599 -0.6730  2.0551
 2044SOL    HW217592   1.012   3.710   8.346 -1.5809  0.4617 -0.6224
 2045SOL     OW17593   3.390   4.293   3.320  0.1977  0.1629 -0.1570
 2045SOL    HW117594   3.437   4.372   3.348 -2.5469  2.2656 -1.3623
 2045SOL    HW217595   3.300   4.325   3.330  0.2479 -0.6077  2.5300
 2046SOL     OW17596   0.679   3.586   4.240 -0.1312 -0.6205 -0.4113
 2046SOL    HW117597   0.629   3.509   4.211 -1.8743  0.8440 -1.2612
 2046SOL    HW217598   0.753   3.545   4.286  0.0996  0.9855  0.6192
 2047SOL     OW17599   0.769   0.667   7.994  0.1483  0.4192  0.6259
 2047SOL    HW117600   0.785   0.670   7.900  1.4975  0.6391  0.8538
 2047SOL    HW217601   0.725   0.582   7.996  2.2086 -0.6326  1.5103
 2048SOL     OW17602   0.833   1.767   3.393 -0.0904 -0.6724  0.4665
 2048SOL    HW117603   0.842   1.680   3.354 -1.5075 -0.3914 -0.4724
 2048SOL    HW217604   0.852   1.822   3.317 -0.3154 -1.7490 -0.3678
 2049SOL     OW17605   4.207   2.442   4.827  0.1634  0.4895 -0.1730
 2049SOL    HW117606   4.125   2.410   4.789  0.5860 -0.6094 -0.1502
 2049SOL    HW217607   4.185   2.531   4.853 -1.1139 -0.0425  0.5890
 2050SOL     OW17608   1.404   1.487   9.882  0.1708 -0.0867 -0.0776
 2050SOL    HW117609   1.322   1.534   9.866  0.7839  0.1262 -2.4948
 2050SOL    HW217610   1.467   1.559   9.873 -3.1149  2.2820 -4.0298
 2051SOL     OW17611   1.920   2.104  12.101  0.2531  0.1125 -0.3178
 2051SOL    HW117612   1.923   2.189  12.144 -2.8706 -0.0349  0.1417
 2051SOL    HW217613   2.003   2.072  12.138 -1.2878 -2.0048  1.3024
 2052SOL     OW17614   3.758   3.772   3.822  0.6713  0.3082 -0.2454
 2052SOL    HW117615   3.849   3.793   3.840  0.4167 -0.9232  2.4516
 2052SOL    HW217616   3.760   3.787   3.727  0.5599  2.3656  0.0843
 2053SOL     OW17617   0.670   4.630   1.976 -0.2767 -0.5105  0.1920
 2053SOL    HW117618   0.703   4.708   1.930  2.1220 -0.7706  1.4602
 2053SOL    HW217619   0.660   4.671   2.062  0.4367  1.2639 -0.5702
 2054SOL     OW17620   2.277   4.373   9.667 -0.1785  0.0229 -0.1904
 2054SOL    HW117621   2.340   4.377   9.739 -0.2225 -0.1696 -0.1408
 2054SOL    HW217622   2.211   4.424   9.714 -0.5915 -1.3737  0.7448
 2055SOL     OW17623   4.356   2.203   4.336  0.3670 -0.0179 -0.3350
 2055SOL    HW117624   4.435   2.214   4.388 -0.6794  0.6351  1.1268
 2055SOL    HW217625   4.345   2.113   4.364  1.0705 -0.8394 -2.7309
 2056SOL     OW17626   2.513   4.571   8.426 -0.2361  0.0986 -0.1955
 2056SOL    HW117627   2.469   4.654   8.407  0.6274  0.5481 -0.2423
 2056SOL    HW217628   2.571   4.596   8.498  0.2225 -2.8772  0.4903
 2057SOL     OW17629   0.932   1.902   7.700 -0.3442 -0.0722  0.2327
 2057SOL    HW117630   0.931   1.807   7.688  1.9945  0.0692 -1.2659
 2057SOL    HW217631   0.967   1.910   7.789 -1.5534  0.2168  0.6720
 2058SOL     OW17632   1.193   1.148   4.809  0.1758 -0.0640  0.3440
 2058SOL    HW117633   1.268   1.164   4.866  1.0647  1.5182 -1.3062
 2058SOL    HW217634   1.140   1.102   4.875 -0.1760 -1.1117 -0.6641
 2059SOL     OW17635   3.735   3.294   7.731 -0.4745 -0.1124 -0.3184
 2059SOL    HW117636   3.732   3.314   7.637  1.0373  2.6118  0.2054
 2059SOL    HW217637   3.666   3.355   7.756  0.4828  0.9325 -0.2373
 2060SOL     OW17638   4.302   0.917   0.813 -0.2325  1.0693  0.2642
 2060SOL    HW117639   4.236   0.959   0.758 -0.2051 -1.1164 -1.4571
 2060SOL    HW217640   4.267   0.828   0.818 -1.4298  1.5261 -0.0462
 2061SOL     OW17641   2.490   1.605   6.057 -0.2013 -0.4177 -0.8223
 2061SOL    HW117642   2.503   1.570   6.145 -1.8249  0.7717 -0.1231
 2061SOL    HW217643   2.578   1.642   6.047 -0.0982 -0.9472 -1.8801
 2062SOL     OW17644   2.802   1.540   2.659  0.1410 -0.0305 -0.1465
 2062SOL    HW117645   2.778   1.613   2.717 -0.9499 -1.0180  0.6343
 2062SOL    HW217646   2.756   1.575   2.583 -1.9907  1.1103  1.6730
 2063SOL     OW17647   2.577   0.861   0.260  0.2493 -0.5494 -0.0523
 2063SOL    HW117648   2.639   0.825   0.324 -0.9540  0.3757  1.6328
 2063SOL    HW217649   2.583   0.952   0.289  4.7253 -0.7710 -0.2390
 2064SOL     OW17650   0.562   4.704  17.444  0.2016 -0.6250 -0.2426
 2064SOL    HW117651   0.541   0.000  17.536 -2.5069 -1.3024 -0.7356
 2064SOL    HW217652   0.479   4.718  17.399 -0.4341 -0.1805  1.0676
 2065SOL     OW17653   4.123   2.144   2.138  0.1142 -0.1064 -0.5964
 2065SOL    HW117654   4.070   2.075   2.179  0.2512 -0.2396 -0.6419
 2065SOL    HW217655   4.050   2.179   2.087  0.5619  0.7799 -0.6152
 2066SOL     OW17656   3.216   1.495   7.072 -0.2328  0.2441 -0.6182
 2066SOL    HW117657   3.149   1.540   7.022  1.6467 -0.7305 -4.0378
 2066SOL    HW217658   3.169   1.411   7.076 -0.7667  0.6493  1.8996
 2067SOL     OW17659   1.004   0.479   7.921 -0.2365  0.1767 -0.3055
 2067SOL    HW117660   1.089   0.440   7.939  0.1453  0.2855 -1.8547
 2067SOL    HW217661   0.948   0.402   7.919  0.0257 -0.0008 -1.2067
 2068SOL     OW17662   2.779   2.456  10.706  0.1180 -0.1887 -0.1061
 2068SOL    HW117663   2.838   2.413  10.767  1.8940  2.5442  0.1265
 2068SOL    HW217664   2.792   2.547  10.733 -0.2887 -0.4925  1.1038
 2069SOL     OW17665   0.108   0.691  11.121  0.1184 -0.1258 -0.4624
 2069SOL    HW117666   0.154   0.636  11.058 -1.0233 -1.9786  0.3458
 2069SOL    HW217667   0.164   0.680  11.198 -1.3273 -1.1737  0.4450
 2070SOL     OW17668   2.477   1.180   7.233 -0.3745 -0.4355 -0.9027
 2070SOL    HW117669   2.446   1.216   7.150  1.1740  1.8395 -0.5036
 2070SOL    HW217670   2.469   1.250   7.298 -1.9612  0.6275 -2.2485
 2071SOL     OW17671   4.701   0.057   2.142 -0.2530 -0.3568  0.8328
 2071SOL    HW117672   4.686   0.122   2.210  0.4364  0.0457  0.6084
 2071SOL    HW217673   4.695   0.128   2.078  0.8385  0.8015  2.0357
 2072SOL     OW17674   2.689   3.159   2.641 -0.0742  0.2985 -0.2292
 2072SOL    HW117675   2.618   3.108   2.602  0.9710 -1.9432  0.7946
 2072SOL    HW217676   2.690   3.224   2.571  0.4284 -1.1507 -1.5578
 2073SOL     OW17677   4.565   4.547   8.173 -0.0345 -0.0519  0.1290
 2073SOL    HW117678   4.632   4.480   8.189 -0.2759 -0.1256  0.8245
 2073SOL    HW217679   4.583   4.564   8.080  0.1801 -1.0622 -0.0195
 2074SOL     OW17680   3.762   3.923  12.957  0.1422 -0.1688  0.0700
 2074SOL    HW117681   3.671   3.895  12.956  0.2274 -0.4861  0.7670
 2074SOL    HW217682   3.800   3.868  13.026  2.0108  2.0181  0.7819
 2075SOL     OW17683   1.286   4.176   0.336  0.1215 -0.0144 -0.3762
 2075SOL    HW117684   1.212   4.125   0.305 -0.5546 -0.6332  2.2892
 2075SOL    HW217685   1.350   4.127   0.285 -0.2802 -1.9606  1.0245
 2076SOL     OW17686   2.399   2.160   4.623 -0.2889 -0.6245  0.0755
 2076SOL    HW117687   2.374   2.213   4.699  2.0004 -1.0710  1.1448
 2076SOL    HW217688   2.338   2.088   4.639 -0.1891 -0.3648  1.7202
 2077SOL     OW17689   4.132   3.837   4.856  0.4542  0.0239 -0.2569
 2077SOL    HW117690   4.051   3.831   4.908  0.2838  0.8988 -0.4114
 2077SOL    HW217691   4.144   3.750   4.818  0.2985 -0.3466  0.5375
 2078SOL     OW17692   0.274   0.135   7.694 -0.4229 -0.0703 -0.2834
 2078SOL    HW117693   0.207   0.167   7.755 -1.5936 -1.0226 -1.0633
 2078SOL    HW217694   0.225   0.094   7.623  1.4582  2.3544 -2.9947
 2079SOL     OW17695   0.497   1.796   1.151  0.7697 -0.0662 -0.7203
 2079SOL    HW117696   0.412   1.755   1.132 -0.4422  2.2781 -0.2891
 2079SOL    HW217697   0.552   1.724   1.122 -1.7759 -1.3038 -2.5485
 2080SOL     OW17698   2.563   0.838  15.156 -0.3977 -0.6003  0.2949
 2080SOL    HW117699   2.547   0.748  15.127  0.0643 -0.4553 -0.4127
 2080SOL    HW217700   2.658   0.846  15.158 -0.3883  0.5076 -4.5579
 2081SOL     OW17701   2.613   4.498   8.906  0.1607  0.3156 -0.5133
 2081SOL    HW117702   2.570   4.553   8.971 -1.1710 -0.1684 -0.9735
 2081SOL    HW217703   2.616   4.544   8.822 -0.6233  0.3839 -0.5109
 2082SOL     OW17704   1.070   2.837   5.029  0.4223  0.4259 -0.2883
 2082SOL    HW117705   1.100   2.904   5.090 -0.1282  1.1212 -0.7781
 2082SOL    HW217706   1.062   2.765   5.091 -0.1136  0.4604 -0.3190
 2083SOL     OW17707   2.625   3.223  10.732  0.7632 -0.0347 -0.0423
 2083SOL    HW117708   2.628   3.147  10.791  2.1870 -1.0656 -1.4203
 2083SOL    HW217709   2.611   3.182  10.646 -2.5637  1.3728 -0.1615
 2084SOL     OW17710   0.988   2.359   3.635 -0.7106  0.3404 -0.6886
 2084SOL    HW117711   0.980   2.284   3.576 -2.5111 -0.6772  0.8453
 2084SOL    HW217712   0.933   2.334   3.709 -1.0531  1.3681 -0.5960
 2085SOL     OW17713   3.443   2.406   1.586 -0.4570 -0.1590 -0.0181
 2085SOL    HW117714   3.409   2.472   1.525  0.5244  0.4916  0.1490
 2085SOL    HW217715   3.538   2.414   1.580 -0.6622  2.0825 -0.0143
 2086SOL     OW17716   3.067   4.690  12.395  0.0214 -0.0358  0.3832
 2086SOL    HW117717   2.985   4.671  12.439 -0.2176 -2.6860 -1.2007
 2086SOL    HW217718   3.136   4.658  12.453  1.1705  2.5164  0.4434
 2087SOL     OW17719   0.848   3.198   4.443  0.2096 -0.5299  0.0231
 2087SOL    HW117720   0.774   3.243   4.485 -0.7985 -1.8466 -0.3478
 2087SOL    HW217721   0.802   3.161   4.368 -0.1490  0.1156 -0.0786
 2088SOL     OW17722   1.301   0.718  16.170  0.0502 -0.2660 -0.4754
 2088SOL    HW117723   1.372   0.708  16.233  0.1481  0.4889 -0.4661
 2088SOL    HW217724   1.271   0.807  16.189  0.9591 -0.5962  2.5502
 2089SOL     OW17725   3.132   3.375   3.938  0.4938  0.8262  0.6409
 2089SOL    HW117726   3.142   3.392   4.032 -0.5198  2.6477  0.4093
 2089SOL    HW217727   3.090   3.289   3.942 -1.6846  1.7420 -2.9214
 2090SOL     OW17728   2.296   1.044   7.390 -0.0491 -0.2972 -0.4614
 2090SOL    HW117729   2.236   1.118   7.388 -2.3867 -2.2266 -0.9582
 2090SOL    HW217730   2.364   1.088   7.338 -0.1296  1.8251  1.2445
 2091SOL     OW17731   4.052   1.688   8.609 -0.0690  0.1118  0.3413
 2091SOL    HW117732   4.074   1.608   8.657 -1.1305 -1.3429 -1.6031
 2091SOL    HW217733   3.963   1.655   8.598 -0.5282  1.7028 -0.6840
 2092SOL     OW17734   3.650   0.708   6.427 -0.2355  0.1285 -0.2305
 2092SOL    HW117735   3.664   0.614   6.416  0.8135  0.1723  0.8337
 2092SOL    HW217736   3.557   0.695   6.448 -0.9956  1.4585 -2.7566
 2093SOL     OW17737   1.293   3.521   7.943  0.0735  0.6139  0.1426
 2093SOL    HW117738   1.374   3.565   7.970 -0.0713 -0.0424  1.5886
 2093SOL    HW217739   1.282   3.578   7.866 -1.4486 -0.6810 -0.6044
 2094SOL     OW17740   4.444   2.256   5.580 -0.2456 -0.7149  0.5029
 2094SOL    HW117741   4.521   2.230   5.529 -0.8710 -1.3214 -0.1276
 2094SOL    HW217742   4.465   2.208   5.661  0.2398  1.3734  1.6129
 2095SOL     OW17743   4.550   1.666   3.541  0.3151  0.3429  0.1966
 2095SOL    HW117744   4.477   1.615   3.575 -0.0226  0.4030 -0.4325
 2095SOL    HW217745   4.558   1.627   3.454 -0.5914 -0.9419  0.6868
 2096SOL     OW17746   1.978   2.301   3.299 -0.1667 -0.2701  0.2065
 2096SOL    HW117747   1.930   2.365   3.247  1.6899  1.8014  1.0377
 2096SOL    HW217748   2.028   2.352   3.363 -1.1140  0.4220  0.3889
 2097SOL     OW17749   3.399   0.157   6.759  0.3706 -0.0812 -0.1685
 2097SOL    HW117750   3.459   0.136   6.687  0.0267  0.6815 -0.6778
 2097SOL    HW217751   3.459   0.145   6.832 -0.8065 -1.6110  0.5372
 2098SOL     OW17752   0.289   1.380   2.658 -0.3684  0.0969 -0.0023
 2098SOL    HW117753   0.202   1.378   2.699  0.3073 -0.1047  1.4283
 2098SOL    HW217754   0.272   1.395   2.565 -0.3951  1.5957  0.2494
 2099SOL     OW17755   1.248   1.010   7.262  0.4392 -0.2746  0.5018
 2099SOL    HW117756   1.168   1.019   7.314  0.6198  1.4956  0.4548
 2099SOL    HW217757   1.273   1.099   7.238  0.0405 -0.6027 -1.0733
 2100SOL     OW17758   4.042   0.675   3.454 -0.2528 -0.1332  0.3029
 2100SOL    HW117759   3.997   0.723   3.385 -2.3835 -2.3653  0.1266
 2100SOL    HW217760   4.132   0.673   3.421  0.0331 -0.1146  1.0832
 2101SOL     OW17761   0.541   1.919   5.364  0.3672 -0.1242  0.1527
 2101SOL    HW117762   0.554   1.965   5.281 -1.3634  0.2530  0.0765
 2101SOL    HW217763   0.538   1.993   5.424  1.5844 -0.3802  0.5317
 2102SOL     OW17764   0.368   0.927   8.989 -0.2648 -0.6637  0.3185
 2102SOL    HW117765   0.455   0.925   9.028 -0.7809  1.5054  1.5751
 2102SOL    HW217766   0.340   1.007   9.033  1.0925 -0.0414  0.0373
 2103SOL     OW17767   1.714   3.215   9.080  0.2889  0.7355  0.3013
 2103SOL    HW117768   1.731   3.157   9.154 -0.8222  0.7673  0.5778
 2103SOL    HW217769   1.798   3.207   9.034  0.9601  1.3999  1.4016
 2104SOL     OW17770   4.465   4.342   1.431  0.1280 -0.1723 -0.1141
 2104SOL    HW117771   4.415   4.340   1.513 -0.2922 -0.5811 -0.3780
 2104SOL    HW217772   4.479   4.436   1.431 -0.6067 -0.0639  0.3829
 2105SOL     OW17773   3.323   3.852   7.120  0.1573 -0.0763  0.3855
 2105SOL    HW117774   3.364   3.906   7.187  2.9482 -1.0577 -0.5257
 2105SOL    HW217775   3.238   3.825   7.155 -1.0491 -0.4738 -2.8638
 2106SOL     OW17776   2.233   2.649   8.862  0.6296  0.0937  0.7898
 2106SOL    HW117777   2.262   2.739   8.854 -1.7248  0.6089 -1.9780
 2106SOL    HW217778   2.197   2.637   8.950 -1.6487  1.5913  0.0540
 2107SOL     OW17779   0.053   0.304   9.757 -0.3785  0.1855  0.2587
 2107SOL    HW117780   0.042   0.229   9.815 -0.8579  0.0160 -0.0522
 2107SOL    HW217781   0.147   0.320   9.767  0.0985 -3.0565  1.0437
 2108SOL     OW17782   1.051   2.336   1.296  0.1495 -0.3690 -0.2934
 2108SOL    HW117783   1.030   2.385   1.216 -3.0698  0.3477  1.0018
 2108SOL    HW217784   0.981   2.271   1.309  0.4317 -0.3007  1.5974
 2109SOL     OW17785   3.528   3.604   2.525  0.4512  0.2372  0.4129
 2109SOL    HW117786   3.619   3.583   2.502  0.3643  0.2079  0.0903
 2109SOL    HW217787   3.534   3.684   2.576 -1.5521  0.0415  0.9496
 2110SOL     OW17788   1.083   3.058   4.016 -0.3652  0.2630 -0.3143
 2110SOL    HW117789   1.087   2.990   3.948 -1.8680 -0.0315 -0.1080
 2110SOL    HW217790   1.168   3.041   4.056 -0.0907 -0.4008 -1.1790
 2111SOL     OW17791   4.622   0.565   8.066 -0.1093 -0.5347  0.1042
 2111SOL    HW117792   4.601   0.586   7.975 -1.1928 -1.5622  0.1118
 2111SOL    HW217793   4.574   0.483   8.082 -1.4747  0.8373  3.0237
 2112SOL     OW17794   1.853   2.139   9.002 -0.4396 -0.5292  0.5939
 2112SOL    HW117795   1.762   2.164   8.991 -0.8473 -0.8313  3.2532
 2112SOL    HW217796   1.835   2.061   9.054 -0.6453  0.2673  1.7173
 2113SOL     OW17797   1.460   0.538   4.303 -0.3890  0.7081 -0.0033
 2113SOL    HW117798   1.463   0.575   4.214 -1.4052  0.9470  0.0513
 2113SOL    HW217799   1.404   0.603   4.346 -0.6032  0.1388  0.5697
 2114SOL     OW17800   1.938   0.959   5.866  0.1304  0.6242 -0.2589
 2114SOL    HW117801   1.960   0.905   5.942  1.1392  0.6363 -0.5391
 2114SOL    HW217802   1.985   0.910   5.799  1.1433  2.5753 -0.9659
 2115SOL     OW17803   4.333   0.367   0.324  0.7303  0.3502  0.0029
 2115SOL    HW117804   4.401   0.434   0.328 -0.1463  1.5116 -4.4877
 2115SOL    HW217805   4.380   0.291   0.358 -1.3141 -0.7322  0.4192
 2116SOL     OW17806   2.710   4.463   7.025  0.4791  0.3404 -0.2497
 2116SOL    HW117807   2.678   4.532   7.082  1.9983  1.1043 -0.3379
 2116SOL    HW217808   2.627   4.442   6.982 -0.7112 -2.0586  3.2235
 2117SOL     OW17809   3.994   0.747   2.935  0.4024  0.2012  0.3994
 2117SOL    HW117810   4.003   0.834   2.973  0.6246 -1.5969  4.4206
 2117SOL    HW217811   4.053   0.693   2.987 -0.6254 -0.7508  0.5622
 2118SOL     OW17812   0.145   3.196   4.934 -0.4616  0.8528  0.3171
 2118SOL    HW117813   0.098   3.204   4.850  1.0057 -0.3654 -0.6086
 2118SOL    HW217814   0.177   3.107   4.947 -1.7164  0.3550  0.0727
 2119SOL     OW17815   3.631   0.317   2.238  0.3430 -0.1133  0.2698
 2119SOL    HW117816   3.665   0.234   2.206  0.4236  0.3526 -0.8480
 2119SOL    HW217817   3.697   0.382   2.216  2.3323 -2.2356  0.0221
 2120SOL     OW17818   0.760   4.372   1.977 -0.5288 -0.6065  0.2285
 2120SOL    HW117819   0.725   4.460   1.963  1.3728 -0.0157 -0.8920
 2120SOL    HW217820   0.696   4.320   1.928 -0.2487 -0.2959 -0.4659
 2121SOL     OW17821   1.803   1.419   5.309 -0.2035  0.2276  0.5709
 2121SOL    HW117822   1.721   1.384   5.275  0.4226 -1.1398  0.4592
 2121SOL    HW217823   1.788   1.513   5.302 -0.9124  0.2064  1.7433
 2122SOL     OW17824   0.559   2.925  11.653 -0.2534 -0.0318 -0.4782
 2122SOL    HW117825   0.579   2.887  11.568 -2.3059 -2.4636  0.1497
 2122SOL    HW217826   0.608   3.007  11.641  0.7728 -0.2779  2.0455
 2123SOL     OW17827   2.317   1.410   2.177  0.2681  0.8238  0.1519
 2123SOL    HW117828   2.224   1.404   2.198  0.7308 -1.5099  1.6464
 2123SOL    HW217829   2.321   1.494   2.131 -2.5166  1.0936  0.4166
 2124SOL     OW17830   2.566   4.650   9.979  0.2832  0.3368  0.4024
 2124SOL    HW117831   2.579   4.558   9.956  2.0166  0.0684  2.4629
 2124SOL    HW217832   2.573   4.685   9.889  1.0461 -0.4780  0.1398
 2125SOL     OW17833   4.366   4.434  13.447 -0.0736 -0.1058 -0.2730
 2125SOL    HW117834   4.398   4.464  13.362  0.4671  0.5699  0.1712
 2125SOL    HW217835   4.396   4.505  13.504 -0.4854  0.3212 -0.5873
 2126SOL     OW17836   0.919   4.230   4.666 -0.1814  0.1613 -0.0865
 2126SOL    HW117837   0.979   4.172   4.712 -1.5021 -0.5560  0.7456
 2126SOL    HW217838   0.835   4.191   4.690 -0.1704  0.7761  0.9574
 2127SOL     OW17839   0.961   1.380   5.914 -0.0209  0.8709  0.5275
 2127SOL    HW117840   0.898   1.370   5.842  0.8905  0.5337 -0.2186
 2127SOL    HW217841   0.978   1.290   5.941 -2.1216 -0.3460 -2.1920
 2128SOL     OW17842   4.559   4.304  10.535  0.6931  0.0635 -0.3788
 2128SOL    HW117843   4.635   4.292  10.479  0.0629 -0.0833 -1.2062
 2128SOL    HW217844   4.505   4.353  10.472 -0.2508 -0.1921  0.2241
 2129SOL     OW17845   2.910   1.839  12.762 -0.6893 -0.2439 -0.5368
 2129SOL    HW117846   2.951   1.905  12.706  1.0059 -0.8727 -0.0341
 2129SOL    HW217847   2.967   1.763  12.754  1.2961  1.2479 -0.7390
 2130SOL     OW17848   3.674   4.460   2.116 -0.3019 -0.1228  0.2643
 2130SOL    HW117849   3.643   4.541   2.157  0.8663 -0.1381  1.1623
 2130SOL    HW217850   3.766   4.484   2.110  0.1809 -1.9873  0.4136
 2131SOL     OW17851   2.941   2.174  12.174 -0.1706  0.1413 -0.5112
 2131SOL    HW117852   2.946   2.084  12.205 -2.4376 -0.0690 -0.7349
 2131SOL    HW217853   2.852   2.180  12.138 -0.5916  2.4219  0.8639
 2132SOL     OW17854   2.055   1.686   7.562  0.0967  0.2295  0.1208
 2132SOL    HW117855   2.033   1.704   7.653 -0.4934 -1.9653  0.4302
 2132SOL    HW217856   2.021   1.764   7.518 -1.2210  0.1508  0.9670
 2133SOL     OW17857   3.787   1.983  17.012  0.3047  0.7725  0.5537
 2133SOL    HW117858   3.878   1.955  17.021  0.0736 -0.9966 -2.5652
 2133SOL    HW217859   3.733   1.929  16.955 -0.5878  2.5423 -0.3056
 2134SOL     OW17860   1.658   0.641   2.293 -0.1098 -0.2903 -0.0441
 2134SOL    HW117861   1.667   0.736   2.291  0.2796 -0.3378 -0.5911
 2134SOL    HW217862   1.731   0.619   2.235  0.4327 -0.0679  0.5577
 2135SOL     OW17863   2.896   1.884   5.312  0.1013  0.2749  0.4434
 2135SOL    HW117864   2.803   1.898   5.328  0.3185  2.1445 -0.0152
 2135SOL    HW217865   2.936   1.971   5.312  0.6113  0.0437 -1.1995
 2136SOL     OW17866   3.029   0.256   6.003 -0.5860  0.4193 -0.6177
 2136SOL    HW117867   3.097   0.320   6.026  0.2017 -0.8956  0.6928
 2136SOL    HW217868   3.088   0.181   5.995  0.4347  1.2753 -1.0606
 2137SOL     OW17869   1.407   0.727   0.683  0.2780  0.2437  0.1085
 2137SOL    HW117870   1.427   0.820   0.683 -1.3971  0.6064 -1.2019
 2137SOL    HW217871   1.432   0.704   0.593 -2.4858 -1.2509 -0.2765
 2138SOL     OW17872   0.680   0.521   8.391  0.6990  0.2680  0.3685
 2138SOL    HW117873   0.743   0.460   8.430  0.7787  0.1544  0.0560
 2138SOL    HW217874   0.698   0.611   8.419 -0.3349  0.8538 -0.8779
 2139SOL     OW17875   3.198   1.971   6.951 -0.2051 -0.0979  0.3876
 2139SOL    HW117876   3.258   1.943   6.882 -0.3327 -1.6859  0.9219
 2139SOL    HW217877   3.112   1.972   6.911 -0.2619  0.5648  0.5348
 2140SOL     OW17878   0.496   2.853   4.975 -0.3095 -0.4933  0.3077
 2140SOL    HW117879   0.571   2.852   5.036 -0.2007 -2.5974  0.1423
 2140SOL    HW217880   0.531   2.817   4.894  2.2249  2.3402  0.1186
 2141SOL     OW17881   4.417   4.584   2.135 -0.6028  0.4748  0.9893
 2141SOL    HW117882   4.333   4.577   2.091 -1.2940  2.3189  1.9980
 2141SOL    HW217883   4.431   4.492   2.154  0.6657  0.2459 -1.0638
 2142SOL     OW17884   1.900   3.698   9.594 -0.2385  0.3502  0.4329
 2142SOL    HW117885   1.841   3.623   9.589  0.7208 -0.4329  0.7426
 2142SOL    HW217886   1.945   3.691   9.509 -0.7827 -0.1902  0.1943
 2143SOL     OW17887   2.266   3.258  13.971  0.0120  0.1596  0.1291
 2143SOL    HW117888   2.336   3.309  14.011 -0.0788  0.8512 -0.5934
 2143SOL    HW217889   2.292   3.268  13.880 -0.5081 -1.3485 -0.1937
 2144SOL     OW17890   3.023   2.669  15.159  0.1012  0.1968  0.6565
 2144SOL    HW117891   3.097   2.649  15.102 -1.9310  1.1046 -2.2730
 2144SOL    HW217892   3.029   2.592  15.216  0.3030 -0.3363 -0.0746
 2145SOL     OW17893   0.471   4.691  15.128  0.0856 -0.1287  0.1962
 2145SOL    HW117894   0.560   4.663  15.149  0.9709  3.2689  1.0039
 2145SOL    HW217895   0.426   4.635  15.192 -0.8332 -0.6694 -0.9404
 2146SOL     OW17896   1.829   3.464  16.465 -1.0526 -0.0655  0.3459
 2146SOL    HW117897   1.801   3.533  16.524 -3.1783  1.9488 -3.0030
 2146SOL    HW217898   1.779   3.490  16.387 -0.9946 -0.9248  0.0168
 2147SOL     OW17899   3.345   3.895   4.056 -0.2032 -0.2698  0.2415
 2147SOL    HW117900   3.420   3.955   4.061 -1.1930  0.8942  1.1802
 2147SOL    HW217901   3.374   3.836   4.125  1.4356  0.9164  0.5765
 2148SOL     OW17902   3.035   0.414   5.241  0.0365 -0.0239  0.5119
 2148SOL    HW117903   2.941   0.405   5.228  0.5032 -3.0386 -0.7444
 2148SOL    HW217904   3.048   0.506   5.215 -0.6220  0.5839  2.2924
 2149SOL     OW17905   1.052   2.661   3.643 -0.3754  0.4450 -0.2942
 2149SOL    HW117906   0.964   2.642   3.611 -0.4373  0.1981  0.0257
 2149SOL    HW217907   1.074   2.572   3.670 -0.5811  0.8574  1.2268
 2150SOL     OW17908   0.650   1.105  11.120  0.0140  0.3439 -0.1677
 2150SOL    HW117909   0.701   1.027  11.141  2.3505  2.2798  1.4346
 2150SOL    HW217910   0.601   1.112  11.202  2.0306  0.3137  1.0329
 2151SOL     OW17911   2.187   2.661   0.128  0.0428 -0.3919 -0.6471
 2151SOL    HW117912   2.229   2.745   0.109  1.1246 -0.5443  1.0681
 2151SOL    HW217913   2.199   2.656   0.223 -1.9686  1.4873 -0.2729
 2152SOL     OW17914   3.805   0.725   2.755  0.0751  0.8655  0.3319
 2152SOL    HW117915   3.885   0.735   2.806 -0.4829  0.1836  1.3302
 2152SOL    HW217916   3.744   0.703   2.825  0.1599  1.5331  0.6179
 2153SOL     OW17917   0.824   2.400   8.035  0.3488  0.7840 -0.5859
 2153SOL    HW117918   0.763   2.447   8.091  1.8359  1.7549  0.2361
 2153SOL    HW217919   0.910   2.433   8.063  0.4404 -0.0354  0.0798
 2154SOL     OW17920   3.442   3.667   3.294  0.5272  0.1407 -0.1634
 2154SOL    HW117921   3.422   3.717   3.373 -0.6849 -1.9418  0.8478
 2154SOL    HW217922   3.360   3.623   3.276  0.4677  0.2734 -0.2200
 2155SOL     OW17923   0.925   0.750   2.406 -0.3739 -0.1624  0.0203
 2155SOL    HW117924   0.913   0.665   2.362  2.4073  0.7174 -2.4429
 2155SOL    HW217925   0.879   0.734   2.488 -3.6407 -3.5720 -2.4485
 2156SOL     OW17926   4.527   2.973  10.345 -0.0778  0.5212  0.0757
 2156SOL    HW117927   4.499   2.961  10.255  1.2987  1.4836 -0.4853
 2156SOL    HW217928   4.504   2.891  10.389 -0.0132  0.6607  0.3722
 2157SOL     OW17929   1.484   0.240   2.625  0.0752 -0.9016  0.0943
 2157SOL    HW117930   1.499   0.259   2.532  0.9918 -1.9911  0.0191
 2157SOL    HW217931   1.491   0.145   2.636  2.1192 -0.9638 -1.6674
 2158SOL     OW17932   4.487   2.024   3.916 -0.0898  0.1856 -0.3993
 2158SOL    HW117933   4.421   1.966   3.878 -0.8754  0.6112  0.3054
 2158SOL    HW217934   4.499   2.085   3.843 -1.9431 -0.4370 -1.2408
 2159SOL     OW17935   1.797   1.601   6.479  0.0431 -0.3867  0.2388
 2159SOL    HW117936   1.815   1.544   6.405 -5.6966 -1.1906 -0.5185
 2159SOL    HW217937   1.729   1.558   6.529  0.6860 -1.0868  0.5058
 2160SOL     OW17938   2.070   2.182  13.587  0.3555 -0.1440  0.0043
 2160SOL    HW117939   2.138   2.228  13.537 -0.7689  0.2621 -1.1440
 2160SOL    HW217940   2.080   2.102  13.535 -1.6890 -0.2166 -0.2679
 2161SOL     OW17941   0.775   1.627  17.339 -0.3126 -0.3822  0.0342
 2161SOL    HW117942   0.844   1.575  17.299  1.2459  0.1556  2.0099
 2161SOL    HW217943   0.818   1.711  17.357 -1.0719  0.0872 -0.3316
 2162SOL     OW17944   1.541   2.936   5.483 -0.2694  0.2427 -0.2196
 2162SOL    HW117945   1.492   2.854   5.486 -0.3068  0.3482  1.6955
 2162SOL    HW217946   1.628   2.900   5.495 -0.7794 -0.5488  1.0631
 2163SOL     OW17947   0.905   1.237   5.153  0.1042  0.0460 -0.0557
 2163SOL    HW117948   0.871   1.151   5.181 -1.4309  1.2148  1.6367
 2163SOL    HW217949   0.832   1.260   5.094  1.0280  0.3041 -1.0970
 2164SOL     OW17950   4.019   1.284   3.889  0.4915  0.0148  0.4364
 2164SOL    HW117951   4.095   1.266   3.834 -0.5645  1.2083 -1.4485
 2164SOL    HW217952   3.958   1.292   3.816  0.3614  1.1671  0.6579
 2165SOL     OW17953   2.657   1.068   7.621  0.5021  0.2142 -0.4138
 2165SOL    HW117954   2.593   1.099   7.685  3.3708 -0.1039  2.6216
 2165SOL    HW217955   2.684   0.992   7.672  2.0439  1.7275  1.0261
 2166SOL     OW17956   2.062   2.949   3.384 -0.8186 -0.0926 -0.3532
 2166SOL    HW117957   2.087   3.041   3.378 -1.6269  0.1986  0.8221
 2166SOL    HW217958   2.109   2.921   3.463 -0.9867  1.8085  0.4161
 2167SOL     OW17959   3.704   1.015   8.390 -0.6645  0.8543 -0.0398
 2167SOL    HW117960   3.686   1.108   8.392 -1.0935  0.8221 -3.0412
 2167SOL    HW217961   3.618   0.975   8.400 -1.3754  1.7865 -2.6100
 2168SOL     OW17962   2.134   1.469  12.238  0.3703 -0.0581  0.4169
 2168SOL    HW117963   2.198   1.535  12.262  1.0306 -1.7100  3.1469
 2168SOL    HW217964   2.160   1.404  12.303 -2.3354  0.8839  2.4470
 2169SOL     OW17965   0.150   2.720  16.121  0.0859  0.5979  0.0894
 2169SOL    HW117966   0.130   2.699  16.213  0.1629  1.2757  0.2640
 2169SOL    HW217967   0.075   2.671  16.089 -0.2822 -0.7316  2.9658
 2170SOL     OW17968   1.735   2.775   4.730 -0.2853  0.2363 -0.9791
 2170SOL    HW117969   1.679   2.845   4.697 -2.5122 -1.2011 -0.2172
 2170SOL    HW217970   1.670   2.757   4.797 -2.1319  0.9899 -2.5755
 2171SOL     OW17971   2.558   2.797   5.027  0.5885  0.2420  0.3126
 2171SOL    HW117972   2.561   2.839   4.941 -3.9594 -1.0020 -0.4284
 2171SOL    HW217973   2.521   2.869   5.077  3.5388  2.2351 -0.3577
 2172SOL     OW17974   2.854   0.042   2.046  0.2308 -0.0230 -0.4654
 2172SOL    HW117975   2.913   0.087   2.105  1.9969 -1.3980 -1.2014
 2172SOL    HW217976   2.795   4.711   2.103  2.5492 -1.7186  0.4241
 2173SOL     OW17977   4.172   4.413   7.590 -0.5648 -0.5945 -0.2055
 2173SOL    HW117978   4.129   4.467   7.523 -0.8636 -1.0569 -0.3871
 2173SOL    HW217979   4.191   4.335   7.537  3.1570  0.5214 -0.4867
 2174SOL     OW17980   3.136   4.146   4.655  0.2568 -0.0124 -0.4430
 2174SOL    HW117981   3.101   4.089   4.723 -0.5786 -2.1607 -2.6682
 2174SOL    HW217982   3.096   4.103   4.580  2.5235 -0.7152 -1.2572
 2175SOL     OW17983   3.372   2.586   9.484 -0.5347  0.1022  0.2182
 2175SOL    HW117984   3.362   2.623   9.572 -1.2665 -0.1705  0.2548
 2175SOL    HW217985   3.301   2.523   9.498 -0.5793 -0.0667 -0.7751
 2176SOL     OW17986   2.229   4.106  14.203  0.9883  0.1757  0.2349
 2176SOL    HW117987   2.249   4.195  14.172 -0.0426  0.2825 -0.1547
 2176SOL    HW217988   2.277   4.048  14.144  1.3293  2.8445 -2.1189
 2177SOL     OW17989   2.121   2.491   0.414  0.4021  0.1986 -0.2692
 2177SOL    HW117990   2.157   2.579   0.427 -1.3944  0.8222  0.5048
 2177SOL    HW217991   2.199   2.442   0.391  0.5647  0.3890 -0.1213
 2178SOL     OW17992   4.194   2.676   7.607  0.2570 -0.0192  0.4209
 2178SOL    HW117993   4.145   2.741   7.658  0.4032  0.3850  0.0492
 2178SOL    HW217994   4.265   2.718   7.558  1.7010 -0.1446  2.4360
 2179SOL     OW17995   1.982   3.278   4.853 -0.3939 -0.4832 -0.8397
 2179SOL    HW117996   2.016   3.248   4.938 -0.1935  3.5054  0.4829
 2179SOL    HW217997   2.028   3.221   4.792  0.4356 -1.5981  0.8238
 2180SOL     OW17998   1.162   4.320  10.437  0.2614  0.0842  0.2899
 2180SOL    HW117999   1.199   4.234  10.458 -0.8364 -0.5521 -0.4109
 2180SOL    HW218000   1.103   4.343  10.509 -1.8354 -0.8571 -1.1295
 2181SOL     OW18001   1.113   3.856  10.251  0.1594 -0.7986  0.5617
 2181SOL    HW118002   1.046   3.797  10.215  0.3427  0.3896 -1.6739
 2181SOL    HW218003   1.090   3.932  10.199  0.5099 -0.9133  0.2419
 2182SOL     OW18004   2.494   1.795  11.394  0.0842 -0.4205  0.3083
 2182SOL    HW118005   2.571   1.785  11.450  0.9140 -0.5635 -0.8470
 2182SOL    HW218006   2.530   1.854  11.327 -0.6095 -1.4291 -0.9450
 2183SOL     OW18007   3.840   4.658   9.568 -0.0542 -0.1050  0.2145
 2183SOL    HW118008   3.761   4.706   9.591 -0.2917 -0.6039  0.4244
 2183SOL    HW218009   3.894   0.004   9.522  0.8156 -0.9670  0.0034
 2184SOL     OW18010   1.827   4.603   6.146  0.1763  0.1565  0.0978
 2184SOL    HW118011   1.752   4.642   6.100  0.6192 -0.4286 -1.1041
 2184SOL    HW218012   1.839   4.680   6.202  2.1423 -0.5116  0.5940
 2185SOL     OW18013   3.303   0.206   8.564 -0.3532  0.0566 -0.2040
 2185SOL    HW118014   3.379   0.263   8.573  0.2485 -0.8656  0.5692
 2185SOL    HW218015   3.329   0.128   8.614 -0.0328  0.9184  0.9654
 2186SOL     OW18016   1.438   0.529   2.686  0.1804  0.5286  0.1007
 2186SOL    HW118017   1.413   0.516   2.778  0.8584  0.2175  0.2440
 2186SOL    HW218018   1.450   0.439   2.657  0.1541  0.3507  0.6384
 2187SOL     OW18019   4.458   4.004   6.871 -0.3045  0.0582  0.0116
 2187SOL    HW118020   4.525   3.977   6.935 -0.7835 -0.9362  0.0853
 2187SOL    HW218021   4.394   4.039   6.932 -1.7013 -1.8326 -0.3827
 2188SOL     OW18022   0.691   0.378   2.327  0.1125 -0.0077 -0.2298
 2188SOL    HW118023   0.784   0.401   2.335  0.5773 -1.0968 -2.5508
 2188SOL    HW218024   0.670   0.402   2.237 -0.5025  2.0795  0.4575
 2189SOL     OW18025   0.617   0.901  17.415  0.1783  0.0672 -0.4350
 2189SOL    HW118026   0.671   0.833  17.375  0.6318  0.0232  0.2624
 2189SOL    HW218027   0.660   0.924  17.497  3.2378 -0.4935 -1.8832
 2190SOL     OW18028   4.670   3.177   2.837  0.9792 -0.2496  0.4436
 2190SOL    HW118029   4.659   3.092   2.794 -2.1516  0.8769 -0.9851
 2190SOL    HW218030   4.596   3.221   2.796  1.6286  0.6704  0.2528
 2191SOL     OW18031   2.311   3.646  10.950 -0.0834  0.1373 -0.5311
 2191SOL    HW118032   2.353   3.568  10.914  1.2256 -0.1795  1.6890
 2191SOL    HW218033   2.296   3.620  11.041 -0.5694 -1.0532 -0.9522
 2192SOL     OW18034   1.607   2.140  10.635 -0.0659  0.1229 -0.2640
 2192SOL    HW118035   1.576   2.170  10.550  2.3131  0.5451 -0.9880
 2192SOL    HW218036   1.663   2.215  10.656  1.2092 -0.2243 -2.4634
 2193SOL     OW18037   3.757   1.913   7.229  0.3704 -0.4211  0.4425
 2193SOL    HW118038   3.726   1.932   7.317  1.4943  1.5494  0.3963
 2193SOL    HW218039   3.804   1.830   7.239  0.3452 -0.6919 -1.5492
 2194SOL     OW18040   2.559   0.660   1.024 -0.6034  0.7999  0.2687
 2194SOL    HW118041   2.580   0.576   1.066  1.5881  0.0094 -2.2974
 2194SOL    HW218042   2.514   0.633   0.943  0.2628  0.2236 -0.0316
 2195SOL     OW18043   4.168   3.537   4.490 -0.0872 -0.2669  0.7950
 2195SOL    HW118044   4.087   3.557   4.536  0.9753  2.1099  1.6552
 2195SOL    HW218045   4.222   3.606   4.529  0.2244  0.0021 -0.1029
 2196SOL     OW18046   0.603   2.611   1.254  0.2893 -0.5496 -0.7400
 2196SOL    HW118047   0.659   2.580   1.183 -1.6878 -0.3581 -2.4037
 2196SOL    HW218048   0.566   2.528   1.283 -0.7453  0.3796  0.6027
 2197SOL     OW18049   2.261   0.123  17.212  0.3045 -0.1005  0.4798
 2197SOL    HW118050   2.317   0.139  17.135 -0.5097  0.3633 -0.0210
 2197SOL    HW218051   2.295   0.044  17.254  1.3661  0.7992  1.3271
 2198SOL     OW18052   3.386   1.048  17.259  0.1120  0.2798 -1.0032
 2198SOL    HW118053   3.323   0.976  17.266  0.5773  0.0702  0.9880
 2198SOL    HW218054   3.409   1.039  17.167  0.9746 -0.7194 -0.6942
 2199SOL     OW18055   2.130   0.715   5.691  0.1526  0.1946 -0.3739
 2199SOL    HW118056   2.148   0.809   5.684 -1.0368  0.4511 -0.0682
 2199SOL    HW218057   2.120   0.709   5.596  2.0185  0.6651 -0.5984
 2200SOL     OW18058   3.278   1.224  14.172  0.5530 -0.2082  0.5161
 2200SOL    HW118059   3.195   1.265  14.147  1.8260  1.4406 -0.9926
 2200SOL    HW218060   3.253   1.134  14.195 -0.3871  0.1752  0.9845
 2201SOL     OW18061   1.784   2.808   2.902  0.1080  0.0873 -0.3468
 2201SOL    HW118062   1.723   2.748   2.858 -1.2809 -0.0384  1.7656
 2201SOL    HW218063   1.770   2.891   2.857  2.8783  0.1513 -1.0686
 2202SOL     OW18064   1.130   4.592   2.813 -1.0522  0.1020 -0.1957
 2202SOL    HW118065   1.154   4.512   2.767 -0.3587 -0.9952  2.0659
 2202SOL    HW218066   1.100   4.643   2.738  0.7912  2.3273  0.5635
 2203SOL     OW18067   4.610   1.895   5.150  0.5376  0.7411  0.5129
 2203SOL    HW118068   4.542   1.831   5.126  0.9775  0.6877 -0.5739
 2203SOL    HW218069   4.636   1.862   5.237  0.3351 -0.3893  0.1515
 2204SOL     OW18070   3.671   3.182   3.990 -0.0044  0.2151 -0.3624
 2204SOL    HW118071   3.691   3.254   3.930 -2.1715  1.2694  0.1652
 2204SOL    HW218072   3.700   3.105   3.942 -2.5627  0.2568 -1.9946
 2205SOL     OW18073   3.064   1.207   4.808 -0.6843 -0.1847  0.1190
 2205SOL    HW118074   3.112   1.274   4.760 -2.2604 -0.2977 -1.5940
 2205SOL    HW218075   3.031   1.163   4.730 -1.9059  2.9601 -1.1314
 2206SOL     OW18076   1.547   0.756   3.429 -0.2238  0.4399 -0.3644
 2206SOL    HW118077   1.605   0.701   3.482 -0.8583  1.1046  1.0166
 2206SOL    HW218078   1.476   0.693   3.413 -0.7656  1.1196 -0.6461
 2207SOL     OW18079   0.156   0.397   8.101  0.5025 -0.7224  0.2686
 2207SOL    HW118080   0.157   0.370   8.010 -1.7389 -1.7543  0.5648
 2207SOL    HW218081   0.083   0.459   8.100  0.0125 -1.2353  2.8844
 2208SOL     OW18082   2.813   2.047  14.250 -0.7136  0.4310 -0.3676
 2208SOL    HW118083   2.777   2.101  14.320  0.7693  0.3678  0.4351
 2208SOL    HW218084   2.882   2.002  14.298 -1.9205 -0.5123  0.5044
 2209SOL     OW18085   3.194   2.641   7.482 -0.3335 -0.1606 -0.0752
 2209SOL    HW118086   3.156   2.566   7.438  1.7646 -1.4618  0.3355
 2209SOL    HW218087   3.246   2.595   7.548 -0.1575  0.5083  0.2541
 2210SOL     OW18088   2.874   2.980  10.575 -0.2799 -0.0880  0.5206
 2210SOL    HW118089   2.780   2.964  10.581 -0.1653 -0.7438  0.5902
 2210SOL    HW218090   2.876   3.076  10.573  1.0977 -0.0975  0.9456
 2211SOL     OW18091   2.160   1.553   8.586 -0.0865  0.5003 -0.3117
 2211SOL    HW118092   2.091   1.559   8.521 -0.9681  0.8476  0.6604
 2211SOL    HW218093   2.210   1.631   8.560  0.3988  0.7595  1.3711
 2212SOL     OW18094   3.310   0.792  17.245 -0.7065  0.7471 -0.3788
 2212SOL    HW118095   3.374   0.734  17.205 -1.6243 -0.3370 -0.2846
 2212SOL    HW218096   3.322   0.769  17.337  0.1313 -0.0242 -0.6872
 2213SOL     OW18097   4.336   3.767   6.062  0.4243 -0.0378 -0.1771
 2213SOL    HW118098   4.263   3.739   6.117  0.8763 -1.3335 -0.2252
 2213SOL    HW218099   4.312   3.858   6.049  0.3421  0.2207  1.8411
 2214SOL     OW18100   4.258   4.712   7.371 -0.3115 -0.4334 -0.7172
 2214SOL    HW118101   4.258   4.681   7.281  0.7215  1.2636 -1.3117
 2214SOL    HW218102   4.171   4.680   7.398 -0.6374 -0.7155 -2.1117
 2215SOL     OW18103   4.157   3.684  10.519 -0.0014 -0.4763  0.3243
 2215SOL    HW118104   4.164   3.735  10.600 -1.3557 -2.8363  1.9216
 2215SOL    HW218105   4.251   3.681  10.502  0.3293  0.1593  2.0293
 2216SOL     OW18106   4.297   1.415   4.939 -0.0624  0.1859  0.0694
 2216SOL    HW118107   4.388   1.396   4.959  0.6937  1.5375 -2.0643
 2216SOL    HW218108   4.286   1.385   4.849 -0.6331 -1.2721  0.6230
 2217SOL     OW18109   4.538   1.260   5.884  0.0311  0.1629 -0.3177
 2217SOL    HW118110   4.472   1.199   5.918 -0.6544  0.2971 -1.4043
 2217SOL    HW218111   4.493   1.319   5.824 -2.2267 -2.1556 -0.8898
 2218SOL     OW18112   2.888   2.249   2.405  0.0953 -0.0352 -0.2446
 2218SOL    HW118113   2.914   2.335   2.372 -1.5767  0.4348 -0.3078
 2218SOL    HW218114   2.882   2.261   2.499 -0.4926 -2.6276  0.0619
 2219SOL     OW18115   1.484   4.168   1.135  0.6054  0.0763 -0.6208
 2219SOL    HW118116   1.415   4.127   1.084  0.5012 -1.5216  0.7874
 2219SOL    HW218117   1.492   4.254   1.094 -0.9079  0.5944  0.1967
 2220SOL     OW18118   3.527   4.004   4.367  0.0106 -0.0256 -0.5010
 2220SOL    HW118119   3.514   4.047   4.452  2.6816  0.9929 -0.6016
 2220SOL    HW218120   3.596   3.941   4.389  1.2075  1.2033 -0.7736
 2221SOL     OW18121   2.556   2.256   4.420 -0.2373  0.4879 -0.0845
 2221SOL    HW118122   2.508   2.227   4.497  0.9370 -2.0603 -0.3057
 2221SOL    HW218123   2.502   2.201   4.363  0.6013 -0.9790  0.5270
 2222SOL     OW18124   3.473   2.007   8.122 -0.5957 -0.1488 -0.3394
 2222SOL    HW118125   3.415   2.069   8.079 -0.1889  0.3739 -0.1435
 2222SOL    HW218126   3.557   2.042   8.092 -0.2071 -1.0630 -0.3281
 2223SOL     OW18127   1.050   0.986   4.971 -0.3691  0.5982  0.9535
 2223SOL    HW118128   1.096   0.905   4.949  0.8493  1.0954  1.6553
 2223SOL    HW218129   1.009   0.946   5.048  0.9057  1.3862  2.0445
 2224SOL     OW18130   4.079   3.151   7.361  0.4398  0.5433  0.5203
 2224SOL    HW118131   4.130   3.229   7.382 -0.5123  1.0213  0.9905
 2224SOL    HW218132   4.140   3.077   7.365  0.3796  0.4747  0.1441
 2225SOL     OW18133   4.475   1.278   3.305  0.8050 -0.1711  0.1140
 2225SOL    HW118134   4.536   1.262   3.234 -0.6385 -1.6121 -0.7967
 2225SOL    HW218135   4.504   1.363   3.339  0.4678  0.4378 -1.1171
 2226SOL     OW18136   1.780   2.544  16.508 -0.2331 -0.2181 -0.9188
 2226SOL    HW118137   1.764   2.589  16.425  0.1396 -0.1330 -0.9463
 2226SOL    HW218138   1.876   2.544  16.510 -0.3002 -1.6072  1.9052
 2227SOL     OW18139   2.131   2.673   0.678 -0.5295 -0.3914 -0.2951
 2227SOL    HW118140   2.127   2.735   0.750  0.3446  1.6369 -1.9982
 2227SOL    HW218141   2.061   2.611   0.700 -0.5582 -1.3721 -3.1007
 2228SOL     OW18142   1.416   0.043   6.223  0.6047 -0.2462 -0.5621
 2228SOL    HW118143   1.383   0.127   6.254 -1.2182 -1.8203  1.8489
 2228SOL    HW218144   1.509   0.049   6.247 -0.0401  0.5754  1.7212
 2229SOL     OW18145   0.089   3.299   3.296  0.4432  0.2330  0.4120
 2229SOL    HW118146   0.041   3.355   3.357 -1.0058 -0.3632 -0.2091
 2229SOL    HW218147   0.126   3.371   3.245 -1.1575  1.2773  0.7470
 2230SOL     OW18148   1.745   2.128   3.026 -0.2550  0.6394  0.1043
 2230SOL    HW118149   1.689   2.097   2.955  0.5874  0.0843 -0.3166
 2230SOL    HW218150   1.705   2.214   3.039 -1.5810  0.1196 -0.5703
 2231SOL     OW18151   4.643   3.844   2.391 -0.1134  0.3629  0.2696
 2231SOL    HW118152   4.553   3.815   2.380  0.0523  0.3732 -1.0811
 2231SOL    HW218153   4.663   3.874   2.302 -0.6606  3.4983  1.1999
 2232SOL     OW18154   1.841   1.147   3.809  0.1225  0.2113 -0.3418
 2232SOL    HW118155   1.875   1.121   3.894 -0.0306 -0.9148 -0.6303
 2232SOL    HW218156   1.804   1.230   3.840 -0.1087 -0.6921  1.7401
 2233SOL     OW18157   4.259   1.774   4.719 -1.0251  0.5555  0.5061
 2233SOL    HW118158   4.191   1.802   4.657  0.0888  0.4555 -0.7674
 2233SOL    HW218159   4.206   1.709   4.764 -0.1227 -0.4383  0.1280
 2234SOL     OW18160   1.986   0.843   6.110 -0.1532  0.4319 -0.2834
 2234SOL    HW118161   1.927   0.820   6.182  0.0734 -2.2951 -0.9359
 2234SOL    HW218162   2.060   0.888   6.150 -0.7629 -0.1729  1.5305
 2235SOL     OW18163   3.966   2.203  12.982 -0.5564  0.1869  0.1871
 2235SOL    HW118164   4.034   2.165  12.926  0.2299  0.2659  1.0819
 2235SOL    HW218165   4.003   2.212  13.070  1.7453 -1.0563 -0.6379
 2236SOL     OW18166   4.144   0.589  11.036 -0.8500  0.1079  0.5876
 2236SOL    HW118167   4.195   0.509  11.046 -1.1589 -0.0651  0.7588
 2236SOL    HW218168   4.166   0.620  10.948 -0.2080 -3.8602 -0.6566
 2237SOL     OW18169   2.375   0.040   4.390  0.1791 -0.3323  0.0339
 2237SOL    HW118170   2.450   0.030   4.449 -1.0253  1.6631  1.9094
 2237SOL    HW218171   2.411   0.081   4.311 -2.1794  0.3645 -0.6778
 2238SOL     OW18172   4.135   0.706   0.868 -0.2084  0.7947  0.0249
 2238SOL    HW118173   4.144   0.611   0.879  0.1961  0.7777 -0.4634
 2238SOL    HW218174   4.138   0.730   0.961  2.1055 -1.9337  0.6470
 2239SOL     OW18175   2.975   4.102  11.223 -0.3060  0.1858 -0.1495
 2239SOL    HW118176   2.983   4.197  11.227  0.4929  0.2179 -2.5946
 2239SOL    HW218177   2.882   4.099  11.244 -0.9641  2.9008 -2.7418
 2240SOL     OW18178   2.225   4.241   2.808  0.1255  0.0297  0.3219
 2240SOL    HW118179   2.243   4.233   2.715  0.6343  0.7913  0.3511
 2240SOL    HW218180   2.129   4.240   2.804  0.1806 -1.5036 -0.5016
 2241SOL     OW18181   0.119   4.027  10.675  0.5827 -0.5871  0.1883
 2241SOL    HW118182   0.121   3.980  10.758  0.2560 -1.6012 -0.3857
 2241SOL    HW218183   0.210   4.015  10.649  0.3351 -0.2152 -0.8515
 2242SOL     OW18184   1.828   4.194   7.144 -0.3015 -0.2940 -0.1929
 2242SOL    HW118185   1.766   4.123   7.127  0.9653 -1.3477 -0.4119
 2242SOL    HW218186   1.806   4.225   7.232  0.6617  2.2530 -0.8424
 2243SOL     OW18187   2.422   2.444   5.392 -0.4344 -0.2685 -0.2255
 2243SOL    HW118188   2.417   2.539   5.396  1.4131 -0.0621 -2.5843
 2243SOL    HW218189   2.331   2.421   5.375 -0.9728  0.8930  1.1061
 2244SOL     OW18190   1.301   0.902   3.988  0.2249  0.1161 -0.1400
 2244SOL    HW118191   1.291   0.997   3.983 -0.1908 -0.0203 -1.8515
 2244SOL    HW218192   1.213   0.868   3.974 -0.7004  2.3109  0.3626
 2245SOL     OW18193   0.367   0.483   1.546 -0.4081 -0.6123  0.2909
 2245SOL    HW118194   0.369   0.397   1.589  1.9650 -0.9302 -0.4435
 2245SOL    HW218195   0.275   0.486   1.519  0.4387  1.3545 -2.2936
 2246SOL     OW18196   1.421   3.126   5.633  0.7619  0.0064  0.4364
 2246SOL    HW118197   1.458   3.124   5.721 -1.7249  0.7716  1.5013
 2246SOL    HW218198   1.487   3.069   5.593  1.3227  1.5675 -0.8715
 2247SOL     OW18199   4.167   0.063   3.635 -0.2354  0.2274 -0.3787
 2247SOL    HW118200   4.162   4.709   3.573 -0.4656  0.7109 -0.9245
 2247SOL    HW218201   4.187   0.014   3.715  0.5087 -0.8858 -1.2492
 2248SOL     OW18202   1.960   4.032  10.067  0.6260  0.4518 -0.2195
 2248SOL    HW118203   1.909   3.955  10.095 -0.8119  0.8282 -1.7801
 2248SOL    HW218204   1.941   4.031   9.973  0.2892 -1.5761 -0.1279
 2249SOL     OW18205   4.688   3.840   4.894 -0.3916 -0.1450  0.0269
 2249SOL    HW118206   0.042   3.892   4.858 -0.8729  0.2421 -0.3798
 2249SOL    HW218207   4.665   3.784   4.819  0.6880 -0.0595 -0.3838
 2250SOL     OW18208   3.607   1.267   7.169  0.2787 -0.4360  0.2926
 2250SOL    HW118209   3.549   1.323   7.220  1.5772 -0.7425  2.0980
 2250SOL    HW218210   3.593   1.307   7.083  2.3089  1.6205  0.9119
 2251SOL     OW18211   0.156   1.811   9.244  0.8273 -0.0814  0.3982
 2251SOL    HW118212   0.209   1.739   9.209 -1.6023 -1.6953  0.0473
 2251SOL    HW218213   0.221   1.880   9.238 -0.1516  0.7952 -0.1151
 2252SOL     OW18214   2.886   4.621   2.960  0.3241  0.1078  0.3694
 2252SOL    HW118215   2.836   4.617   3.041 -1.6805  0.1430 -0.8791
 2252SOL    HW218216   2.930   4.704   2.978 -1.8427  1.1401  0.9136
 2253SOL     OW18217   3.119   2.193   4.574 -0.0807  0.0461  0.0742
 2253SOL    HW118218   3.146   2.263   4.514 -1.8086  1.6509  1.2108
 2253SOL    HW218219   3.027   2.197   4.550  0.4340 -1.9669 -2.2938
 2254SOL     OW18220   3.561   4.618  17.558  0.2744 -0.5777 -0.0270
 2254SOL    HW118221   3.487   4.644  17.504  1.1315 -1.1337 -1.4902
 2254SOL    HW218222   3.541   4.524  17.557  1.8021 -0.8996 -1.1533
 2255SOL     OW18223   2.933   3.558  12.603 -0.2609 -0.3970  0.6557
 2255SOL    HW118224   3.016   3.599  12.580 -1.7119  0.1649 -3.4651
 2255SOL    HW218225   2.879   3.610  12.544  0.9186 -1.6218 -1.4658
 2256SOL     OW18226   4.394   0.796  16.716  0.4804 -0.1378  0.6542
 2256SOL    HW118227   4.445   0.753  16.647  1.5349  0.2226  1.2105
 2256SOL    HW218228   4.382   0.888  16.693  2.8851  0.0889  0.2256
 2257SOL     OW18229   1.153   4.535   3.562  0.2301 -0.5453 -0.4600
 2257SOL    HW118230   1.189   4.466   3.618  1.3705 -1.6728 -2.5909
 2257SOL    HW218231   1.199   4.530   3.479  0.3190  0.0617 -0.4464
 2258SOL     OW18232   3.404   2.928   6.451 -0.0701  0.5247 -0.2067
 2258SOL    HW118233   3.377   2.973   6.531 -0.2822  1.0546 -0.5737
 2258SOL    HW218234   3.372   2.988   6.383  1.1675 -0.3734 -1.5813
 2259SOL     OW18235   1.132   4.178   7.120 -0.2894  0.1924 -0.1175
 2259SOL    HW118236   1.170   4.242   7.181 -3.8775 -0.7196  3.0729
 2259SOL    HW218237   1.173   4.192   7.034  0.1586  0.8279  0.2005
 2260SOL     OW18238   0.294   3.807   2.511 -0.0270  0.1527  0.2607
 2260SOL    HW118239   0.220   3.848   2.556  0.1605 -0.0292  0.7301
 2260SOL    HW218240   0.359   3.866   2.549  1.5900 -1.4786  0.0035
 2261SOL     OW18241   2.406   1.974   3.481 -0.6431  0.0883 -0.4600
 2261SOL    HW118242   2.329   1.987   3.424 -2.2653 -1.5733  1.3361
 2261SOL    HW218243   2.362   1.990   3.564  0.1208 -1.7387  0.2890
 2262SOL     OW18244   0.733   0.964   1.785 -1.0708 -0.5987 -0.2151
 2262SOL    HW118245   0.732   1.007   1.871  1.4277 -0.9115 -0.0073
 2262SOL    HW218246   0.714   1.038   1.728  1.3576 -0.4102 -0.7948
 2263SOL     OW18247   0.873   2.168  10.183 -0.0189  0.7459  0.5291
 2263SOL    HW118248   0.936   2.119  10.130 -0.4865 -0.4077  1.0547
 2263SOL    HW218249   0.835   2.101  10.239  1.6342  0.5754  1.4189
 2264SOL     OW18250   4.391   0.841   3.530 -0.0409  0.0276 -0.6323
 2264SOL    HW118251   4.322   0.861   3.595  0.1054  0.6541 -0.6709
 2264SOL    HW218252   4.452   0.911   3.553 -1.6833  1.1610  0.2535
 2265SOL     OW18253   1.443   0.980  16.852 -0.0892 -0.3686 -0.6392
 2265SOL    HW118254   1.424   0.893  16.886 -1.7671  0.7867  1.3983
 2265SOL    HW218255   1.354   1.001  16.824 -0.1075  1.6221  0.8925
 2266SOL     OW18256   2.102   1.617   3.015  0.1724  0.4166 -0.2326
 2266SOL    HW118257   2.057   1.545   3.058  1.4939  0.3064  0.9553
 2266SOL    HW218258   2.044   1.635   2.941 -0.5396  1.3453  0.5544
 2267SOL     OW18259   2.276   0.649   0.874  0.0246  0.3464 -0.4942
 2267SOL    HW118260   2.315   0.638   0.787 -2.7707 -0.9942 -1.5565
 2267SOL    HW218261   2.254   0.742   0.871  1.6861  0.7297 -1.2467
 2268SOL     OW18262   2.225   0.786   8.526  0.1495  0.2964  0.0826
 2268SOL    HW118263   2.216   0.773   8.621  1.8079  0.6705  0.2896
 2268SOL    HW218264   2.138   0.766   8.492 -0.5594 -2.7154  3.6253
 2269SOL     OW18265   2.144   2.332   6.431  0.8313 -0.9220 -0.2497
 2269SOL    HW118266   2.080   2.362   6.367  2.0163  2.6564  0.2726
 2269SOL    HW218267   2.120   2.239   6.429 -0.9796 -0.4499  0.2718
 2270SOL     OW18268   4.455   4.184   2.835 -0.1915  0.3825  0.1346
 2270SOL    HW118269   4.527   4.246   2.824 -0.6240  0.5322 -1.8864
 2270SOL    HW218270   4.396   4.241   2.885 -0.5499  2.5538 -2.7270
 2271SOL     OW18271   0.505   2.566   3.840  0.1570  0.0882 -0.1418
 2271SOL    HW118272   0.527   2.591   3.750  0.1123 -3.1483 -1.0301
 2271SOL    HW218273   0.517   2.651   3.883  1.5117  0.9138 -2.1268
 2272SOL     OW18274   0.313   1.388   4.465  0.2660  0.3865  0.2428
 2272SOL    HW118275   0.311   1.354   4.376  0.3411 -1.1364  0.8187
 2272SOL    HW218276   0.235   1.348   4.502 -0.0426  1.3569  0.6593
 2273SOL     OW18277   0.006   2.013  11.537  0.3396 -0.2378 -0.0306
 2273SOL    HW118278   4.675   2.034  11.458  0.2122 -0.7575 -0.0912
 2273SOL    HW218279   4.658   1.972  11.592  0.1594 -0.0736 -0.1306
 2274SOL     OW18280   0.483   3.665  14.759 -0.3575  0.0104 -0.2490
 2274SOL    HW118281   0.430   3.664  14.679 -1.7043  1.4429  0.6218
 2274SOL    HW218282   0.413   3.671  14.823 -0.6850  0.7373 -0.6716
 2275SOL     OW18283   4.140   4.221   5.793 -0.2500  0.2759  0.1254
 2275SOL    HW118284   4.098   4.208   5.708  1.1979  0.7962 -0.6768
 2275SOL    HW218285   4.072   4.210   5.859  1.3598 -1.3097  1.5220
 2276SOL     OW18286   2.948   0.531   4.090 -0.4866  0.0069  0.4665
 2276SOL    HW118287   2.992   0.616   4.086 -0.3642 -0.0561  0.4910
 2276SOL    HW218288   3.019   0.483   4.132 -0.4022 -0.4554 -0.2138
 2277SOL     OW18289   3.430   1.997   2.604  0.1344  0.5696 -0.0631
 2277SOL    HW118290   3.380   2.068   2.563  0.3422 -1.1705 -3.3090
 2277SOL    HW218291   3.499   1.998   2.538 -1.2036 -1.3298 -1.4911
 2278SOL     OW18292   2.483   1.250   2.351 -0.3903 -0.5530 -0.5827
 2278SOL    HW118293   2.477   1.319   2.417  2.7621 -1.4380  0.6413
 2278SOL    HW218294   2.438   1.295   2.279 -0.3221  1.1257  0.4337
 2279SOL     OW18295   2.184   3.120   3.639  0.8253 -0.2385  0.3068
 2279SOL    HW118296   2.183   3.026   3.655  1.4086 -0.6985 -2.4608
 2279SOL    HW218297   2.142   3.161   3.715  1.4129 -1.0965  1.1015
 2280SOL     OW18298   1.860   2.710   7.924  0.0204  0.2440 -0.0057
 2280SOL    HW118299   1.854   2.799   7.889  0.1311 -0.0555 -0.7839
 2280SOL    HW218300   1.954   2.698   7.912  0.0779 -0.0807  0.8029
 2281SOL     OW18301   0.386   4.447   6.634 -0.2409 -0.8299 -0.6140
 2281SOL    HW118302   0.340   4.442   6.718  0.6262  1.7077  0.0223
 2281SOL    HW218303   0.477   4.445   6.662 -0.3227  2.0435 -0.1378
 2282SOL     OW18304   1.585   0.417  17.593  0.1344 -0.2664 -0.3317
 2282SOL    HW118305   1.495   0.388  17.607 -0.4488  1.1481 -1.0982
 2282SOL    HW218306   1.613   0.415   0.005  0.2856 -0.6603 -0.3886
 2283SOL     OW18307   0.899   3.343   6.842  0.0865 -0.1110 -0.2351
 2283SOL    HW118308   0.849   3.329   6.923  0.1876  1.6573  0.1289
 2283SOL    HW218309   0.987   3.313   6.865 -1.1894 -2.1318  2.0258
 2284SOL     OW18310   3.364   4.037   7.585  0.4573 -1.0441  0.3141
 2284SOL    HW118311   3.393   4.102   7.649 -1.3783  0.1460 -0.0603
 2284SOL    HW218312   3.276   4.063   7.558  1.0610  0.2726 -0.3678
 2285SOL     OW18313   4.361   1.379   9.397  0.1126 -0.6669  0.0542
 2285SOL    HW118314   4.390   1.289   9.414  1.6422 -0.4352 -1.3347
 2285SOL    HW218315   4.382   1.416   9.483  2.8405 -2.7429  0.2705
 2286SOL     OW18316   0.828   3.526   9.429 -0.7336 -0.2015 -0.0840
 2286SOL    HW118317   0.776   3.597   9.392 -2.2621 -1.4891 -0.3704
 2286SOL    HW218318   0.759   3.470   9.464 -0.8110 -0.6687 -0.9814
 2287SOL     OW18319   3.172   2.528   3.344  0.3561  0.1797  0.2285
 2287SOL    HW118320   3.155   2.470   3.418  0.9447 -0.6495 -0.2871
 2287SOL    HW218321   3.192   2.613   3.383 -1.1041  1.1330 -1.0675
 2288SOL     OW18322   0.714   3.724   8.173 -0.1992 -0.4837  0.1428
 2288SOL    HW118323   0.691   3.787   8.105  0.2328 -0.2409  0.2241
 2288SOL    HW218324   0.628   3.710   8.213 -0.2442  1.2613  0.6634
 2289SOL     OW18325   3.563   2.763   8.576 -0.4242 -0.1018 -0.0080
 2289SOL    HW118326   3.597   2.827   8.638 -0.1114 -0.5717  0.3062
 2289SOL    HW218327   3.477   2.798   8.554 -1.4815 -2.2162  0.7468
 2290SOL     OW18328   2.422   0.717   3.717  0.2166  0.0955 -0.2976
 2290SOL    HW118329   2.498   0.667   3.686 -1.3461 -1.0438 -2.3594
 2290SOL    HW218330   2.416   0.678   3.804 -2.0793  1.0717 -0.0181
 2291SOL     OW18331   3.333   3.545   4.490 -0.4535  0.2349  0.3660
 2291SOL    HW118332   3.283   3.616   4.529 -2.5705 -1.1188  0.0721
 2291SOL    HW218333   3.313   3.467   4.541  1.5804 -0.6504 -0.1813
 2292SOL     OW18334   2.496   3.357   3.955 -0.6381 -0.3581 -0.0742
 2292SOL    HW118335   2.565   3.310   3.907 -1.5774 -2.4653  0.6361
 2292SOL    HW218336   2.501   3.443   3.913  1.3777 -1.3006 -1.7645
 2293SOL     OW18337   3.923   0.796   8.401  0.4828  0.1550 -0.2871
 2293SOL    HW118338   3.975   0.775   8.478 -0.7735 -0.1818  0.4531
 2293SOL    HW218339   3.854   0.851   8.437  1.6715 -0.2848  2.6569
 2294SOL     OW18340   2.546   3.786  12.321 -0.0991 -0.2672 -0.1959
 2294SOL    HW118341   2.602   3.857  12.352  0.9210 -1.4656  0.6865
 2294SOL    HW218342   2.463   3.822  12.351 -0.7460  0.2443 -2.5903
 2295SOL     OW18343   4.584   3.737  15.682  0.2776 -0.0733 -0.0191
 2295SOL    HW118344   4.547   3.807  15.735 -0.4160  0.4214 -1.1550
 2295SOL    HW218345   4.670   3.719  15.721 -0.0124  0.5260  0.8955
 2296SOL     OW18346   4.490   1.743   4.174 -0.1723 -0.4390  0.0344
 2296SOL    HW118347   4.569   1.719   4.221  0.0744 -1.2919 -0.8170
 2296SOL    HW218348   4.515   1.719   4.085 -1.6953 -3.2434  0.3575
 2297SOL     OW18349   2.648   1.473  14.118  0.1094 -0.2701 -0.0712
 2297SOL    HW118350   2.691   1.548  14.159 -0.9617  1.4999 -2.1825
 2297SOL    HW218351   2.688   1.408  14.176 -0.6447 -0.8894 -0.2437
 2298SOL     OW18352   0.726   4.331   4.435 -0.0690 -0.4398  0.0071
 2298SOL    HW118353   0.686   4.366   4.356  0.9848 -1.0628 -0.7865
 2298SOL    HW218354   0.801   4.391   4.434  1.0145 -1.7927 -0.0674
 2299SOL     OW18355   1.292   4.162   4.749  0.2781 -0.1472 -0.6259
 2299SOL    HW118356   1.351   4.087   4.747  1.8646  1.1808 -3.3492
 2299SOL    HW218357   1.211   4.116   4.770  0.1200  0.8370  0.9898
 2300SOL     OW18358   3.267   4.544  12.676  0.1550 -0.2297 -0.0523
 2300SOL    HW118359   3.349   4.562  12.629 -0.4097  0.8058 -0.6533
 2300SOL    HW218360   3.234   4.476  12.618  1.8294  0.3815 -1.7615
 2301SOL     OW18361   1.646   0.308   6.112  0.0232  0.0096  0.0532
 2301SOL    HW118362   1.718   0.369   6.096 -0.1412 -0.0752 -1.0192
 2301SOL    HW218363   1.602   0.327   6.194 -1.0436  0.2276 -0.5683
 2302SOL     OW18364   4.327   2.613   8.936 -0.4782  0.2439 -0.5067
 2302SOL    HW118365   4.277   2.668   8.997  0.2149  0.6096 -0.2618
 2302SOL    HW218366   4.278   2.617   8.854  0.4581  0.0719 -1.0769
 2303SOL     OW18367   3.000   0.142   4.468 -0.3631 -0.1145 -0.3599
 2303SOL    HW118368   2.980   0.049   4.473 -0.6293 -0.0229  0.1676
 2303SOL    HW218369   2.945   0.161   4.391  0.8270 -0.2957 -1.2592
 2304SOL     OW18370   4.465   2.153   0.783  0.2448  0.4617 -0.0550
 2304SOL    HW118371   4.465   2.096   0.860 -2.0709  1.7032  0.8544
 2304SOL    HW218372   4.537   2.117   0.731  0.2933  0.1396  0.2352
 2305SOL     OW18373   2.403   4.027  17.624  0.0647 -0.0896 -0.1458
 2305SOL    HW118374   2.447   4.015  17.540  0.5745  1.8947 -0.1660
 2305SOL    HW218375   2.452   4.096  17.668  0.4464 -0.6046  0.2371
 2306SOL     OW18376   1.405   4.206  13.907 -0.1202 -0.0935  0.5404
 2306SOL    HW118377   1.500   4.189  13.912  0.3666  2.2930 -0.4266
 2306SOL    HW218378   1.387   4.147  13.980 -1.3391 -1.4378 -0.8593
 2307SOL     OW18379   3.822   2.398  13.527  0.0761  0.4092  0.3122
 2307SOL    HW118380   3.728   2.377  13.522  0.1629  0.1855 -0.4481
 2307SOL    HW218381   3.830   2.387  13.622  0.0882  1.4403  0.4282
 2308SOL     OW18382   3.449   1.444  14.915  0.4750 -0.6072 -0.1072
 2308SOL    HW118383   3.455   1.412  15.005  0.5496  0.0187  0.1098
 2308SOL    HW218384   3.540   1.434  14.886  0.9442  0.9748  0.8213
 2309SOL     OW18385   0.119   4.470   8.728 -0.6371  0.0583  0.3354
 2309SOL    HW118386   0.061   4.435   8.795 -0.1578  0.7690  1.1149
 2309SOL    HW218387   0.095   4.435   8.642  0.1612  0.2734  0.0220
 2310SOL     OW18388   2.800   4.323   5.246 -0.8155  0.6846 -0.2760
 2310SOL    HW118389   2.760   4.339   5.160 -0.7368  2.3827  0.0249
 2310SOL    HW218390   2.730   4.281   5.296 -1.4701  0.1988 -1.5809
 2311SOL     OW18391   1.276   0.666   4.735  0.6256 -0.7672 -0.1627
 2311SOL    HW118392   1.372   0.665   4.735  0.6395  0.4300  1.2536
 2311SOL    HW218393   1.260   0.589   4.680  1.5751  0.3054 -1.9096
 2312SOL     OW18394   1.419   2.615   7.388  0.6013 -0.6144 -0.1951
 2312SOL    HW118395   1.359   2.625   7.314  0.2161 -1.1628  0.0399
 2312SOL    HW218396   1.397   2.524   7.406  2.4667 -0.6972  1.6747
 2313SOL     OW18397   2.642   4.001   7.965  0.0896  0.0716 -0.4920
 2313SOL    HW118398   2.547   4.013   7.958 -0.2329 -1.9501  0.6006
 2313SOL    HW218399   2.641   3.906   7.962 -1.9120  0.0753 -0.3476
 2314SOL     OW18400   3.454   1.574   9.069  0.1677 -0.0327 -0.4262
 2314SOL    HW118401   3.410   1.645   9.024  0.2329 -0.5112 -1.2453
 2314SOL    HW218402   3.450   1.502   9.006  3.0508  0.3268 -1.0171
 2315SOL     OW18403   1.108   4.375   8.301 -0.0645 -0.0508  0.4867
 2315SOL    HW118404   1.140   4.401   8.215  2.5715 -1.7103  0.9438
 2315SOL    HW218405   1.094   4.280   8.293  0.4160 -0.0162 -0.7037
 2316SOL     OW18406   3.729   1.753   4.352 -0.5997 -0.7570  0.6111
 2316SOL    HW118407   3.769   1.746   4.265  0.7025 -0.6284  1.2013
 2316SOL    HW218408   3.730   1.848   4.361 -1.1763 -0.6913  0.0139
 2317SOL     OW18409   4.179   2.737   3.474 -0.0040 -0.2484  0.1123
 2317SOL    HW118410   4.166   2.695   3.389  0.2516  0.8892 -0.4932
 2317SOL    HW218411   4.190   2.831   3.458  0.1731  0.0649  2.0871
 2318SOL     OW18412   1.296   1.469   3.142 -0.0890 -0.1814 -0.8726
 2318SOL    HW118413   1.267   1.392   3.190  0.6258 -0.5324 -1.0022
 2318SOL    HW218414   1.369   1.504   3.193 -1.2267  0.3888  0.3648
 2319SOL     OW18415   4.713   2.470   4.507  0.1978  0.0647  0.5066
 2319SOL    HW118416   4.684   2.443   4.420  1.7503 -0.7525  0.2356
 2319SOL    HW218417   0.088   2.450   4.511 -0.1330 -1.2309  1.9414
 2320SOL     OW18418   4.121   0.160  10.566  0.3208 -0.2581  0.0518
 2320SOL    HW118419   4.175   0.237  10.546  0.6706 -0.5942 -0.2995
 2320SOL    HW218420   4.180   0.119  10.628 -1.0222 -2.9310 -0.4349
 2321SOL     OW18421   2.348   1.412  11.843 -0.6345 -0.2071  0.6205
 2321SOL    HW118422   2.388   1.496  11.821  0.0140 -0.2947  1.4485
 2321SOL    HW218423   2.385   1.400  11.930 -1.6719 -0.0269  1.0951
 2322SOL     OW18424   4.294   3.544   2.190 -0.0806 -0.0797 -0.3181
 2322SOL    HW118425   4.330   3.490   2.120 -1.0914 -2.5100  1.0245
 2322SOL    HW218426   4.208   3.503   2.199  0.2301 -1.0293 -1.7393
 2323SOL     OW18427   0.707   3.315   0.807  0.3771  0.3299 -0.4845
 2323SOL    HW118428   0.627   3.315   0.859  0.1088 -0.1648 -0.9073
 2323SOL    HW218429   0.750   3.386   0.855 -0.7795 -0.1730  1.2951
 2324SOL     OW18430   4.400   3.019   5.745 -0.3177 -0.0588 -0.0415
 2324SOL    HW118431   4.422   3.031   5.838 -0.4531 -1.2009  0.1361
 2324SOL    HW218432   4.430   2.929   5.731 -0.4754  0.0847 -1.2506
 2325SOL     OW18433   3.024   4.114   3.243 -0.2599  0.0980  0.4719
 2325SOL    HW118434   2.943   4.071   3.213  1.3250 -1.0765 -2.1911
 2325SOL    HW218435   3.087   4.083   3.177 -3.3519  0.1167 -2.5278
 2326SOL     OW18436   2.818   4.594   7.465  0.2848 -0.3166 -0.0794
 2326SOL    HW118437   2.780   4.621   7.381  2.1304 -0.1769 -0.8655
 2326SOL    HW218438   2.886   4.661   7.475  0.6014 -0.8218  1.1073
 2327SOL     OW18439   1.295   1.172  11.647  0.3109  0.2819 -0.4816
 2327SOL    HW118440   1.281   1.110  11.575 -1.9810 -1.2782  1.3014
 2327SOL    HW218441   1.255   1.252  11.611  2.5554  1.9464  0.7391
 2328SOL     OW18442   0.332   1.535   1.417  0.2235 -0.6713 -0.7842
 2328SOL    HW118443   0.245   1.534   1.377 -0.3322  0.3042  0.4100
 2328SOL    HW218444   0.393   1.550   1.345 -2.4302  3.1858 -2.2246
 2329SOL     OW18445   0.096   0.311   5.577 -0.2855 -0.6268 -0.1697
 2329SOL    HW118446   0.101   0.390   5.523 -0.5359 -1.3475 -1.2249
 2329SOL    HW218447   0.161   0.257   5.532 -0.1572  0.1287 -0.8964
 2330SOL     OW18448   2.830   4.022   1.719 -0.1538 -0.1442 -0.3171
 2330SOL    HW118449   2.835   4.106   1.673 -2.4201  0.6411  0.8533
 2330SOL    HW218450   2.894   4.028   1.790 -0.1959  1.8847 -0.4458
 2331SOL     OW18451   3.459   3.831   2.705  0.1845  0.3372 -0.2545
 2331SOL    HW118452   3.393   3.853   2.639  1.4572 -1.4503 -2.1556
 2331SOL    HW218453   3.411   3.853   2.784 -0.6269  0.8635 -0.8914
 2332SOL     OW18454   2.019   0.344   7.963 -0.2020  0.1701 -0.5692
 2332SOL    HW118455   1.953   0.288   8.006 -0.7154  1.2744  0.0745
 2332SOL    HW218456   2.032   0.295   7.882 -1.4890  0.0993 -0.7353
 2333SOL     OW18457   2.770   3.338   7.644 -0.6758 -0.1220 -0.0165
 2333SOL    HW118458   2.862   3.341   7.671 -0.3850 -3.5661 -0.5728
 2333SOL    HW218459   2.766   3.419   7.594 -2.8367 -0.9801 -1.2532
 2334SOL     OW18460   3.236   3.209  13.454 -0.4394  0.6629  0.1998
 2334SOL    HW118461   3.224   3.151  13.528  1.2198 -0.0598 -0.1013
 2334SOL    HW218462   3.260   3.151  13.382  0.8979  1.6855 -0.1917
 2335SOL     OW18463   0.813   1.138   9.202 -0.4177 -0.1223 -0.0342
 2335SOL    HW118464   0.782   1.052   9.229  1.1112 -0.4673  0.5741
 2335SOL    HW218465   0.868   1.115   9.127  2.4887  3.6972  0.9115
 2336SOL     OW18466   0.445   3.048  10.392  0.1003 -0.9827 -0.2081
 2336SOL    HW118467   0.531   3.073  10.426 -0.5102 -0.1702  0.7462
 2336SOL    HW218468   0.429   3.119  10.330 -0.8397 -0.7579  0.2912
 2337SOL     OW18469   0.379   2.070   6.849  0.2992  0.3526  0.0468
 2337SOL    HW118470   0.313   2.104   6.909 -1.1321  0.4349 -1.5626
 2337SOL    HW218471   0.455   2.069   6.907  0.2729  1.8982  0.1037
 2338SOL     OW18472   0.877   4.579   0.960 -0.0161 -0.3488  0.3517
 2338SOL    HW118473   0.929   4.639   0.906 -0.6297 -0.4776 -0.3828
 2338SOL    HW218474   0.792   4.594   0.918  0.4551  1.2794 -0.0574
 2339SOL     OW18475   2.077   4.530   0.617  0.3123  0.4455  0.6072
 2339SOL    HW118476   2.137   4.510   0.545 -0.2923 -2.0022  0.7796
 2339SOL    HW218477   2.001   4.477   0.593 -1.4964  2.6804  1.4555
 2340SOL     OW18478   1.641   0.685   6.140 -0.2025 -0.2095  0.0754
 2340SOL    HW118479   1.718   0.684   6.197  0.1875 -1.8261 -0.4821
 2340SOL    HW218480   1.683   0.647   6.063 -2.0627 -0.2742 -0.9039
 2341SOL     OW18481   1.478   1.416  15.419  0.6924 -0.0364  0.3100
 2341SOL    HW118482   1.490   1.379  15.332 -0.2653 -2.9194  1.4193
 2341SOL    HW218483   1.471   1.506  15.388 -2.2270 -0.2686  0.2992
 2342SOL     OW18484   3.583   0.098   7.772  0.6391  0.1937 -0.0495
 2342SOL    HW118485   3.542   0.146   7.700 -0.7140 -0.7157  0.1021
 2342SOL    HW218486   3.675   0.124   7.766  0.1710  1.7153 -0.4418
 2343SOL     OW18487   1.255   2.281   3.441  0.0111  0.0920 -0.2393
 2343SOL    HW118488   1.205   2.227   3.380 -0.3166  0.6099 -0.4269
 2343SOL    HW218489   1.183   2.330   3.481 -2.0693 -0.9424 -2.7092
 2344SOL     OW18490   1.516   2.223  10.378 -0.0760 -0.3634  0.2478
 2344SOL    HW118491   1.513   2.197  10.286  1.1712  0.9548 -0.1634
 2344SOL    HW218492   1.512   2.318  10.376  2.9927 -0.2682 -1.0915
 2345SOL     OW18493   2.599   1.872   8.605  0.2193 -0.0839  0.0146
 2345SOL    HW118494   2.682   1.884   8.558  0.6517 -0.0612  0.7824
 2345SOL    HW218495   2.628   1.812   8.675 -0.6400 -0.1917  0.2733
 2346SOL     OW18496   3.672   1.602   3.885 -0.7952  0.3421 -0.1028
 2346SOL    HW118497   3.688   1.553   3.965  0.6871 -1.7880 -1.6944
 2346SOL    HW218498   3.577   1.613   3.873 -0.8326  1.3569  1.1998
 2347SOL     OW18499   0.561   1.244  10.087 -0.4097 -0.0929  0.2439
 2347SOL    HW118500   0.656   1.230  10.089 -0.0727  2.0898 -0.4827
 2347SOL    HW218501   0.557   1.339  10.097  2.3919  0.0908 -0.2046
 2348SOL     OW18502   2.013   2.625   8.515  0.2845 -0.4250  0.1028
 2348SOL    HW118503   1.979   2.586   8.596  0.2554  2.4121  1.4294
 2348SOL    HW218504   1.966   2.708   8.518 -0.9414 -1.0565 -1.5940
 2349SOL     OW18505   0.316   3.600   5.194 -0.0248  0.2895  0.1958
 2349SOL    HW118506   0.242   3.544   5.170  0.5461 -0.0460 -0.7997
 2349SOL    HW218507   0.280   3.683   5.163  1.2121  1.4537  1.9302
 2350SOL     OW18508   3.374   1.790   9.997 -0.4245  0.6181 -0.4479
 2350SOL    HW118509   3.409   1.860   9.943  0.1110  2.0892  1.7844
 2350SOL    HW218510   3.445   1.726   9.993  1.3688  2.4631  1.8780
 2351SOL     OW18511   2.940   2.495   6.541  0.1699 -0.8833  0.0742
 2351SOL    HW118512   3.011   2.519   6.482  2.6192 -1.1410  2.8946
 2351SOL    HW218513   2.866   2.501   6.481 -1.0157 -1.1201  1.5023
 2352SOL     OW18514   1.924   0.978  10.982  0.5318  0.2595 -0.2443
 2352SOL    HW118515   2.000   1.031  10.959  0.6489 -0.1311 -0.7460
 2352SOL    HW218516   1.965   0.916  11.043 -1.1882 -0.4324  0.2147
 2353SOL     OW18517   4.130   2.261   8.688 -0.0032 -0.1492 -0.0237
 2353SOL    HW118518   4.128   2.274   8.782 -3.0334  0.0636 -0.1024
 2353SOL    HW218519   4.169   2.173   8.692  2.1725  0.8855  1.0721
 2354SOL     OW18520   0.944   2.313   5.838 -0.1354 -0.0324  0.6947
 2354SOL    HW118521   1.013   2.377   5.819  0.1672 -0.3967  0.5653
 2354SOL    HW218522   0.998   2.234   5.829 -1.1005 -0.5278 -0.7963
 2355SOL     OW18523   3.231   2.063  16.700  0.3605  0.3977  0.1879
 2355SOL    HW118524   3.303   2.124  16.717  0.3620 -0.3321  2.8033
 2355SOL    HW218525   3.159   2.118  16.669  2.4229  3.3131  0.5927
 2356SOL     OW18526   3.299   4.582  11.609  0.2065  0.4232 -0.7050
 2356SOL    HW118527   3.282   4.579  11.515  1.3849 -0.0977 -0.9029
 2356SOL    HW218528   3.323   4.674  11.619  2.7677 -0.3290  0.1574
 2357SOL     OW18529   2.809   1.857   5.770 -0.5217  0.3068  0.0047
 2357SOL    HW118530   2.811   1.946   5.733 -1.6724  0.9114  1.4125
 2357SOL    HW218531   2.746   1.817   5.710 -2.3495  2.5681  0.4099
 2358SOL     OW18532   2.773   4.433   9.267  0.0153  0.1285 -0.4782
 2358SOL    HW118533   2.770   4.349   9.220  0.4586 -0.5456  0.6903
 2358SOL    HW218534   2.692   4.475   9.237  0.5674  0.8584 -0.9271
 2359SOL     OW18535   1.101   3.306   2.056 -0.3392  0.4303  0.5258
 2359SOL    HW118536   1.148   3.334   2.135  0.5411  0.5160 -0.0344
 2359SOL    HW218537   1.172   3.302   1.992 -1.2861  1.1882 -0.5824
 2360SOL     OW18538   0.446   0.161   3.815  0.1675 -0.4971  1.1474
 2360SOL    HW118539   0.474   0.110   3.891 -1.4783 -0.2006  1.9548
 2360SOL    HW218540   0.358   0.172   3.851  1.2487  1.5683  3.1250
 2361SOL     OW18541   4.616   4.114  16.050  0.1957 -0.5167  0.1978
 2361SOL    HW118542   4.529   4.081  16.072  0.6058 -0.6216  1.6254
 2361SOL    HW218543   4.642   4.183  16.111  1.6460 -1.6824  0.8771
 2362SOL     OW18544   2.143   0.878   2.953 -0.1560  0.6933 -0.5072
 2362SOL    HW118545   2.063   0.927   2.973  1.0718  1.1296  3.3781
 2362SOL    HW218546   2.145   0.810   3.020  1.3708  1.4851  0.2499
 2363SOL     OW18547   1.699   0.270  16.919 -0.0715  0.6430 -0.4850
 2363SOL    HW118548   1.668   0.314  16.998 -0.5358 -0.9058  0.1864
 2363SOL    HW218549   1.691   0.342  16.857 -0.5448 -0.0202 -1.1964
 2364SOL     OW18550   3.252   3.060  16.474 -0.0628  0.0210 -0.1501
 2364SOL    HW118551   3.206   3.052  16.558  0.1536  1.3922  0.0989
 2364SOL    HW218552   3.343   3.033  16.491 -0.3382 -1.0262 -0.3989
 2365SOL     OW18553   4.700   4.493  13.437 -0.1256 -0.1937  0.0154
 2365SOL    HW118554   4.650   4.474  13.357  0.3827 -1.8343  0.0878
 2365SOL    HW218555   0.013   4.579  13.409  0.7940 -0.7954 -0.8091
 2366SOL     OW18556   2.779   4.374  13.299 -0.5384  0.6631 -0.2449
 2366SOL    HW118557   2.699   4.427  13.305  0.4581  2.1534 -0.0437
 2366SOL    HW218558   2.788   4.339  13.387  0.9808  0.3409 -0.5352
 2367SOL     OW18559   1.758   2.907   7.757 -0.1268 -0.5826 -0.3595
 2367SOL    HW118560   1.834   2.959   7.731  0.3284 -1.2217 -0.3096
 2367SOL    HW218561   1.704   2.971   7.803  2.4502  2.0866 -1.0903
 2368SOL     OW18562   2.865   2.315   8.627 -0.3039  0.4960  0.7512
 2368SOL    HW118563   2.805   2.377   8.584 -0.6795  0.3667  1.0940
 2368SOL    HW218564   2.938   2.372   8.652  0.0474  0.4496 -0.1421
 2369SOL     OW18565   0.163   1.029   3.732 -0.1718 -0.6610  0.3294
 2369SOL    HW118566   0.203   0.989   3.655  2.1274 -1.7503  2.0572
 2369SOL    HW218567   0.139   1.118   3.704 -2.8071 -1.1457  1.0675
 2370SOL     OW18568   3.965   4.377   8.984 -0.2990 -0.0372 -0.1491
 2370SOL    HW118569   3.988   4.286   9.001 -0.7185  0.4584  3.0643
 2370SOL    HW218570   4.051   4.416   8.967 -0.6751  0.5617 -0.6655
 2371SOL     OW18571   4.226   3.756   7.098  0.0906  0.1563 -0.0193
 2371SOL    HW118572   4.217   3.770   7.192  0.6622  2.4235 -0.3097
 2371SOL    HW218573   4.318   3.727   7.097  0.0088 -0.0736 -1.3538
 2372SOL     OW18574   0.284   1.158   2.280  0.1232  0.1212  0.2509
 2372SOL    HW118575   0.237   1.136   2.361  0.2306 -0.4131  0.1733
 2372SOL    HW218576   0.368   1.181   2.319  1.4690 -0.8432 -2.0865
 2373SOL     OW18577   4.228   2.837   9.053 -0.1575  0.7935  0.1831
 2373SOL    HW118578   4.174   2.856   8.976  1.5183 -0.5865 -1.3049
 2373SOL    HW218579   4.296   2.904   9.050  1.7118 -1.1467 -0.6057
 2374SOL     OW18580   0.042   3.196   5.219 -0.1178 -0.2819 -0.2850
 2374SOL    HW118581   0.103   3.143   5.270  1.1836 -0.5491 -2.1093
 2374SOL    HW218582   0.079   3.196   5.131 -0.3656 -0.0665 -0.3893
 2375SOL     OW18583   4.426   0.295  16.220 -0.5037  0.0615 -0.3682
 2375SOL    HW118584   4.388   0.380  16.242 -0.9845  0.2596 -1.9859
 2375SOL    HW218585   4.412   0.291  16.125 -2.7968 -0.2018 -0.0067
 2376SOL     OW18586   1.104   3.134   2.324  0.0154 -0.2139  0.2318
 2376SOL    HW118587   1.134   3.086   2.246  2.0143  0.1493  0.7696
 2376SOL    HW218588   1.039   3.073   2.358 -1.3343  1.7693  1.1508
 2377SOL     OW18589   2.500   4.513   3.368 -0.1780 -0.0277 -0.0741
 2377SOL    HW118590   2.565   4.472   3.426 -0.2413 -0.8729 -0.6001
 2377SOL    HW218591   2.422   4.458   3.370 -0.8035  0.8716  0.3859
 2378SOL     OW18592   2.306   4.692   3.879 -0.0522  0.5923  0.1846
 2378SOL    HW118593   2.224   4.704   3.927 -0.6534  1.4347 -1.0452
 2378SOL    HW218594   2.284   4.626   3.814 -0.8442  2.0428 -1.0327
 2379SOL     OW18595   0.578   4.101   8.359  1.2327  0.1015  0.8827
 2379SOL    HW118596   0.593   4.082   8.452 -0.2304  1.0953  1.3295
 2379SOL    HW218597   0.487   4.128   8.375  1.4184  0.9118  0.6126
 2380SOL     OW18598   2.333   1.577  11.478  0.4885 -0.1973  0.5036
 2380SOL    HW118599   2.383   1.658  11.476 -0.5913  0.4586  0.1263
 2380SOL    HW218600   2.375   1.534  11.553 -0.8962 -0.2449  1.2507
 2381SOL     OW18601   0.779   1.723   7.516 -0.2109 -0.2791  0.5103
 2381SOL    HW118602   0.721   1.671   7.460  2.4170 -0.0100 -2.4979
 2381SOL    HW218603   0.743   1.706   7.602 -0.7280  0.0635  0.3604
 2382SOL     OW18604   4.129   2.487  15.010 -0.7229  0.1354  0.3360
 2382SOL    HW118605   4.200   2.496  14.947 -0.1892  1.2206  1.1080
 2382SOL    HW218606   4.121   2.567  15.062  1.2725  1.4317 -1.3741
 2383SOL     OW18607   3.795   0.672   2.266 -0.6039  0.3547 -0.2779
 2383SOL    HW118608   3.817   0.612   2.195  1.2406  1.8126 -0.9484
 2383SOL    HW218609   3.709   0.639   2.293 -0.6534  1.2223  0.6146
 2384SOL     OW18610   0.926   4.497   4.731 -0.2906  0.1854 -0.3708
 2384SOL    HW118611   0.918   4.410   4.691 -0.1910  0.9447 -2.0398
 2384SOL    HW218612   1.005   4.486   4.784 -0.3106  1.1870 -0.1346
 2385SOL     OW18613   3.782   2.743   1.912 -0.3259  0.0368  0.3327
 2385SOL    HW118614   3.833   2.824   1.915 -0.6403  0.2079  0.9456
 2385SOL    HW218615   3.765   2.743   1.818 -2.0156 -0.9181  0.6406
 2386SOL     OW18616   1.508   4.256   2.432 -0.1635  0.1247  0.0971
 2386SOL    HW118617   1.533   4.173   2.393 -1.9750 -0.3532 -0.0871
 2386SOL    HW218618   1.575   4.293   2.488  1.5701 -1.2186 -1.1013
 2387SOL     OW18619   0.981   0.678   7.515 -0.2068  0.2770 -0.3529
 2387SOL    HW118620   1.015   0.691   7.427  2.5901 -1.5002  0.4858
 2387SOL    HW218621   1.013   0.591   7.539  0.1901  0.1339 -1.4020
 2388SOL     OW18622   1.997   4.439   2.339  0.1404  0.0441  0.7449
 2388SOL    HW118623   1.909   4.415   2.367  1.3065 -3.3326  1.5003
 2388SOL    HW218624   2.007   4.532   2.358 -3.1008 -0.1704  3.3859
 2389SOL     OW18625   4.104   0.038  10.933 -0.4027  0.1707  0.2564
 2389SOL    HW118626   4.177   0.037  10.871 -0.4312  2.1046  0.1738
 2389SOL    HW218627   4.145   0.071  11.013 -1.6461  2.0594  0.1196
 2390SOL     OW18628   3.316   1.886   4.795 -0.4513 -0.0838 -0.6019
 2390SOL    HW118629   3.251   1.893   4.866  0.3141 -0.0207  0.0972
 2390SOL    HW218630   3.399   1.918   4.830  0.9994 -2.4314 -1.9248
 2391SOL     OW18631   3.434   0.020   2.080  0.2929 -0.6234 -0.2320
 2391SOL    HW118632   3.387   0.001   2.161  0.9552 -0.6617  0.1495
 2391SOL    HW218633   3.388   4.689   2.013 -2.5230  0.8255  0.6130
 2392SOL     OW18634   4.507   4.486   7.906  0.3201  0.1234  0.1174
 2392SOL    HW118635   4.429   4.458   7.860 -1.5503  1.9972  2.1459
 2392SOL    HW218636   4.519   4.406   7.957 -0.2325  0.3667  0.6307
 2393SOL     OW18637   0.338   3.183   3.962  0.1352  0.5432 -0.1678
 2393SOL    HW118638   0.366   3.098   3.929  1.2785  0.6170  0.6226
 2393SOL    HW218639   0.244   3.166   3.967 -0.0959  1.0952 -2.4430
 2394SOL     OW18640   0.523   3.651  10.902  0.2162  0.6350  0.4250
 2394SOL    HW118641   0.454   3.702  10.944 -0.0901 -0.0913  0.7860
 2394SOL    HW218642   0.486   3.605  10.827  1.6170 -0.9158  0.6938
 2395SOL     OW18643   0.022   1.821   5.411  0.2577 -0.0290  0.5105
 2395SOL    HW118644   0.019   1.726   5.400  1.0510  0.1714 -1.3449
 2395SOL    HW218645   4.655   1.829   5.454  1.1846  2.2954  1.9329
 2396SOL     OW18646   2.713   3.950   2.955  0.1540 -0.4186  0.7084
 2396SOL    HW118647   2.680   3.994   2.876  0.8630 -0.8040  0.1942
 2396SOL    HW218648   2.736   3.863   2.922  4.1183  0.0749  2.1823
 2397SOL     OW18649   2.967   3.664   4.735 -0.2629 -0.3899 -0.1620
 2397SOL    HW118650   2.879   3.630   4.719  0.5080 -1.6593 -1.6693
 2397SOL    HW218651   2.976   3.640   4.827  2.8367 -1.9660 -0.8653
 2398SOL     OW18652   1.067   3.102   8.333  0.2106  0.1032 -0.0785
 2398SOL    HW118653   1.128   3.105   8.260  0.7169  0.6982  0.3664
 2398SOL    HW218654   0.992   3.146   8.293  0.1124  0.4219  0.4560
 2399SOL     OW18655   3.287   1.744  13.287  0.2428  0.3995  0.8252
 2399SOL    HW118656   3.224   1.674  13.300  0.3011 -0.1542 -1.9783
 2399SOL    HW218657   3.249   1.786  13.210  0.6144  1.8483  1.4270
 2400SOL     OW18658   2.027   4.120  12.617 -0.1281  0.4745  0.6222
 2400SOL    HW118659   2.043   4.132  12.524  0.5389 -0.1704  0.6523
 2400SOL    HW218660   2.091   4.049  12.622 -1.7058 -0.9934 -0.0111
 2401SOL     OW18661   1.908   0.460   6.307  0.0587  0.4519 -0.0827
 2401SOL    HW118662   1.911   0.395   6.377 -3.9404  1.6994  1.2235
 2401SOL    HW218663   1.821   0.496   6.322  0.1149 -0.0502  1.4130
 2402SOL     OW18664   0.133   0.426   3.029  0.3245 -0.3798 -0.0279
 2402SOL    HW118665   0.069   0.494   3.047  1.3152  0.0011  2.0047
 2402SOL    HW218666   0.160   0.443   2.939  0.4597 -2.7765 -0.4482
 2403SOL     OW18667   0.511   4.398   7.285 -0.4409  0.2370 -0.0910
 2403SOL    HW118668   0.453   4.338   7.332 -1.7919 -1.0984 -3.4458
 2403SOL    HW218669   0.599   4.388   7.322  0.3162  2.4939 -1.2949
 2404SOL     OW18670   1.162   2.624   7.696  0.4975 -0.4300  0.8496
 2404SOL    HW118671   1.141   2.560   7.628  1.1840 -0.6326  0.8257
 2404SOL    HW218672   1.214   2.576   7.760  1.9590 -0.5312 -0.4306
 2405SOL     OW18673   1.145   1.087   3.514 -0.5706  0.0689  0.2124
 2405SOL    HW118674   1.233   1.060   3.542  0.0396 -0.2307 -1.9325
 2405SOL    HW218675   1.101   1.003   3.503 -1.0445  0.5608 -1.7890
 2406SOL     OW18676   2.773   3.855  14.044  0.5444  0.5151 -0.1080
 2406SOL    HW118677   2.790   3.796  14.117  1.9393  0.8081 -0.1883
 2406SOL    HW218678   2.827   3.929  14.075  0.5097 -0.2263  1.7440
 2407SOL     OW18679   3.564   2.049  11.727 -0.1969  0.1920 -0.1154
 2407SOL    HW118680   3.626   2.082  11.662  1.9274 -0.9613  1.3356
 2407SOL    HW218681   3.617   2.059  11.806 -0.6711 -0.6110  0.2947
 2408SOL     OW18682   1.700   0.649   0.714 -0.1029 -0.2786  0.6005
 2408SOL    HW118683   1.697   0.556   0.694  0.5226  0.5614 -3.4783
 2408SOL    HW218684   1.736   0.684   0.632 -0.5382 -1.4278 -0.0762
 2409SOL     OW18685   1.942   0.416  17.013  0.3496  0.3305  0.0363
 2409SOL    HW118686   1.860   0.424  17.062 -1.1173 -0.4972 -2.2938
 2409SOL    HW218687   1.977   0.504  17.028 -0.4890  0.2193  2.7006
 2410SOL     OW18688   2.856   2.649  16.512  0.0201 -0.5020 -0.5944
 2410SOL    HW118689   2.904   2.594  16.574 -1.0924  1.9953  2.4839
 2410SOL    HW218690   2.910   2.639  16.434  0.0374 -0.5670 -0.5732
 2411SOL     OW18691   2.485   1.318   5.770  0.3469 -0.0720 -0.1618
 2411SOL    HW118692   2.515   1.241   5.817 -1.4438 -2.5917 -3.1656
 2411SOL    HW218693   2.440   1.360   5.843 -0.5895  2.5933 -2.2406
 2412SOL     OW18694   1.550   0.543  12.535  0.4106 -0.0301 -0.4994
 2412SOL    HW118695   1.464   0.583  12.544  1.0767  1.2477  0.1525
 2412SOL    HW218696   1.601   0.610  12.580 -0.6096 -0.0634  0.7165
 2413SOL     OW18697   0.315   3.000   2.381 -0.0016 -0.1594  0.0771
 2413SOL    HW118698   0.235   3.030   2.423  0.5002  1.1552  0.0782
 2413SOL    HW218699   0.375   3.067   2.411 -0.1969 -0.2655  0.6994
 2414SOL     OW18700   1.634   2.509  17.442 -0.4608  0.4786  0.5080
 2414SOL    HW118701   1.641   2.585  17.384  2.5989 -1.5950 -1.8234
 2414SOL    HW218702   1.729   2.497  17.447 -0.6553 -0.5852  1.5207
 2415SOL     OW18703   4.148   1.904   5.922  0.2395 -0.0123  0.4241
 2415SOL    HW118704   4.079   1.945   5.870 -0.2544 -0.1414  0.9777
 2415SOL    HW218705   4.117   1.816   5.943  3.1492 -1.7959 -2.6308
 2416SOL     OW18706   1.487   4.535   4.952  0.2803 -0.3743  0.9202
 2416SOL    HW118707   1.462   4.625   4.931  0.8023 -0.4247  0.0880
 2416SOL    HW218708   1.558   4.527   4.888  0.0732  1.1250  0.4988
 2417SOL     OW18709   4.154   2.218  15.083 -0.0096  0.1353 -0.0386
 2417SOL    HW118710   4.250   2.217  15.086 -0.0181 -1.2258 -0.5416
 2417SOL    HW218711   4.130   2.311  15.089 -0.7255  0.0742 -2.1031
 2418SOL     OW18712   0.422   3.620   2.881  0.0389  0.6383 -0.0276
 2418SOL    HW118713   0.473   3.686   2.833 -1.9700  0.4880 -2.3851
 2418SOL    HW218714   0.381   3.570   2.810 -0.7446 -0.1279  0.9632
 2419SOL     OW18715   3.250   4.123   0.505 -0.1406  0.1126  0.2945
 2419SOL    HW118716   3.182   4.058   0.517 -0.8274  0.5589 -1.2348
 2419SOL    HW218717   3.205   4.206   0.519 -0.2580 -0.0340  0.7870
 2420SOL     OW18718   1.123   1.954   9.173  0.0044 -0.5611 -0.4744
 2420SOL    HW118719   1.154   2.043   9.155 -0.0272 -0.8390 -1.8969
 2420SOL    HW218720   1.067   1.970   9.249  3.0547 -1.0450  1.8798
 2421SOL     OW18721   3.085   4.185  10.786 -0.2219 -0.0720 -0.2605
 2421SOL    HW118722   2.996   4.218  10.789 -0.5242 -0.8558 -0.6048
 2421SOL    HW218723   3.113   4.184  10.878 -1.4191 -3.0868  0.0938
 2422SOL     OW18724   3.449   3.030   5.175  0.1298  0.6908  0.0657
 2422SOL    HW118725   3.434   3.071   5.261  2.1710 -0.2584  0.8839
 2422SOL    HW218726   3.375   2.971   5.161 -0.8741  1.4826  1.9587
 2423SOL     OW18727   0.576   0.724  17.135  0.2310 -0.1127 -0.1362
 2423SOL    HW118728   0.630   0.715  17.214  0.7742  0.3941 -0.4603
 2423SOL    HW218729   0.493   0.687  17.166  1.1252 -2.4801 -0.5286
 2424SOL     OW18730   0.768   0.026  10.355  0.0124 -0.2320  0.0812
 2424SOL    HW118731   0.751   0.066  10.270  1.5795 -0.0588 -0.1501
 2424SOL    HW218732   0.860   0.006  10.334 -0.6524 -1.6649 -1.4279
 2425SOL     OW18733   3.192   0.548   7.420 -0.6053  0.1913  0.3581
 2425SOL    HW118734   3.173   0.519   7.509  3.0531 -0.8748  0.7924
 2425SOL    HW218735   3.112   0.519   7.375 -0.3662 -3.0272  2.0332
 2426SOL     OW18736   2.236   0.037  17.569  0.5370 -0.2170 -0.1980
 2426SOL    HW118737   2.322   0.057  17.606  1.1314  0.6408 -2.0720
 2426SOL    HW218738   2.212   0.120  17.528  0.4622 -0.8614 -1.4608
 2427SOL     OW18739   3.844   0.029   5.987  0.2257  0.1860 -0.3792
 2427SOL    HW118740   3.838   0.118   6.022 -0.7116 -0.7408  1.8206
 2427SOL    HW218741   3.932   0.039   5.953  1.0638 -1.1265  1.3751
 2428SOL     OW18742   0.650   2.086  12.176  0.3110  0.1036 -0.4533
 2428SOL    HW118743   0.646   2.036  12.095  0.5987  2.1117 -1.7164
 2428SOL    HW218744   0.590   2.041  12.236 -1.1452  0.3711 -1.6956
 2429SOL     OW18745   3.902   0.704  16.645 -0.2705  0.5132 -0.0104
 2429SOL    HW118746   3.861   0.745  16.569 -2.6842 -3.8467 -1.0257
 2429SOL    HW218747   3.934   0.779  16.696  0.1665  1.2817 -1.4179
 2430SOL     OW18748   1.637   2.687   9.131  0.9600  0.3782  0.1395
 2430SOL    HW118749   1.658   2.660   9.041  0.2629  2.7080 -0.7124
 2430SOL    HW218750   1.613   2.780   9.132  1.0113  0.3949 -0.2332
 2431SOL     OW18751   4.335   4.606   6.736  0.0861 -0.1402  0.4916
 2431SOL    HW118752   4.253   4.590   6.784 -0.6586 -0.1989 -0.7873
 2431SOL    HW218753   4.292   4.649   6.662  1.8319 -1.0669 -1.0609
 2432SOL     OW18754   1.026   2.329   9.281  0.3209  0.5340  0.1338
 2432SOL    HW118755   0.998   2.339   9.190  1.1820 -3.3287 -0.5496
 2432SOL    HW218756   1.110   2.374   9.274  1.2642 -1.3131 -0.6138
 2433SOL     OW18757   0.017   0.986   0.643 -0.7983  0.3409 -0.0706
 2433SOL    HW118758   0.043   1.071   0.678 -1.3577 -0.4205  2.1959
 2433SOL    HW218759   0.077   0.990   0.568  0.2463  1.0246  0.7963
 2434SOL     OW18760   1.579   0.360   5.266  0.4805 -0.3650 -0.1294
 2434SOL    HW118761   1.673   0.357   5.249  0.1831 -2.4787 -1.5169
 2434SOL    HW218762   1.578   0.292   5.333  1.3078 -0.5655 -0.3204
 2435SOL     OW18763   2.564   3.006  10.556  0.1334 -0.0026 -0.0345
 2435SOL    HW118764   2.518   2.994  10.473 -2.1086 -2.9498  1.6279
 2435SOL    HW218765   2.577   2.913  10.575  1.0503 -0.1469 -1.3562
 2436SOL     OW18766   1.647   2.363  16.648 -0.1086  0.0004 -0.3830
 2436SOL    HW118767   1.699   2.419  16.591 -0.1620  2.0817  1.6283
 2436SOL    HW218768   1.593   2.430  16.690  0.2197  0.4834 -0.7431
 2437SOL     OW18769   1.381   3.590  13.768  0.1157 -0.6554 -0.0260
 2437SOL    HW118770   1.450   3.529  13.746 -1.2368 -3.1910  2.7537
 2437SOL    HW218771   1.426   3.675  13.767 -3.3267  1.2020  0.7603
 2438SOL     OW18772   2.492   3.226  17.440  0.0004 -0.0795  0.4893
 2438SOL    HW118773   2.512   3.172  17.516  2.4273 -0.3266 -0.3263
 2438SOL    HW218774   2.444   3.163  17.387  0.1315  0.8861 -0.8017
 2439SOL     OW18775   0.685   4.556   5.563  0.5110 -0.0381  0.4125
 2439SOL    HW118776   0.611   4.617   5.555  0.2915 -0.0759  2.1359
 2439SOL    HW218777   0.656   4.466   5.552 -1.3431  0.7846 -1.6119
 2440SOL     OW18778   3.374   2.366   5.164 -0.3588  0.4775 -0.5159
 2440SOL    HW118779   3.416   2.394   5.082 -1.4055 -1.6603 -1.7810
 2440SOL    HW218780   3.448   2.331   5.213 -1.9457 -1.0778  0.7483
 2441SOL     OW18781   3.948   3.616   6.515 -0.4232 -0.4213 -0.1858
 2441SOL    HW118782   3.999   3.621   6.596  0.2097  2.3428 -0.7471
 2441SOL    HW218783   3.867   3.589   6.558 -0.8887  2.4226  0.6732
 2442SOL     OW18784   2.441   1.571   5.684  0.5640  0.0584 -0.1445
 2442SOL    HW118785   2.496   1.495   5.702  0.0715 -1.0275 -3.1308
 2442SOL    HW218786   2.397   1.556   5.600 -0.4206 -1.2177  0.6004
 2443SOL     OW18787   2.112   4.504   6.823 -0.6610  0.3066 -0.0334
 2443SOL    HW118788   2.079   4.579   6.774  2.6511  1.2412 -0.8574
 2443SOL    HW218789   2.036   4.472   6.871 -1.2886  2.8368  0.6316
 2444SOL     OW18790   2.165   3.866  10.894 -0.7308  0.0936 -0.1818
 2444SOL    HW118791   2.159   3.865  10.798  0.4524  1.4272 -0.2655
 2444SOL    HW218792   2.238   3.807  10.913 -2.1989 -1.7568 -0.3508
 2445SOL     OW18793   2.584   1.829  12.585 -0.1048  0.0327  0.2413
 2445SOL    HW118794   2.661   1.787  12.547  0.5007  1.2883  0.0848
 2445SOL    HW218795   2.524   1.848  12.512 -0.1549 -3.6943 -0.6845
 2446SOL     OW18796   0.109   4.407   7.292  0.1041 -0.0658  0.1130
 2446SOL    HW118797   0.113   4.441   7.381  3.6707  0.3927 -0.2362
 2446SOL    HW218798   0.163   4.467   7.241 -0.3494 -0.9920 -1.4729
 2447SOL     OW18799   0.387   1.553  13.367  0.5606 -0.1541  0.1013
 2447SOL    HW118800   0.430   1.596  13.441 -0.7483 -0.1925  0.8870
 2447SOL    HW218801   0.374   1.635  13.318 -1.5922 -1.2357 -1.1472
 2448SOL     OW18802   2.474   0.452   8.136  0.1800 -0.7342 -0.0092
 2448SOL    HW118803   2.459   0.360   8.116 -3.2501 -0.3171  0.6485
 2448SOL    HW218804   2.398   0.494   8.097  0.3184  1.5620  2.1458
 2449SOL     OW18805   2.331   1.396   7.692 -0.0866  0.2632  0.2769
 2449SOL    HW118806   2.402   1.447   7.731  0.1554  1.1236 -1.2834
 2449SOL    HW218807   2.253   1.443   7.722 -1.1127 -1.4945  0.3237
 2450SOL     OW18808   1.189   0.973   6.450 -0.6249 -0.6427  0.3471
 2450SOL    HW118809   1.226   0.929   6.373 -0.1648 -1.1066  0.8306
 2450SOL    HW218810   1.260   1.016   6.497 -0.0086 -0.6051 -0.6277
 2451SOL     OW18811   4.088   1.598   9.590  0.3891 -0.3072 -0.1335
 2451SOL    HW118812   4.139   1.528   9.630  0.9520  0.2905  0.2078
 2451SOL    HW218813   4.031   1.634   9.657  1.6148  0.4977  0.4912
 2452SOL     OW18814   2.240   0.206   9.767 -0.1773 -0.1727  0.3976
 2452SOL    HW118815   2.328   0.243   9.758 -0.4848  1.1503  2.7775
 2452SOL    HW218816   2.231   0.244   9.855  0.6178 -1.8984  1.2219
 2453SOL     OW18817   2.117   1.591   8.850  0.4800  0.1601 -0.3428
 2453SOL    HW118818   2.121   1.569   8.757  1.2347 -1.2543  0.0272
 2453SOL    HW218819   2.171   1.670   8.849  0.7792 -0.0642 -2.2019
 2454SOL     OW18820   2.210   1.409   2.874 -0.0187 -0.3186 -0.7078
 2454SOL    HW118821   2.180   1.484   2.926 -0.0163 -2.1601  1.9425
 2454SOL    HW218822   2.293   1.438   2.835  0.3696  3.0576  2.6179
 2455SOL     OW18823   3.905   0.596  11.200 -0.5960 -0.0961 -0.1128
 2455SOL    HW118824   3.930   0.565  11.287 -0.7618  2.8661  0.9965
 2455SOL    HW218825   3.986   0.587  11.150 -1.5412 -2.4546 -1.1940
 2456SOL     OW18826   1.008   1.688   6.219 -0.5086  0.5733  0.0256
 2456SOL    HW118827   0.925   1.674   6.265  0.1486  0.8116  1.2790
 2456SOL    HW218828   0.987   1.696   6.126 -0.5524 -0.7917 -0.0753
 2457SOL     OW18829   2.636   2.347   3.828  0.4167 -0.0562  0.5332
 2457SOL    HW118830   2.717   2.376   3.870  0.9633 -1.1733  0.2496
 2457SOL    HW218831   2.624   2.416   3.764 -0.5525 -0.5330  0.2020
 2458SOL     OW18832   0.815   2.798   7.201  0.2236  0.1042  0.1353
 2458SOL    HW118833   0.794   2.853   7.125  1.7368  0.0585 -0.3112
 2458SOL    HW218834   0.779   2.713   7.175 -2.9206  0.9237  1.7841
 2459SOL     OW18835   1.879   3.544   1.185  0.0025  0.0047  0.3111
 2459SOL    HW118836   1.811   3.575   1.246 -0.1367  2.0192 -0.8680
 2459SOL    HW218837   1.823   3.500   1.122 -1.3999  1.4330  0.5340
 2460SOL     OW18838   0.799   4.585  17.119 -0.3962 -0.0582 -0.2114
 2460SOL    HW118839   0.874   4.631  17.157 -0.5597 -0.1597  0.2398
 2460SOL    HW218840   0.744   4.655  17.084 -0.9048  0.2436  1.1797
 2461SOL     OW18841   2.791   0.481   5.602  0.3026  0.1284  0.1311
 2461SOL    HW118842   2.772   0.440   5.686 -3.0201 -0.8082 -1.0939
 2461SOL    HW218843   2.885   0.464   5.597  0.5130  1.8217 -2.0901
 2462SOL     OW18844   1.472   1.734   4.735  0.4586 -0.2683  0.4758
 2462SOL    HW118845   1.403   1.691   4.786 -0.3128  0.6146  0.1956
 2462SOL    HW218846   1.531   1.748   4.808 -0.0545  1.8018  0.5115
 2463SOL     OW18847   4.129   3.957   4.484  0.1055  0.1641  0.1730
 2463SOL    HW118848   4.080   3.882   4.450  0.4783 -0.8508  1.8649
 2463SOL    HW218849   4.063   3.992   4.543  1.1348  2.1990  0.1231
 2464SOL     OW18850   1.337   1.245  16.177  0.2910  0.1959 -0.3122
 2464SOL    HW118851   1.428   1.263  16.155  0.7885 -1.0635  0.7230
 2464SOL    HW218852   1.325   1.307  16.249 -2.7621  0.6856 -1.2384
 2465SOL     OW18853   4.635   0.051   4.994  0.4571  0.0394  0.5482
 2465SOL    HW118854   4.645   0.141   5.024  0.6639 -0.2763  1.4427
 2465SOL    HW218855   4.667   0.065   4.905 -1.1324  2.4688  0.3550
 2466SOL     OW18856   2.879   2.382   8.996  0.4803 -0.6390  0.5758
 2466SOL    HW118857   2.964   2.345   8.971 -0.2483 -1.2498 -0.9866
 2466SOL    HW218858   2.842   2.307   9.044 -0.0440  0.3506  1.7179
 2467SOL     OW18859   0.524   1.623  16.999 -0.5662 -0.1392 -0.0900
 2467SOL    HW118860   0.587   1.584  16.939 -0.8031  1.7457 -1.5510
 2467SOL    HW218861   0.575   1.694  17.038  0.5494  0.4436 -2.6131
 2468SOL     OW18862   2.666   2.854  15.356 -0.7569  0.0276 -0.8721
 2468SOL    HW118863   2.757   2.856  15.326 -0.3642 -0.3329  0.2915
 2468SOL    HW218864   2.640   2.766  15.326 -0.6342  0.4439 -2.1940
 2469SOL     OW18865   4.478   2.166   3.409  0.8609  0.0806 -0.1599
 2469SOL    HW118866   4.449   2.246   3.454 -1.8950 -2.1364  2.0356
 2469SOL    HW218867   4.416   2.164   3.336 -0.0340  0.0505  0.5948
 2470SOL     OW18868   4.240   3.400   2.516  0.2987  0.1718  0.3066
 2470SOL    HW118869   4.186   3.350   2.577 -0.1733  0.2303 -0.0548
 2470SOL    HW218870   4.228   3.488   2.551 -0.5208 -0.0439  0.5723
 2471SOL     OW18871   0.631   3.890   0.158 -0.1855  0.4521  0.1121
 2471SOL    HW118872   0.653   3.906   0.250 -0.6989  1.2508  0.0959
 2471SOL    HW218873   0.587   3.806   0.162  3.0008 -1.1095  2.5341
 2472SOL     OW18874   1.041   0.814   4.056 -0.1867  0.4661  0.2004
 2472SOL    HW118875   0.992   0.892   4.078 -1.8118 -0.5071  0.0329
 2472SOL    HW218876   0.967   0.755   4.042  0.8072 -0.5936 -0.7173
 2473SOL     OW18877   1.253   0.044   4.249  0.8260 -0.1119 -0.2420
 2473SOL    HW118878   1.237   0.018   4.340 -2.1266 -1.2365 -1.0657
 2473SOL    HW218879   1.296   0.129   4.263  2.6048 -1.2866  1.3593
 2474SOL     OW18880   2.689   0.531   6.808 -0.1945 -0.7507 -0.2467
 2474SOL    HW118881   2.707   0.594   6.878 -0.1115 -1.0042 -0.0395
 2474SOL    HW218882   2.734   0.584   6.742  1.4711  1.3896  2.6040
 2475SOL     OW18883   3.583   4.210  14.427  0.1913  0.4125  0.0415
 2475SOL    HW118884   3.618   4.263  14.355 -2.0572  0.1007 -1.2564
 2475SOL    HW218885   3.490   4.225  14.413 -0.0975 -1.6734 -0.2493
 2476SOL     OW18886   3.334   2.133   7.451 -0.2141  0.3608  0.2949
 2476SOL    HW118887   3.251   2.091   7.472 -0.5720  1.3565  0.8928
 2476SOL    HW218888   3.397   2.096   7.512 -1.3448 -1.0820  0.5697
 2477SOL     OW18889   2.395   3.601   2.800  0.0663  0.1771 -0.5960
 2477SOL    HW118890   2.351   3.518   2.780  1.5143  0.0698 -3.3242
 2477SOL    HW218891   2.466   3.581   2.862 -0.3697  1.3146  0.2742
 2478SOL     OW18892   3.366   1.987   5.818 -0.0344 -0.0171 -0.2682
 2478SOL    HW118893   3.287   1.933   5.825 -0.6359  0.3676 -3.7914
 2478SOL    HW218894   3.393   2.009   5.907 -1.9641  0.9092  0.0863
 2479SOL     OW18895   1.923   2.279  11.635 -0.1403 -0.0370 -0.3901
 2479SOL    HW118896   1.890   2.225  11.563 -0.4904 -2.7216  1.7940
 2479SOL    HW218897   1.999   2.317  11.592 -1.5616  0.1416 -2.7324
 2480SOL     OW18898   2.488   0.968   3.417  0.5005 -0.3813 -0.0690
 2480SOL    HW118899   2.507   0.913   3.341  1.8911  2.1648 -1.5384
 2480SOL    HW218900   2.439   1.041   3.380 -0.1854 -1.1677 -0.6996
 2481SOL     OW18901   3.904   1.697   7.228  0.3544  0.4051 -0.4003
 2481SOL    HW118902   3.927   1.606   7.249 -0.6136  0.3935  0.5908
 2481SOL    HW218903   3.978   1.726   7.174  1.4607  1.8090  1.8575
 2482SOL     OW18904   2.256   4.305   1.234  0.3633  0.1810 -0.9487
 2482SOL    HW118905   2.208   4.382   1.204 -1.2389 -1.3060 -2.1964
 2482SOL    HW218906   2.290   4.264   1.155  1.2599  0.7072 -0.8389
 2483SOL     OW18907   3.284   0.273   2.133  0.0356  1.0309  0.0679
 2483SOL    HW118908   3.256   0.345   2.076  2.4064  1.3159 -0.7607
 2483SOL    HW218909   3.365   0.237   2.097  0.6896  0.2820  2.3272
 2484SOL     OW18910   3.066   0.835   7.773 -1.1706  0.9706 -0.0129
 2484SOL    HW118911   3.082   0.831   7.867 -2.0287  0.5453  0.1132
 2484SOL    HW218912   3.007   0.761   7.768 -0.5845  0.4843  0.2560
 2485SOL     OW18913   4.456   2.725   8.366 -0.2725  0.3950  0.1700
 2485SOL    HW118914   4.488   2.656   8.425 -0.6722  1.3436  1.4910
 2485SOL    HW218915   4.370   2.743   8.403  0.3884  3.3864  0.2179
 2486SOL     OW18916   4.630   2.170  15.993  0.1041  0.0086  0.1682
 2486SOL    HW118917   4.608   2.264  15.993 -1.2988 -0.3250  2.3597
 2486SOL    HW218918   4.584   2.147  15.912 -1.2218 -0.0148  0.9209
 2487SOL     OW18919   1.805   3.727   6.218  0.4966 -0.2264 -0.2580
 2487SOL    HW118920   1.713   3.741   6.196  0.4708 -0.8055 -0.5180
 2487SOL    HW218921   1.819   3.650   6.274  0.0256  1.3008  1.9600
 2488SOL     OW18922   3.245   3.445  11.987  0.0230  1.0853  0.2718
 2488SOL    HW118923   3.311   3.404  12.043  1.5107  1.2591 -1.3457
 2488SOL    HW218924   3.170   3.425  12.043 -0.9774  2.0885 -0.6872
 2489SOL     OW18925   0.407   0.572   8.657 -0.6533 -0.5430  0.2644
 2489SOL    HW118926   0.403   0.530   8.742  0.6629 -0.0975  0.5547
 2489SOL    HW218927   0.349   0.513   8.609  1.7913 -2.8027  0.1087
 2490SOL     OW18928   2.804   1.555  17.104  0.5992  0.1992 -0.2671
 2490SOL    HW118929   2.869   1.486  17.119 -2.2326 -2.2540  0.8416
 2490SOL    HW218930   2.720   1.509  17.100  0.3481  0.4740  2.2471
 2491SOL     OW18931   0.355   2.506   8.412 -0.2228 -0.3174  0.9506
 2491SOL    HW118932   0.387   2.417   8.431 -0.3764 -1.3176 -3.5001
 2491SOL    HW218933   0.308   2.493   8.330 -1.6107 -1.2796  1.8686
 2492SOL     OW18934   1.726   2.452   5.570  0.6528 -0.0378  0.6569
 2492SOL    HW118935   1.717   2.357   5.565  1.4528 -0.2282  2.7541
 2492SOL    HW218936   1.741   2.456   5.664 -1.5831  3.0763  0.8780
 2493SOL     OW18937   3.877   3.550  17.498 -0.1664  0.4698 -0.0348
 2493SOL    HW118938   3.937   3.479  17.520  0.6437  0.8894 -0.8786
 2493SOL    HW218939   3.841   3.552  17.587  1.3097  1.3517  0.5596
 2494SOL     OW18940   1.555   2.603   7.878 -0.6124 -0.2876  0.4406
 2494SOL    HW118941   1.634   2.629   7.829  0.0441  1.4606  2.4489
 2494SOL    HW218942   1.579   2.618   7.969  0.0762  2.0490 -0.1096
 2495SOL     OW18943   1.639   3.755   5.628 -0.1562 -0.1910 -0.1881
 2495SOL    HW118944   1.706   3.715   5.684 -0.0171 -1.4760 -1.2751
 2495SOL    HW218945   1.575   3.788   5.691 -2.4195 -1.1570 -1.9987
 2496SOL     OW18946   2.502   1.653  11.742 -0.0159 -0.0461  0.2094
 2496SOL    HW118947   2.560   1.723  11.711  0.2305 -0.8018 -1.0323
 2496SOL    HW218948   2.543   1.626  11.825  0.8410 -1.1311 -0.5710
 2497SOL     OW18949   1.404   4.570   2.001  0.1669 -0.4905 -0.6784
 2497SOL    HW118950   1.399   4.603   2.091  0.4030  1.6053 -1.4265
 2497SOL    HW218951   1.471   4.629   1.966 -0.0155  0.4142  0.5126
 2498SOL     OW18952   4.621   3.445   6.906 -0.0086  0.0967 -0.2119
 2498SOL    HW118953   4.559   3.387   6.862 -0.1022  1.8561 -2.4487
 2498SOL    HW218954   4.564   3.514   6.940  0.6788  0.2157  0.6921
 2499SOL     OW18955   2.093   2.730   2.679 -0.0536 -0.2367  0.2412
 2499SOL    HW118956   2.083   2.649   2.729  0.2238  0.0867  0.8230
 2499SOL    HW218957   2.028   2.723   2.609  0.6557  1.9899 -0.6294
 2500SOL     OW18958   0.105   3.518  10.279  0.2080  0.0617  0.1574
 2500SOL    HW118959   0.074   3.607  10.266 -0.1496 -0.4972 -2.8139
 2500SOL    HW218960   0.159   3.522  10.358 -0.6117 -3.3360  0.8966
 2501SOL     OW18961   2.353   0.614  16.222 -0.6656 -0.5134  0.3723
 2501SOL    HW118962   2.354   0.555  16.297  1.4609 -2.3412 -1.1136
 2501SOL    HW218963   2.359   0.560  16.144 -1.0591 -0.5966  0.4006
 2502SOL     OW18964   1.033   1.989  10.027 -0.7917  0.1550 -0.5679
 2502SOL    HW118965   1.125   1.986  10.052 -0.8834  1.4875 -0.0674
 2502SOL    HW218966   1.032   1.970   9.934  1.1363  0.8403 -0.7231
 2503SOL     OW18967   2.312   3.883   3.731  0.0731 -0.4135 -0.1327
 2503SOL    HW118968   2.307   3.789   3.747  0.5996 -0.7378 -1.8324
 2503SOL    HW218969   2.396   3.888   3.686 -0.1209  2.3114 -0.1859
 2504SOL     OW18970   0.962   1.762  10.180  0.3498  0.2342 -0.3419
 2504SOL    HW118971   0.879   1.717  10.162  0.1391  0.6924 -0.5160
 2504SOL    HW218972   0.977   1.815  10.103 -0.4733  0.1736 -0.5498
 2505SOL     OW18973   4.261   0.614   6.019 -0.1138  0.1246  0.1023
 2505SOL    HW118974   4.292   0.544   6.077  1.1951  1.3373  0.8661
 2505SOL    HW218975   4.338   0.671   6.015  0.4358 -0.5921  0.3855
 2506SOL     OW18976   4.604   2.196   8.695  0.0105  0.2129  0.3561
 2506SOL    HW118977   4.621   2.102   8.708  1.8995  0.5693  0.5053
 2506SOL    HW218978   4.548   2.217   8.769  1.4118  1.0706  1.1866
 2507SOL     OW18979   3.098   3.932   9.346 -0.3520 -0.6456 -0.7198
 2507SOL    HW118980   3.029   3.944   9.410 -0.6065 -0.3669 -1.0448
 2507SOL    HW218981   3.144   4.014   9.366 -0.6208 -0.8731  0.8446
 2508SOL     OW18982   0.346   1.227   3.437 -0.6722 -0.0735 -0.7592
 2508SOL    HW118983   0.330   1.138   3.468 -0.6703  0.5783  1.0899
 2508SOL    HW218984   0.358   1.258   3.527 -1.2461 -1.2143 -0.2845
 2509SOL     OW18985   4.487   1.138   6.420  0.0970  0.3516 -0.1415
 2509SOL    HW118986   4.560   1.190   6.386  1.5607 -2.6956 -1.6840
 2509SOL    HW218987   4.473   1.186   6.501 -1.8402  0.1422 -0.3538
 2510SOL     OW18988   1.442   0.343   8.309 -0.0244  0.2879 -0.0974
 2510SOL    HW118989   1.375   0.410   8.317 -1.0294 -0.8248  0.8221
 2510SOL    HW218990   1.420   0.289   8.385 -0.5544  1.3528  0.4959
 2511SOL     OW18991   2.624   4.224   0.435  0.3823 -0.2230  0.2850
 2511SOL    HW118992   2.642   4.177   0.517 -1.6798 -2.0125 -0.2773
 2511SOL    HW218993   2.534   4.249   0.454 -0.7133 -1.4357 -3.3961
 2512SOL     OW18994   0.509   3.345  13.366  0.6754 -0.8659 -0.2378
 2512SOL    HW118995   0.548   3.359  13.453 -0.6052 -3.0251  0.6886
 2512SOL    HW218996   0.487   3.253  13.376  0.5084 -0.6493  1.4490
 2513SOL     OW18997   0.416   3.395   5.326  0.3084  0.7102  0.6552
 2513SOL    HW118998   0.406   3.468   5.264 -2.6331 -0.1462  0.1037
 2513SOL    HW218999   0.496   3.429   5.365  0.9712  1.0811 -1.0158
 2514SOL     OW19000   3.164   1.716   2.619 -0.6914  0.3536 -0.0537
 2514SOL    HW119001   3.212   1.669   2.550 -2.3471 -2.2901  0.6233
 2514SOL    HW219002   3.132   1.636   2.660  0.6714 -1.4116 -2.3736
 2515SOL     OW19003   0.496   4.536   6.071 -0.4004  0.0339  0.0218
 2515SOL    HW119004   0.522   4.471   6.136 -0.8034 -0.8884 -0.7246
 2515SOL    HW219005   0.569   4.529   6.010 -0.5799 -3.0734  0.1732
 2516SOL     OW19006   2.415   1.135   4.841 -0.1918 -0.7053  0.3726
 2516SOL    HW119007   2.348   1.140   4.773 -0.6039  1.1718  0.9480
 2516SOL    HW219008   2.436   1.042   4.826 -0.3654 -0.7284  0.2664
 2517SOL     OW19009   1.276   2.575   6.100 -0.0571 -0.3056  0.2981
 2517SOL    HW119010   1.311   2.630   6.029  0.1422 -0.8483 -0.0254
 2517SOL    HW219011   1.223   2.646   6.135 -0.5751 -0.7395  0.3822
 2518SOL     OW19012   3.818   2.997   2.965  0.4049  0.3586 -0.1615
 2518SOL    HW119013   3.737   2.984   2.916  1.3275 -1.7613 -1.1372
 2518SOL    HW219014   3.789   3.072   3.018  1.7890 -0.0593  1.2010
 2519SOL     OW19015   1.670   4.387  12.107  0.2233 -0.0314 -0.2722
 2519SOL    HW119016   1.712   4.371  12.022  0.2493  4.8987 -1.1847
 2519SOL    HW219017   1.699   4.474  12.133 -1.3957  0.7371 -1.0218
 2520SOL     OW19018   4.624   3.868   7.586 -0.2284  0.0916 -0.4679
 2520SOL    HW119019   4.681   3.910   7.522  0.4786  0.6941  0.5389
 2520SOL    HW219020   4.624   3.777   7.557  0.8400 -0.7298  2.0943
 2521SOL     OW19021   2.687   4.535   6.538  0.0056  0.1745  0.1836
 2521SOL    HW119022   2.722   4.510   6.452 -0.6995 -2.2180  0.5889
 2521SOL    HW219023   2.662   4.452   6.578  0.2566 -0.6734 -1.3945
 2522SOL     OW19024   1.767   1.828   8.829 -0.5570  0.2093 -0.5923
 2522SOL    HW119025   1.701   1.786   8.885  0.4273 -0.8833 -0.2559
 2522SOL    HW219026   1.824   1.755   8.805 -0.0847 -0.7882  3.4821
 2523SOL     OW19027   1.230   2.409   5.239  0.3141 -0.2018  0.2652
 2523SOL    HW119028   1.301   2.372   5.186  2.3379  1.8333  1.5820
 2523SOL    HW219029   1.267   2.497   5.243  1.1967 -0.6229  1.2357
 2524SOL     OW19030   4.387   1.312   6.600  0.0310  0.1826 -0.6947
 2524SOL    HW119031   4.302   1.350   6.575 -0.4102 -0.1775  0.2474
 2524SOL    HW219032   4.406   1.354   6.684  0.0904 -0.8840 -0.1833
 2525SOL     OW19033   2.897   4.259   1.574  0.0896  0.8729  0.2630
 2525SOL    HW119034   2.816   4.281   1.619  0.4557  2.7356  0.0295
 2525SOL    HW219035   2.961   4.281   1.642  0.2887  1.1000  0.0056
 2526SOL     OW19036   1.357   4.325  13.112  0.4631 -0.0543  0.5416
 2526SOL    HW119037   1.312   4.322  13.196 -0.0449  0.3007  0.2847
 2526SOL    HW219038   1.300   4.382  13.060 -0.9185 -1.2126  0.7509
 2527SOL     OW19039   0.191   2.397  10.851  0.4551 -0.1890  0.2439
 2527SOL    HW119040   0.189   2.405  10.756  0.3310  1.2069  0.3646
 2527SOL    HW219041   0.278   2.434  10.868  1.3234 -2.4227  0.6673
 2528SOL     OW19042   4.264   2.140   3.230  0.0755 -0.3231  0.6239
 2528SOL    HW119043   4.233   2.217   3.183  0.6071 -0.2431  0.4026
 2528SOL    HW219044   4.250   2.072   3.163 -0.9594  0.6409 -0.1463
 2529SOL     OW19045   2.819   1.459   4.670 -0.1980  0.1066 -0.0857
 2529SOL    HW119046   2.796   1.549   4.645 -2.0092  0.1817  1.8882
 2529SOL    HW219047   2.853   1.470   4.758  1.1513 -1.8494 -0.3694
 2530SOL     OW19048   1.675   0.610  12.254  0.2150  0.1545 -0.7167
 2530SOL    HW119049   1.594   0.634  12.209 -0.9782  0.9587  1.8827
 2530SOL    HW219050   1.669   0.664  12.333 -1.0998 -1.2420  0.1457
 2531SOL     OW19051   1.840   0.723   6.579 -0.4119  0.0243  0.0836
 2531SOL    HW119052   1.760   0.698   6.625 -1.1702 -2.4956 -2.5818
 2531SOL    HW219053   1.905   0.675   6.630  1.6920  1.1036 -1.6088
 2532SOL     OW19054   4.200   1.207   3.639 -0.2536 -0.2030 -0.4688
 2532SOL    HW119055   4.157   1.257   3.570 -0.2334  0.6913  0.1656
 2532SOL    HW219056   4.223   1.119   3.608  0.5539  0.0558 -0.5970
 2533SOL     OW19057   2.443   1.522   9.315  0.3232  0.1236  0.0096
 2533SOL    HW119058   2.384   1.541   9.242  0.1901 -2.2444 -0.4760
 2533SOL    HW219059   2.382   1.543   9.386  1.1749  0.6306  0.5891
 2534SOL     OW19060   3.514   2.495   2.194  0.4927  0.5942 -0.2495
 2534SOL    HW119061   3.600   2.502   2.236 -0.4622  2.2823  1.3959
 2534SOL    HW219062   3.464   2.534   2.265  0.4359  1.6266 -0.8593
 2535SOL     OW19063   4.442   3.335   9.685  0.0936 -0.2008  0.2746
 2535SOL    HW119064   4.536   3.324   9.699  0.4435 -0.5629 -2.4086
 2535SOL    HW219065   4.433   3.429   9.696  1.6989  0.0125 -0.1704
 2536SOL     OW19066   4.544   0.351  17.138 -0.4199 -0.5990  0.3878
 2536SOL    HW119067   4.450   0.369  17.143 -0.4317 -0.5286 -0.1042
 2536SOL    HW219068   4.571   0.417  17.074 -0.5259 -1.9505 -1.0312
 2537SOL     OW19069   1.443   4.157   6.759 -0.0384  0.1953  0.1236
 2537SOL    HW119070   1.525   4.158   6.710  1.5522 -1.0245  2.7465
 2537SOL    HW219071   1.472   4.227   6.817 -2.4636  1.7326 -0.5276
 2538SOL     OW19072   3.760   0.692   5.930 -0.4970  0.4492 -0.1831
 2538SOL    HW119073   3.688   0.752   5.947 -1.3875 -0.2275 -1.5960
 2538SOL    HW219074   3.728   0.624   5.990 -0.7891  0.4192 -0.3719
 2539SOL     OW19075   3.877   0.997   2.228  0.0841  0.4128  0.5026
 2539SOL    HW119076   3.799   1.052   2.235 -1.4776 -1.3038 -3.7143
 2539SOL    HW219077   3.842   0.917   2.268  0.0656 -0.5758 -1.4930
 2540SOL     OW19078   3.241   1.433  16.807 -0.5363 -0.2886  0.3098
 2540SOL    HW119079   3.173   1.493  16.777 -1.2405 -0.6463  1.1831
 2540SOL    HW219080   3.229   1.433  16.902 -0.6671 -2.0822  0.2923
 2541SOL     OW19081   2.449   1.673   0.123  0.1892  0.3493 -0.2599
 2541SOL    HW119082   2.414   1.747   0.074  0.9394  0.3033 -0.8830
 2541SOL    HW219083   2.466   1.605   0.057 -2.4014 -0.5712  0.0413
 2542SOL     OW19084   2.254   3.842   2.433 -0.1454  0.0180 -0.1198
 2542SOL    HW119085   2.169   3.833   2.477 -0.0260  0.0627  0.1224
 2542SOL    HW219086   2.247   3.925   2.386  2.1283  0.0807 -0.3624
 2543SOL     OW19087   1.546   3.396  11.554  0.0555  0.1013 -0.0717
 2543SOL    HW119088   1.463   3.444  11.564  0.2939  0.2772  1.1056
 2543SOL    HW219089   1.595   3.451  11.493  2.8656 -3.6448 -1.1951
 2544SOL     OW19090   3.665   0.992  11.252  0.3535  0.0185 -0.0782
 2544SOL    HW119091   3.616   1.005  11.171  2.6574  0.8738 -1.3111
 2544SOL    HW219092   3.737   1.053  11.236 -0.3367  1.3175  1.7045
 2545SOL     OW19093   2.249   2.459   9.303 -0.4018 -0.7614 -0.0046
 2545SOL    HW119094   2.288   2.515   9.371  0.8146 -1.3919 -0.1912
 2545SOL    HW219095   2.319   2.394   9.301  0.1935 -0.1698  1.2143
 2546SOL     OW19096   0.980   4.671   1.636  0.0835  0.0756  0.3600
 2546SOL    HW119097   1.014   0.028   1.589  0.0675  0.5371  1.0894
 2546SOL    HW219098   1.050   4.655   1.699  2.0108 -1.6358 -2.2505
 2547SOL     OW19099   1.780   3.833   2.855  0.5221  0.7536 -0.1290
 2547SOL    HW119100   1.864   3.871   2.829 -0.0003  1.2014 -1.1681
 2547SOL    HW219101   1.775   3.860   2.946 -0.0285  0.7398 -0.1527
 2548SOL     OW19102   4.688   0.530   6.073  0.6093  0.5109  0.0629
 2548SOL    HW119103   0.006   0.508   6.159  0.6207 -0.7678 -0.2583
 2548SOL    HW219104   4.718   0.452   6.026  0.0770 -0.2856  1.0455
 2549SOL     OW19105   2.703   1.555  13.842 -0.0651  0.0230  0.1966
 2549SOL    HW119106   2.682   1.527  13.932 -0.8143 -0.6532 -0.1906
 2549SOL    HW219107   2.742   1.476  13.805 -0.3166 -1.0605  2.2460
 2550SOL     OW19108   0.796   3.418   7.918  0.2267 -0.6334 -0.6331
 2550SOL    HW119109   0.807   3.367   7.998 -0.8836  2.1616  1.3179
 2550SOL    HW219110   0.834   3.504   7.939  1.1898 -0.9030 -1.2647
 2551SOL     OW19111   4.081   4.032   7.241  0.1847  0.1026 -0.0852
 2551SOL    HW119112   3.986   4.021   7.246  0.4946 -2.7294 -0.7821
 2551SOL    HW219113   4.094   4.042   7.335  0.9799 -2.8597  0.1215
 2552SOL     OW19114   0.819   0.862   6.163 -0.0285 -0.4720  0.6541
 2552SOL    HW119115   0.843   0.776   6.198 -1.1213  0.0853  2.7757
 2552SOL    HW219116   0.903   0.876   6.119 -0.3940 -1.3497 -0.3076
 2553SOL     OW19117   1.412   3.276   3.890  0.3398  0.4113  0.1941
 2553SOL    HW119118   1.480   3.329   3.849  1.3106 -1.0901 -0.1783
 2553SOL    HW219119   1.337   3.331   3.869 -0.9629 -0.6608  1.9984
 2554SOL     OW19120   0.983   1.436   8.818  0.4015  0.1810 -0.4017
 2554SOL    HW119121   0.991   1.530   8.833  0.9258  0.3082 -1.5151
 2554SOL    HW219122   0.897   1.409   8.849  0.3940 -1.2407 -1.6732
 2555SOL     OW19123   2.873   1.199  14.696  0.4228  0.0802  0.3392
 2555SOL    HW119124   2.898   1.133  14.631 -0.8519 -2.4729  2.4341
 2555SOL    HW219125   2.862   1.273  14.637  1.2503  1.7390  2.3030
 2556SOL     OW19126   3.478   4.295  11.263  0.2721 -0.5952 -0.7383
 2556SOL    HW119127   3.565   4.301  11.222  0.1339 -0.1141 -0.9656
 2556SOL    HW219128   3.425   4.322  11.188 -1.1303  0.0746  0.4999
 2557SOL     OW19129   4.348   1.677   2.273  0.1548 -0.8777 -0.0600
 2557SOL    HW119130   4.354   1.772   2.282  1.5135 -0.8457 -1.2027
 2557SOL    HW219131   4.271   1.671   2.217 -0.6964 -0.1569  1.0542
 2558SOL     OW19132   3.762   0.716  13.427  0.0881 -0.1842 -0.1916
 2558SOL    HW119133   3.822   0.642  13.414  0.0361 -0.1353 -0.7078
 2558SOL    HW219134   3.805   0.775  13.488 -2.2289  3.1845 -1.8333
 2559SOL     OW19135   3.242   0.408  10.136  0.6532 -1.0127  0.4958
 2559SOL    HW119136   3.193   0.358  10.071  1.0083  0.4955 -0.9302
 2559SOL    HW219137   3.324   0.422  10.089  0.0868  0.8776  0.0956
 2560SOL     OW19138   3.577   4.638   6.726  0.5091 -0.0000  0.3549
 2560SOL    HW119139   3.667   4.666   6.739  1.3123 -1.7586 -1.4261
 2560SOL    HW219140   3.568   4.558   6.778  2.5333 -1.2796 -1.2860
 2561SOL     OW19141   0.888   1.957   3.182 -0.1355 -0.4549 -0.1514
 2561SOL    HW119142   0.898   2.052   3.180 -1.5673 -0.3169 -0.8655
 2561SOL    HW219143   0.943   1.926   3.109 -2.2483  2.7386 -3.0755
 2562SOL     OW19144   4.450   3.050  11.172 -0.4954 -0.0949  0.4632
 2562SOL    HW119145   4.534   3.050  11.127 -1.5324 -1.9649 -1.4930
 2562SOL    HW219146   4.449   2.955  11.187  0.2624 -0.5124 -1.9687
 2563SOL     OW19147   0.573   0.066   2.974  0.1268 -0.4152  0.3114
 2563SOL    HW119148   0.509   0.136   2.982 -0.1533 -0.6955  0.4829
 2563SOL    HW219149   0.635   0.084   3.045  0.1101 -1.6098  0.6180
 2564SOL     OW19150   3.914   0.261   2.775  0.1855  0.5280 -0.0573
 2564SOL    HW119151   3.931   0.316   2.852 -1.9605  1.4804 -0.2640
 2564SOL    HW219152   3.827   0.296   2.758 -1.2268 -2.2391  1.6040
 2565SOL     OW19153   4.084   4.005   6.951  0.2628  0.0876 -0.3386
 2565SOL    HW119154   4.152   3.973   7.010  0.8110  3.2861  0.7578
 2565SOL    HW219155   4.002   3.976   6.991 -0.4298  4.0782  1.1344
 2566SOL     OW19156   1.164   1.242  14.724 -0.0979  0.0743  0.2482
 2566SOL    HW119157   1.121   1.180  14.784  1.9552 -0.7151  0.8835
 2566SOL    HW219158   1.255   1.215  14.731 -0.3708 -1.0607 -0.6015
 2567SOL     OW19159   2.055   2.036   8.860 -0.3613 -0.3693 -0.0009
 2567SOL    HW119160   2.073   2.097   8.788 -2.0998  3.0065  2.4140
 2567SOL    HW219161   1.970   2.064   8.894 -0.1480 -0.7588  0.8756
 2568SOL     OW19162   0.855   0.316   6.297  0.4282 -0.1282 -0.4569
 2568SOL    HW119163   0.872   0.229   6.334  1.5747  0.2654 -0.0494
 2568SOL    HW219164   0.761   0.305   6.313  0.7292 -4.0211 -1.2480
 2569SOL     OW19165   4.025   0.845   6.259 -1.3242 -0.3097 -0.6361
 2569SOL    HW119166   4.054   0.914   6.319 -0.2736 -0.1764 -1.3073
 2569SOL    HW219167   4.057   0.877   6.175  0.9903 -1.2412 -0.0894
 2570SOL     OW19168   2.594   3.291   2.404  0.0529  0.6516  0.0395
 2570SOL    HW119169   2.589   3.310   2.311 -0.8055  0.9900  0.1506
 2570SOL    HW219170   2.515   3.328   2.445  1.4568  0.3675  2.9631
 2571SOL     OW19171   4.077   3.396   6.022  0.8774 -0.2329 -0.4992
 2571SOL    HW119172   4.115   3.421   6.106 -1.5204 -1.7664  1.0247
 2571SOL    HW219173   4.011   3.462   6.001  0.4579 -0.9543 -1.4860
 2572SOL     OW19174   2.116   4.215  11.283 -0.0830  0.0869  0.3741
 2572SOL    HW119175   2.161   4.297  11.261  0.0660 -1.1151 -3.8570
 2572SOL    HW219176   2.144   4.173  11.201 -0.5626  0.7284 -0.1209
 2573SOL     OW19177   3.638   3.229   5.957 -0.3215  0.2301  0.2885
 2573SOL    HW119178   3.673   3.255   6.042  0.3656  1.3411 -0.3431
 2573SOL    HW219179   3.602   3.315   5.939 -0.9107  0.5976  3.1599
 2574SOL     OW19180   0.994   4.519   8.894 -0.3309  0.3653 -0.3895
 2574SOL    HW119181   1.025   4.541   8.806 -1.0017 -0.3980 -0.8208
 2574SOL    HW219182   1.035   4.435   8.913  1.5002  1.1515 -0.8118
 2575SOL     OW19183   3.948   0.683   5.395  0.1054  0.4193  0.1824
 2575SOL    HW119184   3.877   0.735   5.359  0.6183  0.9884 -0.0092
 2575SOL    HW219185   3.900   0.633   5.461  0.0704  0.8664  0.4899
 2576SOL     OW19186   2.759   4.299  17.035 -0.2029  0.1741  0.4579
 2576SOL    HW119187   2.684   4.264  17.083 -0.9651  0.6334 -0.4038
 2576SOL    HW219188   2.723   4.314  16.948  1.6113  1.8504 -0.0039
 2577SOL     OW19189   2.540   1.398   0.235  0.1966 -0.0757 -0.5277
 2577SOL    HW119190   2.465   1.441   0.278 -0.2285 -1.5510  0.2207
 2577SOL    HW219191   2.526   1.433   0.147  3.5457  0.0772 -0.9931
 2578SOL     OW19192   2.800   3.163   4.486  0.6819 -0.5407  0.5149
 2578SOL    HW119193   2.864   3.095   4.463  4.0652  3.2727 -1.2737
 2578SOL    HW219194   2.747   3.136   4.561 -0.6570 -0.5737 -0.4541
 2579SOL     OW19195   1.835   0.313   5.255  0.6690 -0.3454 -0.0992
 2579SOL    HW119196   1.882   0.271   5.327  0.9986  2.9040  1.6297
 2579SOL    HW219197   1.875   0.400   5.241 -0.3630 -0.2886 -2.6384
 2580SOL     OW19198   1.592   0.526  14.980 -0.6481 -0.0163  0.5158
 2580SOL    HW119199   1.604   0.434  15.003  0.9106 -0.0494 -0.4286
 2580SOL    HW219200   1.672   0.547  14.932 -0.1111  0.2649  1.5247
 2581SOL     OW19201   0.133   4.391   1.049 -0.5147 -0.1412 -0.5029
 2581SOL    HW119202   0.051   4.402   1.001 -1.2435 -1.0161  0.5533
 2581SOL    HW219203   0.114   4.424   1.137 -0.5234  2.3917 -1.4386
 2582SOL     OW19204   1.668   4.116   6.606 -0.7275  0.2032 -0.1264
 2582SOL    HW119205   1.672   4.086   6.516 -0.4231  0.2284 -0.1216
 2582SOL    HW219206   1.709   4.037   6.641  0.2811  1.1846  0.9582
 2583SOL     OW19207   3.650   4.217   8.250  0.2130  0.6018 -0.4531
 2583SOL    HW119208   3.639   4.306   8.216  0.2088  1.3905  1.6131
 2583SOL    HW219209   3.708   4.227   8.325  0.3972 -2.1618 -0.2160
 2584SOL     OW19210   1.675   1.604   1.274  0.0347  0.2071  0.7129
 2584SOL    HW119211   1.585   1.573   1.281  0.4526 -1.0216  0.6633
 2584SOL    HW219212   1.722   1.520   1.279  1.3796  0.8770 -0.4874
 2585SOL     OW19213   0.476   4.562   8.336  0.4927 -0.5895 -0.1606
 2585SOL    HW119214   0.516   4.644   8.364 -0.8622  0.0695 -0.1887
 2585SOL    HW219215   0.387   4.583   8.364  1.0585  0.6622  0.6340
 2586SOL     OW19216   0.261   3.301   9.047  0.2780 -0.1958 -0.3461
 2586SOL    HW119217   0.167   3.321   9.047  0.2079 -0.5279  1.1046
 2586SOL    HW219218   0.263   3.235   9.117 -1.1330  0.4305  0.3003
 2587SOL     OW19219   0.807   2.857   3.741 -0.3286 -0.3599  0.4615
 2587SOL    HW119220   0.759   2.906   3.807 -1.1732 -1.8201  0.9507
 2587SOL    HW219221   0.807   2.774   3.790  0.3205  0.0657  1.1710
 2588SOL     OW19222   2.019   0.318   8.948 -0.2649 -0.3379  0.1021
 2588SOL    HW119223   1.931   0.298   8.979 -0.6732 -0.6164 -1.2532
 2588SOL    HW219224   2.053   0.230   8.960 -0.8862 -0.5449  0.3422
 2589SOL     OW19225   4.492   4.538  10.720 -0.5535  0.3048  0.3892
 2589SOL    HW119226   4.434   4.559  10.647  0.0411 -1.6711 -0.6451
 2589SOL    HW219227   4.560   4.500  10.665 -1.1515 -0.8129  0.4237
 2590SOL     OW19228   1.012   0.684  16.799  0.2193 -0.1655  0.1428
 2590SOL    HW119229   0.967   0.737  16.733  0.3810 -1.7834 -1.2934
 2590SOL    HW219230   0.933   0.647  16.838 -0.2812  1.4517  0.6411
 2591SOL     OW19231   4.608   4.416   0.907 -0.0584 -0.6754  0.5678
 2591SOL    HW119232   4.540   4.349   0.898 -1.0873  0.6206 -1.1418
 2591SOL    HW219233   4.620   4.445   0.816  1.5733 -1.9446  0.3735
 2592SOL     OW19234   0.078   0.735   8.485 -0.4242  0.0826 -0.3625
 2592SOL    HW119235   0.077   0.825   8.518  1.1632 -0.6609  1.6446
 2592SOL    HW219236   0.013   0.693   8.541 -0.2042  0.4086  0.1306
 2593SOL     OW19237   4.433   1.111   9.374 -0.5295  0.1120  0.1535
 2593SOL    HW119238   4.528   1.109   9.377 -0.5514 -3.0747 -0.8210
 2593SOL    HW219239   4.405   1.019   9.368 -0.0030 -0.1652  1.9625
 2594SOL     OW19240   4.258   2.940  15.578  0.5283 -0.5410  0.1504
 2594SOL    HW119241   4.250   2.854  15.618 -0.5043  0.9684  3.1394
 2594SOL    HW219242   4.300   2.986  15.650  0.0348  3.0020 -1.8139
 2595SOL     OW19243   2.959   2.654   7.738 -0.0879  0.4242  0.1344
 2595SOL    HW119244   2.916   2.705   7.669  1.6175 -2.6705 -3.2434
 2595SOL    HW219245   2.962   2.576   7.683  0.4053  1.5805 -1.4696
 2596SOL     OW19246   1.898   4.510   5.762  0.5969 -0.1210  0.0861
 2596SOL    HW119247   1.928   4.498   5.672 -0.2244  1.7493 -0.4376
 2596SOL    HW219248   1.860   4.598   5.763 -0.5673 -0.6229 -0.7333
 2597SOL     OW19249   1.709   2.763  17.597  0.2026 -0.4069  0.1371
 2597SOL    HW119250   1.620   2.729  17.592  0.0919 -0.0548 -0.2080
 2597SOL    HW219251   1.721   2.792   0.009 -1.6126  0.4482  0.0992
 2598SOL     OW19252   1.401   0.604   6.839  0.1633  0.3682  0.2651
 2598SOL    HW119253   1.322   0.564   6.876  0.8736 -0.9085  0.4303
 2598SOL    HW219254   1.465   0.601   6.910  1.7573 -1.2442 -1.2570
 2599SOL     OW19255   3.748   0.141   7.435 -0.6173 -0.1431  0.0280
 2599SOL    HW119256   3.760   0.091   7.516 -0.4415  1.9867  1.3010
 2599SOL    HW219257   3.804   0.218   7.437  1.1267 -1.4542  1.8040
 2600SOL     OW19258   3.244   3.528  11.738  0.2700  0.2317 -0.1085
 2600SOL    HW119259   3.309   3.482  11.685  1.8065  2.6319 -0.3631
 2600SOL    HW219260   3.242   3.486  11.824 -1.1541 -0.1174 -0.3152
 2601SOL     OW19261   4.596   3.718   6.275 -0.0653 -0.2880 -0.3180
 2601SOL    HW119262   4.613   3.811   6.286 -2.1325 -0.0118  0.6200
 2601SOL    HW219263   4.642   3.706   6.192 -1.1143  1.8325 -1.2112
 2602SOL     OW19264   3.862   0.862   3.281 -0.9387  0.5935  0.5807
 2602SOL    HW119265   3.839   0.783   3.233  2.2562  2.0848 -3.4475
 2602SOL    HW219266   3.793   0.875   3.346 -0.1933  0.8430  1.3123
 2603SOL     OW19267   3.042   4.199   8.112 -0.3252 -0.3054 -0.2865
 2603SOL    HW119268   3.107   4.199   8.182  1.5874 -2.2674 -2.0606
 2603SOL    HW219269   3.067   4.266   8.050 -0.6209  0.4430  0.4061
 2604SOL     OW19270   3.121   1.612   1.650  0.0908 -0.2646  0.3440
 2604SOL    HW119271   3.067   1.667   1.707  0.5153  0.1943  0.3000
 2604SOL    HW219272   3.154   1.680   1.592 -0.6339  0.1348  0.3955
 2605SOL     OW19273   2.776   4.594  13.850  0.9665  0.3224  0.1506
 2605SOL    HW119274   2.741   4.513  13.886 -1.9363  1.0485 -1.0303
 2605SOL    HW219275   2.700   4.612  13.794 -0.3604 -0.1941  1.7710
 2606SOL     OW19276   1.821   2.443   8.001 -0.7573  0.2292 -0.3902
 2606SOL    HW119277   1.876   2.429   8.078 -0.4084  1.3273 -0.4489
 2606SOL    HW219278   1.833   2.535   7.977 -2.2355  0.7417  0.8717
 2607SOL     OW19279   1.668   4.587  10.279  0.0243  0.4513  0.0931
 2607SOL    HW119280   1.759   4.562  10.299  0.9061  1.8653 -2.2190
 2607SOL    HW219281   1.674   4.676  10.245 -0.7259 -0.3617 -2.1468
 2608SOL     OW19282   1.832   2.440   3.126  0.2015 -0.4330 -0.8717
 2608SOL    HW119283   1.786   2.520   3.149 -1.0405 -1.4655  0.2233
 2608SOL    HW219284   1.869   2.472   3.043 -0.9559 -1.2224 -1.7032
 2609SOL     OW19285   1.578   2.712   2.724  0.0139 -0.2179 -0.7329
 2609SOL    HW119286   1.589   2.799   2.685  1.1680 -1.0188 -2.2188
 2609SOL    HW219287   1.484   2.720   2.733  0.6716  1.8832  3.9512
 2610SOL     OW19288   4.573   3.105  11.850 -0.4649 -0.0819 -0.5302
 2610SOL    HW119289   4.545   3.194  11.873  0.5908 -0.1300  0.9167
 2610SOL    HW219290   4.655   3.121  11.896 -0.6364  1.2865 -0.6744
 2611SOL     OW19291   3.688   1.710   2.821 -0.0841  0.1025 -0.0371
 2611SOL    HW119292   3.722   1.622   2.835 -1.9356 -0.8147 -1.3701
 2611SOL    HW219293   3.615   1.710   2.883 -1.4606  2.2398 -1.6789
 2612SOL     OW19294   0.202   0.111  12.628 -0.4411  0.3210  0.2501
 2612SOL    HW119295   0.135   0.175  12.653 -0.4730  0.1921  0.4858
 2612SOL    HW219296   0.147   0.067  12.562 -0.7929  0.3755  0.5039
 2613SOL     OW19297   0.609   3.349   4.521  0.3241 -0.4907 -0.1431
 2613SOL    HW119298   0.542   3.282   4.537 -0.3602  0.4153  0.8039
 2613SOL    HW219299   0.611   3.379   4.612 -0.0994  0.0082 -0.2960
 2614SOL     OW19300   3.545   2.954  16.527  0.0353  0.6485 -0.6062
 2614SOL    HW119301   3.607   3.017  16.563  0.4775 -0.8021  1.1586
 2614SOL    HW219302   3.552   2.881  16.589  1.0673  0.1959 -1.2572
 2615SOL     OW19303   0.192   2.522   2.144  0.0159  0.4162 -0.1326
 2615SOL    HW119304   0.136   2.505   2.219  0.6740  1.4230  0.5756
 2615SOL    HW219305   0.193   2.617   2.150 -2.9522  0.4125  0.3317
 2616SOL     OW19306   3.493   2.383   6.958  0.0357  0.4191  0.5494
 2616SOL    HW119307   3.544   2.424   6.888 -0.1248 -0.6863 -0.2175
 2616SOL    HW219308   3.539   2.412   7.037 -0.2003 -1.3564  1.3506
 2617SOL     OW19309   2.220   0.757   6.483  0.5088  0.4840  0.1161
 2617SOL    HW119310   2.221   0.671   6.441 -0.1006  1.2951 -1.5515
 2617SOL    HW219311   2.236   0.817   6.410 -1.9463 -2.1459 -2.6077
 2618SOL     OW19312   0.662   4.675   1.277 -0.6863 -0.3181  0.0097
 2618SOL    HW119313   0.736   4.615   1.286 -1.1667 -0.8515  0.3999
 2618SOL    HW219314   0.633   4.669   1.186 -1.7516  0.3271  0.3110
 2619SOL     OW19315   0.286   2.556   4.937  0.0369 -0.0501 -0.2977
 2619SOL    HW119316   0.266   2.619   4.868 -2.4899  1.1019  1.4827
 2619SOL    HW219317   0.198   2.527   4.959 -0.5917  0.0940 -2.6005
 2620SOL     OW19318   1.352   3.941   0.875  0.1773  0.7284 -0.0080
 2620SOL    HW119319   1.385   3.856   0.901 -0.2367  0.3303 -0.7978
 2620SOL    HW219320   1.295   3.911   0.805 -0.8618  1.3991  0.5452
 2621SOL     OW19321   2.171   2.520   3.446  0.4177  0.7302  0.1433
 2621SOL    HW119322   2.227   2.524   3.523  3.2356  0.0372 -1.8536
 2621SOL    HW219323   2.229   2.477   3.383 -0.9285 -0.2900 -0.4022
 2622SOL     OW19324   1.849   4.210   0.001 -0.2860 -0.6773  0.7009
 2622SOL    HW119325   1.807   4.295  17.664  0.7952  0.3022  3.0390
 2622SOL    HW219326   1.936   4.227   0.035 -0.3729  0.2961  0.4368
 2623SOL     OW19327   3.777   2.025   7.772 -0.0858  0.0126 -0.4505
 2623SOL    HW119328   3.730   2.071   7.841 -2.6696 -0.2114 -2.0882
 2623SOL    HW219329   3.871   2.035   7.791 -0.7751  0.9551  2.2975
 2624SOL     OW19330   0.622   4.495  14.521 -0.1295 -0.2879 -0.6792
 2624SOL    HW119331   0.609   4.460  14.433  0.3320  0.9704 -1.2586
 2624SOL    HW219332   0.656   4.415  14.560  2.1768  0.5252 -0.9865
 2625SOL     OW19333   2.046   2.073   3.657 -0.2651 -0.2997 -0.6446
 2625SOL    HW119334   2.058   2.026   3.575  0.3398  0.8454 -1.2182
 2625SOL    HW219335   1.965   2.123   3.646 -0.3415 -0.8786 -2.7228
 2626SOL     OW19336   3.769   4.252   8.004  0.9129 -0.0956 -0.2064
 2626SOL    HW119337   3.850   4.280   8.047  0.6218  0.6463 -0.1444
 2626SOL    HW219338   3.734   4.198   8.075  0.2817  1.1089  0.3788
 2627SOL     OW19339   3.030   3.967   4.853  0.0809 -0.2585 -0.0079
 2627SOL    HW119340   3.005   3.886   4.808 -0.0222  0.7021 -1.7044
 2627SOL    HW219341   3.041   3.939   4.944 -0.8853  1.4155  0.6265
 2628SOL     OW19342   3.829   1.620   5.641 -0.2030 -0.3285 -0.5129
 2628SOL    HW119343   3.888   1.566   5.695 -1.0924  1.7406  2.5111
 2628SOL    HW219344   3.769   1.667   5.699  0.5153  2.2341 -1.8505
 2629SOL     OW19345   2.674   0.305   6.448  0.0465  0.2044  0.0538
 2629SOL    HW119346   2.688   0.316   6.542  1.3468  1.0123 -0.2416
 2629SOL    HW219347   2.759   0.268   6.425  0.4614 -0.2271  2.3260
 2630SOL     OW19348   0.820   3.570   0.877 -0.4343 -0.0348 -0.1201
 2630SOL    HW119349   0.823   3.604   0.788 -0.7113  2.1297  0.7106
 2630SOL    HW219350   0.902   3.606   0.911 -1.2964  1.0955  0.7622
 2631SOL     OW19351   2.920   0.631   2.112  0.0268  0.2709 -0.4718
 2631SOL    HW119352   2.884   0.715   2.083 -0.9395 -0.2435 -0.7678
 2631SOL    HW219353   2.919   0.584   2.029  0.9419 -2.5431  1.1406
 2632SOL     OW19354   3.912   0.548  13.157  0.2596  0.2288 -0.0638
 2632SOL    HW119355   3.956   0.630  13.135  0.3482 -0.0220 -0.8174
 2632SOL    HW219356   3.959   0.521  13.236  2.2235  1.2067 -0.9081
 2633SOL     OW19357   4.314   4.323   5.529  0.0491  0.2688 -0.2479
 2633SOL    HW119358   4.308   4.336   5.623 -2.1999 -0.1470 -0.3254
 2633SOL    HW219359   4.270   4.406   5.510  0.6337  0.3107 -1.4828
 2634SOL     OW19360   2.366   3.609   3.257  0.1219  0.0586  0.3256
 2634SOL    HW119361   2.339   3.701   3.251  1.2825  0.5460  2.4107
 2634SOL    HW219362   2.282   3.566   3.247  0.1512 -0.2452  1.4418
 2635SOL     OW19363   2.001   3.138   6.224  0.1270  0.0986  0.5246
 2635SOL    HW119364   1.994   3.232   6.239 -1.3040  0.0925 -0.1352
 2635SOL    HW219365   1.981   3.106   6.312  0.6735  0.1834  0.6808
 2636SOL     OW19366   2.406   3.025   3.900  0.3577 -0.0850 -0.2186
 2636SOL    HW119367   2.429   3.104   3.949  0.2008 -0.3409  0.2645
 2636SOL    HW219368   2.492   3.001   3.864 -0.6101 -1.4064 -1.6356
 2637SOL     OW19369   1.496   1.310   7.603  0.0657 -0.3255 -0.5607
 2637SOL    HW119370   1.531   1.399   7.604  0.0065 -0.3211  1.1053
 2637SOL    HW219371   1.511   1.278   7.692 -1.6466 -1.0300 -0.5199
 2638SOL     OW19372   4.463   1.097   4.936  0.2383 -0.0098  0.2630
 2638SOL    HW119373   4.479   1.161   5.005  0.8949  1.0640 -0.8887
 2638SOL    HW219374   4.522   1.026   4.962  1.2594  0.7241 -0.0914
 2639SOL     OW19375   0.448   0.788   8.279  0.4757  0.6321 -0.3951
 2639SOL    HW119376   0.465   0.790   8.373 -1.3562  0.3393 -0.0587
 2639SOL    HW219377   0.469   0.697   8.258  0.4940  0.6964 -0.6559
 2640SOL     OW19378   3.718   4.602   4.970  0.5062  0.4473  0.4388
 2640SOL    HW119379   3.634   4.603   4.924  0.8810 -0.8507 -0.2906
 2640SOL    HW219380   3.684   4.569   5.054  0.1682  1.4133  0.6821
 2641SOL     OW19381   4.183   4.423   2.266  0.2748 -0.7735 -0.2072
 2641SOL    HW119382   4.120   4.475   2.215 -1.1540 -0.4346  1.8902
 2641SOL    HW219383   4.235   4.384   2.196 -0.0328 -2.7694  0.6914
 2642SOL     OW19384   3.673   3.778   4.244  0.0130  0.1523  0.3810
 2642SOL    HW119385   3.583   3.748   4.257 -0.7736  1.0046 -3.0434
 2642SOL    HW219386   3.682   3.806   4.153 -0.3522 -1.1046 -0.0456
 2643SOL     OW19387   1.296   1.543   4.446 -0.3026 -0.1573  0.2855
 2643SOL    HW119388   1.283   1.448   4.452 -0.9003 -0.1499 -1.1004
 2643SOL    HW219389   1.220   1.565   4.500 -1.5684 -2.7043 -0.4270
 2644SOL     OW19390   1.261   4.123  12.902  0.4279 -0.1575 -0.5493
 2644SOL    HW119391   1.320   4.082  12.838 -0.2085 -2.2258  0.1667
 2644SOL    HW219392   1.285   4.210  12.872  0.2466  1.0857  2.9963
 2645SOL     OW19393   0.618   0.267  12.499 -0.0272  0.5068  0.2222
 2645SOL    HW119394   0.617   0.356  12.464  0.7964  1.3700  2.3940
 2645SOL    HW219395   0.593   0.211  12.426  1.2872  1.4424 -0.9507
 2646SOL     OW19396   4.108   4.541  13.692  0.3250 -0.2703  0.8030
 2646SOL    HW119397   4.201   4.519  13.701  0.9347  2.3981  1.2602
 2646SOL    HW219398   4.114   4.632  13.661 -0.6519  0.0351  1.5156
 2647SOL     OW19399   1.619   1.149   5.742  0.2990 -0.4051  0.2916
 2647SOL    HW119400   1.552   1.212   5.767 -0.4974 -1.4242  0.7550
 2647SOL    HW219401   1.705   1.190   5.748 -1.1842  2.9129 -1.3519
 2648SOL     OW19402   2.404   3.621   6.127  0.1953  0.0527  0.6749
 2648SOL    HW119403   2.465   3.655   6.062 -0.1750  1.7715  1.2299
 2648SOL    HW219404   2.457   3.596   6.203 -1.6732 -2.1052  1.2606
 2649SOL     OW19405   4.626   3.697  11.814 -0.6157  0.1012 -0.4109
 2649SOL    HW119406   4.615   3.791  11.827 -1.2775 -0.1189  0.5892
 2649SOL    HW219407   4.660   3.706  11.725  1.1788  2.2155  0.5050
 2650SOL     OW19408   3.640   1.287   3.257 -0.4624 -0.0186 -0.5136
 2650SOL    HW119409   3.704   1.356   3.241 -0.8502  0.0720 -1.7228
 2650SOL    HW219410   3.625   1.265   3.165 -2.3535 -0.8043 -0.0245
 2651SOL     OW19411   2.108   1.405   7.996  0.2101  0.3105  0.0617
 2651SOL    HW119412   2.138   1.485   7.954  0.3217  0.1449 -0.1722
 2651SOL    HW219413   2.178   1.402   8.061  1.3020 -2.1687 -1.2448
 2652SOL     OW19414   1.661   1.090  16.069  0.6460  0.8581  0.0017
 2652SOL    HW119415   1.641   1.062  16.158  0.8938 -2.0671 -0.8504
 2652SOL    HW219416   1.627   1.179  16.071 -3.4000 -0.7059 -0.4491
 2653SOL     OW19417   2.713   3.629   1.227 -0.0992  0.4495  0.4326
 2653SOL    HW119418   2.794   3.621   1.176 -0.8917  1.2099 -0.9484
 2653SOL    HW219419   2.683   3.713   1.192 -2.1893 -0.3067  0.3894
 2654SOL     OW19420   4.178   0.187   1.948 -0.9312 -0.4373  0.3019
 2654SOL    HW119421   4.204   0.261   2.002 -0.1267 -2.6557  2.9665
 2654SOL    HW219422   4.258   0.176   1.896 -0.8893  1.1547  0.0211
 2655SOL     OW19423   3.621   1.840   1.329 -0.1285  0.3065 -0.5525
 2655SOL    HW119424   3.597   1.748   1.337  0.2548  0.1877 -0.7776
 2655SOL    HW219425   3.715   1.839   1.344 -0.1432  0.0953 -0.4838
 2656SOL     OW19426   3.397   2.210   2.421  0.0140  0.2274  0.2163
 2656SOL    HW119427   3.483   2.214   2.381  0.0204  0.5825  0.2648
 2656SOL    HW219428   3.358   2.297   2.411 -1.4410 -0.3395  0.9996
 2657SOL     OW19429   4.281   1.777   2.760  0.2516 -0.3960 -0.1579
 2657SOL    HW119430   4.312   1.864   2.734 -0.0709 -0.2092  0.0816
 2657SOL    HW219431   4.210   1.766   2.696  0.6117 -3.9111  0.0448
 2658SOL     OW19432   0.911   3.242   5.661 -0.2935  0.3996  0.2708
 2658SOL    HW119433   0.912   3.314   5.598 -0.6031 -0.1091 -0.3157
 2658SOL    HW219434   1.006   3.235   5.670 -0.5367 -0.8257  1.8218
 2659SOL     OW19435   1.494   0.058   3.306 -0.0270 -0.5833  0.1383
 2659SOL    HW119436   1.531   0.085   3.389 -0.2938 -2.1205  0.7642
 2659SOL    HW219437   1.535   4.691   3.293  1.5533  0.0335  1.1704
 2660SOL     OW19438   1.418   0.436   1.905 -0.0525 -0.1458 -0.6299
 2660SOL    HW119439   1.440   0.437   1.998 -2.7425  1.5844  0.0123
 2660SOL    HW219440   1.483   0.503   1.886 -0.5220 -1.0113 -5.3990
 2661SOL     OW19441   2.296   3.791  14.332  0.1462  0.1419 -0.2626
 2661SOL    HW119442   2.280   3.867  14.387 -3.2615  0.0078 -1.0623
 2661SOL    HW219443   2.389   3.806  14.317 -0.3878  3.2365 -0.4102
 2662SOL     OW19444   4.346   1.916   8.294  0.0373  0.7254 -0.0218
 2662SOL    HW119445   4.405   1.873   8.232  0.2567  2.6043 -1.1248
 2662SOL    HW219446   4.393   1.911   8.377  2.2183  0.9560 -1.2598
 2663SOL     OW19447   0.684   4.010   3.191  0.2242  0.5308 -0.3688
 2663SOL    HW119448   0.684   4.065   3.112 -1.3371  1.6275  0.3919
 2663SOL    HW219449   0.596   4.031   3.224  1.6195  1.4365  2.7842
 2664SOL     OW19450   3.511   4.100   9.123  0.6491  0.4478  0.6300
 2664SOL    HW119451   3.460   4.087   9.043  1.1550  1.8284  0.0729
 2664SOL    HW219452   3.506   4.008   9.147  0.7840  0.4300  0.5883
 2665SOL     OW19453   4.351   1.366   7.978 -0.0513 -0.2277 -0.2291
 2665SOL    HW119454   4.335   1.452   7.940  3.0082 -0.8459 -2.8486
 2665SOL    HW219455   4.267   1.362   8.023  0.1595  3.6743  0.5357
 2666SOL     OW19456   2.453   2.864   7.625 -0.5170  0.2648  0.5259
 2666SOL    HW119457   2.538   2.827   7.648  0.0925 -0.0897 -2.2707
 2666SOL    HW219458   2.481   2.955   7.625 -0.4879  0.2527  1.3099
 2667SOL     OW19459   3.007   1.019   7.538 -0.1472  0.4868  0.6579
 2667SOL    HW119460   2.988   0.948   7.600  2.6214 -0.4822  0.4092
 2667SOL    HW219461   3.012   0.963   7.460  0.0079 -0.0633  1.0648
 2668SOL     OW19462   3.805   1.067  11.545 -0.3364  0.0549  0.5028
 2668SOL    HW119463   3.793   0.972  11.539 -0.1203  0.0462  0.2183
 2668SOL    HW219464   3.862   1.070  11.622  0.3620  0.0999 -0.0114
 2669SOL     OW19465   0.255   1.267  14.204 -0.3611 -0.4336  0.3083
 2669SOL    HW119466   0.174   1.290  14.158 -1.5848 -0.0873  2.6276
 2669SOL    HW219467   0.225   1.209  14.273  0.3915  0.4334  1.3681
 2670SOL     OW19468   1.543   4.114   5.163 -0.2758  0.3732  0.2245
 2670SOL    HW119469   1.534   4.209   5.168 -1.1522  0.3033  0.0984
 2670SOL    HW219470   1.453   4.095   5.192 -0.2850 -1.2201 -0.8338
 2671SOL     OW19471   0.142   0.547   1.043  0.7974  0.0279  0.1434
 2671SOL    HW119472   0.142   0.641   1.060  2.3668  0.0891 -0.1674
 2671SOL    HW219473   0.223   0.532   0.994  0.8623  2.2365 -0.4143
 2672SOL     OW19474   2.641   2.127  12.417  0.5443  0.0111 -0.0777
 2672SOL    HW119475   2.649   2.154  12.325 -1.0467  0.2192 -0.1549
 2672SOL    HW219476   2.549   2.150  12.430  0.3752 -0.6052 -0.1421
 2673SOL     OW19477   2.643   3.093   5.793  0.5571  0.2389  0.0333
 2673SOL    HW119478   2.608   3.092   5.703 -1.1929 -1.2541  0.7198
 2673SOL    HW219479   2.727   3.127   5.763  2.2470 -0.3918  4.1347
 2674SOL     OW19480   2.246   3.587  14.015 -0.0855  0.1864 -0.5680
 2674SOL    HW119481   2.309   3.524  14.050 -0.3259  0.8567  1.0733
 2674SOL    HW219482   2.291   3.669  14.034 -1.1016  0.7037 -0.3420
 2675SOL     OW19483   1.584   4.604   5.697 -0.3401 -0.1142 -0.2401
 2675SOL    HW119484   1.534   4.650   5.629  1.6989  1.4743 -0.6571
 2675SOL    HW219485   1.635   4.540   5.648 -0.6984  0.1694 -0.9894
 2676SOL     OW19486   1.475   2.038  15.194  0.4499  0.0493  0.5012
 2676SOL    HW119487   1.542   2.026  15.261 -0.7055 -0.7408  1.5184
 2676SOL    HW219488   1.463   2.133  15.188 -1.9823 -0.3175 -0.9009
 2677SOL     OW19489   1.522   1.091  17.085  0.2949 -0.0015 -0.3317
 2677SOL    HW119490   1.516   1.038  17.005  2.4882  1.1216 -1.2259
 2677SOL    HW219491   1.614   1.094  17.111  0.3905 -2.0082 -0.4564
 2678SOL     OW19492   4.514   0.432   2.879 -0.1904 -0.0390 -0.4413
 2678SOL    HW119493   4.465   0.493   2.823  1.1915  1.9983  0.5464
 2678SOL    HW219494   4.602   0.461   2.855 -0.9139  0.7867 -2.0468
 2679SOL     OW19495   2.909   3.919   6.281  0.3513  0.5329 -0.1667
 2679SOL    HW119496   2.890   4.012   6.294  2.5989  0.8703  0.7767
 2679SOL    HW219497   2.896   3.888   6.370 -1.5029  1.6747 -0.0493
 2680SOL     OW19498   4.467   0.348   8.025  0.4946 -0.7643 -0.0693
 2680SOL    HW119499   4.416   0.348   7.944  1.6416  1.9688 -0.7833
 2680SOL    HW219500   4.495   0.256   8.025  1.1754 -0.5599 -1.6087
 2681SOL     OW19501   1.514   3.498   7.542 -0.1125  0.4411  0.6811
 2681SOL    HW119502   1.443   3.461   7.594 -1.8989  0.1944 -1.9749
 2681SOL    HW219503   1.576   3.425   7.531  0.1025  0.4379  1.8970
 2682SOL     OW19504   0.779   3.438   2.891  0.3566  0.0746 -0.4882
 2682SOL    HW119505   0.761   3.470   2.802  1.7929 -0.8115 -1.1013
 2682SOL    HW219506   0.695   3.401   2.919  0.8105 -2.2371 -2.1591
 2683SOL     OW19507   3.842   2.477  10.009  0.4520  0.0054 -0.2939
 2683SOL    HW119508   3.793   2.400  10.035  1.0771 -0.8651 -1.6603
 2683SOL    HW219509   3.783   2.529   9.954 -0.0298 -0.7484 -0.4788
 2684SOL     OW19510   0.479   2.254   6.564  0.4974 -0.2999  0.1469
 2684SOL    HW119511   0.394   2.287   6.594  1.4236 -0.2177  2.6924
 2684SOL    HW219512   0.536   2.315   6.611 -1.2368  1.5884 -0.2105
 2685SOL     OW19513   2.078   3.449   3.233  0.6934  0.2864 -0.0802
 2685SOL    HW119514   2.003   3.486   3.187  0.0143 -1.3906 -0.3369
 2685SOL    HW219515   2.091   3.364   3.189 -1.5710 -0.1477  0.0939
 2686SOL     OW19516   0.318   3.229  16.736  0.2796  0.2751 -0.0473
 2686SOL    HW119517   0.282   3.207  16.822 -3.2666 -1.3340 -1.9512
 2686SOL    HW219518   0.238   3.263  16.696 -0.2979 -0.4077  0.5295
 2687SOL     OW19519   0.633   4.462  17.290  0.5225 -0.2841  0.4538
 2687SOL    HW119520   0.624   4.543  17.340  1.1857  1.0377 -1.5629
 2687SOL    HW219521   0.706   4.493  17.236 -0.8433  1.5628 -0.3117
 2688SOL     OW19522   0.594   2.084   8.187 -0.1827  0.6061  0.0792
 2688SOL    HW119523   0.644   2.139   8.247  0.0874  0.8978 -0.4117
 2688SOL    HW219524   0.591   2.004   8.240  1.5364 -0.0504 -0.8123
 2689SOL     OW19525   3.117   1.595   4.416 -0.3746 -0.6406 -0.2873
 2689SOL    HW119526   3.058   1.671   4.420 -0.9357 -1.1025  0.4602
 2689SOL    HW219527   3.201   1.634   4.396 -0.3122 -1.2821 -1.2356
 2690SOL     OW19528   3.179   1.963   5.014 -0.4951 -0.4406 -0.4642
 2690SOL    HW119529   3.176   2.044   4.963  0.1763  0.2986  0.6740
 2690SOL    HW219530   3.217   1.997   5.095 -1.4091  0.2495 -0.3254
 2691SOL     OW19531   0.567   0.024  11.062 -0.8278 -0.4598  0.4845
 2691SOL    HW119532   0.504   0.043  11.132 -1.5420 -2.8724  0.4963
 2691SOL    HW219533   0.534   0.084  10.994  1.9924  0.7683  0.2119
 2692SOL     OW19534   1.830   3.083   7.352  0.1109 -0.0472  0.7411
 2692SOL    HW119535   1.910   3.118   7.313  0.7510 -0.2472  1.8824
 2692SOL    HW219536   1.799   3.036   7.275  1.0925 -0.1573  0.4209
 2693SOL     OW19537   2.941   0.990   8.396 -0.1641  0.5282 -0.5209
 2693SOL    HW119538   3.017   1.048   8.392  0.4821 -0.2958 -0.3306
 2693SOL    HW219539   2.943   0.945   8.312  0.6836  0.2762 -0.3674
 2694SOL     OW19540   1.777   0.512   8.944  0.0941  0.1712  0.0825
 2694SOL    HW119541   1.727   0.459   9.006 -0.2448  2.1345  1.4816
 2694SOL    HW219542   1.845   0.449   8.920 -2.8573 -2.5186 -1.1959
 2695SOL     OW19543   3.650   3.850   3.277 -0.2946  0.0201  0.2847
 2695SOL    HW119544   3.578   3.791   3.257  0.1264  0.8449 -3.6302
 2695SOL    HW219545   3.602   3.923   3.315 -1.7231  0.6446 -2.6820
 2696SOL     OW19546   4.160   2.550   8.297  0.0793  0.0337  0.0148
 2696SOL    HW119547   4.196   2.462   8.301 -1.4882 -0.7174 -2.5054
 2696SOL    HW219548   4.110   2.545   8.379  1.0815 -1.8140  0.5144
 2697SOL     OW19549   1.434   2.757   4.376  0.4576  0.3832  0.3478
 2697SOL    HW119550   1.379   2.802   4.312  1.3580  1.9117  0.6515
 2697SOL    HW219551   1.492   2.714   4.314  1.6405  0.1353  1.6114
 2698SOL     OW19552   1.696   1.222   6.908  0.3180  0.2909  0.1347
 2698SOL    HW119553   1.669   1.166   6.981  1.3610 -1.7847 -1.0654
 2698SOL    HW219554   1.645   1.198   6.831 -0.3705  0.4771  0.5334
 2699SOL     OW19555   2.820   0.895  15.254 -0.5528 -0.0297 -0.0100
 2699SOL    HW119556   2.900   0.946  15.265 -2.3380  3.0109 -1.2325
 2699SOL    HW219557   2.809   0.863  15.344  0.3496  3.1567  1.2211
 2700SOL     OW19558   3.845   3.055   2.611  0.1579 -0.0650  0.2582
 2700SOL    HW119559   3.821   3.037   2.520 -0.4965  1.7211  0.0837
 2700SOL    HW219560   3.834   2.967   2.646 -1.1634 -1.2373 -3.0627
 2701SOL     OW19561   3.675   0.438   2.758 -0.0669  0.3870  0.8262
 2701SOL    HW119562   3.672   0.523   2.804  0.5848  1.6556 -1.4758
 2701SOL    HW219563   3.582   0.416   2.748 -0.1687  1.5914 -0.8486
 2702SOL     OW19564   2.857   2.246   7.940  0.3501  0.2069  0.3252
 2702SOL    HW119565   2.794   2.280   7.876  1.1133  1.4416  0.2267
 2702SOL    HW219566   2.798   2.231   8.014  1.3592  1.7341  1.4324
 2703SOL     OW19567   4.322   2.928   4.678 -0.8455 -0.4169 -0.3103
 2703SOL    HW119568   4.245   2.873   4.666 -0.0125 -1.6919  0.1688
 2703SOL    HW219569   4.315   2.959   4.768  1.1735  0.3598 -0.4134
 2704SOL     OW19570   2.933   1.699  17.362 -0.6148  0.3545 -0.3703
 2704SOL    HW119571   2.906   1.791  17.371 -0.7039  0.4560 -1.6126
 2704SOL    HW219572   2.981   1.690  17.279  1.9348  0.6098  1.0760
 2705SOL     OW19573   3.719   2.223   3.367 -0.0753  0.8553 -0.1345
 2705SOL    HW119574   3.672   2.306   3.376 -0.2538  0.7731 -0.2994
 2705SOL    HW219575   3.680   2.176   3.441  2.2575  0.0559  0.5986
 2706SOL     OW19576   2.813   3.447  13.179  0.1138  0.4368 -0.1138
 2706SOL    HW119577   2.889   3.437  13.235 -0.5403 -0.6573  0.5808
 2706SOL    HW219578   2.836   3.519  13.120 -1.4005  0.5555 -0.5619
 2707SOL     OW19579   4.349   3.284   9.000 -0.0288  0.5306  0.9879
 2707SOL    HW119580   4.444   3.282   9.011  0.2397 -2.7395 -2.0906
 2707SOL    HW219581   4.314   3.213   9.054 -0.2652  0.5151  0.8133
 2708SOL     OW19582   2.727   4.134   2.238 -0.4917  0.0791 -0.1920
 2708SOL    HW119583   2.762   4.100   2.321 -0.8168 -0.2281 -0.1836
 2708SOL    HW219584   2.639   4.157   2.268 -0.9649  1.0309 -2.2747
 2709SOL     OW19585   1.322   4.092   7.525 -0.3161  0.4038 -0.2017
 2709SOL    HW119586   1.395   4.092   7.588  0.6181  0.1402 -1.2743
 2709SOL    HW219587   1.241   4.098   7.575  0.3093 -1.1468  0.9793
 2710SOL     OW19588   1.581   1.315  14.236 -0.0030 -0.0333  1.0269
 2710SOL    HW119589   1.548   1.312  14.146 -0.5952 -2.0084  1.2980
 2710SOL    HW219590   1.497   1.323  14.281  0.7639  2.1799  2.0710
 2711SOL     OW19591   2.670   1.168  15.187  0.5007 -0.2737  0.7175
 2711SOL    HW119592   2.725   1.193  15.114  2.2119 -0.2448  2.0210
 2711SOL    HW219593   2.677   1.073  15.180  0.8932 -0.2062  0.2595
 2712SOL     OW19594   4.476   1.119   1.073  0.4083 -0.4981  0.4181
 2712SOL    HW119595   4.435   1.095   1.157  0.8064 -0.8030  0.5235
 2712SOL    HW219596   4.439   1.055   1.013 -0.8686 -1.7654  2.5180
 2713SOL     OW19597   2.570   0.336   9.385 -0.4469  0.0473 -0.1047
 2713SOL    HW119598   2.665   0.347   9.381 -0.5715  0.9785 -0.4223
 2713SOL    HW219599   2.538   0.344   9.295  0.6043 -0.3986 -0.5138
 2714SOL     OW19600   4.201   1.419   0.759  0.2934  0.6799 -0.0972
 2714SOL    HW119601   4.109   1.409   0.781  0.2184 -0.3758 -0.8708
 2714SOL    HW219602   4.227   1.444   0.848  0.2233  1.5240 -0.3167
 2715SOL     OW19603   0.639   2.559   9.560  0.1877 -0.2650  0.1595
 2715SOL    HW119604   0.550   2.534   9.534  2.0581 -3.5276 -2.9431
 2715SOL    HW219605   0.691   2.571   9.481  0.3920 -2.3622 -0.0148
 2716SOL     OW19606   0.077   2.305   5.980  0.0105  0.2731  0.2895
 2716SOL    HW119607   0.158   2.277   6.023 -0.4882 -3.0450 -0.9489
 2716SOL    HW219608   0.109   2.321   5.891 -0.1512 -3.0247 -0.3665
 2717SOL     OW19609   1.758   0.765   1.705  0.5941  0.1386  0.1102
 2717SOL    HW119610   1.780   0.782   1.613 -0.0454 -1.2489 -0.3032
 2717SOL    HW219611   1.688   0.829   1.722 -0.3014 -0.3166 -1.7683
 2718SOL     OW19612   3.465   4.582   2.992  0.2928 -0.4303 -0.1384
 2718SOL    HW119613   3.376   4.564   3.023  1.0887 -1.9789  1.2244
 2718SOL    HW219614   3.455   4.676   2.975  1.4001 -0.4047 -0.6182
 2719SOL     OW19615   2.418   0.166   8.103 -0.0853  0.1146 -0.7733
 2719SOL    HW119616   2.464   0.109   8.041 -2.0582 -0.7751 -1.4210
 2719SOL    HW219617   2.325   0.140   8.101 -0.0927  0.1927 -1.3528
 2720SOL     OW19618   1.147   0.384   4.062  0.0395 -0.1356  0.0193
 2720SOL    HW119619   1.166   0.420   3.975  0.2234  1.3231  0.6637
 2720SOL    HW219620   1.068   0.332   4.047  0.4101 -0.4693 -0.7563
 2721SOL     OW19621   3.861   3.365   4.730  0.5607 -0.1456 -0.0603
 2721SOL    HW119622   3.837   3.453   4.759  0.8868  0.1366 -0.6401
 2721SOL    HW219623   3.939   3.365   4.785  0.6672 -2.8850 -0.2487
 2722SOL     OW19624   0.287   2.490   3.229 -0.3347 -0.0998 -0.2843
 2722SOL    HW119625   0.278   2.548   3.305 -0.8209 -0.8188  0.2011
 2722SOL    HW219626   0.289   2.552   3.156 -1.0815 -0.7519 -0.8527
 2723SOL     OW19627   2.713   2.758   6.356  0.4947  0.0419 -0.1684
 2723SOL    HW119628   2.745   2.841   6.321  1.3533 -0.1787  0.1033
 2723SOL    HW219629   2.620   2.781   6.354  0.1074 -1.4951  0.1367
 2724SOL     OW19630   2.853   2.628   4.423  0.0091 -0.2398 -0.0857
 2724SOL    HW119631   2.914   2.582   4.481 -0.7158 -2.0423 -0.7358
 2724SOL    HW219632   2.809   2.557   4.376 -0.0657  0.8114 -1.5907
 2725SOL     OW19633   4.012   1.675   5.984  0.1708 -0.6062 -0.6120
 2725SOL    HW119634   4.076   1.639   6.045 -0.1613  0.3503  0.3080
 2725SOL    HW219635   3.980   1.599   5.936  0.5114  0.8161 -3.0770
 2726SOL     OW19636   3.247   0.387  14.805 -0.4461 -0.3450  0.3195
 2726SOL    HW119637   3.334   0.376  14.843 -0.9888  0.5898  1.8642
 2726SOL    HW219638   3.211   0.467  14.843 -0.2434  0.4583 -1.1805
 2727SOL     OW19639   0.048   4.464   9.625  0.4528  0.3859 -0.3347
 2727SOL    HW119640   0.029   4.410   9.702  1.1639 -1.6695 -1.5991
 2727SOL    HW219641   0.104   4.412   9.568  0.6707  0.3862 -0.1216
 2728SOL     OW19642   2.741   4.161   8.150 -0.0271 -0.9205 -0.0431
 2728SOL    HW119643   2.698   4.106   8.084 -0.0236  1.5176 -2.0841
 2728SOL    HW219644   2.828   4.180   8.115 -0.2095 -0.3609 -0.1958
 2729SOL     OW19645   2.376   4.332   5.284 -0.2298 -0.3461  0.8543
 2729SOL    HW119646   2.287   4.361   5.268 -0.4331 -0.2129  2.1861
 2729SOL    HW219647   2.412   4.335   5.196  1.6030 -1.8830  1.5461
 2730SOL     OW19648   2.631   1.649  10.139 -0.3566  0.1255 -0.1821
 2730SOL    HW119649   2.667   1.617  10.222 -0.5826 -0.9152 -0.4967
 2730SOL    HW219650   2.696   1.631  10.072  1.7734 -0.2633  1.9803
 2731SOL     OW19651   4.482   3.144   5.210  0.2540 -0.2313 -0.1236
 2731SOL    HW119652   4.556   3.098   5.249 -0.0572 -0.6443 -0.0205
 2731SOL    HW219653   4.526   3.179   5.133  0.0826  0.8639  0.2810
 2732SOL     OW19654   2.054   0.433   4.971 -0.6106  0.1825 -0.1626
 2732SOL    HW119655   1.997   0.431   4.894  3.0219  0.3607 -2.8337
 2732SOL    HW219656   2.141   0.445   4.935 -0.4563  1.4627  0.6497
 2733SOL     OW19657   1.493   4.299   2.749 -0.0825 -0.1371 -0.1955
 2733SOL    HW119658   1.550   4.222   2.742  0.3846  0.0851  1.3448
 2733SOL    HW219659   1.555   4.368   2.770 -1.5513  0.9494  0.6286
 2734SOL     OW19660   2.662   1.107   8.053  0.0964 -0.0328  0.0174
 2734SOL    HW119661   2.667   1.023   8.008 -3.0692 -1.6961  2.7440
 2734SOL    HW219662   2.619   1.151   7.980 -2.1394 -0.3267  1.1505
 2735SOL     OW19663   0.957   1.808  17.064 -0.0276  0.0875 -0.1520
 2735SOL    HW119664   1.052   1.817  17.072 -0.2975  0.9298  2.0029
 2735SOL    HW219665   0.949   1.726  17.112 -1.8816  0.3847  0.0299
 2736SOL     OW19666   0.074   2.686   5.803 -0.0458 -0.1080 -0.1037
 2736SOL    HW119667   0.153   2.731   5.830 -0.8732  1.3047 -0.0603
 2736SOL    HW219668   0.098   2.594   5.815  0.7380  0.1397  0.1970
 2737SOL     OW19669   0.336   2.636   6.562 -0.3625 -0.3582  0.6872
 2737SOL    HW119670   0.424   2.600   6.573  0.1509  0.3144 -1.2207
 2737SOL    HW219671   0.359   2.729   6.557 -0.0337 -0.4417  0.6275
 2738SOL     OW19672   1.852   3.452   7.684  0.5593 -0.5062 -0.0463
 2738SOL    HW119673   1.797   3.377   7.658  0.3251 -1.1480  2.3119
 2738SOL    HW219674   1.852   3.500   7.602  2.6354  2.4575  1.7097
 2739SOL     OW19675   4.665   2.460   6.174 -0.1718 -0.3185 -0.0074
 2739SOL    HW119676   4.717   2.392   6.131 -0.1624  0.5101 -1.3156
 2739SOL    HW219677   4.583   2.475   6.127  0.2613  0.0918 -0.6367
 2740SOL     OW19678   1.430   4.148  16.977 -0.4779 -0.8208 -0.1898
 2740SOL    HW119679   1.447   4.239  17.001  3.7052 -1.5982 -0.2039
 2740SOL    HW219680   1.374   4.113  17.047 -0.0809 -0.9003  0.0879
 2741SOL     OW19681   3.301   4.488   6.854 -0.3955  0.0161 -0.0489
 2741SOL    HW119682   3.313   4.393   6.857 -0.1955  0.0477  0.1146
 2741SOL    HW219683   3.273   4.513   6.942  0.2508  0.1791  0.1080
 2742SOL     OW19684   2.394   4.539  13.916 -0.1216  0.6770  0.2833
 2742SOL    HW119685   2.437   4.621  13.941 -1.5785  1.3406  0.6019
 2742SOL    HW219686   2.302   4.565  13.910 -0.6357 -1.9441 -2.9676
 2743SOL     OW19687   2.668   2.157  17.268  0.1177  0.2656  0.3508
 2743SOL    HW119688   2.621   2.212  17.205 -1.4317  0.4347  1.6529
 2743SOL    HW219689   2.741   2.215  17.287  0.1621  0.8263 -1.5179
 2744SOL     OW19690   1.268   0.498  12.227 -0.3790 -0.2875 -0.5222
 2744SOL    HW119691   1.242   0.514  12.137 -0.3742  0.2778 -0.4227
 2744SOL    HW219692   1.212   0.421  12.240 -1.2587 -0.0289 -2.8697
 2745SOL     OW19693   1.624   3.753  10.213 -0.1549 -0.2545  0.6476
 2745SOL    HW119694   1.605   3.736  10.121 -1.7501  3.9968  0.1928
 2745SOL    HW219695   1.708   3.798  10.209  0.9716 -2.4012  0.1650
 2746SOL     OW19696   0.135   4.275   2.243 -0.1064  0.1315 -0.2526
 2746SOL    HW119697   0.044   4.254   2.263  0.1051  1.3590  1.9503
 2746SOL    HW219698   0.124   4.341   2.174 -1.4475  0.8588  0.6511
 2747SOL     OW19699   2.328   1.886  17.653  0.3391  0.5002 -0.3253
 2747SOL    HW119700   2.392   1.944  17.611 -0.4208  0.8156 -1.0365
 2747SOL    HW219701   2.261   1.952  17.671  1.1816  1.1501  0.4260
 2748SOL     OW19702   4.707   0.874   3.384  0.2293  0.7748  0.2295
 2748SOL    HW119703   4.707   0.915   3.298  2.8349 -0.3374 -0.3176
 2748SOL    HW219704   4.665   0.944   3.435  0.2094  0.0279  1.2445
 2749SOL     OW19705   4.640   4.255   8.294  0.2480 -0.6892  0.4353
 2749SOL    HW119706   4.551   4.221   8.287  0.5373 -1.1175 -1.0891
 2749SOL    HW219707   4.671   4.249   8.204 -0.0432  0.5870  0.2425
 2750SOL     OW19708   0.176   1.785   4.654 -0.5123 -0.1443 -0.0775
 2750SOL    HW119709   0.105   1.845   4.678  0.5043  0.8027  0.5991
 2750SOL    HW219710   0.123   1.706   4.649 -1.0050  0.1830  0.0572
 2751SOL     OW19711   4.624   2.127  14.668  0.1744 -0.0296  0.0237
 2751SOL    HW119712   4.603   2.043  14.626  0.8040  1.0207 -2.3952
 2751SOL    HW219713   4.695   2.102  14.728 -1.9161 -0.5392  2.2499
 2752SOL     OW19714   3.981   3.629  11.888  0.1273  0.3765  0.2723
 2752SOL    HW119715   3.910   3.687  11.861 -0.9497  0.1938  2.7350
 2752SOL    HW219716   4.014   3.603  11.802 -0.4827  0.7948 -0.0938
 2753SOL     OW19717   2.286   4.667   6.449 -0.6056  0.3533  0.4052
 2753SOL    HW119718   2.357   4.703   6.397  0.6903 -1.7629  0.6991
 2753SOL    HW219719   2.228   0.024   6.447  0.3687  1.1654  2.9891
 2754SOL     OW19720   3.078   0.939  13.284  0.0766  0.5153 -0.4057
 2754SOL    HW119721   3.029   1.015  13.315  0.5445  0.2077  1.0912
 2754SOL    HW219722   3.142   0.987  13.232 -1.1034  1.9302 -0.5700
 2755SOL     OW19723   1.244   1.068  15.188  0.1492  0.0274 -0.4220
 2755SOL    HW119724   1.221   0.978  15.165  0.7966  0.1428 -1.5453
 2755SOL    HW219725   1.186   1.087  15.261  0.5721  0.9323 -0.3269
 2756SOL     OW19726   1.599   3.198   7.203  0.3273  0.2586 -0.0606
 2756SOL    HW119727   1.519   3.250   7.199 -1.2715 -2.1814 -0.1301
 2756SOL    HW219728   1.667   3.260   7.227  1.2023 -1.4773  1.9918
 2757SOL     OW19729   2.467   1.183  16.476 -0.4420  0.3714  0.1721
 2757SOL    HW119730   2.520   1.260  16.460 -1.7370  1.2098 -0.0814
 2757SOL    HW219731   2.432   1.162  16.390  1.3470 -1.0403 -0.2181
 2758SOL     OW19732   0.280   1.317   2.003  0.3943 -0.1614 -0.1056
 2758SOL    HW119733   0.369   1.297   2.033 -0.0992 -2.0335  0.1279
 2758SOL    HW219734   0.288   1.282   1.915 -0.2472  2.6367 -1.2882
 2759SOL     OW19735   2.542   0.799   5.127 -0.2610 -0.6607  0.5488
 2759SOL    HW119736   2.571   0.884   5.159 -0.1788 -1.1686  1.8387
 2759SOL    HW219737   2.604   0.735   5.162 -0.2271 -0.7182  0.3860
 2760SOL     OW19738   3.464   1.935   5.574 -0.4044 -0.8494  0.5036
 2760SOL    HW119739   3.443   1.964   5.663 -1.7837 -3.4910  1.0325
 2760SOL    HW219740   3.545   1.985   5.566 -0.4482 -1.0449 -1.0742
 2761SOL     OW19741   2.862   3.249   3.674  0.4757  0.9851  0.0635
 2761SOL    HW119742   2.932   3.211   3.622 -0.5671 -1.1398  0.2202
 2761SOL    HW219743   2.792   3.258   3.609  0.5684 -1.3629 -0.3407
 2762SOL     OW19744   3.880   2.363  15.265  0.3106 -0.3578  0.6001
 2762SOL    HW119745   3.805   2.332  15.316 -1.9590  1.5606 -1.5461
 2762SOL    HW219746   3.929   2.401  15.337  0.1410  2.4187 -0.7589
 2763SOL     OW19747   1.503   1.200   9.024 -0.0704 -0.2895 -0.1785
 2763SOL    HW119748   1.517   1.122   8.970 -1.6125  0.8522 -2.2416
 2763SOL    HW219749   1.569   1.186   9.092  1.3227 -0.7258 -1.6083
 2764SOL     OW19750   1.087   3.570   3.867 -0.3705 -0.7430 -0.4312
 2764SOL    HW119751   1.178   3.577   3.836  0.1189 -0.2542  1.1251
 2764SOL    HW219752   1.082   3.480   3.897  0.6160 -0.4252  0.7027
 2765SOL     OW19753   1.254   2.525   2.040 -0.0432 -0.5567  0.2244
 2765SOL    HW119754   1.197   2.507   1.965 -0.2987 -0.1978  0.3344
 2765SOL    HW219755   1.187   2.536   2.108  1.3791 -0.6472  1.6212
 2766SOL     OW19756   2.588   3.191  13.399  0.0918 -0.7352 -0.1538
 2766SOL    HW119757   2.573   3.240  13.480 -0.7427 -0.1736 -0.6455
 2766SOL    HW219758   2.515   3.220  13.344 -0.1146 -0.7534  0.1063
 2767SOL     OW19759   2.279   4.207   2.552 -0.1199  0.6161  0.3705
 2767SOL    HW119760   2.268   4.292   2.510 -0.1843  0.9536  1.0595
 2767SOL    HW219761   2.258   4.141   2.486  0.9042  0.9684 -0.3067
 2768SOL     OW19762   0.599   0.693   0.921 -0.4456  0.1024  0.1526
 2768SOL    HW119763   0.588   0.768   0.980 -0.0229 -1.0203  1.6656
 2768SOL    HW219764   0.590   0.615   0.976 -0.3344  0.8202  1.1855
 2769SOL     OW19765   3.259   1.912  13.720 -0.1263 -0.3093 -0.1354
 2769SOL    HW119766   3.295   1.930  13.806 -0.5847  1.9476 -0.3997
 2769SOL    HW219767   3.330   1.863  13.679 -1.4322 -1.6445 -0.8330
 2770SOL     OW19768   1.207   0.661   9.185  0.0882 -0.4109 -0.3419
 2770SOL    HW119769   1.212   0.635   9.277  0.2054  0.8143  0.0029
 2770SOL    HW219770   1.129   0.716   9.188  0.6020  0.2094  2.1793
 2771SOL     OW19771   1.256   4.504   5.634 -0.0208 -0.0965  0.1653
 2771SOL    HW119772   1.162   4.492   5.652 -0.2425  3.0036  1.0228
 2771SOL    HW219773   1.253   4.515   5.539  2.7636  0.2479  0.1290
 2772SOL     OW19774   3.525   3.689  15.250  0.3601  0.1432  0.2154
 2772SOL    HW119775   3.550   3.751  15.182 -1.3633 -0.9986 -1.4409
 2772SOL    HW219776   3.593   3.713  15.313  2.0426 -1.1664 -1.0909
 2773SOL     OW19777   4.716   3.581   3.360 -0.0544  0.0788 -0.7423
 2773SOL    HW119778   0.065   3.602   3.424  0.1799 -1.0611 -0.6174
 2773SOL    HW219779   4.702   3.665   3.316 -0.4134  0.1519 -0.4892
 2774SOL     OW19780   0.247   0.909   3.207  0.1289 -0.2537 -0.5282
 2774SOL    HW119781   0.164   0.949   3.180 -0.1738 -1.3498 -1.2198
 2774SOL    HW219782   0.307   0.924   3.133  2.0113 -0.6952  0.9137
 2775SOL     OW19783   2.706   0.728   3.112  0.2816  0.0054 -0.0614
 2775SOL    HW119784   2.770   0.659   3.127  0.7127  0.1657 -1.1600
 2775SOL    HW219785   2.760   0.776   3.049  0.3351  1.9153  1.4630
 2776SOL     OW19786   3.510   2.132   7.102  0.2495  0.4222  0.3558
 2776SOL    HW119787   3.433   2.109   7.154  0.6532  0.1323  0.8237
 2776SOL    HW219788   3.482   2.195   7.036  1.3268 -0.4187 -0.9072
 2777SOL     OW19789   2.195   3.813  12.284  0.6577 -0.1521 -0.3469
 2777SOL    HW119790   2.256   3.799  12.357 -0.7546 -1.4574  0.5704
 2777SOL    HW219791   2.112   3.810  12.331  0.7006 -1.4022 -0.3569
 2778SOL     OW19792   0.900   1.440  15.394  0.7922  0.5900  0.6635
 2778SOL    HW119793   0.931   1.506  15.332 -0.6731  0.5390 -0.1270
 2778SOL    HW219794   0.974   1.380  15.392 -1.0325 -1.7620  2.8452
 2779SOL     OW19795   3.684   3.198   2.786  0.2553  0.2940 -0.5326
 2779SOL    HW119796   3.594   3.177   2.763  0.4853 -0.3261 -0.8592
 2779SOL    HW219797   3.742   3.155   2.724  2.0932  1.2337  0.5372
 2780SOL     OW19798   3.407   2.407   0.124  0.5351  0.2043 -0.0937
 2780SOL    HW119799   3.483   2.398   0.066 -0.1524 -0.0381 -0.9510
 2780SOL    HW219800   3.445   2.446   0.203 -0.4820  4.3803 -1.6661
 2781SOL     OW19801   0.286   4.264   8.406 -0.1423 -0.2062  0.1684
 2781SOL    HW119802   0.232   4.341   8.425  0.4766  0.2674 -0.0066
 2781SOL    HW219803   0.252   4.191   8.458 -0.4831  0.8108  1.3815
 2782SOL     OW19804   4.604   4.183  10.924  0.1816  0.3672 -0.0767
 2782SOL    HW119805   4.680   4.230  10.960  0.4163 -0.1716  0.1268
 2782SOL    HW219806   4.570   4.130  10.995 -0.3932  1.3174  0.3557
 2783SOL     OW19807   1.288   0.301   4.277  0.6696  0.8700 -0.1275
 2783SOL    HW119808   1.235   0.314   4.198  0.6424 -0.0618 -0.2590
 2783SOL    HW219809   1.370   0.345   4.253  0.8692  0.5294 -0.0689
 2784SOL     OW19810   0.525   2.552   4.586  0.1402 -0.0106 -0.1117
 2784SOL    HW119811   0.557   2.618   4.648 -1.0490 -1.0796  1.6376
 2784SOL    HW219812   0.545   2.473   4.636  2.8326  0.9384  0.3243
 2785SOL     OW19813   2.400   2.262  14.223  0.8377  0.0689 -0.5460
 2785SOL    HW119814   2.431   2.175  14.197  0.5306  0.0531 -0.8625
 2785SOL    HW219815   2.308   2.246  14.245  0.9868  2.8678  2.0691
 2786SOL     OW19816   4.669   2.091   0.387  0.2332  0.2233  0.2032
 2786SOL    HW119817   4.599   2.025   0.393 -1.5454  2.2155  1.2038
 2786SOL    HW219818   4.687   2.089   0.481  0.7008 -0.4797  0.0984
 2787SOL     OW19819   0.588   0.494   5.744 -0.3399 -0.1238 -0.6326
 2787SOL    HW119820   0.610   0.548   5.820 -2.0045 -0.4286  0.0717
 2787SOL    HW219821   0.659   0.429   5.749 -0.0935  0.1085 -1.1639
 2788SOL     OW19822   2.576   4.094   8.357 -0.0086 -0.2360 -0.2714
 2788SOL    HW119823   2.632   4.019   8.378  0.0593 -0.1294 -0.0683
 2788SOL    HW219824   2.636   4.137   8.295 -1.7847  0.6060 -1.3961
 2789SOL     OW19825   0.849   0.394  16.832  0.1786  0.0734  0.3544
 2789SOL    HW119826   0.944   0.402  16.836  0.5215 -1.8833 -4.0058
 2789SOL    HW219827   0.816   0.482  16.851  2.9985  0.9771  0.9915
 2790SOL     OW19828   2.381   1.152  16.211 -0.3480  0.4486  0.6631
 2790SOL    HW119829   2.304   1.195  16.176 -0.3962 -1.2461 -1.3626
 2790SOL    HW219830   2.345   1.064  16.197  0.4348  0.1866  0.2474
 2791SOL     OW19831   2.332   1.923   7.827  0.2968  0.0493 -0.0737
 2791SOL    HW119832   2.371   1.986   7.766 -1.8033  1.1123 -0.3133
 2791SOL    HW219833   2.345   1.848   7.769  0.4059 -0.0345  0.0597
 2792SOL     OW19834   3.923   3.614   4.549  0.5326 -0.0432  0.4135
 2792SOL    HW119835   3.835   3.583   4.528  0.3393  1.9746 -1.7926
 2792SOL    HW219836   3.903   3.669   4.625 -0.2699 -0.5699  0.5822
 2793SOL     OW19837   4.564   0.791  15.133  0.0582 -0.0877  0.8560
 2793SOL    HW119838   4.616   0.720  15.172  0.2901 -1.0184 -1.1543
 2793SOL    HW219839   4.593   0.868  15.183  0.5046  0.8520 -0.8575
 2794SOL     OW19840   1.053   4.114   6.442  0.0349  0.1861 -0.2700
 2794SOL    HW119841   1.102   4.044   6.486 -0.8143  0.0725  0.4787
 2794SOL    HW219842   1.081   4.096   6.352  1.5663  1.6025 -0.0677
 2795SOL     OW19843   2.465   0.605   7.613 -0.7938  0.1428  0.6621
 2795SOL    HW119844   2.385   0.558   7.591 -0.7810  1.0767 -1.3403
 2795SOL    HW219845   2.436   0.687   7.575 -0.0457  0.6755  1.2489
 2796SOL     OW19846   2.682   3.193   3.850 -0.0229 -0.1768  0.5320
 2796SOL    HW119847   2.722   3.112   3.884 -0.1039  0.5139  2.3019
 2796SOL    HW219848   2.749   3.224   3.789  0.2773  0.0979  0.9954
 2797SOL     OW19849   0.680   4.048   4.397 -0.3595  0.4363 -0.2298
 2797SOL    HW119850   0.740   4.019   4.329  0.4135  4.0820 -1.0935
 2797SOL    HW219851   0.719   4.133   4.417 -0.4442  0.4864 -0.2816
 2798SOL     OW19852   0.270   1.432   8.768  0.0507  0.1356  0.1598
 2798SOL    HW119853   0.296   1.458   8.856 -0.7302 -0.8523  0.6951
 2798SOL    HW219854   0.330   1.360   8.747 -1.7567 -0.8462 -1.6964
 2799SOL     OW19855   3.621   4.430   0.148 -0.0564 -0.1288 -0.1966
 2799SOL    HW119856   3.535   4.458   0.181 -0.6719 -1.5189 -0.6276
 2799SOL    HW219857   3.591   4.405   0.060  4.5629  0.8026 -2.0569
 2800SOL     OW19858   0.238   2.697   3.041  0.4226 -0.5482  0.7003
 2800SOL    HW119859   0.247   2.776   2.986 -1.9300 -0.2478  0.7300
 2800SOL    HW219860   0.188   2.645   2.978 -0.7135  1.5340 -0.1415
 2801SOL     OW19861   2.104   3.425  14.402  0.3447 -0.7975  0.7820
 2801SOL    HW119862   2.197   3.400  14.400  0.5167  0.1861 -2.0463
 2801SOL    HW219863   2.096   3.516  14.376  2.8401 -1.1978 -1.4308
 2802SOL     OW19864   0.420   1.300   1.540 -0.6078  0.2380 -0.0041
 2802SOL    HW119865   0.456   1.288   1.452  2.5683  1.0471  1.1965
 2802SOL    HW219866   0.386   1.389   1.537 -0.0937  0.4076 -0.6861
 2803SOL     OW19867   3.403   1.127   4.621  0.1435 -0.4956 -0.3871
 2803SOL    HW119868   3.389   1.192   4.552 -0.5241  0.0891  0.2960
 2803SOL    HW219869   3.429   1.060   4.558 -0.0708 -0.6984 -0.2582
 2804SOL     OW19870   3.819   2.443   5.343  0.1687  0.3836  0.5233
 2804SOL    HW119871   3.905   2.440   5.385  0.3569 -3.1955 -0.1474
 2804SOL    HW219872   3.815   2.516   5.282  2.6098 -0.1871 -0.3309
 2805SOL     OW19873   3.718   2.488   4.464 -0.4725  0.1094  0.0687
 2805SOL    HW119874   3.752   2.449   4.384  1.3401  0.3431  0.7171
 2805SOL    HW219875   3.761   2.573   4.458  0.9117 -0.8137 -3.1877
 2806SOL     OW19876   3.058   4.600   8.713 -0.1567 -0.6329 -0.3997
 2806SOL    HW119877   3.004   4.655   8.770  2.2121  0.2856  0.9610
 2806SOL    HW219878   3.044   4.638   8.626  0.2572 -2.0814 -1.0959
 2807SOL     OW19879   0.800   0.118   1.830  0.2876 -0.3043 -0.3143
 2807SOL    HW119880   0.745   0.172   1.773 -0.6472 -2.2968 -1.2899
 2807SOL    HW219881   0.842   0.067   1.762 -1.1514  0.9632 -2.1443
 2808SOL     OW19882   1.958   4.000   6.729  0.2015 -0.2707 -0.2509
 2808SOL    HW119883   2.043   3.957   6.742 -1.2949 -2.6202  1.6129
 2808SOL    HW219884   1.996   4.085   6.753  1.2229 -0.6367 -0.5765
 2809SOL     OW19885   3.663   1.241  16.793 -0.0961  0.5928  0.6923
 2809SOL    HW119886   3.716   1.229  16.871  2.4673 -2.4278 -1.5195
 2809SOL    HW219887   3.679   1.329  16.760  0.8260  0.0701 -0.2306
 2810SOL     OW19888   3.392   3.073  15.793  0.4500  0.0044  0.4077
 2810SOL    HW119889   3.480   3.036  15.785  0.7670  1.3120 -2.0257
 2810SOL    HW219890   3.331   3.020  15.744 -0.3419  1.8814 -0.6425
 2811SOL     OW19891   0.447   4.659  16.685  0.3501  0.1051 -0.1245
 2811SOL    HW119892   0.394   0.006  16.730  1.5605  0.6177  0.5497
 2811SOL    HW219893   0.444   4.682  16.592  0.6278  0.2779 -0.0919
 2812SOL     OW19894   3.564   0.524  16.147  0.1557  0.0807 -0.3167
 2812SOL    HW119895   3.506   0.534  16.071 -0.5527 -1.9564 -0.0400
 2812SOL    HW219896   3.581   0.611  16.184  1.7637 -1.1942  1.9331
 2813SOL     OW19897   3.616   3.504  11.848 -0.3500 -0.1860 -0.2061
 2813SOL    HW119898   3.623   3.599  11.835  0.4538 -0.3019 -0.6427
 2813SOL    HW219899   3.639   3.480  11.758  0.4327 -2.5317  0.6232
 2814SOL     OW19900   2.780   1.079   3.142 -0.4584 -0.1103 -0.6909
 2814SOL    HW119901   2.836   1.108   3.214 -1.3253 -2.3385  0.8803
 2814SOL    HW219902   2.833   1.082   3.063  0.5599  1.2195  0.0476
 2815SOL     OW19903   0.745   3.861   6.083 -0.4399  0.5208  0.4952
 2815SOL    HW119904   0.680   3.795   6.105 -0.5360 -0.2371 -2.0709
 2815SOL    HW219905   0.796   3.834   6.006  1.5385  2.2018  1.2135
 2816SOL     OW19906   3.695   3.315   3.745  0.5948  0.0067  0.0512
 2816SOL    HW119907   3.623   3.254   3.728  1.0912 -0.4481 -0.4183
 2816SOL    HW219908   3.662   3.389   3.694 -3.6197 -2.2531 -0.4877
 2817SOL     OW19909   0.655   3.756   3.860 -0.5715 -0.3803  0.3334
 2817SOL    HW119910   0.748   3.771   3.847 -0.4272 -2.5272 -1.1126
 2817SOL    HW219911   0.641   3.668   3.825  1.0992 -0.7138  0.5074
 2818SOL     OW19912   2.073   4.532   8.722  0.1130 -0.1322  0.2296
 2818SOL    HW119913   2.056   4.440   8.745 -3.6571  0.9237  1.7538
 2818SOL    HW219914   2.137   4.570   8.783 -0.8183  2.4640 -0.4120
 2819SOL     OW19915   3.110   1.081  16.066 -0.5025 -0.5913  0.4598
 2819SOL    HW119916   3.094   1.173  16.088 -0.2722 -0.7135  1.1506
 2819SOL    HW219917   3.027   1.069  16.019  0.2015 -2.1641 -0.3737
 2820SOL     OW19918   2.339   0.955   1.881 -0.4707  0.1326  0.1384
 2820SOL    HW119919   2.347   1.041   1.922 -0.9848  1.2902 -2.2020
 2820SOL    HW219920   2.385   0.895   1.940 -2.1122 -1.0507  0.2061
 2821SOL     OW19921   4.536   3.318  15.842 -0.1154  0.3707  0.4792
 2821SOL    HW119922   4.560   3.385  15.906  0.5139  0.2336  0.3891
 2821SOL    HW219923   4.625   3.283  15.834 -0.3417 -0.4176  1.5418
 2822SOL     OW19924   2.144   4.258   8.217  0.4072  0.3298  0.0533
 2822SOL    HW119925   2.196   4.296   8.146 -0.2335 -0.6078 -0.9098
 2822SOL    HW219926   2.174   4.169   8.199  1.0734  0.8225 -1.2748
 2823SOL     OW19927   3.663   2.690   2.934 -0.9575 -0.1694  0.1368
 2823SOL    HW119928   3.602   2.663   2.865 -0.2349 -0.6275 -0.3152
 2823SOL    HW219929   3.607   2.728   3.002  1.3898  2.7508  0.4197
 2824SOL     OW19930   4.563   4.162   2.003  0.6773 -0.0472 -0.0622
 2824SOL    HW119931   4.577   4.075   2.042  3.3819 -0.3878 -1.7866
 2824SOL    HW219932   4.654   4.180   1.978  1.0922 -0.7203  0.9362
 2825SOL     OW19933   1.515   4.160   7.324 -0.4170 -0.7127 -0.0154
 2825SOL    HW119934   1.552   4.072   7.332 -1.6110 -1.0625  1.6133
 2825SOL    HW219935   1.452   4.156   7.396 -1.6471  0.6930 -1.0277
 2826SOL     OW19936   2.258   1.014   7.828 -0.5542 -0.1801 -0.2351
 2826SOL    HW119937   2.241   0.929   7.868 -0.1203  0.8208  2.0641
 2826SOL    HW219938   2.178   1.062   7.851  0.5295  0.9123  1.2409
 2827SOL     OW19939   3.147   0.567   7.002  0.0250  0.3995 -0.1580
 2827SOL    HW119940   3.154   0.472   7.016  0.9017  0.4390 -0.3139
 2827SOL    HW219941   3.234   0.603   7.017  0.6811 -0.9390 -0.7126
 2828SOL     OW19942   3.730   3.159   1.011  0.1523 -0.5901 -0.0243
 2828SOL    HW119943   3.688   3.142   0.926  1.7165 -3.7706 -0.1655
 2828SOL    HW219944   3.711   3.082   1.064 -1.9662 -0.1386 -0.1487
 2829SOL     OW19945   2.898   2.975   4.751 -0.1633  0.3168 -0.1074
 2829SOL    HW119946   2.918   2.923   4.673 -0.4688 -2.1590  1.4809
 2829SOL    HW219947   2.807   2.950   4.761  1.0063 -3.1442  2.0064
 2830SOL     OW19948   0.296   4.327   5.106 -0.2695  0.6417 -0.1849
 2830SOL    HW119949   0.367   4.282   5.060  0.0302 -0.7215  1.6322
 2830SOL    HW219950   0.350   4.380   5.165 -0.9500 -0.0951  1.1092
 2831SOL     OW19951   4.499   0.274  13.231 -0.2549  0.5297 -0.3337
 2831SOL    HW119952   4.467   0.353  13.274 -1.2067  0.6555 -1.2697
 2831SOL    HW219953   4.546   0.320  13.161  0.2231  0.2569 -0.1953
 2832SOL     OW19954   2.091   4.457  13.487 -0.2912 -0.7258 -0.3012
 2832SOL    HW119955   2.052   4.472  13.401 -0.2152  0.1215 -0.1893
 2832SOL    HW219956   2.147   4.385  13.459 -0.0297 -0.5728 -0.1753
 2833SOL     OW19957   4.064   2.201  13.238 -0.3500  0.5665  0.1025
 2833SOL    HW119958   4.061   2.183  13.332  2.8544  2.5697  0.5855
 2833SOL    HW219959   4.156   2.185  13.220 -0.1031  2.1950 -0.0727
 2834SOL     OW19960   3.653   4.268   5.663  0.9812  0.0276 -0.5334
 2834SOL    HW119961   3.577   4.267   5.605 -0.0136 -0.1189  0.7915
 2834SOL    HW219962   3.626   4.283   5.753 -0.0672  2.6032 -1.2737
 2835SOL     OW19963   1.956   1.622   6.679 -1.1239  0.2866 -0.0500
 2835SOL    HW119964   1.910   1.634   6.596 -0.9344  0.8878 -0.0687
 2835SOL    HW219965   1.889   1.588   6.739 -0.7504 -0.2088  0.0911
 2836SOL     OW19966   3.232   3.030  11.272 -0.4480  0.3740  0.1071
 2836SOL    HW119967   3.231   2.938  11.248  1.1952  0.7474 -1.3446
 2836SOL    HW219968   3.197   3.030  11.362  0.3073  1.7579  0.4105
 2837SOL     OW19969   0.643   0.489   2.617  0.2873 -0.2383  0.1800
 2837SOL    HW119970   0.552   0.480   2.590 -0.2250 -0.2729  1.9211
 2837SOL    HW219971   0.688   0.411   2.584  0.5709 -0.2771  0.6555
 2838SOL     OW19972   2.708   0.634  11.019 -0.2198 -0.2934  0.2194
 2838SOL    HW119973   2.626   0.651  11.067 -2.0723 -2.5187 -2.1988
 2838SOL    HW219974   2.673   0.614  10.932 -0.6231 -0.8681  0.5159
 2839SOL     OW19975   2.159   2.488   5.918  0.2812  0.2288 -0.0109
 2839SOL    HW119976   2.141   2.543   5.995  1.9076  0.3232  0.3123
 2839SOL    HW219977   2.245   2.450   5.939 -0.6713 -2.0140 -0.2112
 2840SOL     OW19978   3.706   2.768   4.780 -0.2319 -0.2422  0.0484
 2840SOL    HW119979   3.799   2.774   4.803  0.3324  1.8745 -2.7498
 2840SOL    HW219980   3.666   2.807   4.857 -0.8078 -1.4970  0.4004
 2841SOL     OW19981   4.555   2.223   2.939 -0.0654  0.4992  0.4116
 2841SOL    HW119982   4.541   2.253   2.850  0.2210 -0.0362  0.1857
 2841SOL    HW219983   4.573   2.302   2.989  0.8657  0.0509  0.7958
 2842SOL     OW19984   3.637   3.279   5.559  0.0282  0.5131  0.2125
 2842SOL    HW119985   3.725   3.303   5.530 -0.6130  0.1771 -2.0215
 2842SOL    HW219986   3.654   3.260   5.651 -0.2916  0.4466  0.2588
 2843SOL     OW19987   0.705   1.980  11.270 -0.1232  0.1020 -0.2032
 2843SOL    HW119988   0.714   2.029  11.352  1.2797  0.7131 -0.7158
 2843SOL    HW219989   0.612   1.958  11.269 -0.2710  0.7608 -1.0016
 2844SOL     OW19990   0.810   2.093  15.685 -0.0641 -0.5953  0.2105
 2844SOL    HW119991   0.763   2.116  15.604  1.3563  1.7161  0.0108
 2844SOL    HW219992   0.863   2.022  15.649 -0.1677 -1.2452  1.3512
 2845SOL     OW19993   0.929   4.037   3.313  0.1856 -0.3516  0.1369
 2845SOL    HW119994   0.855   4.025   3.254 -1.4041  1.8928  1.6522
 2845SOL    HW219995   0.991   3.978   3.269  0.3389 -0.1500  0.0800
 2846SOL     OW19996   3.295   0.943  16.223 -0.0549  0.2149  0.8448
 2846SOL    HW119997   3.204   0.967  16.242  0.1430  0.0076  2.0839
 2846SOL    HW219998   3.320   1.019  16.170  3.1870 -0.4508  1.4398
 2847SOL     OW19999   3.149   2.602   6.379  0.0032  0.2461 -0.6376
 2847SOL    HW120000   3.109   2.603   6.292  0.2554 -2.1492 -0.7860
 2847SOL    HW220001   3.241   2.595   6.354  0.1496 -0.2272  0.0278
 2848SOL     OW20002   2.017   1.597   6.082  0.3399  0.1613 -0.3876
 2848SOL    HW120003   2.004   1.502   6.079 -0.5814  0.2698 -0.0836
 2848SOL    HW220004   1.927   1.618   6.107  0.0545  1.1995 -2.3599
 2849SOL     OW20005   3.462   4.438  11.763 -0.0511 -0.7629  0.0954
 2849SOL    HW120006   3.391   4.489  11.723 -2.2524 -1.7906  2.7014
 2849SOL    HW220007   3.427   4.423  11.850  0.9842  1.2804  0.8761
 2850SOL     OW20008   4.547   0.879  15.434  0.5078 -0.5464 -0.2131
 2850SOL    HW120009   4.569   0.936  15.361 -1.5141 -1.3379 -1.4455
 2850SOL    HW220010   4.570   0.940  15.504  2.3645 -1.3474 -0.1187
 2851SOL     OW20011   2.069   4.260   8.734 -0.3784 -0.0831  0.4073
 2851SOL    HW120012   1.981   4.235   8.705 -0.8437  0.3805  1.4137
 2851SOL    HW220013   2.115   4.192   8.685  0.5833  0.1647  0.9762
 2852SOL     OW20014   1.967   1.157   4.054  0.0079 -0.5177  0.1105
 2852SOL    HW120015   2.033   1.101   4.015 -1.3960 -1.8627 -0.3262
 2852SOL    HW220016   1.989   1.138   4.145 -0.5413  0.1031  0.3801
 2853SOL     OW20017   4.617   1.682   5.935 -0.0648  0.2392 -0.0849
 2853SOL    HW120018   4.522   1.676   5.947  0.0686 -0.1857  0.7769
 2853SOL    HW220019   4.643   1.771   5.956  1.4790  0.0585 -1.1654
 2854SOL     OW20020   0.634   3.272   6.111 -0.5766  0.1878  0.1440
 2854SOL    HW120021   0.573   3.205   6.079 -0.8286 -0.6942  2.4710
 2854SOL    HW220022   0.661   3.319   6.032  0.9895  0.7466  1.0076
 2855SOL     OW20023   2.605   0.230   7.078  0.5336 -1.1424 -0.1687
 2855SOL    HW120024   2.543   0.235   7.005 -0.1088 -2.6352  0.2835
 2855SOL    HW220025   2.686   0.232   7.027  1.3117  1.7047  1.1804
 2856SOL     OW20026   2.150   3.343   7.973 -0.0198  0.0098  0.4956
 2856SOL    HW120027   2.134   3.438   7.975 -0.3735 -0.0653  1.0970
 2856SOL    HW220028   2.245   3.346   7.964 -0.2709  0.8903 -1.9232
 2857SOL     OW20029   0.970   2.396   2.003 -0.1706 -0.2248 -0.0957
 2857SOL    HW120030   1.047   2.343   1.983  1.6317  1.9554  1.1584
 2857SOL    HW220031   0.897   2.334   2.004  0.3699 -0.8327  1.2923
 2858SOL     OW20032   3.997   1.134  11.037 -0.4210 -0.1289 -0.4590
 2858SOL    HW120033   3.981   1.041  11.023  2.1657 -0.8413  1.2597
 2858SOL    HW220034   3.975   1.147  11.129 -1.2943  1.7405 -0.9401
 2859SOL     OW20035   0.837   0.845   2.944  0.2269 -0.0486 -0.1908
 2859SOL    HW120036   0.792   0.774   2.897  0.4083 -0.4075  0.1759
 2859SOL    HW220037   0.914   0.797   2.972  0.3880  1.5053  1.9602
 2860SOL     OW20038   1.668   3.195   5.395  0.0270 -0.1468 -0.0233
 2860SOL    HW120039   1.666   3.278   5.442 -0.9468 -0.2139  0.0569
 2860SOL    HW220040   1.716   3.135   5.453  0.2318  0.6110  0.5892
 2861SOL     OW20041   1.364   1.803   8.108  0.3130 -0.3244  0.0940
 2861SOL    HW120042   1.307   1.786   8.033  1.5780  1.4602 -1.2519
 2861SOL    HW220043   1.350   1.719   8.152 -2.1450  0.2172  0.3620
 2862SOL     OW20044   2.432   0.294   7.589 -0.3650  0.4778 -0.2886
 2862SOL    HW120045   2.458   0.268   7.501 -1.3641  0.0113 -0.4421
 2862SOL    HW220046   2.522   0.306   7.621 -1.1353  1.0062  1.6428
 2863SOL     OW20047   2.309   0.200   3.513 -0.1043  0.8080  0.9140
 2863SOL    HW120048   2.339   0.263   3.579 -1.0454  1.3780  0.7986
 2863SOL    HW220049   2.254   0.260   3.462  0.8051  0.6624 -0.2351
 2864SOL     OW20050   0.051   0.561   4.828 -0.0454 -0.4941 -0.0828
 2864SOL    HW120051   0.138   0.599   4.837 -0.5210  0.5941 -0.1902
 2864SOL    HW220052   0.010   0.583   4.912 -0.3025  0.7692 -0.5563
 2865SOL     OW20053   0.862   4.500   9.134 -0.1809  0.7485  0.8236
 2865SOL    HW120054   0.780   4.489   9.087  1.2649  0.4247 -1.6377
 2865SOL    HW220055   0.915   4.516   9.055 -0.6660  1.2834  0.6049
 2866SOL     OW20056   4.337   2.498  14.820  0.2954 -0.4612  0.4602
 2866SOL    HW120057   4.306   2.544  14.742  3.3638 -1.1524 -1.2006
 2866SOL    HW220058   4.404   2.445  14.777 -0.7005 -2.1410  1.0166
 2867SOL     OW20059   4.028   4.306   8.045 -0.2852  0.5196 -0.0255
 2867SOL    HW120060   4.013   4.362   7.968 -2.3594 -0.0197  0.0037
 2867SOL    HW220061   4.119   4.319   8.074 -0.2251 -1.1429  0.5209
 2868SOL     OW20062   0.762   2.650   3.071 -0.2239 -0.8728 -0.2144
 2868SOL    HW120063   0.794   2.582   3.131 -0.2676  0.3092  1.1467
 2868SOL    HW220064   0.798   2.618   2.988  1.6656 -0.0057  0.2611
 2869SOL     OW20065   1.331   1.302  14.369  0.1227 -0.1786  0.3579
 2869SOL    HW120066   1.255   1.344  14.409 -1.4453 -2.2615 -0.4113
 2869SOL    HW220067   1.298   1.242  14.302  1.9746  0.1184 -0.8415
 2870SOL     OW20068   4.126   3.200  11.822 -0.1966  0.0877  0.4260
 2870SOL    HW120069   4.153   3.164  11.906  3.8614  1.5915 -0.2508
 2870SOL    HW220070   4.201   3.194  11.763 -0.1065 -1.8729  0.7357
 2871SOL     OW20071   1.652   0.299   5.556  0.1702  0.2203  0.2654
 2871SOL    HW120072   1.746   0.286   5.558 -0.2653 -2.6505  1.3842
 2871SOL    HW220073   1.618   0.311   5.645 -1.2382  0.5974 -0.3188
 2872SOL     OW20074   2.408   3.118   9.914  0.1866  0.5133 -0.1188
 2872SOL    HW120075   2.493   3.137   9.874 -0.1179 -2.7534 -2.3283
 2872SOL    HW220076   2.394   3.201   9.960 -0.7031  1.6951 -2.5072
 2873SOL     OW20077   0.373   2.480  13.737 -0.4435  0.1943 -0.2357
 2873SOL    HW120078   0.420   2.500  13.657 -0.7015  0.1178 -0.4062
 2873SOL    HW220079   0.316   2.406  13.715  0.4384 -1.2907  2.3586
 2874SOL     OW20080   0.351   1.583   6.848  0.2169  0.3345 -0.0473
 2874SOL    HW120081   0.373   1.648   6.915  0.6560  0.6194 -0.4730
 2874SOL    HW220082   0.326   1.625   6.765  0.5344 -1.6949 -1.1597
 2875SOL     OW20083   3.018   2.216   8.385 -0.2026  0.1195  0.4013
 2875SOL    HW120084   3.077   2.285   8.412 -1.0147  0.8928  0.2091
 2875SOL    HW220085   3.075   2.144   8.358 -2.0375 -1.2995  0.2233
 2876SOL     OW20086   1.445   1.587  13.084 -0.0106  0.6956  0.2195
 2876SOL    HW120087   1.434   1.611  12.992 -0.7098 -0.3964  0.0105
 2876SOL    HW220088   1.367   1.538  13.110  0.0547  0.5020  0.0476
 2877SOL     OW20089   4.415   0.321   6.099  0.5956  0.0837  0.5467
 2877SOL    HW120090   4.498   0.369   6.091  0.6239 -0.3013 -1.4016
 2877SOL    HW220091   4.418   0.250   6.036 -1.6575 -0.4477  1.0698
 2878SOL     OW20092   2.229   3.278   0.110  0.2910  0.1683  0.0119
 2878SOL    HW120093   2.181   3.254   0.031  1.5838  0.9050 -0.9872
 2878SOL    HW220094   2.275   3.351   0.071  3.2198 -1.7436 -0.0731
 2879SOL     OW20095   2.620   3.832   4.430 -0.2587  0.3093  0.3024
 2879SOL    HW120096   2.622   3.795   4.519  0.0181  0.5319  0.3899
 2879SOL    HW220097   2.532   3.871   4.433 -0.5703 -0.4934  1.5703
 2880SOL     OW20098   1.488   4.558  14.032 -0.8446  0.5153 -0.4938
 2880SOL    HW120099   1.488   4.647  13.998  3.0284  0.4109 -0.8460
 2880SOL    HW220100   1.439   4.518  13.960 -1.8518 -1.1055  1.1139
 2881SOL     OW20101   3.668   1.549  14.260 -0.2218  0.1600  0.4980
 2881SOL    HW120102   3.753   1.592  14.276  0.3740 -0.8656  0.0450
 2881SOL    HW220103   3.647   1.504  14.342 -0.9918  2.5678  1.6510
 2882SOL     OW20104   3.462   3.001   4.784  1.1585  0.0372  0.2065
 2882SOL    HW120105   3.511   3.080   4.808  0.8142  1.0097 -2.2450
 2882SOL    HW220106   3.375   3.037   4.801 -0.4614 -2.7860 -2.1624
 2883SOL     OW20107   1.056   1.600   3.097 -0.0260  0.4537  0.6325
 2883SOL    HW120108   0.995   1.546   3.146  0.1262 -0.7609 -0.5178
 2883SOL    HW220109   1.129   1.541   3.114 -1.9577 -1.7810  1.1436
 2884SOL     OW20110   2.753   2.198  10.172 -0.4346  0.1338 -0.2912
 2884SOL    HW120111   2.846   2.209  10.195 -0.6089 -0.4123  0.6667
 2884SOL    HW220112   2.731   2.128  10.234 -0.0399 -0.3547 -0.7003
 2885SOL     OW20113   2.829   0.415   5.864 -0.2123  0.1489  0.1931
 2885SOL    HW120114   2.804   0.451   5.949 -0.0363 -1.5255  0.9591
 2885SOL    HW220115   2.899   0.353   5.884  1.3882  2.2744  1.2004
 2886SOL     OW20116   4.603   1.320   3.987 -0.3351  0.3093 -0.1156
 2886SOL    HW120117   4.547   1.337   3.911 -1.9383  1.9697  1.4368
 2886SOL    HW220118   4.574   1.233   4.014  0.3782 -0.4011 -1.6063
 2887SOL     OW20119   4.262   3.442   8.762  0.5825  0.1877  0.2781
 2887SOL    HW120120   4.292   3.371   8.820  0.2957 -0.5118 -0.4322
 2887SOL    HW220121   4.180   3.465   8.806 -0.6819 -1.3080 -1.2962
 2888SOL     OW20122   2.405   1.761   7.623 -0.3266  0.6710  0.2118
 2888SOL    HW120123   2.406   1.789   7.531  0.5214 -0.3622 -0.0877
 2888SOL    HW220124   2.499   1.758   7.639 -0.8160  1.2648  3.1233
 2889SOL     OW20125   1.298   0.636  12.510 -0.3331  0.1282  0.6316
 2889SOL    HW120126   1.230   0.574  12.539 -0.1749  0.5554  1.9153
 2889SOL    HW220127   1.258   0.655  12.426 -0.9361  0.9800  1.1069
 2890SOL     OW20128   0.631   3.543  14.958  0.1264 -0.1579  0.1975
 2890SOL    HW120129   0.594   3.568  14.873  1.3769  0.5615 -0.1330
 2890SOL    HW220130   0.682   3.619  14.983  0.0125 -0.5837  1.7131
 2891SOL     OW20131   2.317   2.743   7.872  0.3654  0.8103 -0.0362
 2891SOL    HW120132   2.252   2.676   7.895  1.3950 -0.1061  0.1694
 2891SOL    HW220133   2.261   2.817   7.846 -0.9275  0.5119  1.8525
 2892SOL     OW20134   3.517   3.078  17.371 -0.8139  0.3412  0.3692
 2892SOL    HW120135   3.611   3.071  17.358 -1.2576 -2.8054 -1.2429
 2892SOL    HW220136   3.517   3.058  17.465 -1.7738  0.4140  0.3836
 2893SOL     OW20137   3.816   2.309  13.792  0.1504 -0.3696 -0.0713
 2893SOL    HW120138   3.864   2.392  13.799 -0.8279  0.1653  0.2891
 2893SOL    HW220139   3.761   2.307  13.871  0.4687  0.3779  0.1654
 2894SOL     OW20140   0.045   0.566  11.415 -0.2907 -0.1175 -0.1055
 2894SOL    HW120141   0.052   0.660  11.434 -0.8942  0.2954 -1.8771
 2894SOL    HW220142   0.134   0.532  11.429 -0.2347  0.7620  1.7174
 2895SOL     OW20143   1.187   3.179   9.019 -0.4338 -0.1665 -0.5669
 2895SOL    HW120144   1.100   3.162   8.984 -0.4094 -3.1918  0.8232
 2895SOL    HW220145   1.232   3.107   8.974  0.4198  0.5291 -0.8259
 2896SOL     OW20146   4.566   1.374  14.574 -0.0587 -0.0823 -0.4409
 2896SOL    HW120147   4.640   1.347  14.519  0.4581 -0.6804  0.5584
 2896SOL    HW220148   4.552   1.296  14.627 -2.1319  0.3741 -0.3244
 2897SOL     OW20149   4.445   0.720  14.875 -0.0463 -0.1255 -0.1316
 2897SOL    HW120150   4.503   0.742  14.948  0.4895 -1.5215 -0.1281
 2897SOL    HW220151   4.510   0.710  14.806  0.0786  0.8937 -0.1555
 2898SOL     OW20152   1.755   0.677   3.585 -0.0663 -0.3380 -0.3286
 2898SOL    HW120153   1.762   0.671   3.680 -0.1723 -1.5204 -0.3905
 2898SOL    HW220154   1.836   0.724   3.567  0.0408 -0.8347 -1.1360
 2899SOL     OW20155   2.990   2.551  13.220  0.3091 -0.5563 -0.5444
 2899SOL    HW120156   3.048   2.599  13.278 -1.6190 -0.0699  0.9890
 2899SOL    HW220157   2.927   2.621  13.201  1.6503  0.5781 -0.8207
 2900SOL     OW20158   2.342   1.225   1.986 -0.2105  0.1405 -0.4431
 2900SOL    HW120159   2.433   1.250   1.998 -0.0550 -1.1171  1.0812
 2900SOL    HW220160   2.309   1.302   2.033 -3.6095 -1.1658 -0.6553
 2901SOL     OW20161   3.440   1.733   7.057  0.2398  0.8001 -0.1069
 2901SOL    HW120162   3.387   1.776   7.124  0.9854  2.3055 -0.4732
 2901SOL    HW220163   3.423   1.810   7.002 -1.4324  0.9853  0.6683
 2902SOL     OW20164   2.365   1.790   5.831 -0.0164  0.3997  0.0942
 2902SOL    HW120165   2.391   1.701   5.808 -0.7009  0.2637 -0.1442
 2902SOL    HW220166   2.272   1.772   5.815 -0.2939 -0.4192  2.6952
 2903SOL     OW20167   3.652   3.638   5.120 -0.1105 -0.0227 -0.0894
 2903SOL    HW120168   3.614   3.619   5.206 -0.4248  0.9677 -0.0101
 2903SOL    HW220169   3.577   3.614   5.065 -0.7458 -0.0839  0.7968
 2904SOL     OW20170   4.081   0.672  12.785 -0.1655 -0.4620 -0.3766
 2904SOL    HW120171   4.000   0.651  12.739  0.1894 -1.4235 -0.5632
 2904SOL    HW220172   4.076   0.765  12.808 -0.3596 -1.0886  2.1109
 2905SOL     OW20173   1.835   1.492   1.531 -0.0954 -0.0318 -0.3434
 2905SOL    HW120174   1.814   1.493   1.625 -0.1883 -1.4167 -0.3518
 2905SOL    HW220175   1.819   1.399   1.516  2.1589 -0.2435 -1.3364
 2906SOL     OW20176   0.485   4.357   5.636 -0.4522  0.6170 -0.0547
 2906SOL    HW120177   0.476   4.270   5.598 -0.7150  1.6564 -2.3709
 2906SOL    HW220178   0.464   4.411   5.559  0.2333  0.8756 -0.0555
 2907SOL     OW20179   0.123   1.564   8.576 -0.6923 -0.1794  0.2027
 2907SOL    HW120180   0.146   1.517   8.656 -0.1186  1.4917  1.0352
 2907SOL    HW220181   0.057   1.501   8.545 -1.5049  1.0408 -0.5564
 2908SOL     OW20182   3.129   4.012   6.530 -0.1752 -0.2875 -0.1826
 2908SOL    HW120183   3.159   3.945   6.468  2.2439  0.4952  0.1288
 2908SOL    HW220184   3.206   4.034   6.583  0.3494 -0.2142 -0.9713
 2909SOL     OW20185   4.088   0.054   2.813 -0.2719  0.4011  0.1015
 2909SOL    HW120186   4.044   0.131   2.777  0.3609  0.3010 -0.8871
 2909SOL    HW220187   4.037   4.709   2.762 -0.7535  1.3096 -0.5669
 2910SOL     OW20188   1.264   3.629   6.252  0.3403 -0.2658  0.2178
 2910SOL    HW120189   1.213   3.603   6.328  0.8859  2.7669  1.5953
 2910SOL    HW220190   1.233   3.575   6.179  2.1693 -0.9459 -0.0644
 2911SOL     OW20191   2.262   1.650   8.281 -0.8350 -1.0738 -0.1720
 2911SOL    HW120192   2.270   1.716   8.211 -1.6106 -0.5188  0.2730
 2911SOL    HW220193   2.345   1.666   8.326 -0.5566  1.0173 -1.4059
 2912SOL     OW20194   0.688   2.509   4.969 -0.1283  0.6645 -0.3469
 2912SOL    HW120195   0.743   2.499   5.046 -2.9477 -0.4998  1.5350
 2912SOL    HW220196   0.675   2.417   4.946 -0.2697  0.5181  0.3149
 2913SOL     OW20197   3.559   4.581   5.490  0.2938 -0.1795 -0.0150
 2913SOL    HW120198   3.475   4.606   5.528 -2.1174 -0.7015 -4.9396
 2913SOL    HW220199   3.541   4.494   5.454  1.0302 -0.5746  0.5781
 2914SOL     OW20200   2.710   3.948   8.756 -0.0422  0.2710  0.1672
 2914SOL    HW120201   2.704   4.036   8.719  1.1656 -0.8802 -2.7351
 2914SOL    HW220202   2.778   3.972   8.819  1.3676 -0.9583 -0.9020
 2915SOL     OW20203   2.477   1.516  17.091  0.3068 -0.2877 -0.0742
 2915SOL    HW120204   2.456   1.423  17.100 -2.6690  0.2329 -1.6955
 2915SOL    HW220205   2.444   1.554  17.172  0.2258  1.5063 -0.9453
 2916SOL     OW20206   1.537   1.051   1.533  0.0666 -0.0931  0.4511
 2916SOL    HW120207   1.577   1.078   1.450  0.9527  0.6651  1.1213
 2916SOL    HW220208   1.609   1.034   1.593  1.8468 -0.5609 -1.8078
 2917SOL     OW20209   1.860   0.869  12.180 -0.0584 -0.1275  0.0731
 2917SOL    HW120210   1.814   0.805  12.234 -0.0918  0.4335  0.7166
 2917SOL    HW220211   1.797   0.941  12.174 -0.4584 -0.6343 -1.8197
 2918SOL     OW20212   2.658   4.673   4.449  0.0342  0.5015  0.3328
 2918SOL    HW120213   2.600   4.606   4.412 -0.5776  1.7519 -1.0051
 2918SOL    HW220214   2.742   4.636   4.421 -0.4474 -0.8050  0.5903
 2919SOL     OW20215   0.385   3.821  10.429 -0.7050  0.1438  0.0902
 2919SOL    HW120216   0.398   3.800  10.522  0.0295  1.9242  0.4072
 2919SOL    HW220217   0.455   3.887  10.425 -0.6091  0.0537  0.2589
 2920SOL     OW20218   1.356   1.750   5.881 -0.8420  0.2018  0.2529
 2920SOL    HW120219   1.325   1.659   5.889  0.0231  0.0995  2.4068
 2920SOL    HW220220   1.283   1.799   5.843 -0.4799 -0.5456 -1.4393
 2921SOL     OW20221   2.084   0.475   0.283 -0.0774 -0.7051 -0.2078
 2921SOL    HW120222   2.046   0.393   0.250 -0.0899 -0.4980 -0.7059
 2921SOL    HW220223   2.065   0.540   0.215  1.7153  0.4084  0.3420
 2922SOL     OW20224   0.438   1.235  12.344  0.7567  0.0151 -0.5723
 2922SOL    HW120225   0.466   1.327  12.335 -2.1175  0.9532 -0.0179
 2922SOL    HW220226   0.441   1.241  12.439 -0.8858 -0.0244 -0.5338
 2923SOL     OW20227   1.533   1.997  17.563 -0.3146  0.2793  0.3727
 2923SOL    HW120228   1.440   1.976  17.553 -0.6577  2.1077 -0.3182
 2923SOL    HW220229   1.551   2.052  17.487  2.3489 -0.2313  0.6412
 2924SOL     OW20230   1.811   2.870  16.079 -0.5168 -0.5838  0.1897
 2924SOL    HW120231   1.731   2.875  16.027 -1.7984 -1.1230  2.1130
 2924SOL    HW220232   1.832   2.964  16.077  1.4403 -1.0540 -0.9580
 2925SOL     OW20233   0.357   0.914   5.865  0.3001 -0.2487  0.3897
 2925SOL    HW120234   0.299   0.870   5.927 -2.1198  0.6815 -1.2181
 2925SOL    HW220235   0.321   0.891   5.780  1.9290  1.7885 -0.8350
 2926SOL     OW20236   0.486   2.683   6.873 -0.2849  0.2613  0.0507
 2926SOL    HW120237   0.418   2.712   6.812 -0.6671 -1.0847 -0.1563
 2926SOL    HW220238   0.526   2.611   6.824  2.0550  1.7656 -0.2218
 2927SOL     OW20239   2.516   4.131   9.226 -0.1892 -0.2506  0.2213
 2927SOL    HW120240   2.501   4.208   9.282  0.2679  0.0677 -0.0968
 2927SOL    HW220241   2.446   4.075   9.260 -1.3056  0.8233 -0.3079
 2928SOL     OW20242   0.094   2.575   8.813 -0.0842 -0.2621  0.7446
 2928SOL    HW120243   0.008   2.613   8.832 -0.5028 -0.2119 -1.3359
 2928SOL    HW220244   0.145   2.626   8.876  0.0146  0.5597 -0.0002
 2929SOL     OW20245   4.562   0.310   5.154  0.5119 -0.2449 -0.1517
 2929SOL    HW120246   4.582   0.399   5.182  2.3232 -0.2529 -1.4275
 2929SOL    HW220247   4.520   0.320   5.068  2.2275 -2.9991 -1.2949
 2930SOL     OW20248   0.435   2.998   8.720  0.1622 -0.0253 -0.6208
 2930SOL    HW120249   0.414   3.011   8.628  1.9866 -2.9378 -1.4559
 2930SOL    HW220250   0.522   2.962   8.704 -0.7501 -1.6821 -1.8305
 2931SOL     OW20251   3.751   1.919   5.502  0.4165  0.2611  0.0946
 2931SOL    HW120252   3.720   1.839   5.458 -1.9383  0.4834  1.3328
 2931SOL    HW220253   3.806   1.950   5.431 -0.5463 -0.5602 -1.0031
 2932SOL     OW20254   3.784   2.011   4.316  0.6704  0.2664 -0.7809
 2932SOL    HW120255   3.880   2.013   4.313  0.7036  1.0616  0.3574
 2932SOL    HW220256   3.767   2.057   4.234  0.7527  0.1484 -0.8644
 2933SOL     OW20257   1.721   1.257   7.399  0.2670  0.1332 -0.3975
 2933SOL    HW120258   1.811   1.236   7.376 -0.0447 -0.6969 -0.8739
 2933SOL    HW220259   1.721   1.338   7.450  0.0734 -0.4254  0.4902
 2934SOL     OW20260   0.790   0.977  14.275 -0.1972 -0.6524  0.3685
 2934SOL    HW120261   0.860   1.029  14.314 -1.0752  1.2453 -0.5456
 2934SOL    HW220262   0.818   0.979  14.183 -1.4950  0.2451 -0.0120
 2935SOL     OW20263   0.636   2.010   2.303  0.2799 -0.6042  0.2164
 2935SOL    HW120264   0.551   2.020   2.346  0.7826  0.9362  0.8837
 2935SOL    HW220265   0.683   1.963   2.372 -0.0300 -0.4422  0.5405
 2936SOL     OW20266   0.505   0.503   3.252 -0.4160 -0.3422 -0.1368
 2936SOL    HW120267   0.527   0.590   3.220 -0.9899 -0.8451 -1.8919
 2936SOL    HW220268   0.586   0.488   3.302  1.1123  0.3405 -2.4181
 2937SOL     OW20269   3.041   3.159   9.392 -0.6238  0.3065  0.4339
 2937SOL    HW120270   2.999   3.242   9.368 -3.1710 -1.0445  0.1694
 2937SOL    HW220271   2.956   3.127   9.423  0.2831 -0.0378  2.5940
 2938SOL     OW20272   0.579   3.909  13.689 -0.4632 -0.4373  0.6523
 2938SOL    HW120273   0.559   3.974  13.756  2.1280  0.0106  1.0245
 2938SOL    HW220274   0.637   3.846  13.732  2.8861  2.6653  0.7313
 2939SOL     OW20275   2.285   4.321  14.013  0.5781 -0.4259  0.4568
 2939SOL    HW120276   2.287   4.408  13.973 -0.7959 -0.2256  0.7998
 2939SOL    HW220277   2.215   4.271  13.969  2.7286 -1.5506 -1.6842
 2940SOL     OW20278   2.391   0.398   9.586 -0.1193  0.2314  0.4498
 2940SOL    HW120279   2.463   0.386   9.524 -1.6238  2.1726 -1.7167
 2940SOL    HW220280   2.343   0.474   9.551  0.4002 -0.2940 -1.3733
 2941SOL     OW20281   1.872   2.491   8.290  0.1978 -0.1257 -0.7336
 2941SOL    HW120282   1.935   2.494   8.362 -1.0407 -1.0834  0.3762
 2941SOL    HW220283   1.789   2.510   8.334  0.3485 -2.1084  0.3691
 2942SOL     OW20284   3.941   0.881   7.357  0.1264 -0.0947  0.0809
 2942SOL    HW120285   3.914   0.866   7.266  0.2576  0.6568 -0.0796
 2942SOL    HW220286   4.025   0.835   7.352 -0.1150 -0.4356 -0.9237
 2943SOL     OW20287   1.831   0.036   0.118  0.4697  0.1189  0.2247
 2943SOL    HW120288   1.861   4.669   0.088 -1.9970 -0.1364 -1.5057
 2943SOL    HW220289   1.870   0.035   0.206 -0.0919  1.6597  0.4864
 2944SOL     OW20290   2.289   3.358   5.905 -0.2776 -0.3975 -0.3975
 2944SOL    HW120291   2.266   3.265   5.910 -2.8928  0.3530  1.5089
 2944SOL    HW220292   2.376   3.351   5.944  0.5899 -0.3767 -2.2869
 2945SOL     OW20293   0.233   0.126   6.070 -0.2714  0.2029  0.3058
 2945SOL    HW120294   0.268   0.113   5.982  0.4785  1.1182  0.4657
 2945SOL    HW220295   0.307   0.101   6.125 -2.2178 -2.4251  1.7594
 2946SOL     OW20296   0.326   3.915  13.157  0.3163 -0.3299 -0.3222
 2946SOL    HW120297   0.284   3.999  13.175 -0.4805 -1.1693  1.6469
 2946SOL    HW220298   0.406   3.915  13.210  0.2873  0.1951 -0.2791
 2947SOL     OW20299   0.917   1.468  11.291  0.0934 -0.0913  0.5933
 2947SOL    HW120300   0.925   1.543  11.232  0.0416 -1.2972 -0.9267
 2947SOL    HW220301   0.919   1.520  11.372  1.3451 -2.6350  2.1923
 2948SOL     OW20302   0.266   2.853   7.624 -0.0814  0.2311 -0.7339
 2948SOL    HW120303   0.296   2.788   7.688  2.7995 -0.3624 -2.6814
 2948SOL    HW220304   0.319   2.826   7.549 -0.1254 -0.0615 -0.6621
 2949SOL     OW20305   1.601   2.783   6.200 -0.0111 -0.0891  0.1452
 2949SOL    HW120306   1.659   2.728   6.146  1.1949  1.4495 -0.1362
 2949SOL    HW220307   1.598   2.731   6.280  1.1703  1.9416  1.4975
 2950SOL     OW20308   0.696   2.823   4.199 -0.3139 -0.6065 -0.1100
 2950SOL    HW120309   0.694   2.865   4.284 -0.0292  1.5470 -1.1639
 2950SOL    HW220310   0.751   2.749   4.224  0.8391 -0.1467 -1.2697
 2951SOL     OW20311   1.365   3.309   7.209 -0.0169 -0.2122  0.5959
 2951SOL    HW120312   1.301   3.378   7.189 -0.0117 -0.0956  0.9720
 2951SOL    HW220313   1.306   3.242   7.242 -2.0225  0.4506 -1.6808
 2952SOL     OW20314   0.354   4.436  14.502  0.4206 -0.9089 -0.0670
 2952SOL    HW120315   0.417   4.507  14.506 -1.0411  0.2561  2.2281
 2952SOL    HW220316   0.272   4.483  14.488 -1.2944 -3.4900  1.2532
 2953SOL     OW20317   2.261   0.874  16.198 -0.0180  0.2127 -0.1943
 2953SOL    HW120318   2.297   0.786  16.195 -0.0074  0.1811  0.9806
 2953SOL    HW220319   2.215   0.867  16.281 -1.9484  0.9366 -1.2048
 2954SOL     OW20320   2.674   2.271   9.510  0.4681  1.1505  0.3095
 2954SOL    HW120321   2.629   2.248   9.592 -2.2322 -0.2156 -1.5546
 2954SOL    HW220322   2.741   2.204   9.502 -1.6715 -0.5701 -3.0102
 2955SOL     OW20323   1.217   0.425  15.438  0.0157  0.6601  0.0386
 2955SOL    HW120324   1.269   0.502  15.458  2.5035 -1.5455  2.1864
 2955SOL    HW220325   1.255   0.401  15.354 -0.3971 -1.2603  0.3879
 2956SOL     OW20326   3.993   1.994   6.993  0.2524  0.6216 -0.2490
 2956SOL    HW120327   4.032   1.908   7.010  1.1454  1.3164  1.1755
 2956SOL    HW220328   4.066   2.053   6.974 -0.0297  0.5098 -1.6578
 2957SOL     OW20329   3.257   0.581  16.910  0.0335  0.0926  0.4780
 2957SOL    HW120330   3.313   0.649  16.872  1.4916 -0.6786  1.2403
 2957SOL    HW220331   3.326   0.522  16.939 -0.0846  0.3590  1.3172
 2958SOL     OW20332   1.490   0.313   3.205 -0.1088  0.4616  0.2576
 2958SOL    HW120333   1.485   0.219   3.227  2.3643  0.0302 -0.9902
 2958SOL    HW220334   1.404   0.339   3.237 -1.4316 -0.2907 -2.6830
 2959SOL     OW20335   3.886   2.725   7.095  0.4739 -0.3533 -0.0882
 2959SOL    HW120336   3.792   2.730   7.113 -0.0122 -0.8037 -2.4804
 2959SOL    HW220337   3.919   2.814   7.083 -0.2983 -0.3920 -2.5062
 2960SOL     OW20338   3.200   1.040   7.989 -0.0610 -0.6252  0.0415
 2960SOL    HW120339   3.289   1.075   7.989 -0.8099  1.3047  2.0275
 2960SOL    HW220340   3.162   1.093   8.060 -2.9608 -1.0699 -1.1751
 2961SOL     OW20341   4.478   0.090   7.966  0.5644  0.0166  0.0450
 2961SOL    HW120342   4.385   0.084   7.987  0.7901  0.1294  1.0713
 2961SOL    HW220343   4.467   0.058   7.877  1.7186  1.1908 -0.5317
 2962SOL     OW20344   3.986   0.304   4.079 -0.2227 -0.4131  0.0784
 2962SOL    HW120345   3.978   0.260   3.994  0.0033  0.8436 -0.5974
 2962SOL    HW220346   4.080   0.292   4.092  0.0880 -0.8472 -2.5580
 2963SOL     OW20347   0.712   3.583   8.710 -0.4475 -0.0139  0.6016
 2963SOL    HW120348   0.704   3.508   8.768 -0.1403  1.0946  2.0802
 2963SOL    HW220349   0.623   3.617   8.722 -0.9149 -1.7537  2.0054
 2964SOL     OW20350   1.955   0.032   8.964  0.4028  0.2313 -0.4517
 2964SOL    HW120351   1.934   4.662   8.993  2.6324  0.0428  0.6047
 2964SOL    HW220352   1.977   0.073   9.048 -1.3555  0.1736  0.0321
 2965SOL     OW20353   3.544   0.869   2.190 -0.3460 -0.3373 -0.0128
 2965SOL    HW120354   3.557   0.786   2.237 -1.1393 -1.0993 -1.1456
 2965SOL    HW220355   3.474   0.839   2.131  0.6911 -0.6827 -1.0752
 2966SOL     OW20356   1.970   3.691  12.061  0.0894 -0.4489 -0.3847
 2966SOL    HW120357   1.892   3.638  12.078  1.0802 -1.9017 -0.3546
 2966SOL    HW220358   1.974   3.742  12.141 -0.6165  2.1615 -2.0259
 2967SOL     OW20359   2.490   3.767  14.061 -0.4073  0.5810 -0.1322
 2967SOL    HW120360   2.533   3.681  14.055 -0.5160  0.5597 -0.6576
 2967SOL    HW220361   2.552   3.815  14.115  0.2801 -0.1976 -0.2395
 2968SOL     OW20362   2.006   4.519   7.370 -0.1887  0.1779  0.0025
 2968SOL    HW120363   1.918   4.503   7.403 -1.5390  1.6147 -2.9222
 2968SOL    HW220364   1.975   4.531   7.281 -0.4486 -0.0769  0.0576
 2969SOL     OW20365   3.496   0.944  11.025  0.4443 -0.4398 -0.4125
 2969SOL    HW120366   3.423   0.979  10.975 -2.0937 -0.4775  3.2692
 2969SOL    HW220367   3.442   0.904  11.093 -0.0191 -1.1254 -1.1792
 2970SOL     OW20368   1.174   1.452   8.547 -0.3213  0.1441 -0.1318
 2970SOL    HW120369   1.193   1.412   8.462  0.8547 -1.6638  1.0119
 2970SOL    HW220370   1.152   1.543   8.527  1.6190  1.3065  3.0459
 2971SOL     OW20371   0.873   2.119   6.419  0.1012  0.6224 -0.5699
 2971SOL    HW120372   0.902   2.163   6.500 -1.6411  1.4618 -0.4143
 2971SOL    HW220373   0.864   2.195   6.362  0.6985  3.0467  2.5958
 2972SOL     OW20374   1.075   1.406   6.189  0.0841 -0.6682 -0.1589
 2972SOL    HW120375   0.992   1.358   6.195  0.4644 -1.2751  0.2128
 2972SOL    HW220376   1.050   1.474   6.126  2.2896 -0.1206 -0.4351
 2973SOL     OW20377   3.658   4.489  17.308  0.2877  0.0489 -0.7306
 2973SOL    HW120378   3.742   4.494  17.353 -0.7056  0.8475  0.9958
 2973SOL    HW220379   3.621   4.567  17.348  0.5386  0.2105 -0.8135
 2974SOL     OW20380   3.647   2.408  17.664 -0.0474  0.4570  0.2095
 2974SOL    HW120381   3.721   2.441   0.035  1.2933 -1.0348 -0.8116
 2974SOL    HW220382   3.678   2.320  17.641  0.6048  0.6741  0.2742
 2975SOL     OW20383   0.779   1.042   3.360 -0.6484 -0.0329 -0.5604
 2975SOL    HW120384   0.814   1.123   3.396  0.1953 -1.4572  1.8215
 2975SOL    HW220385   0.857   0.992   3.338 -1.5073 -1.7669  0.3469
 2976SOL     OW20386   0.640   2.810  10.869 -0.5544 -0.1635 -0.3315
 2976SOL    HW120387   0.666   2.893  10.908  1.0429 -0.6203 -0.4385
 2976SOL    HW220388   0.549   2.838  10.854 -0.4673  1.2602  1.6878
 2977SOL     OW20389   4.264   0.944  15.073  0.0400 -0.3547  0.3926
 2977SOL    HW120390   4.260   0.861  15.121  0.5109 -0.8291 -0.3829
 2977SOL    HW220391   4.226   0.918  14.990  0.1249  0.9186 -0.0453
 2978SOL     OW20392   1.988   1.081   3.142 -0.2954 -0.1631  0.3996
 2978SOL    HW120393   1.924   1.015   3.114  0.5883  0.4123 -2.9475
 2978SOL    HW220394   1.980   1.145   3.072 -1.6246 -0.5920  0.1441
 2979SOL     OW20395   0.582   3.343   8.185 -0.6199  0.3634  0.1158
 2979SOL    HW120396   0.529   3.273   8.223 -2.4630  2.2527  1.0568
 2979SOL    HW220397   0.567   3.316   8.095  1.4287  1.0736 -0.4211
 2980SOL     OW20398   0.910   0.277   4.357  0.0745 -0.1404  0.1747
 2980SOL    HW120399   0.867   0.199   4.321  2.8377 -0.2331 -2.9555
 2980SOL    HW220400   0.949   0.298   4.272  1.2950  0.0003  0.7688
 2981SOL     OW20401   1.730   1.407   3.824 -0.0274  0.1887  0.4121
 2981SOL    HW120402   1.735   1.500   3.846  0.5420 -0.1436  1.6543
 2981SOL    HW220403   1.651   1.381   3.872  0.0140 -1.5222 -0.4505
 2982SOL     OW20404   4.656   2.919   1.716 -0.0297 -0.3560  0.0236
 2982SOL    HW120405   4.635   3.008   1.744  0.8614 -0.9425  2.6261
 2982SOL    HW220406   0.016   2.928   1.663  0.6547  3.3665  1.6644
 2983SOL     OW20407   1.298   1.032  17.234 -0.0503  0.4883  0.3943
 2983SOL    HW120408   1.327   1.104  17.290 -2.6074  0.8323  1.2713
 2983SOL    HW220409   1.357   1.043  17.159  0.5476  0.1138  0.8090
 2984SOL     OW20410   2.911   3.141   3.105  0.6430  0.5512  0.4364
 2984SOL    HW120411   2.896   3.117   3.013 -0.5697 -0.6252  0.9475
 2984SOL    HW220412   2.958   3.224   3.102  0.8431  0.3987 -0.7356
 2985SOL     OW20413   0.157   2.393   3.623 -0.5000  0.2675  0.0306
 2985SOL    HW120414   0.107   2.366   3.701 -0.8620 -0.4813 -0.4616
 2985SOL    HW220415   0.109   2.458   3.572  0.9129 -0.9001 -2.7706
 2986SOL     OW20416   2.826   4.060   9.358  0.4789 -0.3093  0.4554
 2986SOL    HW120417   2.770   4.022   9.291 -0.1177 -1.0115  1.3647
 2986SOL    HW220418   2.896   4.102   9.307  1.4525 -2.5387 -0.0613
 2987SOL     OW20419   4.648   0.008   3.497  0.2477  0.4871 -0.6116
 2987SOL    HW120420   4.666   0.046   3.411 -0.0736 -0.1525 -0.9646
 2987SOL    HW220421   4.554   0.026   3.494 -0.3272 -2.6234 -1.8491
 2988SOL     OW20422   0.393   1.898   3.848  0.1007 -0.3666  0.3100
 2988SOL    HW120423   0.463   1.908   3.912  0.1606 -0.8283  0.3155
 2988SOL    HW220424   0.318   1.867   3.898 -0.6376 -1.0508 -1.2100
 2989SOL     OW20425   3.532   0.455  16.879 -0.1896 -0.3528 -0.4372
 2989SOL    HW120426   3.591   0.379  16.879  0.0730 -0.1358 -2.5519
 2989SOL    HW220427   3.512   0.461  16.786  0.6104 -2.7138 -0.7680
 2990SOL     OW20428   3.091   2.018  11.403  0.0930  0.9989  0.4448
 2990SOL    HW120429   3.003   2.000  11.437 -1.2625  0.6047 -3.3098
 2990SOL    HW220430   3.120   1.932  11.372 -0.9895  0.9054 -0.2829
 2991SOL     OW20431   4.471   3.347   6.096  0.2067  0.4786 -0.2587
 2991SOL    HW120432   4.505   3.295   6.169 -3.6892 -2.1604 -0.2990
 2991SOL    HW220433   4.483   3.289   6.022 -1.8375  0.5680 -0.6647
 2992SOL     OW20434   3.768   0.562   8.893 -0.3525 -0.0019 -0.5283
 2992SOL    HW120435   3.848   0.572   8.842 -0.6161  0.7656 -0.7871
 2992SOL    HW220436   3.756   0.467   8.884  2.1295 -0.6440  2.8142
 2993SOL     OW20437   3.712   1.993   6.903 -0.2152  0.0684 -0.1997
 2993SOL    HW120438   3.709   1.982   6.808  0.5678 -0.8405 -0.1158
 2993SOL    HW220439   3.805   1.979   6.920 -0.0664  0.5885 -0.5830
 2994SOL     OW20440   2.231   3.444   8.954  0.0048  0.4310 -0.2739
 2994SOL    HW120441   2.293   3.389   9.002 -1.2503 -1.4169 -0.7351
 2994SOL    HW220442   2.280   3.524   8.936 -0.1116  0.3503 -0.9606
 2995SOL     OW20443   2.715   0.009   2.485  0.8619 -0.3315 -0.3665
 2995SOL    HW120444   2.707   0.032   2.392  0.4045 -2.4677 -0.8518
 2995SOL    HW220445   2.667   4.646   2.480 -1.0168  0.8056 -1.1297
 2996SOL     OW20446   2.537   3.631  10.552  0.0586 -0.3517 -0.5429
 2996SOL    HW120447   2.533   3.685  10.473 -0.7596  0.6865  0.1981
 2996SOL    HW220448   2.603   3.564  10.534 -0.3591 -0.4055 -1.8886
 2997SOL     OW20449   2.061   4.177   4.116 -0.8701  0.1511  0.4776
 2997SOL    HW120450   2.137   4.137   4.074 -0.8610 -0.1631  0.7864
 2997SOL    HW220451   2.034   4.101   4.168 -0.0758 -0.2675  0.2827
 2998SOL     OW20452   2.571   2.185   8.760 -0.4788 -0.2894  0.4385
 2998SOL    HW120453   2.661   2.154   8.765 -0.3613  0.1956  1.3144
 2998SOL    HW220454   2.576   2.257   8.822  0.4249  1.6685 -1.9196
 2999SOL     OW20455   3.172   0.051   6.902 -0.4222 -0.5083  0.9153
 2999SOL    HW120456   3.186   4.677   6.921 -0.0281 -0.0095  3.0963
 2999SOL    HW220457   3.251   0.077   6.855 -0.0113 -0.7519  1.4739
 3000SOL     OW20458   4.237   0.278   0.607  0.3622  0.1768  0.4133
 3000SOL    HW120459   4.288   0.358   0.611  2.1070 -0.8750 -1.0433
 3000SOL    HW220460   4.209   0.287   0.515  2.7571 -0.1148 -0.3314
 3001SOL     OW20461   0.472   2.241   9.298  0.3971 -0.4903 -0.1771
 3001SOL    HW120462   0.458   2.320   9.350  0.8670 -0.0809 -0.6726
 3001SOL    HW220463   0.542   2.270   9.239 -1.0868  1.4173 -0.9806
 3002SOL     OW20464   3.471   3.938  17.308 -0.0348  0.0599  0.0729
 3002SOL    HW120465   3.416   4.015  17.289 -1.0349 -1.0723 -1.6423
 3002SOL    HW220466   3.445   3.916  17.397 -1.1681 -1.1868 -0.5626
 3003SOL     OW20467   0.526   3.339   4.254 -0.0651  0.3722  0.3435
 3003SOL    HW120468   0.433   3.323   4.268  0.0124 -1.1619 -0.9037
 3003SOL    HW220469   0.555   3.355   4.344  0.4398  3.5173 -0.3869
 3004SOL     OW20470   3.273   1.463   3.831 -0.1845  0.2804  0.5477
 3004SOL    HW120471   3.311   1.550   3.840  0.4881  0.1634 -1.2686
 3004SOL    HW220472   3.259   1.445   3.924  1.2531 -1.5790  0.4261
 3005SOL     OW20473   0.023   0.545   6.661 -0.2469  0.6707  0.5328
 3005SOL    HW120474   0.022   0.459   6.703 -0.2391  0.7851  0.7714
 3005SOL    HW220475   0.108   0.547   6.616  0.4459  0.0681  1.8054
 3006SOL     OW20476   2.586   1.226   5.458  0.1521  0.2885 -0.2977
 3006SOL    HW120477   2.678   1.254   5.456  0.4206 -0.6358 -0.8628
 3006SOL    HW220478   2.550   1.311   5.433 -1.3327 -0.5614 -1.0425
 3007SOL     OW20479   3.802   3.983   4.020  0.2462  0.1840 -0.4753
 3007SOL    HW120480   3.718   4.011   4.057 -0.3157 -2.1910  0.0723
 3007SOL    HW220481   3.776   3.936   3.941 -2.3414 -1.4825  1.3207
 3008SOL     OW20482   1.664   2.274  15.138 -0.0142  0.3852 -0.4088
 3008SOL    HW120483   1.628   2.287  15.051 -1.4011  2.1572  0.4273
 3008SOL    HW220484   1.597   2.325  15.183  0.2032 -0.2296  0.6200
 3009SOL     OW20485   1.416   4.236  15.265 -0.8461  0.1066 -0.1839
 3009SOL    HW120486   1.403   4.251  15.172 -1.7567  1.2407  0.1248
 3009SOL    HW220487   1.504   4.273  15.273 -1.3005  1.5454 -1.8809
 3010SOL     OW20488   3.969   2.802   8.254 -0.2678  0.0582 -0.2613
 3010SOL    HW120489   3.932   2.754   8.328 -2.3682 -0.0802 -1.3878
 3010SOL    HW220490   3.947   2.747   8.179 -1.9962  0.1822  0.1596
 3011SOL     OW20491   3.424   0.373   1.045  0.0422  0.3264  0.4116
 3011SOL    HW120492   3.488   0.357   0.976  1.2609 -1.0176  1.8350
 3011SOL    HW220493   3.477   0.411   1.115 -0.5691  1.8928  0.0100
 3012SOL     OW20494   2.969   3.502  14.917 -0.3427 -0.4211  0.3552
 3012SOL    HW120495   2.937   3.479  14.830 -0.8378  2.0703 -0.1130
 3012SOL    HW220496   2.981   3.412  14.948  2.5017  0.0941  0.8285
 3013SOL     OW20497   2.361   0.551   5.879  0.4670  0.5951  0.2737
 3013SOL    HW120498   2.402   0.636   5.894  0.3826  0.4922  1.0857
 3013SOL    HW220499   2.369   0.534   5.785  1.8321 -1.6620  0.8007
 3014SOL     OW20500   3.220   3.260   4.399 -0.2573  0.1351  0.2376
 3014SOL    HW120501   3.145   3.266   4.458  1.4245  1.1344  2.2534
 3014SOL    HW220502   3.287   3.264   4.468 -1.4796  2.7344  1.2575
 3015SOL     OW20503   0.292   3.098   3.064 -0.5975  0.1224  0.0877
 3015SOL    HW120504   0.205   3.074   3.096 -0.3700 -1.0970 -0.1960
 3015SOL    HW220505   0.267   3.148   2.986  0.2298  1.8064  0.9095
 3016SOL     OW20506   1.116   0.552   4.536 -0.4946  0.0489  0.0262
 3016SOL    HW120507   1.089   0.467   4.572  0.0820 -0.7352 -1.4127
 3016SOL    HW220508   1.100   0.553   4.442 -1.6869  2.9051  0.2525
 3017SOL     OW20509   2.625   1.396   4.040  0.4525  0.0884 -0.7817
 3017SOL    HW120510   2.719   1.411   4.045  0.3535  1.5024 -3.0383
 3017SOL    HW220511   2.590   1.484   4.050 -0.1134 -0.3407  0.9023
 3018SOL     OW20512   1.081   3.775   3.265  0.1892  0.2368 -0.3963
 3018SOL    HW120513   1.131   3.783   3.184  0.8274  0.9802  0.0710
 3018SOL    HW220514   0.994   3.746   3.239 -0.0794 -0.1777  0.9534
 3019SOL     OW20515   0.884   4.633   2.912  0.0467  0.3569  0.1687
 3019SOL    HW120516   0.889   4.716   2.959 -0.6847  0.2788  0.3918
 3019SOL    HW220517   0.975   4.606   2.917 -0.3663 -0.8349  1.1592
 3020SOL     OW20518   3.955   2.468   6.461 -0.3889 -0.6173 -0.0808
 3020SOL    HW120519   3.890   2.521   6.414  2.5358  2.4409 -0.6649
 3020SOL    HW220520   4.031   2.480   6.404 -0.1401  0.5678  0.5105
 3021SOL     OW20521   1.734   4.316   4.013 -0.1093 -0.1018 -0.4237
 3021SOL    HW120522   1.787   4.295   4.089  1.4618  2.5570 -0.7768
 3021SOL    HW220523   1.672   4.243   4.002 -0.5471  0.2037  0.0145
 3022SOL     OW20524   3.948   3.737   3.567  0.2762  0.5340  0.1251
 3022SOL    HW120525   3.984   3.767   3.651  0.9456 -0.9253  0.3616
 3022SOL    HW220526   3.960   3.814   3.512 -0.6970  0.7717  0.2563
 3023SOL     OW20527   2.875   2.403   3.701  0.4367  0.7577  0.0778
 3023SOL    HW120528   2.828   2.323   3.681  2.5437 -1.0175  2.2515
 3023SOL    HW220529   2.948   2.394   3.639 -1.2491  0.8573 -1.9078
 3024SOL     OW20530   0.213   1.484  10.378  0.1576 -0.2707  0.0033
 3024SOL    HW120531   0.140   1.547  10.385  0.5686  0.3362 -1.2755
 3024SOL    HW220532   0.281   1.522  10.433 -0.6050  0.0721  0.7077
 3025SOL     OW20533   3.067   1.670  15.815  0.2608  0.1194 -0.1336
 3025SOL    HW120534   3.076   1.757  15.853  0.7011  0.7934 -1.8144
 3025SOL    HW220535   3.147   1.625  15.842 -0.0770 -1.3829 -1.6121
 3026SOL     OW20536   2.325   2.404   7.229  0.0927  0.4321  0.1024
 3026SOL    HW120537   2.329   2.460   7.152 -1.5231  1.1001  0.5123
 3026SOL    HW220538   2.233   2.383   7.246 -0.0357  0.9245 -0.0024
 3027SOL     OW20539   3.963   0.231  13.382 -0.5158  0.2060  0.2459
 3027SOL    HW120540   3.885   0.204  13.333  0.4020 -3.0821  0.5904
 3027SOL    HW220541   3.913   0.281  13.446 -1.6302 -0.2834 -0.2385
 3028SOL     OW20542   4.475   2.630   4.965 -0.0248  0.0534  0.2728
 3028SOL    HW120543   4.470   2.538   4.989  1.4955 -0.0519  0.2175
 3028SOL    HW220544   4.491   2.625   4.870  0.1442 -0.1350  0.3104
 3029SOL     OW20545   3.486   1.347   8.031 -0.7368 -0.3368  0.7865
 3029SOL    HW120546   3.439   1.429   8.015 -2.1452 -1.1490  0.8041
 3029SOL    HW220547   3.508   1.329   7.939  0.3524 -1.2127  1.2040
 3030SOL     OW20548   2.007   3.760   2.224 -0.3296  0.0288  0.1277
 3030SOL    HW120549   2.093   3.762   2.181  0.6377 -1.0667  2.0105
 3030SOL    HW220550   1.954   3.811   2.163  1.8956  0.7907 -1.1645
 3031SOL     OW20551   3.890   2.567   3.045  0.9885  0.1925 -0.1250
 3031SOL    HW120552   3.823   2.608   2.990  0.9882  1.2684  0.6876
 3031SOL    HW220553   3.861   2.478   3.024  0.5384  0.4620 -0.6673
 3032SOL     OW20554   0.651   3.947   8.018  0.0251 -0.1972 -0.1450
 3032SOL    HW120555   0.607   4.026   7.987 -0.5058  0.0344  1.1946
 3032SOL    HW220556   0.579   3.891   7.988 -1.0384  0.9852  0.2150
 3033SOL     OW20557   2.434   1.039   8.261 -0.0977 -0.0104  0.1268
 3033SOL    HW120558   2.464   1.008   8.176 -0.4464 -0.7048  0.2560
 3033SOL    HW220559   2.475   0.975   8.319 -0.0005 -0.8139 -0.8234
 3034SOL     OW20560   2.165   1.875   1.294 -0.0158 -0.0332 -0.2299
 3034SOL    HW120561   2.091   1.827   1.333  0.6608 -2.1791 -1.5632
 3034SOL    HW220562   2.231   1.806   1.289 -2.4458 -2.3680 -0.1777
 3035SOL     OW20563   2.627   0.929   2.336  0.4180  0.2902 -0.3276
 3035SOL    HW120564   2.565   0.856   2.327  0.7604  0.1411 -1.5652
 3035SOL    HW220565   2.682   0.898   2.263  0.6329 -2.9110  1.1594
 3036SOL     OW20566   3.709   0.791   5.290 -0.1521  0.1994  0.1992
 3036SOL    HW120567   3.671   0.804   5.203  0.4414  1.3577  0.1176
 3036SOL    HW220568   3.649   0.846   5.340  0.2607 -1.5717  2.6381
 3037SOL     OW20569   0.008   0.154  17.109 -0.0723  0.3547  0.7687
 3037SOL    HW120570   0.077   0.187  17.167 -0.6380  1.4766  0.8020
 3037SOL    HW220571   4.661   0.215  17.141 -0.6198 -0.2745  0.8324
 3038SOL     OW20572   1.230   1.224   7.652  0.3591 -0.5875 -0.3022
 3038SOL    HW120573   1.301   1.275   7.614 -1.1179  0.7940 -1.2164
 3038SOL    HW220574   1.240   1.245   7.745 -1.8655  3.5330 -0.9552
 3039SOL     OW20575   3.085   1.105  16.428  0.1259  0.2405  0.3801
 3039SOL    HW120576   3.025   1.031  16.440  2.1159 -1.3096  0.6475
 3039SOL    HW220577   3.043   1.145  16.352 -2.0635 -0.5108  1.1716
 3040SOL     OW20578   1.571   0.994   4.751 -0.2812  0.7294  0.4228
 3040SOL    HW120579   1.593   0.913   4.796 -0.3053  0.6193  0.2374
 3040SOL    HW220580   1.501   0.988   4.685 -0.6692 -1.2332  1.0301
 3041SOL     OW20581   4.189   4.432   3.151 -0.3275 -0.2501  0.4514
 3041SOL    HW120582   4.141   4.405   3.229 -0.5104 -0.4679  0.2656
 3041SOL    HW220583   4.259   4.486   3.186 -0.8676 -1.0601  2.7719
 3042SOL     OW20584   0.973   2.319  12.203  0.0276 -0.5543 -0.1547
 3042SOL    HW120585   0.970   2.386  12.134  0.5306  0.6885  1.0257
 3042SOL    HW220586   1.030   2.354  12.271 -1.1184  1.0387  0.0106
 3043SOL     OW20587   2.907   0.466   2.339  0.0006  0.4130  0.4771
 3043SOL    HW120588   2.923   0.529   2.269  0.0831 -1.4229 -1.1383
 3043SOL    HW220589   2.881   0.393   2.282 -2.6109  2.2271 -0.6406
 3044SOL     OW20590   0.932   3.160  10.955 -0.3490 -0.5508 -0.4589
 3044SOL    HW120591   0.975   3.079  10.981  1.1065 -0.2046 -1.7909
 3044SOL    HW220592   0.983   3.232  10.993 -1.1233 -0.7691  0.9803
 3045SOL     OW20593   1.073   1.583   5.140  0.1826  0.3206  0.0962
 3045SOL    HW120594   1.091   1.491   5.122 -0.3165 -0.2019  2.2415
 3045SOL    HW220595   1.146   1.628   5.097 -0.3575  1.7184  0.6410
 3046SOL     OW20596   2.462   0.400   8.867 -0.5923  0.4729 -0.2317
 3046SOL    HW120597   2.379   0.418   8.824 -0.5690 -0.1728 -0.5565
 3046SOL    HW220598   2.504   0.485   8.881 -1.9749  1.1151  0.0172
 3047SOL     OW20599   3.864   3.993   3.431 -0.2814 -0.0426 -0.6398
 3047SOL    HW120600   3.826   3.986   3.519  1.4823 -1.7408 -0.0345
 3047SOL    HW220601   3.788   3.973   3.376 -0.5616 -1.0069  0.0964
 3048SOL     OW20602   2.200   1.355   1.345 -0.2429  0.0885 -0.3599
 3048SOL    HW120603   2.290   1.372   1.375  0.0984 -1.8542 -0.2428
 3048SOL    HW220604   2.155   1.330   1.426 -0.9194  0.7767 -0.5266
 3049SOL     OW20605   0.125   0.856   7.569 -0.8842  0.3629  0.3610
 3049SOL    HW120606   0.068   0.872   7.494  0.9797  1.7226 -0.7691
 3049SOL    HW220607   0.096   0.928   7.626  0.1245  0.4485  0.7756
 3050SOL     OW20608   0.188   0.455  14.404 -0.1648  0.3213  0.0712
 3050SOL    HW120609   0.219   0.521  14.342 -0.1700  0.9744  0.7539
 3050SOL    HW220610   0.244   0.463  14.482 -0.7029  0.3483  0.4524
 3051SOL     OW20611   1.201   1.754  15.344 -0.2851 -0.0110  0.1456
 3051SOL    HW120612   1.172   1.710  15.424  2.0345  1.9944  2.0581
 3051SOL    HW220613   1.295   1.741  15.355  0.0304  0.8100 -1.5555
 3052SOL     OW20614   1.363   3.840   2.343  0.0636  0.1015 -0.5103
 3052SOL    HW120615   1.283   3.892   2.350  0.3128  0.4063  0.1085
 3052SOL    HW220616   1.323   3.769   2.393  1.3699 -0.1992  0.1159
 3053SOL     OW20617   0.915   3.588   5.133 -0.2813 -0.3525 -0.0736
 3053SOL    HW120618   0.903   3.500   5.168 -0.6699  0.6451  2.3006
 3053SOL    HW220619   0.912   3.624   5.222 -2.5965 -0.6957 -0.0074
 3054SOL     OW20620   1.256   2.722   0.751  0.2991  0.8217  0.1317
 3054SOL    HW120621   1.274   2.740   0.659 -1.6852  1.6343 -0.0964
 3054SOL    HW220622   1.224   2.804   0.790 -1.0568 -0.5842  1.9830
 3055SOL     OW20623   1.009   0.392   2.568  0.1812  0.1279  0.1779
 3055SOL    HW120624   1.028   0.323   2.632 -0.6129 -0.1558  0.1079
 3055SOL    HW220625   1.026   0.473   2.615 -1.3716  0.6696 -0.2021
 3056SOL     OW20626   2.317   3.640   9.445 -0.1846 -0.5863  0.1451
 3056SOL    HW120627   2.378   3.574   9.476 -1.1167 -1.5090  0.0233
 3056SOL    HW220628   2.308   3.694   9.524  0.8921  0.2190 -0.2949
 3057SOL     OW20629   2.665   1.077   8.686  0.3480 -0.0566  0.1695
 3057SOL    HW120630   2.586   1.053   8.637 -0.0812 -2.1239  1.8650
 3057SOL    HW220631   2.688   1.155   8.635 -0.7853  1.4170  1.9076
 3058SOL     OW20632   1.157   1.431   8.174  0.0152  0.5621 -0.0294
 3058SOL    HW120633   1.229   1.493   8.164 -0.5073  0.7652 -2.5787
 3058SOL    HW220634   1.207   1.350   8.162 -0.2270  0.5450 -0.9046
 3059SOL     OW20635   2.584   2.134   6.971  0.1744 -0.3817  0.1132
 3059SOL    HW120636   2.572   2.190   6.895  1.4250  0.4838  0.5562
 3059SOL    HW220637   2.661   2.177   7.007  0.2612 -0.3295 -0.1389
 3060SOL     OW20638   1.248   0.758   4.286 -0.3790  0.6196 -0.5067
 3060SOL    HW120639   1.229   0.796   4.200 -2.4204 -1.6015 -1.0184
 3060SOL    HW220640   1.186   0.688   4.270 -1.1152  1.2347 -0.3335
 3061SOL     OW20641   4.186   1.631   7.530 -0.0717 -0.0659 -0.2979
 3061SOL    HW120642   4.217   1.559   7.475 -0.4954 -0.8866  0.5263
 3061SOL    HW220643   4.233   1.709   7.501  0.3091 -0.2678 -0.2187
 3062SOL     OW20644   2.615   1.743   7.983  0.5068  0.3376  0.0348
 3062SOL    HW120645   2.582   1.740   8.073 -0.4357  0.1277 -0.3160
 3062SOL    HW220646   2.624   1.837   7.969 -3.6229  0.7740  0.2199
 3063SOL     OW20647   1.077   2.728   6.491  0.4036  0.0782 -0.9101
 3063SOL    HW120648   1.002   2.768   6.447 -0.5087 -2.1235 -1.3834
 3063SOL    HW220649   1.086   2.643   6.447 -0.8158 -0.1534 -0.7352
 3064SOL     OW20650   4.702   0.898   4.865  0.1948  0.4274  0.2713
 3064SOL    HW120651   4.706   0.921   4.772  0.1921  2.6419  0.8237
 3064SOL    HW220652   0.057   0.936   4.911 -1.0519 -0.6432  3.1690
 3065SOL     OW20653   2.679   0.311   4.807  0.0844  0.0951 -0.0122
 3065SOL    HW120654   2.712   0.228   4.841 -1.1781 -0.3011  0.2547
 3065SOL    HW220655   2.642   0.267   4.730  0.0183 -4.3136  2.4941
 3066SOL     OW20656   4.469   0.132   5.907  0.0918  0.0896 -0.2051
 3066SOL    HW120657   4.561   0.151   5.888  0.4446 -0.6904  0.7697
 3066SOL    HW220658   4.433   0.112   5.820  2.6618 -0.5491 -1.1298
 3067SOL     OW20659   3.349   0.136   7.214  0.4573  0.3163 -0.3402
 3067SOL    HW120660   3.374   0.170   7.300 -1.5626  3.2990 -0.9356
 3067SOL    HW220661   3.420   0.079   7.185 -1.5558 -0.8297 -2.8786
 3068SOL     OW20662   3.961   2.582  11.325 -0.7450  0.1612  0.9365
 3068SOL    HW120663   4.022   2.654  11.310 -0.2985 -0.1442  1.2793
 3068SOL    HW220664   4.022   2.520  11.364  0.9682  2.5481  2.0218
 3069SOL     OW20665   3.920   2.869   7.517  0.4162  0.4653  0.1724
 3069SOL    HW120666   3.967   2.791   7.489 -1.3432 -0.1784 -0.9838
 3069SOL    HW220667   3.884   2.830   7.596  0.9081 -0.9661 -0.3098
 3070SOL     OW20668   0.804   4.108  13.854 -0.1977 -0.1611 -0.2681
 3070SOL    HW120669   0.819   4.203  13.847 -0.3304 -0.0254  1.4142
 3070SOL    HW220670   0.807   4.089  13.760 -0.1569 -0.3761 -0.2226
 3071SOL     OW20671   4.678   1.674   3.116 -0.0352  0.1752 -0.2448
 3071SOL    HW120672   0.003   1.623   3.047  0.8387  2.0451 -1.0832
 3071SOL    HW220673   4.629   1.721   3.048  1.4697  1.9379 -0.1110
 3072SOL     OW20674   2.310   3.266   2.219 -0.0070  0.6432  0.0962
 3072SOL    HW120675   2.220   3.240   2.196  1.3808  0.2262 -4.7878
 3072SOL    HW220676   2.358   3.184   2.219 -0.0734  0.6052 -1.7009
 3073SOL     OW20677   3.920   2.502   9.343  0.7913 -0.1555  0.0045
 3073SOL    HW120678   3.965   2.417   9.340 -0.2446 -0.6875 -0.7872
 3073SOL    HW220679   3.961   2.533   9.424  3.2892 -0.3367 -1.2107
 3074SOL     OW20680   1.092   0.222   5.395  0.3624 -0.4483  0.1180
 3074SOL    HW120681   1.167   0.260   5.347  0.1710 -0.4227 -0.1637
 3074SOL    HW220682   1.100   0.257   5.484 -0.0710  0.5318 -0.2192
 3075SOL     OW20683   3.942   3.336   0.993 -0.7734  0.3095 -0.6713
 3075SOL    HW120684   3.861   3.285   0.999 -1.1917  0.9394 -1.0434
 3075SOL    HW220685   4.011   3.270   1.002 -1.8691 -0.7148  0.2867
 3076SOL     OW20686   4.320   2.051   6.063  0.8685  0.1863 -0.2131
 3076SOL    HW120687   4.276   2.133   6.042  0.0808  0.2316  1.6452
 3076SOL    HW220688   4.270   1.985   6.014  0.7304  0.4560 -0.4347
 3077SOL     OW20689   3.828   2.311   6.077 -1.0055 -0.0677 -1.0475
 3077SOL    HW120690   3.792   2.395   6.048  2.0565  1.7419  0.4050
 3077SOL    HW220691   3.772   2.254   6.025 -1.1535 -2.4122  1.7007
 3078SOL     OW20692   2.205   0.066   4.722 -0.4780  0.1547 -0.1808
 3078SOL    HW120693   2.244   0.106   4.800 -2.8817  1.2660  0.4503
 3078SOL    HW220694   2.112   0.066   4.745 -1.0128  0.0470 -2.3124
 3079SOL     OW20695   2.124   3.080   2.997 -0.2008 -0.2031 -0.7308
 3079SOL    HW120696   2.163   3.023   2.930  0.3401 -1.6685  0.8538
 3079SOL    HW220697   2.206   3.124   3.018 -0.5179  0.4183 -0.7971
 3080SOL     OW20698   4.528   2.055   9.846 -0.1257  0.4134 -0.3230
 3080SOL    HW120699   4.503   2.121   9.910  1.0199 -0.2082  0.7622
 3080SOL    HW220700   4.581   2.105   9.784 -0.9882  1.6417 -0.0531
 3081SOL     OW20701   2.497   0.451   2.449  0.1395  0.3330 -0.2955
 3081SOL    HW120702   2.424   0.492   2.496 -1.6441 -0.9079 -1.9858
 3081SOL    HW220703   2.533   0.401   2.523  1.4427  0.8294 -0.6090
 3082SOL     OW20704   2.958   2.674   5.740  0.1068  0.1474  0.3871
 3082SOL    HW120705   3.014   2.666   5.663  0.4842  0.9962  0.5728
 3082SOL    HW220706   2.939   2.581   5.754  0.3604 -0.4693 -3.3304
 3083SOL     OW20707   2.502   1.410   2.853  0.2063 -0.7669 -0.2443
 3083SOL    HW120708   2.502   1.319   2.822  0.2897 -0.0652 -2.2968
 3083SOL    HW220709   2.551   1.402   2.936 -2.9489  0.0308  1.6810
 3084SOL     OW20710   2.176   4.133   1.644  0.5871 -0.0185  0.1741
 3084SOL    HW120711   2.264   4.095   1.644 -0.2900 -2.0212  0.9219
 3084SOL    HW220712   2.147   4.126   1.735 -2.2781 -0.0330 -0.7589
 3085SOL     OW20713   1.695   1.397   9.541 -0.4285 -0.1933  0.3606
 3085SOL    HW120714   1.690   1.308   9.575 -0.3992  0.2274  1.4552
 3085SOL    HW220715   1.632   1.399   9.469  0.9139 -1.2377 -0.8374
 3086SOL     OW20716   1.865   4.370   6.933  0.3866 -0.0802  0.7464
 3086SOL    HW120717   1.862   4.307   7.004  0.2749 -0.1816  0.6514
 3086SOL    HW220718   1.838   4.326   6.852 -2.7534 -0.0678  1.8000
 3087SOL     OW20719   3.598   3.986   5.407 -0.2592  0.4881  0.1078
 3087SOL    HW120720   3.608   3.976   5.501 -1.0932  2.3409  0.3926
 3087SOL    HW220721   3.657   3.918   5.377  0.6691  1.8013 -1.0672
 3088SOL     OW20722   3.075   1.077   4.572 -0.3094  0.4275 -0.7857
 3088SOL    HW120723   3.121   0.998   4.598 -0.2603  0.5356 -0.5447
 3088SOL    HW220724   3.115   1.094   4.486  1.1562 -1.1155 -0.4069
 3089SOL     OW20725   3.776   3.166  15.800  0.1256  0.4582 -0.0387
 3089SOL    HW120726   3.719   3.097  15.767  0.3426  0.6060 -0.7356
 3089SOL    HW220727   3.794   3.219  15.722 -0.1648  0.1796 -0.2975
 3090SOL     OW20728   2.214   1.330   8.826 -0.5128 -0.5709  0.2572
 3090SOL    HW120729   2.186   1.288   8.907 -1.4940 -2.0303 -0.8229
 3090SOL    HW220730   2.214   1.422   8.853  0.4218 -0.8740  1.2768
 3091SOL     OW20731   1.038   3.282  14.018  0.3231 -0.0926 -0.3830
 3091SOL    HW120732   0.951   3.316  13.994  0.3510  0.0987 -0.2162
 3091SOL    HW220733   1.037   3.204  13.963  2.1997  0.3177 -0.9851
 3092SOL     OW20734   3.147   1.236   2.974 -0.0515 -0.2948 -0.0731
 3092SOL    HW120735   3.079   1.291   3.014  0.3883  1.1752 -1.3545
 3092SOL    HW220736   3.105   1.151   2.963  0.6337 -0.6184 -0.1754
 3093SOL     OW20737   2.907   2.361   0.778  0.2541 -0.4775 -0.1466
 3093SOL    HW120738   2.861   2.285   0.741  1.2554 -1.6890  1.1302
 3093SOL    HW220739   2.998   2.342   0.757 -0.1106 -0.3501 -1.8616
 3094SOL     OW20740   0.774   1.648  11.828  0.6239  0.0990  0.5061
 3094SOL    HW120741   0.726   1.638  11.911  1.1704 -1.4686  0.6260
 3094SOL    HW220742   0.864   1.620  11.845  1.1824  0.8319 -1.3010
 3095SOL     OW20743   1.793   3.405  12.398 -0.3129  0.2747 -0.2713
 3095SOL    HW120744   1.808   3.476  12.336 -1.3603 -0.4187 -1.3093
 3095SOL    HW220745   1.703   3.377  12.381 -0.4237  0.4964 -0.0541
 3096SOL     OW20746   1.312   2.511   4.081  0.0512  0.5630  0.0763
 3096SOL    HW120747   1.256   2.481   4.009  2.1990 -3.0504 -0.0688
 3096SOL    HW220748   1.342   2.426   4.114 -0.2839  0.6706  0.6674
 3097SOL     OW20749   0.342   2.780  15.480 -0.0196  0.2127 -0.3697
 3097SOL    HW120750   0.372   2.869  15.461  0.2038 -0.3989 -2.8950
 3097SOL    HW220751   0.248   2.792  15.497 -0.0464 -1.5978  0.6996
 3098SOL     OW20752   0.479   0.053   6.208 -0.3588  0.3573 -0.3387
 3098SOL    HW120753   0.499   4.698   6.150  0.4148  0.0227  0.3560
 3098SOL    HW220754   0.428   0.015   6.281 -1.1826  0.4449 -0.8756
 3099SOL     OW20755   0.998   4.352   6.836  0.1144 -0.0830  0.1252
 3099SOL    HW120756   0.994   4.259   6.858 -1.5140  0.0097  0.2140
 3099SOL    HW220757   1.085   4.370   6.872 -0.2859 -0.8818  1.5187
 3100SOL     OW20758   0.203   1.470   4.738 -0.4237  0.4707  0.1147
 3100SOL    HW120759   0.108   1.469   4.725 -0.0863  3.6182 -2.4180
 3100SOL    HW220760   0.244   1.486   4.653  0.9234 -0.7669  0.5195
 3101SOL     OW20761   2.286   1.002   2.301  0.0226 -0.1554  0.2451
 3101SOL    HW120762   2.336   0.929   2.338 -2.5536 -2.4204 -0.7319
 3101SOL    HW220763   2.328   1.073   2.348  1.9789 -1.7330  0.8527
 3102SOL     OW20764   2.369   3.513  14.341 -0.1072 -0.3499 -0.3578
 3102SOL    HW120765   2.363   3.609  14.346 -3.1580 -0.5281 -0.4609
 3102SOL    HW220766   2.378   3.499  14.247  0.0052  1.2844 -0.5959
 3103SOL     OW20767   3.668   3.630  13.003  0.3933  0.1582 -0.0351
 3103SOL    HW120768   3.645   3.542  13.034 -1.1842  0.6548  0.2146
 3103SOL    HW220769   3.764   3.631  13.009  0.5937  1.1132 -3.8634
 3104SOL     OW20770   1.040   2.404   2.904  0.3386 -0.1972  0.5548
 3104SOL    HW120771   0.977   2.476   2.912  0.3730  0.1258 -1.8880
 3104SOL    HW220772   1.107   2.446   2.958  0.2602 -0.1517  0.6169
 3105SOL     OW20773   4.690   1.635  14.556  0.1271 -1.0622 -0.3138
 3105SOL    HW120774   4.682   1.545  14.588  1.4558 -0.5054  1.5594
 3105SOL    HW220775   4.716   1.678  14.637 -2.5993  0.2097 -0.1188
 3106SOL     OW20776   3.900   2.487   3.412  0.1498 -0.1829 -0.0059
 3106SOL    HW120777   3.971   2.529   3.365  0.1416  0.1039  0.2388
 3106SOL    HW220778   3.829   2.549   3.394  0.3714  0.1798  0.3532
 3107SOL     OW20779   4.407   1.500   8.859  0.0667 -0.1558  0.5044
 3107SOL    HW120780   4.364   1.447   8.792 -0.9569  1.6229 -0.2503
 3107SOL    HW220781   4.383   1.452   8.938 -0.8731  2.6961  1.9703
 3108SOL     OW20782   3.813   2.142  16.223  0.1177  0.5951  0.6847
 3108SOL    HW120783   3.844   2.199  16.293 -0.1968  1.0317  0.4684
 3108SOL    HW220784   3.766   2.201  16.164  1.8634 -0.4308 -1.7453
 3109SOL     OW20785   0.368   2.195   4.504 -0.4071 -0.0321  0.3500
 3109SOL    HW120786   0.463   2.202   4.515 -0.4644  1.4179 -0.0064
 3109SOL    HW220787   0.353   2.166   4.594 -0.9821 -1.4160 -0.2038
 3110SOL     OW20788   2.472   2.874   6.325 -0.0073  0.0827 -0.3183
 3110SOL    HW120789   2.439   2.849   6.239  0.3461  0.6177 -0.6026
 3110SOL    HW220790   2.400   2.847   6.381 -0.1617  0.0017 -0.5581
 3111SOL     OW20791   2.540   0.595   6.404  0.0489 -0.6385  0.4676
 3111SOL    HW120792   2.575   0.507   6.420  0.3695 -0.2682  1.7874
 3111SOL    HW220793   2.452   0.587   6.442 -0.3850  1.0331 -0.2023
 3112SOL     OW20794   2.299   3.200  15.616  0.2426 -0.3393  0.2221
 3112SOL    HW120795   2.239   3.211  15.690 -1.4356 -0.6165 -1.0985
 3112SOL    HW220796   2.289   3.288  15.581  0.6908 -0.6251 -0.6298
 3113SOL     OW20797   2.619   0.051   9.060 -0.1437  0.1727 -1.0014
 3113SOL    HW120798   2.579   4.700   9.112 -0.3544  0.9125 -0.1648
 3113SOL    HW220799   2.710   0.020   9.058 -0.1619  0.0820 -0.2870
 3114SOL     OW20800   1.193   3.813  16.954  0.0577 -0.3706  0.4050
 3114SOL    HW120801   1.230   3.727  16.975 -1.5126 -1.4126 -0.9624
 3114SOL    HW220802   1.116   3.785  16.903 -0.5844 -1.0089  1.7242
 3115SOL     OW20803   4.454   4.646  12.980 -0.3556 -0.2125  0.4718
 3115SOL    HW120804   4.414   0.013  12.972  0.8271  0.1385 -1.6032
 3115SOL    HW220805   4.539   4.658  12.936  0.1681 -0.0762  1.5224
 3116SOL     OW20806   3.575   0.664   8.562  0.3283  0.5479 -0.1542
 3116SOL    HW120807   3.493   0.619   8.541  1.1625 -0.7066 -0.7089
 3116SOL    HW220808   3.645   0.604   8.536  1.5157  1.8771 -0.0504
 3117SOL     OW20809   1.398   1.528   5.599  0.0235  0.5007  0.3869
 3117SOL    HW120810   1.379   1.597   5.536  0.7328  0.0177 -0.3448
 3117SOL    HW220811   1.484   1.559   5.625  0.2102 -0.4283  0.9034
 3118SOL     OW20812   3.712   4.050   5.914 -0.3556  0.3593 -0.0865
 3118SOL    HW120813   3.631   4.091   5.946 -0.7933 -0.4270 -0.1785
 3118SOL    HW220814   3.686   4.011   5.831 -1.8841  4.5572 -1.5661
 3119SOL     OW20815   1.134   3.618   0.062 -0.0368 -0.3984 -0.6050
 3119SOL    HW120816   1.132   3.636   0.157 -3.2848 -0.0216 -0.7194
 3119SOL    HW220817   1.169   3.530   0.058 -1.4442 -1.0656  1.5531
 3120SOL     OW20818   0.448   3.341   7.541 -0.5765  0.1323 -0.0962
 3120SOL    HW120819   0.512   3.287   7.587 -0.5340 -0.8748 -1.3269
 3120SOL    HW220820   0.499   3.416   7.511 -2.3662  1.4211  0.0671
 3121SOL     OW20821   0.604   4.671   7.848 -0.0094 -0.3569 -0.2150
 3121SOL    HW120822   0.678   4.712   7.803 -0.3044 -0.9553 -1.2411
 3121SOL    HW220823   0.625   4.579   7.832 -3.5931 -1.0909 -0.7805
 3122SOL     OW20824   2.916   1.970  11.921  0.1143  0.2784 -0.6910
 3122SOL    HW120825   2.993   1.976  11.864  0.0497 -2.1107 -1.0020
 3122SOL    HW220826   2.952   1.999  12.005  0.6343 -1.3196 -0.3706
 3123SOL     OW20827   3.573   2.408   8.141 -0.1393  0.2149  0.0851
 3123SOL    HW120828   3.580   2.424   8.047  1.7382 -0.1931  0.1481
 3123SOL    HW220829   3.525   2.325   8.138  3.2369 -1.6261 -2.7632
 3124SOL     OW20830   4.360   4.491  11.193  0.4734  0.3599  0.8019
 3124SOL    HW120831   4.435   4.437  11.218 -0.3505 -0.5603  1.3003
 3124SOL    HW220832   4.404   4.535  11.120 -0.1399  0.7892  0.6933
 3125SOL     OW20833   3.353   3.478   7.605  0.0320 -0.5161  0.2726
 3125SOL    HW120834   3.326   3.567   7.626 -1.1514 -1.1080  1.2573
 3125SOL    HW220835   3.405   3.507   7.530 -1.6832 -0.3047 -0.8416
 3126SOL     OW20836   4.332   1.907   7.084  0.4708 -0.1845  0.7019
 3126SOL    HW120837   4.418   1.883   7.119  1.6071  0.9957 -1.3116
 3126SOL    HW220838   4.312   1.989   7.128 -1.6846  0.0551 -0.7212
 3127SOL     OW20839   1.980   2.818   7.365 -0.4435  0.0138  0.4507
 3127SOL    HW120840   1.950   2.864   7.443  0.9885  2.4436 -0.4310
 3127SOL    HW220841   2.070   2.850   7.357 -0.7160  0.0976 -2.3475
 3128SOL     OW20842   0.908   3.504   7.118  0.6916  0.3314  0.1094
 3128SOL    HW120843   0.842   3.442   7.089 -0.5424  1.8161 -0.2586
 3128SOL    HW220844   0.913   3.563   7.042  3.1770 -1.0126 -0.7578
 3129SOL     OW20845   2.641   1.036  13.631  0.0118  0.2420 -1.0016
 3129SOL    HW120846   2.623   0.995  13.716  1.8506  1.2073 -0.1293
 3129SOL    HW220847   2.560   1.017  13.585 -0.2820  1.5532 -1.0093
 3130SOL     OW20848   0.435   3.717   4.517  0.1139  0.4371 -0.6411
 3130SOL    HW120849   0.405   3.808   4.508  3.6958  1.5774 -1.0469
 3130SOL    HW220850   0.485   3.722   4.436  0.8435  0.6268 -0.1709
 3131SOL     OW20851   3.038   1.193   0.735  0.0949  0.4237 -0.2216
 3131SOL    HW120852   3.074   1.273   0.772 -1.1088  0.6295  0.4987
 3131SOL    HW220853   3.014   1.138   0.810  1.6471 -0.4719 -0.3951
 3132SOL     OW20854   4.523   3.817   1.889 -0.3628  0.7032  0.1770
 3132SOL    HW120855   4.518   3.861   1.804 -1.6410  2.2479  1.0583
 3132SOL    HW220856   4.511   3.724   1.868  2.2437  0.2592  0.5401
 3133SOL     OW20857   1.773   3.765  13.657 -0.0256 -0.0987  0.2394
 3133SOL    HW120858   1.705   3.791  13.595  1.0792 -0.6512 -1.1981
 3133SOL    HW220859   1.723   3.795  13.733 -0.5643  4.5911 -1.9555
 3134SOL     OW20860   2.541   3.577   3.035  0.7843 -0.4176 -0.3018
 3134SOL    HW120861   2.488   3.593   3.113  1.0770 -2.0456  0.2347
 3134SOL    HW220862   2.578   3.491   3.055  1.2131  0.0585  0.9546
 3135SOL     OW20863   0.715   3.808  15.040 -0.2784  0.1700  0.2382
 3135SOL    HW120864   0.805   3.838  15.052  0.1676 -0.0370 -2.4308
 3135SOL    HW220865   0.685   3.869  14.973  0.4988  1.3540  0.9661
 3136SOL     OW20866   1.708   0.957   5.547 -0.8106 -0.0996  0.0724
 3136SOL    HW120867   1.712   0.880   5.604  1.1366 -0.0119  0.0665
 3136SOL    HW220868   1.683   1.029   5.606  0.7001  0.4533  0.0320
 3137SOL     OW20869   3.923   0.324   7.483 -0.1813 -0.1230  0.5533
 3137SOL    HW120870   3.990   0.285   7.539 -0.2068  0.1058  0.7405
 3137SOL    HW220871   3.933   0.418   7.494 -1.4757 -0.0000  0.7194
 3138SOL     OW20872   3.232   3.254   6.996  1.3100  0.4731 -0.1277
 3138SOL    HW120873   3.178   3.199   7.053 -0.9363 -0.3329 -3.0535
 3138SOL    HW220874   3.232   3.335   7.048 -1.4384 -0.7397  1.7579
 3139SOL     OW20875   0.675   3.797  13.051 -0.1507  0.2940  0.0176
 3139SOL    HW120876   0.617   3.755  12.989 -0.4314 -0.8557  1.0589
 3139SOL    HW220877   0.645   3.759  13.134 -0.2429 -1.5095 -0.8482
 3140SOL     OW20878   2.391   2.585   7.634  0.2214 -0.1805 -0.1773
 3140SOL    HW120879   2.430   2.532   7.704 -2.2094  0.9165  2.0510
 3140SOL    HW220880   2.363   2.666   7.677 -1.3996 -0.7595 -0.1347
 3141SOL     OW20881   1.862   4.519  13.783 -0.4461 -0.0881  0.1649
 3141SOL    HW120882   1.879   4.488  13.871 -0.5454  0.1820  0.2802
 3141SOL    HW220883   1.780   4.569  13.785 -0.1865  0.4338 -1.8777
 3142SOL     OW20884   4.205   4.073   7.789 -0.2507 -0.4637 -0.4862
 3142SOL    HW120885   4.247   4.027   7.861 -1.3854 -2.4239 -1.0778
 3142SOL    HW220886   4.239   4.028   7.711 -0.4976  1.0572 -1.4808
 3143SOL     OW20887   1.397   1.553   8.193 -0.0137 -0.3846  0.3147
 3143SOL    HW120888   1.467   1.517   8.139  1.4344 -0.4275  2.2180
 3143SOL    HW220889   1.439   1.549   8.279 -1.0252 -0.3723  0.8101
 3144SOL     OW20890   1.389   1.183   4.990  0.2325 -0.2728  0.1870
 3144SOL    HW120891   1.437   1.107   5.024  0.5149  0.0773  0.5639
 3144SOL    HW220892   1.452   1.252   4.971  1.5818 -2.0594 -1.7651
 3145SOL     OW20893   2.404   1.089  11.689  0.0503  0.2218 -0.4275
 3145SOL    HW120894   2.327   1.075  11.744  0.4071  1.1622  0.3077
 3145SOL    HW220895   2.440   1.175  11.710 -0.0618 -0.5455  2.8642
 3146SOL     OW20896   4.677   0.723  12.114  0.0973  0.2618 -0.2723
 3146SOL    HW120897   4.623   0.684  12.182  1.5739 -2.4882 -0.6738
 3146SOL    HW220898   0.016   0.784  12.159  0.9382 -0.7329 -0.0070
 3147SOL     OW20899   1.808   2.288   4.820  0.2657  0.4125  0.4517
 3147SOL    HW120900   1.764   2.328   4.745 -1.3432  1.3671  1.9195
 3147SOL    HW220901   1.792   2.195   4.801  0.9110  0.1098  1.4234
 3148SOL     OW20902   2.163   2.899   4.745 -0.0063  0.0970 -0.4942
 3148SOL    HW120903   2.105   2.825   4.765  1.4487 -0.4596  1.6868
 3148SOL    HW220904   2.200   2.912   4.833 -1.8045  1.7044  0.0226
 3149SOL     OW20905   1.845   0.849  14.798 -0.6061  0.5327  0.1217
 3149SOL    HW120906   1.867   0.871  14.889  0.5640 -2.4777  0.5625
 3149SOL    HW220907   1.916   0.889  14.748 -1.6755  2.1274 -0.1422
 3150SOL     OW20908   2.023   2.016  11.332  0.1049  0.5129  0.1577
 3150SOL    HW120909   2.113   1.988  11.347 -0.0427  0.4934  0.9748
 3150SOL    HW220910   1.979   2.015  11.417  0.3404 -1.4954  0.2502
 3151SOL     OW20911   4.143   1.000   5.115  0.2853 -0.5090  0.2162
 3151SOL    HW120912   4.059   0.970   5.080 -0.4149  0.6569  0.9256
 3151SOL    HW220913   4.170   1.034   5.029  0.8988 -0.9481  0.2315
 3152SOL     OW20914   1.834   3.792   5.044  0.3064 -0.0420 -0.2715
 3152SOL    HW120915   1.916   3.751   5.016  0.3005 -0.0472 -0.2810
 3152SOL    HW220916   1.804   3.725   5.106 -0.9900 -0.7837 -1.7052
 3153SOL     OW20917   2.450   0.569  15.473 -0.2036  0.1037  0.0883
 3153SOL    HW120918   2.476   0.485  15.511 -1.0592 -0.7708 -1.2744
 3153SOL    HW220919   2.393   0.541  15.402  0.8234 -0.1085 -0.6577
 3154SOL     OW20920   2.245   4.434   2.432 -0.3544 -0.2246 -0.1348
 3154SOL    HW120921   2.163   4.424   2.383 -1.2489  0.5488  1.2114
 3154SOL    HW220922   2.306   4.449   2.360 -1.8923 -0.8647 -1.5852
 3155SOL     OW20923   4.015   2.910   3.145 -0.5259  0.6965 -0.4437
 3155SOL    HW120924   4.051   2.832   3.103 -1.1750  1.0050 -1.5879
 3155SOL    HW220925   3.971   2.938   3.064 -0.3863  0.7557 -0.4994
 3156SOL     OW20926   3.245   3.475   5.107  0.0137  0.0769  0.5993
 3156SOL    HW120927   3.271   3.423   5.032  2.2277  0.6160  0.9983
 3156SOL    HW220928   3.232   3.407   5.173  0.2750  0.6546  1.2454
 3157SOL     OW20929   2.311   0.199   4.936  0.1153  0.6677 -0.1551
 3157SOL    HW120930   2.346   0.269   4.881 -0.9601  1.6950  0.4475
 3157SOL    HW220931   2.342   0.245   5.015  0.9031 -2.4958  1.3656
 3158SOL     OW20932   3.058   2.110  12.892 -0.2807 -0.1067 -0.0026
 3158SOL    HW120933   3.088   2.129  12.803 -1.1756 -0.1415 -0.3101
 3158SOL    HW220934   2.980   2.165  12.897 -1.0014 -1.1879  0.7201
 3159SOL     OW20935   4.404   0.532  11.249 -0.5213  0.2563  0.3843
 3159SOL    HW120936   4.410   0.579  11.166 -0.3094 -0.1580  0.1659
 3159SOL    HW220937   4.453   0.452  11.233 -0.1871  0.6197 -0.3958
 3160SOL     OW20938   2.937   2.117  17.625 -0.6446 -0.7650 -0.0528
 3160SOL    HW120939   2.913   2.206  17.649  0.2747 -0.1019 -1.5720
 3160SOL    HW220940   2.902   2.072   0.023  1.8232 -0.1897  1.4051
 3161SOL     OW20941   1.837   0.830   1.449  0.4536 -0.0243  0.2070
 3161SOL    HW120942   1.785   0.840   1.370  0.8233 -3.0999 -0.3931
 3161SOL    HW220943   1.902   0.901   1.447  2.4356 -1.8300  0.0658
 3162SOL     OW20944   1.111   2.569   8.090  0.2575  0.4374 -0.3998
 3162SOL    HW120945   1.173   2.510   8.048  0.6939  1.0480 -0.6207
 3162SOL    HW220946   1.136   2.566   8.182 -0.6149 -1.0122 -0.2180
 3163SOL     OW20947   0.808   4.604  16.512  0.3055 -0.1305  0.2590
 3163SOL    HW120948   0.791   4.698  16.501  0.7673 -0.4155 -2.9456
 3163SOL    HW220949   0.788   4.569  16.425  2.7952 -0.4534 -0.1835
 3164SOL     OW20950   0.260   0.254   5.047  0.0531 -0.3890 -0.0801
 3164SOL    HW120951   0.203   0.262   5.124 -0.7225 -0.0732 -0.6953
 3164SOL    HW220952   0.327   0.316   5.076 -0.5561  0.4077 -0.3866
 3165SOL     OW20953   1.771   4.445   8.809  0.4261 -0.2060 -0.6015
 3165SOL    HW120954   1.811   4.494   8.738 -0.0109 -0.6266 -1.1395
 3165SOL    HW220955   1.837   4.445   8.878  0.0255  0.9572 -0.2245
 3166SOL     OW20956   4.245   3.077   4.453 -0.1664  0.6793 -0.0070
 3166SOL    HW120957   4.257   3.041   4.541 -0.4922 -1.8775 -1.0099
 3166SOL    HW220958   4.292   3.160   4.462 -0.4302  1.0581 -2.1276
 3167SOL     OW20959   4.334   0.906   9.561  0.4804 -0.7762 -0.0642
 3167SOL    HW120960   4.255   0.961   9.567  0.5471 -0.7091  0.2024
 3167SOL    HW220961   4.360   0.890   9.652 -1.2205  0.3034  0.6178
 3168SOL     OW20962   0.999   3.545   1.147 -0.0193  0.2295  0.5116
 3168SOL    HW120963   1.043   3.577   1.068  0.5572  0.5920  0.9766
 3168SOL    HW220964   1.004   3.453   1.121  2.5462  0.5313 -0.1089
 3169SOL     OW20965   3.784   4.075   2.991  0.1091 -0.0204 -0.1540
 3169SOL    HW120966   3.761   4.124   3.070  1.9536  1.5749 -0.6151
 3169SOL    HW220967   3.769   3.987   3.026  1.2980  0.0673  0.5610
 3170SOL     OW20968   1.535   1.189   7.843 -0.3602  0.5269  0.3358
 3170SOL    HW120969   1.563   1.225   7.927  1.0961 -1.1060  0.5485
 3170SOL    HW220970   1.487   1.113   7.877  0.6204 -1.1459 -1.9984
 3171SOL     OW20971   2.166   2.626   6.998  0.4389 -0.1044 -0.5564
 3171SOL    HW120972   2.102   2.636   6.927 -1.2157  1.7625  1.1987
 3171SOL    HW220973   2.220   2.558   6.957  0.4427 -1.3458  1.5257
 3172SOL     OW20974   4.324   3.131   3.974  0.0401  0.3809 -0.5413
 3172SOL    HW120975   4.299   3.039   3.966  0.2832  0.1579  1.2483
 3172SOL    HW220976   4.285   3.161   3.892 -0.9332 -0.9576 -0.5762
 3173SOL     OW20977   2.772   0.854   0.424  0.7463 -0.1509 -0.6010
 3173SOL    HW120978   2.769   0.899   0.509 -1.1306 -0.1474 -0.6698
 3173SOL    HW220979   2.851   0.892   0.385  1.4287 -0.6490  0.2700
 3174SOL     OW20980   2.558   3.820  14.670  0.5418 -0.4825  0.7647
 3174SOL    HW120981   2.520   3.813  14.757  0.0665 -1.8114  0.4462
 3174SOL    HW220982   2.651   3.822  14.692  0.6468 -1.1178  0.3793
 3175SOL     OW20983   4.525   4.606   1.515  0.4890  0.5083 -0.7008
 3175SOL    HW120984   4.609   4.649   1.534 -0.6276  1.1519  2.7725
 3175SOL    HW220985   4.483   4.636   1.596  0.7493 -1.6900  0.2459
 3176SOL     OW20986   4.096   2.296   9.353 -0.2373 -0.0179 -0.8097
 3176SOL    HW120987   4.096   2.209   9.394 -1.0374  1.1743  1.7645
 3176SOL    HW220988   4.183   2.331   9.372 -0.1715 -0.0274 -1.0996
 3177SOL     OW20989   0.021   3.695   1.663 -0.3378  0.4189 -0.2941
 3177SOL    HW120990   0.074   3.767   1.631  0.2427  1.4375  2.9285
 3177SOL    HW220991   0.079   3.672   1.736 -0.0941 -0.2505 -0.7013
 3178SOL     OW20992   1.144   1.943   8.715 -0.2353  0.8923 -0.5071
 3178SOL    HW120993   1.181   1.993   8.643 -1.0952  2.7939  0.3755
 3178SOL    HW220994   1.226   1.935   8.764 -0.4633 -0.0597 -0.2724
 3179SOL     OW20995   4.104   4.693   1.684 -0.4602  0.3276 -0.5572
 3179SOL    HW120996   4.079   4.710   1.775  2.7870 -1.3838  0.6762
 3179SOL    HW220997   4.187   0.022   1.684 -0.6375  0.6437 -1.5960
 3180SOL     OW20998   2.617   1.137   0.295  0.3519 -0.2760  0.0047
 3180SOL    HW120999   2.657   1.159   0.379  0.4592  0.0098 -0.1201
 3180SOL    HW221000   2.569   1.216   0.270  0.9196 -0.4255 -1.5558
 3181SOL     OW21001   4.395   0.272   6.655  0.0265 -0.2877  0.4334
 3181SOL    HW121002   4.406   0.366   6.646 -0.9228 -0.4280 -2.1889
 3181SOL    HW221003   4.412   0.241   6.565 -1.1755  2.3232 -0.6938
 3182SOL     OW21004   0.958   1.339   6.962  0.2926  0.8347  0.0805
 3182SOL    HW121005   0.922   1.407   7.018 -0.8973  0.4223 -0.1959
 3182SOL    HW221006   0.887   1.276   6.974 -0.1705  1.6426  1.5851
 3183SOL     OW21007   2.404   2.051   8.586 -0.2561  0.2581  0.3287
 3183SOL    HW121008   2.458   2.099   8.650  2.3107  1.8334 -3.0074
 3183SOL    HW221009   2.465   1.978   8.595 -1.5155 -1.0725 -2.1498
 3184SOL     OW21010   0.868   0.137   0.050 -0.0621 -0.2137  0.2658
 3184SOL    HW121011   0.803   0.109   0.114  2.0289 -1.7382  1.7345
 3184SOL    HW221012   0.842   0.088  17.651 -2.1756  4.4056 -1.9386
 3185SOL     OW21013   3.842   0.621   5.662  0.4401 -0.9146  0.4543
 3185SOL    HW121014   3.915   0.564   5.684 -0.8480 -2.3533  1.0654
 3185SOL    HW221015   3.817   0.656   5.747 -0.2043 -1.3994  0.4712
 3186SOL     OW21016   2.834   1.090   9.376  0.2432 -0.6610 -0.1745
 3186SOL    HW121017   2.905   1.072   9.438 -0.6184  0.0218  1.0133
 3186SOL    HW221018   2.874   1.071   9.291 -1.8102 -0.8219 -1.1068
 3187SOL     OW21019   0.139   1.025  13.510  0.2498  0.2585  0.2287
 3187SOL    HW121020   0.157   0.935  13.536  0.6690  0.5775  1.0142
 3187SOL    HW221021   0.216   1.051  13.459 -1.2774  0.2706 -2.0727
 3188SOL     OW21022   3.795   2.328   7.043  0.5129 -0.2384  0.1373
 3188SOL    HW121023   3.754   2.373   6.969  0.7353  0.3506  0.3762
 3188SOL    HW221024   3.811   2.395   7.109  0.4987 -0.2257  0.1279
 3189SOL     OW21025   0.768   3.461   2.601 -0.0523  0.3406  0.4222
 3189SOL    HW121026   0.727   3.542   2.572  0.8178  0.7003  0.1900
 3189SOL    HW221027   0.728   3.405   2.534 -1.2140  0.4194  1.0463
 3190SOL     OW21028   1.209   4.394   2.656  0.0013  0.4081 -0.0968
 3190SOL    HW121029   1.278   4.331   2.676  0.0505 -0.4933 -2.9850
 3190SOL    HW221030   1.208   4.383   2.560  3.1118 -2.8463  0.2102
 3191SOL     OW21031   3.226   1.025  10.770  0.6654  0.7038 -0.4075
 3191SOL    HW121032   3.206   1.116  10.747  2.8630  1.3547  0.1777
 3191SOL    HW221033   3.223   1.024  10.866 -1.1828  1.8213 -0.4598
 3192SOL     OW21034   0.058   1.511  17.165  0.9637 -0.1751 -0.4569
 3192SOL    HW121035   0.015   1.587  17.125 -0.7595 -1.1057 -0.4186
 3192SOL    HW221036   0.124   1.494  17.098  1.4160  0.8581 -0.2776
 3193SOL     OW21037   1.931   0.347   6.569  0.4655  0.0900  0.2240
 3193SOL    HW121038   1.886   0.291   6.633 -0.5219  1.0918  0.4001
 3193SOL    HW221039   1.972   0.422   6.612  1.4167 -0.0399 -0.4440
 3194SOL     OW21040   4.188   2.167   5.601 -0.1047 -0.2407  0.1558
 3194SOL    HW121041   4.265   2.221   5.587  0.1259 -0.6673 -0.2166
 3194SOL    HW221042   4.124   2.237   5.611 -0.5662 -0.7585  0.8456
 3195SOL     OW21043   2.449   3.000   5.206  0.1678 -0.0542 -0.5838
 3195SOL    HW121044   2.502   3.066   5.251 -2.3171  0.5268  1.4754
 3195SOL    HW221045   2.417   2.957   5.285 -1.3145  2.2487  0.0457
 3196SOL     OW21046   3.634   2.946  15.737 -0.2750 -0.1534  0.2891
 3196SOL    HW121047   3.597   2.904  15.659  0.0652  0.9994 -0.4941
 3196SOL    HW221048   3.646   2.875  15.800  1.8861  1.1519  1.3499
 3197SOL     OW21049   1.863   1.434   7.752 -0.3640 -0.4607 -0.2924
 3197SOL    HW121050   1.811   1.410   7.829  0.1229  1.8942  0.7598
 3197SOL    HW221051   1.884   1.522   7.783 -1.3280 -0.2142 -0.3421
 3198SOL     OW21052   1.205   2.365   8.866  0.1975 -0.1829  0.4469
 3198SOL    HW121053   1.261   2.338   8.794  1.7320  1.3731  1.0806
 3198SOL    HW221054   1.183   2.458   8.857  0.5620 -0.0593  0.8209
 3199SOL     OW21055   2.542   3.299   5.961 -0.4514 -0.2265 -0.1421
 3199SOL    HW121056   2.586   3.379   5.988 -1.4586  0.0907  0.5374
 3199SOL    HW221057   2.606   3.264   5.899  0.7296  2.0906 -0.2046
 3200SOL     OW21058   4.458   2.613   8.624 -0.2355  0.1681 -0.5600
 3200SOL    HW121059   4.451   2.704   8.654  2.2477  0.1100  0.2349
 3200SOL    HW221060   4.369   2.578   8.632  0.7206 -2.6189 -2.2719
 3201SOL     OW21061   1.051   1.234  17.208  1.0809  0.4547 -0.4611
 3201SOL    HW121062   0.990   1.250  17.136 -0.6459  1.6761  1.2802
 3201SOL    HW221063   1.130   1.256  17.160  1.1682 -0.8056 -0.8974
 3202SOL     OW21064   2.604   3.099   6.429  0.2264 -0.3666 -0.8124
 3202SOL    HW121065   2.566   3.017   6.396 -1.5611  0.0365  0.2851
 3202SOL    HW221066   2.636   3.071   6.515  1.1025 -2.0267 -1.6832
 3203SOL     OW21067   4.450   2.995   9.048 -0.4773  1.0146 -0.1258
 3203SOL    HW121068   4.518   2.975   9.113 -2.0634 -1.6765  0.7249
 3203SOL    HW221069   4.506   3.037   8.984 -1.9707  0.2708 -1.9006
 3204SOL     OW21070   3.005   3.628   5.005  0.0079 -0.0341 -0.1518
 3204SOL    HW121071   3.040   3.699   5.059  2.7954 -0.8695 -0.8764
 3204SOL    HW221072   3.068   3.557   5.015  0.9715  0.9221  0.6458
 3205SOL     OW21073   0.527   1.172   7.895 -0.5141 -0.0138 -0.4648
 3205SOL    HW121074   0.622   1.165   7.906 -0.6236  0.3601  0.7258
 3205SOL    HW221075   0.486   1.126   7.968  1.0972 -2.8256 -1.3434
 3206SOL     OW21076   3.913   4.527   4.085 -0.2681  0.0186 -0.0692
 3206SOL    HW121077   3.993   4.476   4.101  0.5859  1.4715  0.3246
 3206SOL    HW221078   3.913   4.582   4.163  1.1528 -0.3649  0.2034
 3207SOL     OW21079   0.982   1.451   4.795  0.4234  0.5287 -0.2950
 3207SOL    HW121080   0.927   1.436   4.872 -1.1665  0.7372 -1.4142
 3207SOL    HW221081   1.068   1.461   4.837  0.3820 -0.7585  0.1001
 3208SOL     OW21082   2.091   3.222  15.851  0.5210 -0.2857 -0.2564
 3208SOL    HW121083   2.020   3.182  15.902 -0.2953  1.2399 -0.2119
 3208SOL    HW221084   2.142   3.264  15.921 -0.1730  0.1633 -0.0261
 3209SOL     OW21085   1.200   4.114   5.163  0.1540 -0.1937 -0.0956
 3209SOL    HW121086   1.256   4.147   5.093  0.9408 -2.3183 -0.4614
 3209SOL    HW221087   1.131   4.179   5.156 -0.2745 -0.4771  1.4436
 3210SOL     OW21088   0.835   1.605   6.987 -0.3402  0.2064 -0.3739
 3210SOL    HW121089   0.927   1.615   6.960 -0.1963 -0.6161 -0.1944
 3210SOL    HW221090   0.790   1.639   6.910 -0.8818 -1.6904 -0.8717
 3211SOL     OW21091   2.443   3.398  12.749  0.7187  0.0854  0.4319
 3211SOL    HW121092   2.443   3.306  12.721  0.7891  0.2794 -0.2032
 3211SOL    HW221093   2.354   3.422  12.776  0.3887  0.5020 -1.0194
 3212SOL     OW21094   3.179   3.643   9.086  0.0633 -0.1859 -0.5836
 3212SOL    HW121095   3.211   3.599   9.165  1.4910 -2.3958 -2.3766
 3212SOL    HW221096   3.199   3.576   9.020 -1.4260  0.3730 -1.5940
 3213SOL     OW21097   1.739   1.680   3.499 -0.2052 -0.4589  0.5232
 3213SOL    HW121098   1.730   1.610   3.436  0.7295 -0.0495 -0.0676
 3213SOL    HW221099   1.712   1.752   3.442  0.6640 -1.5406 -1.2428
 3214SOL     OW21100   0.705   2.935   8.745  0.0528  0.9449  0.2943
 3214SOL    HW121101   0.735   2.856   8.700  1.1567  0.6315  1.5830
 3214SOL    HW221102   0.728   3.004   8.683  1.4321  1.0283  0.8979
 3215SOL     OW21103   4.138   2.521   9.568  0.1129 -0.4851  0.4422
 3215SOL    HW121104   4.199   2.463   9.612  0.3978  0.3908  1.2200
 3215SOL    HW221105   4.059   2.499   9.617 -0.9803  1.2825 -0.5040
 3216SOL     OW21106   0.701   1.601  14.879 -0.3157 -0.6605  0.3812
 3216SOL    HW121107   0.763   1.666  14.848 -1.1626 -0.3340 -0.6194
 3216SOL    HW221108   0.700   1.617  14.973 -4.1952  0.3739  0.1861
 3217SOL     OW21109   4.669   3.653   4.677 -0.4222  0.1621  0.5734
 3217SOL    HW121110   0.026   3.595   4.684 -0.3068  0.4617  1.7761
 3217SOL    HW221111   4.666   3.667   4.582  2.3869 -0.6507  0.3819
 3218SOL     OW21112   4.019   3.221   8.284  0.1682  0.0013 -0.1398
 3218SOL    HW121113   3.943   3.247   8.232 -0.4074  0.3670  0.8793
 3218SOL    HW221114   4.064   3.304   8.299 -0.6523  0.1561  1.4770
 3219SOL     OW21115   2.276   0.628  10.676 -0.4998  0.1049  0.2058
 3219SOL    HW121116   2.256   0.536  10.657 -3.0233  0.9977 -1.5007
 3219SOL    HW221117   2.339   0.649  10.608 -1.0466  0.4224 -0.1999
 3220SOL     OW21118   1.720   1.119  13.182 -0.0328  0.1935 -0.2551
 3220SOL    HW121119   1.765   1.040  13.212  0.5972  0.9645  0.8143
 3220SOL    HW221120   1.752   1.186  13.242  0.7905 -0.8875  0.5173
 3221SOL     OW21121   1.844   2.530   4.252 -0.1037  0.1435 -0.1949
 3221SOL    HW121122   1.756   2.491   4.253 -0.3471  0.6906 -0.2245
 3221SOL    HW221123   1.874   2.511   4.163 -1.4742 -0.6713 -0.4948
 3222SOL     OW21124   1.567   4.385   5.278 -0.2437  0.2055 -0.8273
 3222SOL    HW121125   1.611   4.379   5.363 -0.5430 -0.3389 -0.7129
 3222SOL    HW221126   1.639   4.423   5.227 -1.8986  1.0149 -2.5624
 3223SOL     OW21127   2.710   2.424   7.795 -0.2823 -0.0805  0.3909
 3223SOL    HW121128   2.708   2.422   7.699  0.1241  3.1242  0.3220
 3223SOL    HW221129   2.618   2.414   7.817 -0.7157  1.8826 -0.5023
 3224SOL     OW21130   3.975   3.759  10.280 -0.0471  0.1042 -0.1441
 3224SOL    HW121131   3.890   3.798  10.301  0.3461 -0.4513  2.4712
 3224SOL    HW221132   4.023   3.748  10.362 -0.3168 -2.1938 -0.2905
 3225SOL     OW21133   1.722   2.228   6.238  0.0911  0.1500  0.3565
 3225SOL    HW121134   1.670   2.156   6.270  2.0551 -0.1444  2.8720
 3225SOL    HW221135   1.651   2.287   6.213 -0.2560 -0.8894 -1.0898
 3226SOL     OW21136   1.307   1.864  17.387  0.6823 -0.2825  0.1393
 3226SOL    HW121137   1.259   1.790  17.349  1.9648 -0.7896 -0.4910
 3226SOL    HW221138   1.263   1.939  17.347  2.3916  1.4683  1.5416
 3227SOL     OW21139   1.488   0.161  13.498  0.2187  0.0044  0.3683
 3227SOL    HW121140   1.493   0.245  13.543  0.0185  0.8773 -1.2401
 3227SOL    HW221141   1.576   0.132  13.523  1.0782  2.0983 -0.2461
 3228SOL     OW21142   4.569   2.221   4.091 -0.2920 -0.5346 -0.3507
 3228SOL    HW121143   4.618   2.269   4.025 -0.5880  0.2732  0.0219
 3228SOL    HW221144   4.560   2.139   4.043 -3.5023 -0.2753 -0.2284
 3229SOL     OW21145   2.640   2.824   4.730  0.5032 -0.4617  0.0118
 3229SOL    HW121146   2.680   2.737   4.737  0.8216 -0.2378  0.9594
 3229SOL    HW221147   2.581   2.812   4.656 -0.6198  0.8629  0.6914
 3230SOL     OW21148   0.942   1.237  12.050  0.3691 -0.3671 -0.1062
 3230SOL    HW121149   0.912   1.259  11.962  1.7105 -0.2873 -0.5422
 3230SOL    HW221150   1.015   1.178  12.029  1.4151  1.2622 -1.0423
 3231SOL     OW21151   4.697   1.008   3.136 -0.7411  0.2209  0.2511
 3231SOL    HW121152   4.618   0.999   3.083 -0.6989 -4.4600  0.9328
 3231SOL    HW221153   4.710   1.101   3.120 -0.5706  0.3091  0.8981
 3232SOL     OW21154   0.020   2.405   3.237 -0.7086  0.0245 -0.7711
 3232SOL    HW121155   0.025   2.311   3.256 -0.2169  0.2853  0.4362
 3232SOL    HW221156   0.110   2.430   3.216 -0.1247 -1.2866  0.1284
 3233SOL     OW21157   2.640   0.186   8.830 -0.0324  0.4683 -0.2906
 3233SOL    HW121158   2.567   0.247   8.842  0.0021  0.6604 -1.1184
 3233SOL    HW221159   2.614   0.126   8.901  0.9955  1.5751  1.0286
 3234SOL     OW21160   2.079   2.237   8.131  0.4279 -0.0829  0.7838
 3234SOL    HW121161   2.120   2.266   8.213  0.2632  0.5215  0.6498
 3234SOL    HW221162   2.087   2.142   8.146 -2.0753 -0.6315 -1.3914
 3235SOL     OW21163   3.210   4.339  12.514 -0.9746  0.4235 -0.4629
 3235SOL    HW121164   3.265   4.374  12.444 -1.2392 -1.0044 -1.3728
 3235SOL    HW221165   3.233   4.247  12.507  1.1891  0.9881 -0.7781
 3236SOL     OW21166   1.408   3.463   1.743 -0.5829 -0.1866  0.0210
 3236SOL    HW121167   1.408   3.549   1.701 -2.9116  0.0971  0.6417
 3236SOL    HW221168   1.319   3.439   1.717 -0.1230 -0.9044 -0.9040
 3237SOL     OW21169   1.119   4.436   0.328  0.0192 -1.2575 -0.0041
 3237SOL    HW121170   1.191   4.491   0.361 -0.0934 -1.5966  0.7952
 3237SOL    HW221171   1.116   4.368   0.395  1.7513 -0.4671  0.8920
 3238SOL     OW21172   4.023   0.858   7.944  0.2145 -0.5154  0.4986
 3238SOL    HW121173   4.057   0.936   7.989  0.5025 -0.2787 -0.1309
 3238SOL    HW221174   4.038   0.874   7.851  0.8260 -1.7948  0.3659
 3239SOL     OW21175   2.059   3.132   8.487 -0.5471  0.3260  0.2325
 3239SOL    HW121176   2.139   3.081   8.480 -0.9098 -0.6360  3.5130
 3239SOL    HW221177   2.051   3.171   8.399  1.6694  1.4838  0.5562
 3240SOL     OW21178   2.679   3.719   2.799 -0.4591 -0.3678  0.0797
 3240SOL    HW121179   2.613   3.701   2.867  0.2470 -2.4421  0.2207
 3240SOL    HW221180   2.652   3.651   2.737 -0.8041  0.1335 -0.3159
 3241SOL     OW21181   2.049   4.075  17.403  0.5694  0.4316  0.1104
 3241SOL    HW121182   2.092   4.102  17.322 -1.7613 -1.2904 -1.6993
 3241SOL    HW221183   2.099   4.125  17.467 -1.4773 -1.6285  3.2639
 3242SOL     OW21184   0.159   2.788   2.593 -0.4778  0.0528 -0.3343
 3242SOL    HW121185   0.236   2.732   2.583 -0.6129 -0.2487  0.3589
 3242SOL    HW221186   0.135   2.800   2.501  0.0378  0.3726 -0.4218
 3243SOL     OW21187   2.965   3.815   8.153  0.3631 -0.0212 -0.0250
 3243SOL    HW121188   2.998   3.855   8.233  1.2191 -1.2164  0.2164
 3243SOL    HW221189   3.011   3.731   8.148  0.1217 -0.3005  2.4784
 3244SOL     OW21190   0.811   2.607   5.557 -0.0871 -0.5510  0.0818
 3244SOL    HW121191   0.907   2.611   5.559 -0.0716 -0.4186 -0.9010
 3244SOL    HW221192   0.800   2.641   5.468 -0.8098 -0.6961  0.1181
 3245SOL     OW21193   3.389   0.784  16.748  0.0775  0.1847 -0.0426
 3245SOL    HW121194   3.438   0.763  16.669  0.7285 -0.4842  0.5339
 3245SOL    HW221195   3.320   0.841  16.714  1.1824  0.8953 -1.1307
 3246SOL     OW21196   4.360   1.869   5.720  0.2448  0.1714  0.2322
 3246SOL    HW121197   4.296   1.893   5.786  0.3906 -2.1304  1.2214
 3246SOL    HW221198   4.375   1.774   5.727 -0.3863 -0.0253 -1.1281
 3247SOL     OW21199   3.571   2.231   5.302  0.5664  0.2451 -0.0738
 3247SOL    HW121200   3.651   2.272   5.334  0.3291  0.5609  0.1161
 3247SOL    HW221201   3.598   2.142   5.278 -2.6707 -0.7668 -0.0378
 3248SOL     OW21202   4.490   0.080  16.989 -0.0103 -0.4176  0.2041
 3248SOL    HW121203   4.577   0.099  17.023  0.8828 -1.9381 -1.2350
 3248SOL    HW221204   4.462   0.172  16.986 -1.7765 -1.0226 -1.7141
 3249SOL     OW21205   3.185   3.046   1.932 -0.3309  0.2104 -1.0469
 3249SOL    HW121206   3.252   2.985   1.900 -0.6533 -0.5141 -0.3442
 3249SOL    HW221207   3.218   3.130   1.901  1.0097  0.3664  0.8397
 3250SOL     OW21208   3.103   1.258   7.448 -0.4112 -0.5584  0.0382
 3250SOL    HW121209   3.038   1.327   7.434  1.3751  1.4856  1.8349
 3250SOL    HW221210   3.053   1.177   7.455 -0.4483 -0.5901 -0.6303
 3251SOL     OW21211   4.230   4.270  12.986  0.5476 -0.0151 -0.2256
 3251SOL    HW121212   4.298   4.207  13.010 -0.6402 -0.1960  2.5632
 3251SOL    HW221213   4.156   4.219  13.018 -1.3203  1.9312 -1.4016
 3252SOL     OW21214   1.102   0.242   6.532  0.1211 -0.4216  0.0503
 3252SOL    HW121215   1.040   0.212   6.465  0.6733  0.7807 -0.9995
 3252SOL    HW221216   1.126   0.331   6.508 -0.8085  0.2629  1.6917
 3253SOL     OW21217   3.097   3.889   2.269 -0.2281 -0.1477  0.3050
 3253SOL    HW121218   3.019   3.927   2.311 -0.2034 -0.7260  0.8696
 3253SOL    HW221219   3.061   3.905   2.182  0.2119 -0.8410 -0.0015
 3254SOL     OW21220   0.532   0.096   8.381 -0.2283 -0.0615 -0.2958
 3254SOL    HW121221   0.469   0.139   8.322 -0.0918 -0.6126 -0.8444
 3254SOL    HW221222   0.529   0.167   8.445  1.3845 -0.3264  0.0681
 3255SOL     OW21223   3.798   0.402   8.218  0.0874 -0.1686  0.7656
 3255SOL    HW121224   3.767   0.323   8.175 -0.7282  0.9279 -0.6864
 3255SOL    HW221225   3.892   0.406   8.202 -0.2489  0.5206 -1.1431
 3256SOL     OW21226   1.376   3.037   2.794 -0.0865  0.3863  0.4180
 3256SOL    HW121227   1.352   3.048   2.886  0.8196  3.3203  0.3145
 3256SOL    HW221228   1.292   3.010   2.757 -1.0377  0.8521  2.2007
 3257SOL     OW21229   1.061   3.007   5.429  0.0708  0.0075 -0.0275
 3257SOL    HW121230   0.979   3.036   5.388 -0.2888  2.1635  2.1987
 3257SOL    HW221231   1.027   2.926   5.466 -0.5259 -0.2731 -1.1685
 3258SOL     OW21232   3.526   4.495  16.510  0.2169 -0.3256 -0.1096
 3258SOL    HW121233   3.577   4.419  16.539 -0.3441 -0.4871  0.4529
 3258SOL    HW221234   3.601   4.554  16.507 -0.4929  0.5504 -0.7092
 3259SOL     OW21235   3.983   0.416   3.220 -0.0138 -0.0534  0.3525
 3259SOL    HW121236   3.980   0.346   3.284  0.3367 -1.2715 -0.9616
 3259SOL    HW221237   3.923   0.377   3.155 -0.2446  2.0628 -0.7074
 3260SOL     OW21238   3.231   1.167   9.184 -0.6089  0.2806  0.1712
 3260SOL    HW121239   3.189   1.236   9.235  2.2332 -0.1217  3.0924
 3260SOL    HW221240   3.258   1.212   9.105 -0.1336 -0.3204 -0.0133
 3261SOL     OW21241   3.763   1.787   9.698 -0.1373 -0.2087  0.4483
 3261SOL    HW121242   3.826   1.719   9.721 -1.3382 -0.9271  1.6560
 3261SOL    HW221243   3.683   1.737   9.714  0.3992 -0.8124  1.2323
 3262SOL     OW21244   2.864   4.651   3.483 -0.1457  0.1789 -0.2752
 3262SOL    HW121245   2.784   4.601   3.466  1.3021 -2.6582  1.1145
 3262SOL    HW221246   2.870   0.009   3.427 -1.4553 -1.2424 -2.3627
 3263SOL     OW21247   4.572   0.198   6.995  0.2511  0.3946  0.4785
 3263SOL    HW121248   4.533   0.188   7.082 -0.4176  0.5867  0.2007
 3263SOL    HW221249   4.496   0.188   6.938 -0.2637  2.7215  0.7450
 3264SOL     OW21250   1.423   1.974   5.393 -0.6283  0.5189 -0.2058
 3264SOL    HW121251   1.427   2.048   5.333 -0.5713 -1.6538 -2.8557
 3264SOL    HW221252   1.410   2.022   5.475  1.7649 -1.1355  1.1402
 3265SOL     OW21253   0.738   0.466   3.438  0.4446 -0.3777  0.1450
 3265SOL    HW121254   0.690   0.411   3.500  0.0011 -0.0520  0.0929
 3265SOL    HW221255   0.788   0.396   3.396  0.6801  0.9718 -1.8171
 3266SOL     OW21256   3.308   3.028   8.123 -0.1450  0.2541 -0.3111
 3266SOL    HW121257   3.238   2.973   8.157  2.7235 -0.5678  4.2250
 3266SOL    HW221258   3.284   3.037   8.031  0.3157 -0.1221 -0.4698
 3267SOL     OW21259   1.931   2.580   2.909  0.0391 -0.6350 -0.0820
 3267SOL    HW121260   1.886   2.664   2.898 -0.1767 -0.5280  1.6790
 3267SOL    HW221261   2.001   2.600   2.971  0.0237  1.3932 -0.7277
 3268SOL     OW21262   4.047   0.757  14.729  0.1772 -0.3558 -0.1597
 3268SOL    HW121263   3.997   0.774  14.649  2.4335  2.8222 -0.8713
 3268SOL    HW221264   4.008   0.816  14.793  1.7278 -1.3086  1.6851
 3269SOL     OW21265   2.372   1.663   3.243  0.3375  0.4093 -0.0004
 3269SOL    HW121266   2.332   1.678   3.157  0.4737  1.1312  0.0620
 3269SOL    HW221267   2.294   1.663   3.299 -0.1302  2.7332 -0.6581
 3270SOL     OW21268   2.164   2.385   7.593  0.0143 -0.2823  0.1997
 3270SOL    HW121269   2.113   2.457   7.555  0.6956  0.1733  0.1546
 3270SOL    HW221270   2.211   2.435   7.659 -0.9895  0.4074  0.3926
 3271SOL     OW21271   2.321   3.900   7.089 -0.2732 -0.0827  0.7629
 3271SOL    HW121272   2.276   3.866   7.166 -0.4217  1.7977  1.4924
 3271SOL    HW221273   2.284   3.988   7.094  0.2447  0.0972  1.4812
 3272SOL     OW21274   0.532   1.304  13.493  0.1177 -0.7391  0.2643
 3272SOL    HW121275   0.440   1.281  13.484  0.4514 -1.8614 -0.2426
 3272SOL    HW221276   0.565   1.220  13.525 -0.5678  0.0386  3.0045
 3273SOL     OW21277   1.614   3.421   3.764  0.3319 -0.1912 -0.5488
 3273SOL    HW121278   1.604   3.514   3.744 -0.5277  0.5971  3.5396
 3273SOL    HW221279   1.686   3.400   3.705 -0.6397  2.0630 -2.5051
 3274SOL     OW21280   3.129   4.284   6.361  0.1485  0.4146  0.4342
 3274SOL    HW121281   3.105   4.198   6.394  0.2898  0.8472  1.6643
 3274SOL    HW221282   3.163   4.332   6.437  0.5809 -0.0346  0.5212
 3275SOL     OW21283   0.121   2.825   8.170  0.1496  0.4066  0.2799
 3275SOL    HW121284   0.106   2.810   8.264  0.5683 -0.9282  0.1426
 3275SOL    HW221285   0.200   2.772   8.159 -0.2598 -0.7044  2.5450
 3276SOL     OW21286   4.194   0.985   1.538  0.5505  0.0655 -0.5119
 3276SOL    HW121287   4.145   0.910   1.571 -1.6551  1.6654 -0.1516
 3276SOL    HW221288   4.169   1.000   1.447 -1.9589 -3.6454 -0.4254
 3277SOL     OW21289   4.131   1.720   7.086  0.1524  0.0886 -0.6613
 3277SOL    HW121290   4.210   1.772   7.072  0.0184  0.2538 -0.8036
 3277SOL    HW221291   4.157   1.628   7.097  0.5743  0.2365 -0.4185
 3278SOL     OW21292   1.681   1.696   7.367 -0.1340  0.0760  0.0346
 3278SOL    HW121293   1.625   1.650   7.430  2.1648 -0.8220  1.4270
 3278SOL    HW221294   1.758   1.721   7.418 -0.2406 -0.1770  0.3171
 3279SOL     OW21295   1.888   1.816   8.224 -0.3559 -0.1167  0.1335
 3279SOL    HW121296   1.833   1.830   8.301 -1.3022  1.9574 -0.9139
 3279SOL    HW221297   1.839   1.851   8.150 -1.3462  0.2772  0.9740
 3280SOL     OW21298   0.634   4.525  10.297 -0.5676 -0.4318 -0.1574
 3280SOL    HW121299   0.698   4.592  10.319  0.4123 -1.5379  0.3420
 3280SOL    HW221300   0.644   4.461  10.368  2.0825  0.3083  0.1186
 3281SOL     OW21301   0.309   3.238  17.006  0.1777 -0.4159  0.4525
 3281SOL    HW121302   0.359   3.265  17.083  1.8127 -1.1725 -0.3313
 3281SOL    HW221303   0.280   3.150  17.030  1.6503 -0.7920  0.8784
 3282SOL     OW21304   0.735   2.050   2.904 -0.2374  0.7092  0.3297
 3282SOL    HW121305   0.668   2.018   2.964 -0.9955  1.5807 -0.0597
 3282SOL    HW221306   0.702   2.135   2.877  0.2123  0.6296 -0.4538
 3283SOL     OW21307   2.571   2.566   9.183  0.4069 -0.2882  0.3647
 3283SOL    HW121308   2.525   2.492   9.224 -0.2531  1.1168  2.1586
 3283SOL    HW221309   2.627   2.603   9.251  1.1037  0.7021 -0.7648
 3284SOL     OW21310   4.198   1.287   8.320 -0.3821  0.1679  0.1091
 3284SOL    HW121311   4.168   1.331   8.240  0.6161 -2.2241 -1.5717
 3284SOL    HW221312   4.113   1.272   8.361 -2.1791  0.3688 -3.4802
 3285SOL     OW21313   1.296   1.074   1.057 -0.2479  0.0806  0.4046
 3285SOL    HW121314   1.283   1.167   1.072 -1.0924 -0.1589  1.1410
 3285SOL    HW221315   1.239   1.035   1.123  2.0278  0.1901  2.4391
 3286SOL     OW21316   1.900   2.287  13.826  0.3497  0.5010  0.2388
 3286SOL    HW121317   1.984   2.333  13.832  0.8135 -0.2084 -0.9176
 3286SOL    HW221318   1.920   2.227  13.755  1.1798 -0.0713  0.9528
 3287SOL     OW21319   3.853   3.763   0.511 -0.8702 -0.5096  0.8971
 3287SOL    HW121320   3.890   3.809   0.586 -1.0579  0.1252  0.5987
 3287SOL    HW221321   3.762   3.757   0.538 -0.7040  1.8363  1.9324
 3288SOL     OW21322   2.308   1.207   9.418 -0.1944  0.4719 -0.2333
 3288SOL    HW121323   2.367   1.161   9.478  0.2885  1.3162 -0.0567
 3288SOL    HW221324   2.333   1.299   9.427  0.0008  0.5266 -1.3849
 3289SOL     OW21325   2.500   3.481   0.329 -0.1296 -0.2847 -0.6600
 3289SOL    HW121326   2.466   3.553   0.277  1.6529  0.0748 -1.3210
 3289SOL    HW221327   2.463   3.508   0.413 -1.4562  0.9096 -1.6282
 3290SOL     OW21328   1.508   0.333  12.357  0.1655  0.5229  0.3119
 3290SOL    HW121329   1.419   0.340  12.322 -0.3603  2.5227  2.0661
 3290SOL    HW221330   1.515   0.406  12.418 -1.3616  0.6067  0.3771
 3291SOL     OW21331   1.320   3.488  14.488 -0.5823 -0.1655  0.5223
 3291SOL    HW121332   1.242   3.534  14.520 -0.3232  0.7768 -0.2177
 3291SOL    HW221333   1.297   3.487  14.395  2.5323 -0.7907 -0.2172
 3292SOL     OW21334   2.239   0.365   9.974  0.3971  0.1966  0.0441
 3292SOL    HW121335   2.205   0.373  10.063 -1.0329  1.9192 -0.6738
 3292SOL    HW221336   2.322   0.412   9.971  0.6257 -0.1602  0.7908
 3293SOL     OW21337   2.786   4.649   6.023 -0.1303 -0.0642  1.3517
 3293SOL    HW121338   2.848   4.711   6.061 -0.2022  1.7526 -1.4794
 3293SOL    HW221339   2.725   4.714   5.987  4.4895  2.0982 -2.6497
 3294SOL     OW21340   3.539   1.301   4.970  0.1932  0.3081  0.4315
 3294SOL    HW121341   3.475   1.353   4.922 -1.6666 -1.2193  1.2561
 3294SOL    HW221342   3.505   1.292   5.060 -0.0889 -0.1515  0.2768
 3295SOL     OW21343   0.344   1.926   9.532  0.0185  0.3485 -0.6491
 3295SOL    HW121344   0.388   1.843   9.549  1.5346  1.0223 -1.2675
 3295SOL    HW221345   0.317   1.910   9.441  0.7682  0.2091 -0.8464
 3296SOL     OW21346   3.438   3.396  14.844  0.1071  0.2536  0.3080
 3296SOL    HW121347   3.474   3.482  14.863  1.3079  0.6812 -3.8640
 3296SOL    HW221348   3.442   3.391  14.749 -1.8705  2.9269  0.0634
 3297SOL     OW21349   1.012   0.755   7.258  0.3974 -0.1857 -0.0348
 3297SOL    HW121350   0.990   0.843   7.289  0.2632 -0.5651  0.9521
 3297SOL    HW221351   1.087   0.774   7.202  2.1475 -1.5999  1.8500
 3298SOL     OW21352   1.328   2.403   5.564  0.1032 -0.0518  0.4492
 3298SOL    HW121353   1.350   2.430   5.475 -0.2721  1.6142  0.8474
 3298SOL    HW221354   1.406   2.352   5.582  0.8916  0.4144 -1.6668
 3299SOL     OW21355   3.009   1.882   8.750  0.0425 -0.2355 -0.6258
 3299SOL    HW121356   3.008   1.934   8.830 -0.3885  1.0841 -1.4984
 3299SOL    HW221357   2.958   1.939   8.693 -1.0554 -1.4463 -0.8493
 3300SOL     OW21358   0.579   2.441   6.760 -0.2505 -0.1964  0.2365
 3300SOL    HW121359   0.641   2.459   6.689 -1.0365  0.9920 -0.1574
 3300SOL    HW221360   0.634   2.398   6.825  0.2546  1.4752  0.9159
 3301SOL     OW21361   1.015   0.010  10.274 -0.7038  0.3089  0.7251
 3301SOL    HW121362   1.080   4.659  10.279  0.3494  1.2595  0.5037
 3301SOL    HW221363   1.020   0.028  10.180  0.4233 -0.3967  0.6537
 3302SOL     OW21364   1.170   2.195   0.323  0.4885  0.5231 -0.0507
 3302SOL    HW121365   1.084   2.172   0.289  1.3582 -0.3325 -1.6595
 3302SOL    HW221366   1.213   2.217   0.240  2.7332  0.2264  1.0137
 3303SOL     OW21367   2.930   3.499   4.363  0.3788 -0.3153 -0.0765
 3303SOL    HW121368   2.836   3.494   4.380  0.2856 -0.4310 -0.6146
 3303SOL    HW221369   2.963   3.422   4.408 -1.6585 -1.0682  0.1431
 3304SOL     OW21370   1.180   2.331   6.091  0.1502  0.3649  0.4058
 3304SOL    HW121371   1.196   2.328   5.997 -1.0711 -0.3829  0.2264
 3304SOL    HW221372   1.218   2.417   6.109 -1.0006  1.2196 -1.1825
 3305SOL     OW21373   2.176   0.146   7.303 -0.2415  0.1884  0.4823
 3305SOL    HW121374   2.196   0.096   7.383  1.2353 -0.1999 -0.1482
 3305SOL    HW221375   2.091   0.186   7.325 -0.3083 -0.6243  1.7167
 3306SOL     OW21376   2.338   2.982  10.864 -0.5210  0.7206 -0.0990
 3306SOL    HW121377   2.348   3.049  10.931 -0.8369  0.3789  0.2954
 3306SOL    HW221378   2.421   2.995  10.818  0.7970  1.3820  2.4872
 3307SOL     OW21379   3.141   4.451   6.106 -0.5493  0.3041 -0.5108
 3307SOL    HW121380   3.125   4.528   6.160  2.6421 -0.2412  1.1838
 3307SOL    HW221381   3.099   4.384   6.160  0.8551 -2.3434 -2.7165
 3308SOL     OW21382   1.066   3.699   0.936  0.2307  0.1479  0.0703
 3308SOL    HW121383   1.129   3.749   0.989 -0.5137  3.1259 -1.8813
 3308SOL    HW221384   1.095   3.725   0.849  0.0723 -0.6064 -0.2066
 3309SOL     OW21385   2.631   2.440   5.778  0.3431  0.0767 -0.3175
 3309SOL    HW121386   2.548   2.408   5.815 -0.3372  1.9615 -0.1881
 3309SOL    HW221387   2.688   2.372   5.812  0.0269  0.3997  0.8799
 3310SOL     OW21388   3.045   2.106   5.297 -0.6483  0.9347  0.5627
 3310SOL    HW121389   3.112   2.119   5.364 -2.1057  1.5951  1.8832
 3310SOL    HW221390   3.073   2.164   5.226 -1.0838 -0.8341 -1.0353
 3311SOL     OW21391   3.503   4.016  13.338  0.7519 -0.4871 -0.1180
 3311SOL    HW121392   3.473   3.938  13.385  1.5332  0.5839  2.1890
 3311SOL    HW221393   3.596   3.994  13.334  0.9635 -0.1414  2.7890
 3312SOL     OW21394   1.864   2.690   2.502 -0.1161  0.1465  0.0208
 3312SOL    HW121395   1.906   2.606   2.519 -1.9778 -0.8494 -0.2810
 3312SOL    HW221396   1.779   2.647   2.490  0.4930 -1.1760  0.4303
 3313SOL     OW21397   4.568   3.262   3.945 -0.4156 -0.3675  0.1762
 3313SOL    HW121398   4.589   3.217   3.863 -2.2800 -2.2198  0.7194
 3313SOL    HW221399   4.500   3.199   3.970 -0.5818 -0.2231  0.0920
 3314SOL     OW21400   1.440   1.812   9.947 -0.2212  0.5696  0.5719
 3314SOL    HW121401   1.351   1.783   9.928 -0.6874  1.8359  0.8012
 3314SOL    HW221402   1.452   1.888   9.889  0.4601 -1.2350 -1.6494
 3315SOL     OW21403   3.048   1.617  12.673 -0.1381  0.0544 -0.1752
 3315SOL    HW121404   3.008   1.558  12.609 -0.9872  1.6065 -1.0765
 3315SOL    HW221405   3.127   1.635  12.622 -0.3525  1.7836  0.1250
 3316SOL     OW21406   0.771   3.659   4.736 -0.6133 -0.7782  0.6863
 3316SOL    HW121407   0.832   3.665   4.662 -1.4079 -1.8259 -0.0580
 3316SOL    HW221408   0.739   3.569   4.734  1.5076 -1.5025 -1.2177
 3317SOL     OW21409   0.873   3.733  11.633  0.1833 -0.2876 -0.3330
 3317SOL    HW121410   0.883   3.808  11.692  1.7494 -1.4009  0.8160
 3317SOL    HW221411   0.850   3.782  11.554 -0.3725  1.9490  1.2362
 3318SOL     OW21412   2.951   1.542   9.189 -0.3744  0.0375  1.0433
 3318SOL    HW121413   2.984   1.622   9.149  0.7580  0.3766  2.6449
 3318SOL    HW221414   2.870   1.533   9.140  1.2024 -1.5377 -1.2586
 3319SOL     OW21415   1.349   2.405  10.543 -0.1511 -0.0583  0.3125
 3319SOL    HW121416   1.285   2.348  10.500 -1.1803  0.3635  1.2917
 3319SOL    HW221417   1.315   2.488  10.509 -1.9867 -1.3177 -0.9226
 3320SOL     OW21418   0.935   2.134   0.188  0.0338 -0.0804 -0.4668
 3320SOL    HW121419   0.914   2.059   0.131  1.8609 -1.2490  0.4182
 3320SOL    HW221420   0.857   2.136   0.245  1.0885 -1.8909  1.0752
 3321SOL     OW21421   3.658   2.837   6.135 -0.0101 -0.2818 -0.6786
 3321SOL    HW121422   3.601   2.907   6.102 -0.8192 -1.5738 -2.0634
 3321SOL    HW221423   3.719   2.889   6.187 -1.2944  1.0008 -0.4433
 3322SOL     OW21424   3.075   2.370   3.938  0.1524  0.5859  0.3378
 3322SOL    HW121425   3.020   2.362   4.016 -2.9586  1.2960 -1.8363
 3322SOL    HW221426   3.023   2.423   3.879  0.2583 -0.0349 -0.3081
 3323SOL     OW21427   4.254   3.699   3.809 -0.2466 -0.3155  0.1905
 3323SOL    HW121428   4.281   3.753   3.735  0.6735 -1.3553 -0.2157
 3323SOL    HW221429   4.330   3.711   3.866 -0.9870  1.7292  0.7602
 3324SOL     OW21430   2.430   4.297  10.429  0.0096  0.2476 -0.8402
 3324SOL    HW121431   2.472   4.371  10.473  0.2476  0.8942 -2.1699
 3324SOL    HW221432   2.469   4.303  10.342  2.7839  0.3505  0.3927
 3325SOL     OW21433   2.612   3.446   8.167  0.3920 -0.4903  0.2110
 3325SOL    HW121434   2.575   3.465   8.253  2.2673  2.3835  0.3804
 3325SOL    HW221435   2.638   3.531   8.132 -2.9799  0.2948 -0.3955
 3326SOL     OW21436   3.112   3.446   3.668 -0.5405 -0.6684 -0.0415
 3326SOL    HW121437   3.017   3.445   3.656 -0.4925 -1.6000 -0.3462
 3326SOL    HW221438   3.119   3.417   3.759 -0.8148 -1.3477 -0.2345
 3327SOL     OW21439   2.036   3.414  14.065 -0.2601 -0.4883  0.2882
 3327SOL    HW121440   2.095   3.339  14.057 -0.8257 -0.5799 -3.3114
 3327SOL    HW221441   2.094   3.490  14.058 -0.7371 -0.3124 -2.0194
 3328SOL     OW21442   2.153   2.378  11.513  0.4799  0.7081 -0.3166
 3328SOL    HW121443   2.207   2.300  11.505  1.4782  1.2494  1.0470
 3328SOL    HW221444   2.189   2.442  11.451 -1.4754  1.7047 -0.4361
 3329SOL     OW21445   2.661   0.654   7.086 -0.0350 -0.0521  0.0435
 3329SOL    HW121446   2.718   0.673   7.160  0.6897  1.1890 -0.8207
 3329SOL    HW221447   2.641   0.746   7.067 -2.2380 -1.1566 -3.1246
 3330SOL     OW21448   2.044   3.834   9.118  0.4546 -0.1665  0.2445
 3330SOL    HW121449   1.960   3.812   9.079  0.1646  0.4082  0.5434
 3330SOL    HW221450   2.080   3.746   9.131  3.7819  1.4692  2.2554
 3331SOL     OW21451   3.955   3.891   6.463  0.2047 -0.0724 -0.0593
 3331SOL    HW121452   3.989   3.943   6.536 -0.8199 -0.0237  0.3857
 3331SOL    HW221453   3.915   3.818   6.510  0.1849 -0.8313 -1.2795
 3332SOL     OW21454   0.017   0.312   2.048 -0.3485 -0.1711 -0.4967
 3332SOL    HW121455   4.700   0.360   1.973 -2.7147  0.1323  0.8153
 3332SOL    HW221456   0.050   0.380   2.106  1.7990 -0.7513 -1.0416
 3333SOL     OW21457   3.922   0.151   0.656 -0.0524  0.4150 -0.7060
 3333SOL    HW121458   3.859   0.187   0.593 -0.2879  0.9626 -0.1449
 3333SOL    HW221459   3.955   0.234   0.688 -1.3431  1.3359 -1.7563
 3334SOL     OW21460   3.694   1.635   7.414 -0.3919 -0.0375 -0.3454
 3334SOL    HW121461   3.758   1.601   7.476  0.1955 -1.3590 -1.6701
 3334SOL    HW221462   3.753   1.621   7.340  0.8437  0.2532  0.5914
 3335SOL     OW21463   3.397   1.332  11.737 -0.1109  0.3094 -0.6444
 3335SOL    HW121464   3.375   1.308  11.827 -0.8806 -0.2370 -0.9826
 3335SOL    HW221465   3.412   1.247  11.696  0.4904  0.0228  0.1553
 3336SOL     OW21466   1.178   0.073   7.987  0.6112  0.5703  0.3726
 3336SOL    HW121467   1.212   0.155   8.022  1.3551 -0.5403  2.2357
 3336SOL    HW221468   1.112   0.049   8.052  0.6916 -0.7180 -0.0258
 3337SOL     OW21469   4.707   2.837   7.063  0.0055 -0.7021  0.7430
 3337SOL    HW121470   0.044   2.760   7.050 -1.1455 -1.5804  1.0168
 3337SOL    HW221471   4.628   2.820   7.013  0.3049  1.1663 -0.3446
 3338SOL     OW21472   4.056   1.769   3.341 -0.0391 -0.2024 -0.5800
 3338SOL    HW121473   4.134   1.723   3.311  1.3995  0.8453  1.5044
 3338SOL    HW221474   4.100   1.852   3.358  0.1808 -0.4373  0.0242
 3339SOL     OW21475   3.993   1.449   6.282  0.3461  0.4079 -0.1802
 3339SOL    HW121476   3.924   1.415   6.340  0.2173 -0.0035 -0.5754
 3339SOL    HW221477   4.001   1.380   6.216 -2.0110 -0.3625  0.3137
 3340SOL     OW21478   0.253   4.436  16.247 -0.0225 -0.1542 -0.1263
 3340SOL    HW121479   0.179   4.490  16.219 -0.3274 -0.8752 -0.6949
 3340SOL    HW221480   0.235   4.347  16.217  0.3399 -0.4689  0.5964
 3341SOL     OW21481   2.385   4.010  13.988  0.3206 -0.0833 -0.0401
 3341SOL    HW121482   2.317   3.949  13.960 -1.2154  1.4838  0.2864
 3341SOL    HW221483   2.460   3.953  14.006 -0.9177 -1.6525  0.0694
 3342SOL     OW21484   1.648   3.969   7.045 -0.1741  0.2553 -0.4834
 3342SOL    HW121485   1.557   3.949   7.068  0.1138  2.2060  2.3632
 3342SOL    HW221486   1.640   3.976   6.950 -1.1885  0.6026 -0.3739
 3343SOL     OW21487   0.824   2.794   6.895  0.7183  0.5291  0.7926
 3343SOL    HW121488   0.844   2.700   6.902  0.9099  0.4942 -0.2150
 3343SOL    HW221489   0.870   2.806   6.812 -0.4960 -0.4332 -0.0317
 3344SOL     OW21490   3.589   1.134  11.799  0.4589 -0.2622  0.0570
 3344SOL    HW121491   3.566   1.042  11.785 -3.6106  0.8594 -0.7691
 3344SOL    HW221492   3.592   1.132  11.895  1.1323 -0.6110  0.0234
 3345SOL     OW21493   2.836   2.104   6.628  0.6022 -0.3738  0.2108
 3345SOL    HW121494   2.789   2.166   6.573  1.2535  0.7771  0.9535
 3345SOL    HW221495   2.921   2.148   6.627  0.8504 -0.8911 -1.2079
 3346SOL     OW21496   0.018   4.489   0.188  0.6944  0.4210 -0.4021
 3346SOL    HW121497   4.674   4.528   0.127 -0.1005 -1.2416 -0.6466
 3346SOL    HW221498   0.065   4.568   0.213 -0.1560  1.5745 -2.4737
 3347SOL     OW21499   0.719   2.893   0.983  0.1024  0.0105  0.0834
 3347SOL    HW121500   0.664   2.862   0.911  0.2344 -0.5390  0.2154
 3347SOL    HW221501   0.656   2.911   1.053 -1.7377  1.3407 -1.9360
 3348SOL     OW21502   2.372   2.538   6.124 -0.4469 -0.1741  0.0425
 3348SOL    HW121503   2.448   2.594   6.113 -0.9713  0.4299 -0.4895
 3348SOL    HW221504   2.298   2.598   6.137 -1.8783 -1.8446 -0.3330
 3349SOL     OW21505   0.096   2.756   5.210  0.0993 -0.1623  0.1974
 3349SOL    HW121506   0.113   2.802   5.128 -1.1629  0.2905  0.1926
 3349SOL    HW221507   0.101   2.666   5.176 -1.1330  0.3462 -1.3269
 3350SOL     OW21508   2.789   1.288   8.543 -0.3085  0.5345 -0.3758
 3350SOL    HW121509   2.748   1.286   8.456 -1.5627 -0.3517  0.2278
 3350SOL    HW221510   2.874   1.250   8.523 -0.2496  0.9528 -0.9228
 3351SOL     OW21511   3.041   1.076  16.962  0.1803  0.4711  0.0686
 3351SOL    HW121512   3.064   1.071  16.869  1.7147 -0.7125  0.5055
 3351SOL    HW221513   3.074   0.993  16.998  0.4120  0.3167 -0.5000
 3352SOL     OW21514   3.657   3.964  14.409  0.6121  0.5544 -0.2472
 3352SOL    HW121515   3.633   4.057  14.411  0.7970  0.6218 -1.3933
 3352SOL    HW221516   3.730   3.977  14.470 -0.0135 -0.8645  0.8000
 3353SOL     OW21517   0.369   1.070  12.777  0.2838 -0.4143 -0.0605
 3353SOL    HW121518   0.322   1.128  12.717  0.6242 -1.0893 -0.9892
 3353SOL    HW221519   0.443   1.129  12.786 -0.8029  0.7559  1.2428
 3354SOL     OW21520   2.096   4.121   1.903 -0.2559 -0.6966  0.0002
 3354SOL    HW121521   2.048   4.141   1.984  1.0226 -1.2496  0.9037
 3354SOL    HW221522   2.094   4.025   1.910  0.1707 -0.6506  0.8754
 3355SOL     OW21523   2.378   4.337  10.877  0.7352  0.1748 -0.4055
 3355SOL    HW121524   2.395   4.244  10.860  0.6123 -0.5208  3.3913
 3355SOL    HW221525   2.329   4.348  10.795  2.1862  0.5581 -1.2256
 3356SOL     OW21526   0.087   0.179   7.153 -0.1226  0.1598 -0.3668
 3356SOL    HW121527   0.041   0.260   7.173  0.2741 -0.4590  2.9642
 3356SOL    HW221528   0.077   0.169   7.058  0.7054  0.0778 -0.4493
 3357SOL     OW21529   4.130   3.682   9.223  0.0613  0.7195 -0.0997
 3357SOL    HW121530   4.195   3.616   9.198  0.5916  1.0421  0.4194
 3357SOL    HW221531   4.158   3.749   9.160  0.5942  0.7695  0.1869
 3358SOL     OW21532   3.281   2.714   3.866 -0.4354  0.0454  0.0182
 3358SOL    HW121533   3.349   2.781   3.872 -1.0696  0.5825  1.2065
 3358SOL    HW221534   3.342   2.641   3.870 -2.7096 -1.7704  1.4037
 3359SOL     OW21535   2.130   3.469   1.652 -0.0256 -0.2275 -0.3779
 3359SOL    HW121536   2.096   3.515   1.575 -2.5681  0.1475  0.9727
 3359SOL    HW221537   2.060   3.489   1.714 -0.6563  0.1677 -1.2002
 3360SOL     OW21538   3.512   3.105  11.511  0.7628 -0.4163 -0.1002
 3360SOL    HW121539   3.421   3.090  11.488  0.6221 -1.9585  1.5089
 3360SOL    HW221540   3.529   3.027  11.564 -2.8159 -2.3020 -1.7100
 3361SOL     OW21541   2.140   2.270   5.416  0.1826  0.6835  0.2288
 3361SOL    HW121542   2.098   2.272   5.501 -1.3248  1.6225 -0.5445
 3361SOL    HW221543   2.184   2.186   5.431  2.2825  1.7699  0.2068
 3362SOL     OW21544   3.259   3.941   2.532 -0.6051  0.6330 -0.1572
 3362SOL    HW121545   3.245   4.035   2.524 -1.3736  0.7329  2.6390
 3362SOL    HW221546   3.282   3.919   2.441 -0.5730  1.0985 -0.2636
 3363SOL     OW21547   0.933   2.270   0.503  0.0437 -0.2144  0.4124
 3363SOL    HW121548   0.917   2.262   0.598  0.8670  2.0952  0.7507
 3363SOL    HW221549   0.849   2.246   0.464  0.6900 -1.7687 -0.0021
 3364SOL     OW21550   1.559   3.845   8.896 -0.0275 -0.6602  0.0795
 3364SOL    HW121551   1.580   3.938   8.886  2.5160 -1.3119 -0.7517
 3364SOL    HW221552   1.478   3.837   8.846 -0.3330  1.5171  0.2440
 3365SOL     OW21553   4.103   3.649   6.746 -0.1965  0.2216  0.3894
 3365SOL    HW121554   4.121   3.621   6.835  1.0872  0.9865  0.3665
 3365SOL    HW221555   4.152   3.731   6.745 -2.4814  1.5854  0.1932
 3366SOL     OW21556   1.561   0.974   2.400 -0.0024 -0.1620  0.6558
 3366SOL    HW121557   1.614   1.001   2.325  0.5531 -0.0559  1.0870
 3366SOL    HW221558   1.481   1.022   2.377  0.6322  0.1726 -0.8716
 3367SOL     OW21559   3.066   3.449  12.177 -0.3447 -0.0240  0.5062
 3367SOL    HW121560   3.148   3.427  12.222 -0.5049 -2.3931 -0.3091
 3367SOL    HW221561   3.007   3.456  12.252 -1.8858  1.9777 -0.9141
 3368SOL     OW21562   4.618   3.922  14.786 -0.6840  0.0810  0.1005
 3368SOL    HW121563   4.630   3.829  14.807  2.8418  0.0208 -2.1042
 3368SOL    HW221564   4.559   3.923  14.711 -0.6560  0.8307  0.0959
 3369SOL     OW21565   4.566   1.291   1.936  0.0822 -0.2350  0.0773
 3369SOL    HW121566   4.619   1.306   2.015 -0.9077 -1.2650  0.9327
 3369SOL    HW221567   4.546   1.383   1.919 -1.2436 -0.2623  1.4311
 3370SOL     OW21568   1.456   1.398  14.865  0.0910 -0.2144  0.2857
 3370SOL    HW121569   1.523   1.448  14.819 -0.2725  0.3750  0.4051
 3370SOL    HW221570   1.469   1.308  14.833 -0.2208 -0.6286  1.3298
 3371SOL     OW21571   1.540   3.395   5.992  0.6840  0.2208 -0.0507
 3371SOL    HW121572   1.494   3.315   6.016  1.7588  0.4903  2.8323
 3371SOL    HW221573   1.609   3.393   6.058  0.1420 -2.4776  0.4229
 3372SOL     OW21574   2.818   0.467   3.838  0.4838  0.2514 -0.0607
 3372SOL    HW121575   2.784   0.381   3.862 -0.1802  0.3283 -0.7428
 3372SOL    HW221576   2.851   0.505   3.920  0.9143  2.1575 -1.1119
 3373SOL     OW21577   2.883   1.396  16.362  0.9912 -0.3517  0.3741
 3373SOL    HW121578   2.806   1.429  16.407 -0.5568 -1.0027 -1.8331
 3373SOL    HW221579   2.871   1.302  16.349 -0.2661 -0.3166  1.2827
 3374SOL     OW21580   1.427   3.770   3.968  0.3962 -0.1923  0.0006
 3374SOL    HW121581   1.515   3.798   3.945  0.0473  0.0896 -1.0234
 3374SOL    HW221582   1.380   3.853   3.968 -0.5089 -0.6989  0.1453
 3375SOL     OW21583   2.335   3.243  10.991  0.0295  0.2403  0.7994
 3375SOL    HW121584   2.315   3.309  10.924  0.6514  0.5891  0.9614
 3375SOL    HW221585   2.332   3.304  11.065  2.4648  0.8653  0.3991
 3376SOL     OW21586   1.087   2.306   6.706 -0.0613  0.0777 -0.0183
 3376SOL    HW121587   1.175   2.311   6.669 -0.3709  0.4184 -0.7056
 3376SOL    HW221588   1.055   2.385   6.662  1.3814  0.9061  0.4320
 3377SOL     OW21589   4.097   3.168   2.594 -0.3621 -0.4980  0.1750
 3377SOL    HW121590   4.011   3.126   2.594  0.0731 -1.4031 -1.7228
 3377SOL    HW221591   4.105   3.180   2.688  0.1345  2.7177 -0.2826
 3378SOL     OW21592   4.197   0.311  11.586  0.1198 -0.9788 -0.2477
 3378SOL    HW121593   4.286   0.329  11.555  1.0802 -2.9053  1.4334
 3378SOL    HW221594   4.163   0.279  11.502  0.1710  1.5873 -1.2549
 3379SOL     OW21595   4.331   3.839   3.602 -0.3535  0.0231 -0.0052
 3379SOL    HW121596   4.346   3.802   3.515 -2.3128  0.9987 -0.7646
 3379SOL    HW221597   4.264   3.903   3.579 -1.3405 -1.0787 -0.2043
 3380SOL     OW21598   0.286   3.413   2.411  0.0219  0.1560  0.6630
 3380SOL    HW121599   0.226   3.427   2.337 -0.8669  1.2970  1.5872
 3380SOL    HW221600   0.305   3.320   2.403  0.9406  0.3154  1.0016
 3381SOL     OW21601   3.678   3.865   4.543  0.4421  0.2511  0.0608
 3381SOL    HW121602   3.615   3.889   4.611 -0.6250  1.9695 -1.5205
 3381SOL    HW221603   3.645   3.776   4.531 -0.1724  0.4681  0.1401
 3382SOL     OW21604   3.229   4.586   3.152  0.3800  0.1159  0.3789
 3382SOL    HW121605   3.174   4.530   3.206  1.6026  1.6438  3.1853
 3382SOL    HW221606   3.173   4.663   3.140  1.4188  0.8112 -0.0213
 3383SOL     OW21607   1.176   3.531  12.216 -0.3487  0.2160 -0.4347
 3383SOL    HW121608   1.192   3.583  12.138  0.6172  2.1182  1.0141
 3383SOL    HW221609   1.080   3.525  12.213 -0.3887  0.2920  0.6605
 3384SOL     OW21610   0.714   3.878   8.761 -0.2715 -0.3014 -0.2097
 3384SOL    HW121611   0.630   3.841   8.735 -0.2207 -0.6904  0.1790
 3384SOL    HW221612   0.700   3.965   8.797 -0.7747 -0.6866  0.5341
 3385SOL     OW21613   1.820   4.480  13.508  0.6354  0.4300 -0.2846
 3385SOL    HW121614   1.911   4.485  13.480  0.3425  2.6480 -0.8130
 3385SOL    HW221615   1.833   4.480  13.603  0.3188  0.4423 -0.2397
 3386SOL     OW21616   3.692   1.164   4.268 -0.4887 -0.4090  0.0390
 3386SOL    HW121617   3.763   1.166   4.205  0.4722 -1.5552  1.1004
 3386SOL    HW221618   3.740   1.194   4.345 -1.3649 -1.7418  1.0970
 3387SOL     OW21619   2.600   3.267   5.107 -0.6900 -0.1137  0.1473
 3387SOL    HW121620   2.521   3.302   5.148 -0.1632  0.3788  0.7385
 3387SOL    HW221621   2.669   3.317   5.150 -0.8417  1.9907 -2.0583
 3388SOL     OW21622   2.466   3.107   0.064  0.1538 -0.1736  0.2761
 3388SOL    HW121623   2.412   3.172   0.109 -0.6478 -0.7089  0.0960
 3388SOL    HW221624   2.511   3.058   0.132 -0.7743  0.5796  1.4206
 3389SOL     OW21625   1.954   2.942  10.246  0.0173 -0.0914  0.0428
 3389SOL    HW121626   1.984   3.032  10.229  0.1355 -0.4664 -1.8183
 3389SOL    HW221627   1.862   2.955  10.267  0.2505  0.9528  0.4275
 3390SOL     OW21628   2.562   2.067   3.802  0.2302  0.0969 -0.0017
 3390SOL    HW121629   2.564   2.162   3.797 -2.6968  0.1915  1.0062
 3390SOL    HW221630   2.567   2.056   3.896  1.0724  0.8759  0.0452
 3391SOL     OW21631   1.657   0.500   6.401 -0.4703 -0.0270  0.0844
 3391SOL    HW121632   1.663   0.512   6.496 -1.2964  0.7353  0.0342
 3391SOL    HW221633   1.563   0.509   6.391 -0.2992 -2.0816 -3.4790
 3392SOL     OW21634   2.526   4.099  17.362  0.3852  0.2186  0.1011
 3392SOL    HW121635   2.545   4.087  17.269  1.7535  2.7571  0.0675
 3392SOL    HW221636   2.447   4.153  17.371  1.4073  1.4565  1.4961
 3393SOL     OW21637   2.661   2.560  13.876 -0.4552 -0.1267 -0.4905
 3393SOL    HW121638   2.731   2.530  13.818 -0.5618 -0.5441 -0.4011
 3393SOL    HW221639   2.674   2.530  13.967 -2.3659  0.6652  0.0372
 3394SOL     OW21640   4.184   4.653   2.006  0.5503  0.3720  0.5518
 3394SOL    HW121641   4.179   0.030   2.009  0.0131  0.2110  5.3477
 3394SOL    HW221642   4.106   4.637   1.953  1.5121  0.0127 -0.7470
 3395SOL     OW21643   0.052   3.472  15.427 -0.0985 -0.3392 -0.1883
 3395SOL    HW121644   0.019   3.560  15.410 -0.6893  0.1334  3.4027
 3395SOL    HW221645   0.024   3.453  15.517 -2.4911  1.6943 -0.4917
 3396SOL     OW21646   2.142   2.435   1.844 -0.4055 -0.8094  0.0334
 3396SOL    HW121647   2.088   2.509   1.872  0.3126 -0.2923  0.0572
 3396SOL    HW221648   2.229   2.471   1.864 -0.9898  0.7526 -0.2105
 3397SOL     OW21649   2.076   3.730   7.207 -0.3591  0.1285 -0.4467
 3397SOL    HW121650   1.992   3.773   7.190 -0.6036 -0.3112 -0.3494
 3397SOL    HW221651   2.088   3.751   7.300  2.1306  0.6915 -0.8929
 3398SOL     OW21652   1.976   3.945   6.395  0.9940  0.2934 -0.2671
 3398SOL    HW121653   1.886   3.955   6.362  1.3777  1.6054 -0.9361
 3398SOL    HW221654   1.978   4.019   6.456  0.0244 -1.2402  1.6336
 3399SOL     OW21655   3.592   2.609   1.295 -0.1060  0.1464 -0.8622
 3399SOL    HW121656   3.667   2.667   1.303 -0.8615  0.8638  1.0423
 3399SOL    HW221657   3.527   2.659   1.344  0.4597 -1.4057  1.5106
 3400SOL     OW21658   0.357   1.733   8.296 -0.0252  0.0389  0.4366
 3400SOL    HW121659   0.304   1.771   8.227 -1.5429  0.7133  1.9558
 3400SOL    HW221660   0.315   1.770   8.374 -2.1847 -1.6059  0.0582
 3401SOL     OW21661   2.226   0.730   3.192  0.0609  0.1152  0.1502
 3401SOL    HW121662   2.312   0.691   3.174  2.1878  4.7738  0.1429
 3401SOL    HW221663   2.172   0.651   3.183  1.9394 -1.1338 -0.1940
 3402SOL     OW21664   3.185   4.716   8.387 -0.0990 -0.0415  1.1433
 3402SOL    HW121665   3.245   0.063   8.423  1.2058 -0.4680 -0.2453
 3402SOL    HW221666   3.227   4.636   8.417 -0.8421 -0.8979 -0.0785
 3403SOL     OW21667   3.264   4.203   8.269  0.2004  0.6149  0.2161
 3403SOL    HW121668   3.235   4.246   8.349  0.8101 -1.3115  1.4896
 3403SOL    HW221669   3.343   4.174   8.315  0.0607  0.7635  0.5522
 3404SOL     OW21670   3.774   1.740   6.700  0.1807 -0.2721  0.2651
 3404SOL    HW121671   3.764   1.732   6.795  0.3738 -2.7760  0.0831
 3404SOL    HW221672   3.864   1.708   6.693 -0.0469 -1.2239  1.7071
 3405SOL     OW21673   4.533   4.435   6.267  0.0095 -0.1963  0.7792
 3405SOL    HW121674   4.573   4.447   6.181 -2.4554 -2.5831 -0.6932
 3405SOL    HW221675   4.606   4.404   6.320  0.2783  0.5929  0.8677
 3406SOL     OW21676   2.866   4.083   6.549 -0.1857 -0.1022  0.0009
 3406SOL    HW121677   2.961   4.081   6.549 -0.1866  0.2317  1.2495
 3406SOL    HW221678   2.844   4.024   6.621  0.3930 -0.3335 -0.0122
 3407SOL     OW21679   3.636   1.490  10.133 -0.7773  0.0936 -0.1105
 3407SOL    HW121680   3.575   1.492  10.206 -0.0232  0.5603  0.5004
 3407SOL    HW221681   3.699   1.560  10.151  1.5176 -2.1688  0.7449
 3408SOL     OW21682   4.643   4.703   6.465  0.0879 -0.0091  0.8405
 3408SOL    HW121683   4.577   4.673   6.403 -2.2220  1.2356  2.7083
 3408SOL    HW221684   4.640   4.630   6.528  0.9344 -0.0257  0.8632
 3409SOL     OW21685   2.758   4.164   4.573 -0.4380  0.5867 -0.5312
 3409SOL    HW121686   2.814   4.098   4.533 -0.7844  0.3277 -0.5853
 3409SOL    HW221687   2.760   4.136   4.664 -2.1106 -1.6030 -1.1796
 3410SOL     OW21688   1.763   1.423  11.676 -0.0998  0.1711 -0.2397
 3410SOL    HW121689   1.858   1.415  11.689 -0.4647 -2.7932  0.6491
 3410SOL    HW221690   1.728   1.389  11.758 -0.0783  0.2394 -0.2019
 3411SOL     OW21691   2.325   1.143  16.715  0.3626  0.0254  0.0703
 3411SOL    HW121692   2.366   1.201  16.651  0.4523  0.8824  0.9068
 3411SOL    HW221693   2.391   1.074  16.712  0.6936  0.2739  1.8206
 3412SOL     OW21694   0.005   1.451   0.490 -0.5592 -0.7561 -0.9948
 3412SOL    HW121695   4.680   1.521   0.539  1.2930  0.2903 -0.8402
 3412SOL    HW221696   0.013   1.491   0.404 -1.0377 -1.3119 -1.3007
 3413SOL     OW21697   3.623   1.051  12.308 -0.1544 -0.4205 -0.3269
 3413SOL    HW121698   3.601   1.135  12.349  2.0545  0.2153 -0.4465
 3413SOL    HW221699   3.719   1.052  12.310 -0.1900  1.8757 -0.1053
 3414SOL     OW21700   4.417   1.614   7.906  0.2786  0.1874  0.0281
 3414SOL    HW121701   4.452   1.646   7.989 -1.2035  1.2487  0.2486
 3414SOL    HW221702   4.497   1.603   7.854 -0.3720 -1.5448 -0.6029
 3415SOL     OW21703   3.710   4.647   8.711  0.4476 -0.2537  0.1034
 3415SOL    HW121704   3.802   4.668   8.724  0.4753  1.5794 -2.9745
 3415SOL    HW221705   3.708   4.665   8.617  1.0826 -0.8970 -0.0280
 3416SOL     OW21706   1.305   3.839   7.402  0.0160  0.1734 -0.1936
 3416SOL    HW121707   1.345   3.912   7.449  1.4660 -0.7173 -0.0288
 3416SOL    HW221708   1.375   3.805   7.346  1.2733  0.0590  1.4715
 3417SOL     OW21709   1.424   0.003   7.822  0.1577 -0.0605 -0.2263
 3417SOL    HW121710   1.486   0.004   7.896 -0.6638  0.2074  0.4563
 3417SOL    HW221711   1.358   0.058   7.864  0.6840  0.9140 -0.6624
 3418SOL     OW21712   3.709   3.992  15.690  0.0958 -0.3536  0.7370
 3418SOL    HW121713   3.642   4.058  15.709 -2.1024 -2.5113  0.4614
 3418SOL    HW221714   3.765   3.995  15.767  1.6108  0.8966 -0.4187
 3419SOL     OW21715   3.837   0.477   2.078 -0.2772  0.4561 -0.1936
 3419SOL    HW121716   3.755   0.464   2.029 -0.5993 -0.9258  0.7340
 3419SOL    HW221717   3.890   0.421   2.021 -0.4498 -0.0030  0.0919
 3420SOL     OW21718   3.805   1.319   5.126  0.2420  0.7145  0.1752
 3420SOL    HW121719   3.817   1.224   5.121 -1.9370  0.5178 -1.2237
 3420SOL    HW221720   3.717   1.323   5.090  1.4417  0.6927 -2.7244
 3421SOL     OW21721   1.683   1.497   4.578 -0.2903 -0.1194 -0.2961
 3421SOL    HW121722   1.597   1.500   4.536  0.1505  2.2329 -1.0819
 3421SOL    HW221723   1.678   1.417   4.630 -0.6026 -1.2268 -2.0269
 3422SOL     OW21724   4.008   4.490   7.828 -0.0755  0.1191  0.0461
 3422SOL    HW121725   4.093   4.482   7.785 -1.1599 -0.8863 -1.9138
 3422SOL    HW221726   3.944   4.526   7.766 -0.4553  0.2553  0.5141
 3423SOL     OW21727   4.275   3.082   8.225 -0.1453  0.4116 -0.0070
 3423SOL    HW121728   4.239   3.058   8.140  0.4971 -0.5107 -0.0181
 3423SOL    HW221729   4.201   3.138   8.248 -2.0351 -2.3249  0.4884
 3424SOL     OW21730   0.086   4.001   3.969 -0.1533  0.3166 -0.3091
 3424SOL    HW121731   0.111   3.939   4.037  0.3956  0.8934  0.0129
 3424SOL    HW221732   0.011   3.955   3.930  1.3844 -1.1900 -1.4683
 3425SOL     OW21733   4.392   2.517  16.324  0.2028 -0.5548  0.1501
 3425SOL    HW121734   4.303   2.541  16.348  0.9580  1.9166  0.5128
 3425SOL    HW221735   4.379   2.528  16.230  0.2719 -0.2951  0.1716
 3426SOL     OW21736   1.095   4.423  11.751  0.0170  0.1059  0.1214
 3426SOL    HW121737   1.000   4.414  11.755 -0.3577  3.2081 -1.2149
 3426SOL    HW221738   1.105   4.513  11.782  0.5231 -0.1427  0.6880
 3427SOL     OW21739   4.387   4.330  10.862 -0.3642 -0.1713 -0.8286
 3427SOL    HW121740   4.464   4.281  10.890 -1.2375  0.2674  2.3421
 3427SOL    HW221741   4.433   4.401  10.818 -0.1771  0.1675 -0.0852
 3428SOL     OW21742   3.688   1.734   5.305  0.2785  0.6332 -0.5565
 3428SOL    HW121743   3.617   1.670   5.306 -2.2745  3.4632  0.8627
 3428SOL    HW221744   3.766   1.679   5.294 -0.4802 -0.3918 -0.8199
 3429SOL     OW21745   2.029   0.490   0.853 -0.0583 -0.2371 -0.0333
 3429SOL    HW121746   2.103   0.552   0.857  1.6560 -2.2562 -0.7039
 3429SOL    HW221747   2.001   0.500   0.761 -0.0968 -1.8386 -0.1903
 3430SOL     OW21748   2.585   0.800  15.431  0.0239  0.4343  0.3235
 3430SOL    HW121749   2.562   0.841  15.348  0.5458 -0.2346 -0.1495
 3430SOL    HW221750   2.525   0.725  15.431  1.0620 -0.3979  0.1577
 3431SOL     OW21751   2.643   2.481   2.657  0.2209  0.4379  0.8915
 3431SOL    HW121752   2.603   2.428   2.589 -0.8589 -0.7939  2.4838
 3431SOL    HW221753   2.607   2.566   2.634 -0.3906  0.2515  1.1625
 3432SOL     OW21754   0.018   1.257   3.700  0.7565  0.9889 -0.6799
 3432SOL    HW121755   0.048   1.341   3.664 -1.0599  1.6503 -0.6433
 3432SOL    HW221756   4.677   1.297   3.763 -2.1365 -1.3714 -1.9467
 3433SOL     OW21757   3.239   1.266   6.374  0.0731 -0.2424 -0.4597
 3433SOL    HW121758   3.202   1.351   6.398  2.6655  1.1300 -1.3418
 3433SOL    HW221759   3.192   1.255   6.292  1.1690 -2.2355 -0.8102
 3434SOL     OW21760   0.565   2.965  15.674 -0.1558 -0.5530  0.3971
 3434SOL    HW121761   0.601   2.876  15.671 -0.4205 -0.6549  0.2329
 3434SOL    HW221762   0.498   2.961  15.742 -2.0574  0.6834 -1.4228
 3435SOL     OW21763   3.774   2.587  16.780 -0.0281  1.1116  0.1024
 3435SOL    HW121764   3.719   2.665  16.771  0.0089  1.3237  1.7029
 3435SOL    HW221765   3.863   2.621  16.782  0.1275  0.6639  0.7473
 3436SOL     OW21766   3.335   2.263   3.545 -0.0432  0.5666  0.1281
 3436SOL    HW121767   3.405   2.199   3.549  0.0337  0.7233  1.3647
 3436SOL    HW221768   3.385   2.341   3.521 -1.3850  1.4499  0.1871
 3437SOL     OW21769   3.288   1.534  15.921  0.4502 -0.1053 -0.0267
 3437SOL    HW121770   3.258   1.507  16.009 -0.4329 -2.5611 -1.0779
 3437SOL    HW221771   3.356   1.596  15.945 -1.1745  1.6599 -0.0056
 3438SOL     OW21772   1.534   3.594  15.421 -0.4982 -0.6594  0.0970
 3438SOL    HW121773   1.589   3.577  15.497  1.7171  1.3289 -1.0581
 3438SOL    HW221774   1.522   3.505  15.388 -0.9450  0.0763 -1.7333
 3439SOL     OW21775   0.756   3.822   7.536 -0.1758  0.1413  0.1152
 3439SOL    HW121776   0.692   3.803   7.605  0.9896 -0.8587  0.9391
 3439SOL    HW221777   0.712   3.799   7.455 -1.9144  2.2257  0.4716
 3440SOL     OW21778   3.518   0.466   3.710  0.0056 -0.6337 -0.4309
 3440SOL    HW121779   3.526   0.559   3.691  0.2423 -0.9337 -1.8443
 3440SOL    HW221780   3.554   0.438   3.625 -1.8564 -2.1078 -0.7290
 3441SOL     OW21781   1.976   2.705   6.370  0.3122 -0.1863  0.1493
 3441SOL    HW121782   1.913   2.769   6.403 -0.7752 -1.6563  0.9621
 3441SOL    HW221783   2.004   2.664   6.452  2.3576  0.4882 -0.2048
 3442SOL     OW21784   4.679   1.642  15.317 -0.4676 -0.0510  0.1703
 3442SOL    HW121785   4.716   1.665  15.231 -0.9809 -1.6037 -0.4587
 3442SOL    HW221786   4.614   1.576  15.294 -2.4206  1.6204  0.8885
 3443SOL     OW21787   2.184   1.149   8.243 -0.1951  0.1797 -0.0847
 3443SOL    HW121788   2.249   1.215   8.219 -1.2694  0.7181 -1.5598
 3443SOL    HW221789   2.250   1.080   8.252  1.0761  1.5704  1.2119
 3444SOL     OW21790   3.829   1.663  16.598 -0.5117  0.3991 -0.0143
 3444SOL    HW121791   3.764   1.730  16.577 -0.9874  0.5737  2.0232
 3444SOL    HW221792   3.891   1.710  16.654 -0.9258  0.6681  0.2133
 3445SOL     OW21793   4.617   3.997  15.821  0.3240  0.2551  0.3747
 3445SOL    HW121794   4.543   3.974  15.877  2.0921 -0.7230  2.3395
 3445SOL    HW221795   4.663   4.034  15.897  1.5501 -0.2301 -0.1169
 3446SOL     OW21796   0.271   1.657   1.067 -0.5087 -0.0667  0.2164
 3446SOL    HW121797   0.233   1.569   1.068  2.7969 -1.4927 -1.0970
 3446SOL    HW221798   0.284   1.667   0.973 -3.8413  0.3524 -0.2034
 3447SOL     OW21799   1.439   1.920   4.532  0.2305  0.2826  0.3144
 3447SOL    HW121800   1.459   1.850   4.595 -1.8978  0.1828  0.8663
 3447SOL    HW221801   1.414   1.988   4.595 -0.7908 -1.0017  1.2892
 3448SOL     OW21802   0.132   2.816  12.546 -0.3389 -0.4107  0.4596
 3448SOL    HW121803   0.171   2.852  12.466 -0.8850  0.1111  0.4311
 3448SOL    HW221804   0.088   2.746  12.497  0.3549  0.9494 -2.1018
 3449SOL     OW21805   1.230   1.254   3.310 -0.4727 -0.4439 -0.0788
 3449SOL    HW121806   1.309   1.201   3.305  0.2370  0.3355  2.6855
 3449SOL    HW221807   1.156   1.196   3.331  1.5394 -3.4315 -1.2167
 3450SOL     OW21808   0.522   4.516   3.130 -0.1946  0.2550 -0.2409
 3450SOL    HW121809   0.467   4.534   3.206  0.5967 -0.7647  0.5926
 3450SOL    HW221810   0.555   4.602   3.106  0.0868  0.2635  0.1583
 3451SOL     OW21811   4.718   0.591   3.385 -0.1959 -0.7925 -0.1617
 3451SOL    HW121812   4.696   0.683   3.401  0.7838 -0.5053 -0.4700
 3451SOL    HW221813   0.095   0.592   3.392 -0.0521 -0.0062 -2.2830
 3452SOL     OW21814   1.452   0.505   2.161  0.1937 -0.4239  0.4197
 3452SOL    HW121815   1.390   0.575   2.182  1.5913  0.5144  1.3829
 3452SOL    HW221816   1.518   0.550   2.214  1.4115 -1.7701  0.0394
 3453SOL     OW21817   1.211   1.903   6.252  0.4751  0.1969  0.4783
 3453SOL    HW121818   1.296   1.861   6.265 -0.2757 -1.3059  0.5220
 3453SOL    HW221819   1.156   1.827   6.231 -0.5850  0.6194  1.7472
 3454SOL     OW21820   0.035   2.987   9.182 -0.1386  0.0491  0.4495
 3454SOL    HW121821   0.112   2.951   9.137  0.3663 -0.2939  1.5821
 3454SOL    HW221822   0.005   2.902   9.216 -0.0831 -0.4655 -0.7998
 3455SOL     OW21823   0.490   1.247   8.770  0.0072 -0.4696  0.2858
 3455SOL    HW121824   0.541   1.183   8.820 -0.7342 -1.5598 -0.3451
 3455SOL    HW221825   0.458   1.209   8.688  2.4323 -1.7174 -0.0950
 3456SOL     OW21826   3.323   1.463   8.624 -0.9098 -0.2277  0.5539
 3456SOL    HW121827   3.240   1.415   8.621 -1.0035 -0.0780  0.7038
 3456SOL    HW221828   3.380   1.410   8.569 -0.6286 -0.9015  1.5070
 3457SOL     OW21829   2.493   3.487   8.410 -0.4739 -0.0118  0.0331
 3457SOL    HW121830   2.509   3.405   8.458  1.2063 -0.3655 -1.1522
 3457SOL    HW221831   2.493   3.549   8.483  1.5411  0.2739 -0.2239
 3458SOL     OW21832   3.828   2.746  11.961 -0.3569  0.1939  0.7397
 3458SOL    HW121833   3.885   2.702  12.025 -0.4041  0.3456  0.8877
 3458SOL    HW221834   3.743   2.721  11.997 -1.3688  1.7760 -0.5881
 3459SOL     OW21835   2.789   1.695  12.479  0.0234 -0.1885  0.4298
 3459SOL    HW121836   2.846   1.618  12.484  1.3919  0.9106  1.4319
 3459SOL    HW221837   2.851   1.764  12.500 -0.2583 -0.6044  2.6123
 3460SOL     OW21838   1.826   1.382   8.019  0.2912 -0.3458  0.4471
 3460SOL    HW121839   1.920   1.397   8.026  0.4153 -0.0799 -1.7677
 3460SOL    HW221840   1.812   1.334   8.100 -0.5695  0.5057  0.7951
 3461SOL     OW21841   1.038   1.729  15.055 -0.2205  0.8601  0.2913
 3461SOL    HW121842   1.007   1.644  15.085  2.4554 -0.0268  0.5405
 3461SOL    HW221843   1.007   1.717  14.966  0.7363  1.1182 -0.0839
 3462SOL     OW21844   3.875   3.831   2.141  0.0044 -0.1826 -0.2481
 3462SOL    HW121845   3.930   3.887   2.085 -0.6329  0.5812 -0.1066
 3462SOL    HW221846   3.850   3.751   2.095  1.1879 -0.3677 -0.5622
 3463SOL     OW21847   3.935   2.299   3.923 -0.1210 -0.6339 -0.2784
 3463SOL    HW121848   3.969   2.210   3.927 -2.0918 -1.2556  2.5656
 3463SOL    HW221849   3.951   2.324   3.832  1.5742 -0.4616  0.0716
 3464SOL     OW21850   3.907   2.875   6.838 -0.2995 -0.0385  0.4725
 3464SOL    HW121851   3.845   2.802   6.846 -0.8456  0.1330 -2.0411
 3464SOL    HW221852   3.936   2.867   6.747 -1.8257  1.0577 -0.1056
 3465SOL     OW21853   1.788   1.675  15.393 -0.2887  0.2066  0.3349
 3465SOL    HW121854   1.742   1.745  15.441 -0.6543 -0.5997  1.1585
 3465SOL    HW221855   1.876   1.713  15.389  0.5841 -1.8438  0.2116
 3466SOL     OW21856   2.104   3.597   5.256 -0.1525  0.4247  0.2389
 3466SOL    HW121857   2.073   3.681   5.290 -3.2780 -0.2023 -1.1031
 3466SOL    HW221858   2.095   3.616   5.163 -0.9160  0.0096  0.2271
 3467SOL     OW21859   3.276   2.119   5.474 -0.0169 -0.3225 -0.5109
 3467SOL    HW121860   3.245   2.153   5.558 -0.0623 -3.2704  0.6584
 3467SOL    HW221861   3.322   2.044   5.511 -5.1964 -3.5034 -0.4226
 3468SOL     OW21862   1.628   1.923   1.803 -0.0570 -0.1744 -0.8857
 3468SOL    HW121863   1.575   1.858   1.849  1.5514 -0.3978  0.6700
 3468SOL    HW221864   1.560   1.965   1.751 -0.5580  1.1997  0.8373
 3469SOL     OW21865   4.134   2.239   7.441  0.6785  0.5039 -0.3778
 3469SOL    HW121866   4.096   2.173   7.499  1.7481 -0.2487 -0.5418
 3469SOL    HW221867   4.128   2.311   7.504 -0.7032  1.1114 -1.1934
 3470SOL     OW21868   2.308   1.558  16.880 -0.0389  0.6719  0.4810
 3470SOL    HW121869   2.366   1.528  16.950  0.9836 -0.9922 -1.0605
 3470SOL    HW221870   2.285   1.648  16.903  0.0065  0.7636  0.1677
 3471SOL     OW21871   0.384   1.253   3.702  0.2214  0.2015  0.9224
 3471SOL    HW121872   0.461   1.280   3.752  1.6105 -1.9224 -0.0868
 3471SOL    HW221873   0.379   1.161   3.726  2.5586 -0.1680 -0.0228
 3472SOL     OW21874   3.878   4.501   4.779 -0.3004 -0.0961  0.2530
 3472SOL    HW121875   3.816   4.530   4.846 -1.3586 -1.4497 -0.1349
 3472SOL    HW221876   3.813   4.474   4.713  1.0259  0.8389 -1.4279
 3473SOL     OW21877   2.706   1.825   7.632  0.0720 -0.7342 -0.1603
 3473SOL    HW121878   2.744   1.738   7.625 -0.0692 -0.8801  0.9475
 3473SOL    HW221879   2.777   1.877   7.669  0.3308  0.7239 -2.6777
 3474SOL     OW21880   0.921   4.695   7.043 -0.1997  0.1563 -0.2406
 3474SOL    HW121881   0.966   0.034   6.982 -2.1359  1.6597 -0.2174
 3474SOL    HW221882   0.962   4.710   7.128  0.1989  1.2492 -0.6320
 3475SOL     OW21883   0.599   3.182   2.788  0.0329  0.1240 -0.2099
 3475SOL    HW121884   0.575   3.106   2.842 -1.2286 -0.2594 -1.3236
 3475SOL    HW221885   0.543   3.248   2.828  0.0554  1.0044 -1.6264
 3476SOL     OW21886   4.331   1.778  12.477  0.2525 -0.3874 -0.0282
 3476SOL    HW121887   4.336   1.874  12.483 -0.5059 -0.4776  2.1443
 3476SOL    HW221888   4.422   1.765  12.453  0.1951  0.5337 -0.7895
 3477SOL     OW21889   2.230   4.100   3.346 -0.6307  0.1008 -0.3042
 3477SOL    HW121890   2.269   4.179   3.383 -0.2319 -0.1046 -0.2768
 3477SOL    HW221891   2.181   4.072   3.423  0.8384 -1.0448  0.2293
 3478SOL     OW21892   3.049   3.645   8.819  0.1374  0.4830  0.0135
 3478SOL    HW121893   3.116   3.580   8.837  0.3676  0.5187 -0.7048
 3478SOL    HW221894   3.031   3.681   8.906  0.1131 -1.0585  0.6381
 3479SOL     OW21895   0.101   0.186  14.517  0.6145 -0.4716 -0.0709
 3479SOL    HW121896   0.156   0.223  14.586  0.8312 -2.6850  0.9149
 3479SOL    HW221897   0.122   0.250  14.449  0.5974 -1.4409 -0.9855
 3480SOL     OW21898   4.533   1.824   8.091 -0.1211  0.4106 -0.0829
 3480SOL    HW121899   4.497   1.876   8.019 -0.0787  0.9506  0.2883
 3480SOL    HW221900   4.629   1.819   8.088 -0.0413  0.9730  1.8102
 3481SOL     OW21901   2.975   2.919   6.202 -0.7992 -0.3733  0.2950
 3481SOL    HW121902   2.933   3.002   6.181 -0.8544 -0.1367  1.3574
 3481SOL    HW221903   3.007   2.887   6.118  1.2291  1.5672  0.3481
 3482SOL     OW21904   4.561   4.467   6.766  0.1817  0.1964 -0.9637
 3482SOL    HW121905   4.498   4.537   6.751  0.4906  1.2115  2.4684
 3482SOL    HW221906   4.507   4.388   6.775  0.8455 -0.2588 -0.9564
 3483SOL     OW21907   2.135   2.848   3.697  0.8583  0.1254  0.2981
 3483SOL    HW121908   2.048   2.834   3.735  1.1352 -4.4414 -0.8556
 3483SOL    HW221909   2.176   2.786   3.757 -0.1082 -1.6899 -0.9173
 3484SOL     OW21910   2.491   2.372   1.599  0.2256  0.1352  0.1411
 3484SOL    HW121911   2.484   2.338   1.688 -3.3681  1.5203  0.3677
 3484SOL    HW221912   2.400   2.391   1.577 -0.0784 -0.1697  1.1351
 3485SOL     OW21913   3.318   0.491   3.920 -0.0650  0.0281 -0.2007
 3485SOL    HW121914   3.247   0.473   3.859 -1.1465  2.0130  0.4538
 3485SOL    HW221915   3.389   0.505   3.859 -0.8012 -0.0163 -1.0637
 3486SOL     OW21916   0.369   3.691   1.629 -0.1423  0.0306 -0.4955
 3486SOL    HW121917   0.438   3.741   1.671 -0.3123  1.3154 -1.7621
 3486SOL    HW221918   0.305   3.761   1.618 -0.2631 -0.2841 -1.9022
 3487SOL     OW21919   0.771   0.094   4.184 -0.2997 -0.6696 -0.2672
 3487SOL    HW121920   0.727   0.031   4.127 -1.7405  0.4209 -0.3431
 3487SOL    HW221921   0.699   0.157   4.184  0.9406  0.7454  1.1052
 3488SOL     OW21922   0.462   1.603   6.305 -0.3962  0.1286 -0.2981
 3488SOL    HW121923   0.455   1.608   6.400 -0.7184  1.8709 -0.4062
 3488SOL    HW221924   0.481   1.511   6.285  0.6539  0.3135 -0.1840
 3489SOL     OW21925   3.778   1.064   5.068 -0.7953 -0.0760  0.1484
 3489SOL    HW121926   3.852   1.008   5.045 -0.3575 -0.1652  1.7517
 3489SOL    HW221927   3.701   1.039   5.018 -1.5013 -0.0419  1.2272
 3490SOL     OW21928   1.570   1.283   4.005  0.7609 -0.1401  0.3924
 3490SOL    HW121929   1.564   1.376   4.026  1.4866  0.0694 -0.3269
 3490SOL    HW221930   1.485   1.260   3.969  0.4532  2.4165 -0.5234
 3491SOL     OW21931   2.671   0.857   3.953 -0.6092 -0.3167 -0.2433
 3491SOL    HW121932   2.641   0.922   4.016  0.5089 -0.8706  0.8461
 3491SOL    HW221933   2.599   0.796   3.974  1.4257 -1.8271  2.3995
 3492SOL     OW21934   3.562   2.881   4.255 -0.1611 -0.3699  0.3109
 3492SOL    HW121935   3.537   2.865   4.346  0.9088 -1.2300  0.4508
 3492SOL    HW221936   3.480   2.866   4.208  1.1553 -3.5033 -0.9409
 3493SOL     OW21937   0.954   1.823   2.519  0.4240  0.0450 -0.6626
 3493SOL    HW121938   1.037   1.846   2.560  0.7264  2.5569 -2.7297
 3493SOL    HW221939   0.944   1.891   2.452  0.5406 -0.5275 -1.2594
 3494SOL     OW21940   3.165   4.658   6.317 -0.2582  0.0935  0.1483
 3494SOL    HW121941   3.250   4.638   6.355  1.5131  1.9733 -2.8186
 3494SOL    HW221942   3.177   0.033   6.300 -0.6267 -0.2439 -2.0102
 3495SOL     OW21943   3.984   2.242   7.973  0.4902 -0.2027 -0.0311
 3495SOL    HW121944   3.995   2.310   7.907  1.4922 -1.5894 -1.2860
 3495SOL    HW221945   4.053   2.267   8.035 -0.3637  1.0913  0.4060
 3496SOL     OW21946   2.216   1.203   4.661  0.3627 -0.3211  0.7401
 3496SOL    HW121947   2.182   1.281   4.705  1.3121 -0.5731  1.9041
 3496SOL    HW221948   2.240   1.248   4.580  0.4945  0.5362  1.2568
 3497SOL     OW21949   4.135   2.685   4.969 -0.4071 -0.0541  0.2446
 3497SOL    HW121950   4.215   2.698   5.019 -0.8524  0.4976  0.8207
 3497SOL    HW221951   4.066   2.721   5.025  1.2036  2.1271  0.7991
 3498SOL     OW21952   0.480   4.194  13.296 -0.0377 -0.3434 -0.9354
 3498SOL    HW121953   0.496   4.236  13.212 -0.3211  0.4519 -0.5904
 3498SOL    HW221954   0.386   4.202  13.315  0.1280  1.1705 -0.7789
 3499SOL     OW21955   4.682   4.676  12.510 -0.2326  0.5649 -0.0267
 3499SOL    HW121956   0.009   4.606  12.556 -0.0343 -0.5829 -1.9678
 3499SOL    HW221957   4.590   4.659  12.532 -0.4671  1.3571 -0.4235
 3500SOL     OW21958   0.843   3.996  13.574  0.2823  0.0889  0.9736
 3500SOL    HW121959   0.809   3.911  13.603  0.7739  0.1140  1.6028
 3500SOL    HW221960   0.936   3.978  13.579  0.6641  1.9366  0.3734
 3501SOL     OW21961   0.573   1.314   6.824 -0.4086 -0.4614  0.0342
 3501SOL    HW121962   0.493   1.284   6.866  0.3451 -1.3723  0.8305
 3501SOL    HW221963   0.637   1.271   6.882 -0.1809 -0.1408  0.0195
 3502SOL     OW21964   1.818   0.992   4.445 -0.5017  0.4639  0.2263
 3502SOL    HW121965   1.835   1.034   4.529  0.3232 -1.0609  0.7998
 3502SOL    HW221966   1.813   1.071   4.390 -1.1578  1.1422  1.2527
 3503SOL     OW21967   4.367   1.050   6.019 -0.3960  0.7974 -0.3041
 3503SOL    HW121968   4.389   1.030   6.109  0.0357  0.1614 -0.5496
 3503SOL    HW221969   4.277   1.079   6.034 -0.5332  0.3557 -0.2521
 3504SOL     OW21970   3.411   0.353   7.413  0.1033 -0.6421  0.2824
 3504SOL    HW121971   3.475   0.421   7.436 -1.4708  1.1502 -0.6896
 3504SOL    HW221972   3.334   0.410   7.416  1.4770  1.2765 -1.6725
 3505SOL     OW21973   0.397   0.931   2.540  0.3209 -0.0747 -0.1681
 3505SOL    HW121974   0.316   0.978   2.563  0.6291  0.1828  0.3893
 3505SOL    HW221975   0.383   0.912   2.447  2.1716  0.8668 -0.6483
 3506SOL     OW21976   2.568   1.588  14.596 -0.0580  0.3311 -0.2151
 3506SOL    HW121977   2.533   1.566  14.682 -1.0377 -0.1434 -0.7449
 3506SOL    HW221978   2.639   1.646  14.624 -0.5365 -0.1855  2.0064
 3507SOL     OW21979   1.682   2.490  16.997  0.2643  0.7352 -0.6222
 3507SOL    HW121980   1.632   2.509  16.918 -1.1743  2.6670  0.7558
 3507SOL    HW221981   1.707   2.400  16.979 -1.1566 -0.2623  2.3940
 3508SOL     OW21982   1.405   1.980   1.650  0.1001  0.1237 -0.2190
 3508SOL    HW121983   1.442   1.963   1.563 -2.2911 -0.7843 -1.0805
 3508SOL    HW221984   1.348   2.053   1.627  0.2883 -0.3503 -2.2478
 3509SOL     OW21985   0.680   4.125   2.854 -0.0177 -0.0410 -0.2559
 3509SOL    HW121986   0.702   4.211   2.892 -1.9821  0.4821 -0.2863
 3509SOL    HW221987   0.584   4.129   2.854 -0.0198 -0.1768 -0.6755
 3510SOL     OW21988   4.566   3.040   5.469 -0.5327  0.4870 -0.4749
 3510SOL    HW121989   4.492   3.082   5.514  0.7594  2.6077 -0.3151
 3510SOL    HW221990   4.594   2.970   5.528  1.1066 -0.2307 -2.1460
 3511SOL     OW21991   2.840   1.665   7.872 -0.2804  0.2574  0.5061
 3511SOL    HW121992   2.768   1.696   7.927 -0.0343 -1.7667  1.9993
 3511SOL    HW221993   2.907   1.667   7.941  0.9487  1.1749 -0.7117
 3512SOL     OW21994   2.870   4.634   9.558  0.1914  0.4391 -0.1494
 3512SOL    HW121995   2.894   4.541   9.548  1.0645  0.9117 -2.4753
 3512SOL    HW221996   2.833   4.654   9.472 -3.0918  1.5612  1.5562
 3513SOL     OW21997   0.843   0.983  14.672 -0.2806  0.7914  1.0626
 3513SOL    HW121998   0.871   1.065  14.631  1.6168  0.8273  2.4109
 3513SOL    HW221999   0.750   0.994  14.656 -0.1369 -0.3430 -0.5653
 3514SOL     OW22000   2.149   0.727   1.821  0.1388  0.3388 -0.5811
 3514SOL    HW122001   2.099   0.699   1.898  0.7424  0.0651 -0.2850
 3514SOL    HW222002   2.197   0.807   1.844  1.8357 -0.2910 -1.8949
 3515SOL     OW22003   0.592   4.156   6.533 -0.0609  0.3095  0.1116
 3515SOL    HW122004   0.648   4.174   6.609 -2.2785  0.0581  1.8124
 3515SOL    HW222005   0.646   4.119   6.464 -0.5111  0.8211 -0.5157
 3516SOL     OW22006   3.021   3.117   7.103  0.1047 -0.3400  0.9662
 3516SOL    HW122007   3.012   3.042   7.162  0.1658 -2.4255 -1.7029
 3516SOL    HW222008   3.016   3.075   7.018 -2.4599  0.7994  0.5522
 3517SOL     OW22009   1.115   4.280   8.688 -0.6982  0.0247 -0.3304
 3517SOL    HW122010   1.027   4.290   8.653 -0.6842  1.0819 -0.0523
 3517SOL    HW222011   1.170   4.326   8.625  0.4044 -0.1637  0.4834
 3518SOL     OW22012   3.809   4.501  13.325 -0.2945 -0.2940  0.4147
 3518SOL    HW122013   3.763   4.502  13.242  0.9122 -0.0619 -0.2474
 3518SOL    HW222014   3.895   4.532  13.297 -0.4284 -0.7447 -0.4655
 3519SOL     OW22015   4.601   2.857   7.705 -0.5910 -0.3522 -0.4399
 3519SOL    HW122016   4.526   2.910   7.676  0.1412  0.1285 -1.4696
 3519SOL    HW222017   4.565   2.782   7.752  0.2805 -0.4219  0.1058
 3520SOL     OW22018   1.376   0.189   1.644  0.0445 -0.1908 -0.6241
 3520SOL    HW122019   1.395   0.112   1.697  0.1963  0.9477  1.0019
 3520SOL    HW222020   1.451   0.192   1.585  0.9432 -2.5809  0.4213
 3521SOL     OW22021   1.283   2.872   9.322  0.2274 -0.1429 -0.1302
 3521SOL    HW122022   1.284   2.916   9.406 -1.7285 -0.5570  0.1016
 3521SOL    HW222023   1.331   2.934   9.267 -1.7782  0.3380 -1.3048
 3522SOL     OW22024   0.646   1.810   3.173 -0.0806  0.8437 -0.3687
 3522SOL    HW122025   0.598   1.881   3.131 -1.1450  0.7212  0.6205
 3522SOL    HW222026   0.730   1.856   3.176 -0.3727  1.3608  0.0369
 3523SOL     OW22027   3.574   1.633   9.880  0.0434  0.3013 -0.0239
 3523SOL    HW122028   3.551   1.554   9.929 -2.3072  1.0620  0.0875
 3523SOL    HW222029   3.544   1.602   9.795  3.0026 -0.4704 -0.8097
 3524SOL     OW22030   3.389   0.994  16.969  0.7736 -0.4056 -0.1842
 3524SOL    HW122031   3.382   1.072  16.915 -1.2852  1.1774  2.4182
 3524SOL    HW222032   3.366   0.916  16.918  2.3893 -0.0741 -1.4458
 3525SOL     OW22033   0.754   3.134   9.115 -0.5972 -0.2913 -0.5703
 3525SOL    HW122034   0.835   3.083   9.123 -0.9505 -0.4883  1.7879
 3525SOL    HW222035   0.734   3.147   9.208  1.2576 -0.4966 -0.1418
 3526SOL     OW22036   0.064   1.521   1.292  0.2098 -0.4587  0.2929
 3526SOL    HW122037   4.702   1.474   1.310 -0.0300  0.0053  0.4324
 3526SOL    HW222038   0.095   1.465   1.220  1.4969  0.2878  0.2781
 3527SOL     OW22039   0.887   3.943   4.616 -0.6942 -0.0265 -0.1516
 3527SOL    HW122040   0.800   3.938   4.656  0.3851  0.5296  2.2308
 3527SOL    HW222041   0.880   3.884   4.541 -2.1347  1.6409 -1.3201
 3528SOL     OW22042   1.001   1.013   4.470  0.6603  0.5758 -0.1432
 3528SOL    HW122043   1.008   0.942   4.534  0.1452 -0.8309 -1.6574
 3528SOL    HW222044   1.020   1.091   4.522 -1.3607  0.2745  1.0472
 3529SOL     OW22045   0.797   0.267   5.310  0.1842 -0.0552 -0.2727
 3529SOL    HW122046   0.879   0.295   5.351  0.8518  0.3413 -1.8808
 3529SOL    HW222047   0.786   0.180   5.348 -0.2025  0.6056  1.1343
 3530SOL     OW22048   4.677   1.582   0.278  0.7457  0.2844  0.2592
 3530SOL    HW122049   4.585   1.604   0.263  1.4510  1.4418 -2.2228
 3530SOL    HW222050   0.001   1.664   0.257 -0.4415  1.0505  0.7797
 3531SOL     OW22051   4.389   1.566  10.823 -0.2311 -0.2332  0.0447
 3531SOL    HW122052   4.484   1.565  10.834 -0.3142 -0.3094  0.7078
 3531SOL    HW222053   4.370   1.500  10.890  2.4713  0.8846  1.8609
 3532SOL     OW22054   1.614   0.028   6.014  0.0178 -0.2299  0.0139
 3532SOL    HW122055   1.644   0.101   6.068  0.2867  1.5618 -2.5713
 3532SOL    HW222056   1.523   0.029   6.042  0.3986  0.1375  1.2610
 3533SOL     OW22057   0.716   4.708  11.338  0.1596 -0.3668 -0.2230
 3533SOL    HW122058   0.738   0.059  11.399 -0.7773 -0.0747 -0.2185
 3533SOL    HW222059   0.799   4.667  11.313  0.0441 -0.6059 -0.2167
 3534SOL     OW22060   2.489   4.148   4.934  0.5175 -0.6030 -0.2081
 3534SOL    HW122061   2.582   4.153   4.913  0.7275 -0.1218  0.8364
 3534SOL    HW222062   2.451   4.077   4.882  0.0858 -0.0717 -0.6147
 3535SOL     OW22063   1.822   0.175  16.671  0.2410 -0.0321  0.4168
 3535SOL    HW122064   1.880   0.140  16.738  1.4797  0.5340 -0.3563
 3535SOL    HW222065   1.777   0.245  16.718 -0.6831  0.7118 -1.5487
 3536SOL     OW22066   1.359   0.894   5.776 -0.0878  0.0110 -0.1520
 3536SOL    HW122067   1.417   0.823   5.804 -0.6719  0.0314  1.1224
 3536SOL    HW222068   1.412   0.927   5.703  0.0361  0.5245  0.1689
 3537SOL     OW22069   3.422   4.388   7.681 -0.2465  0.0410 -0.0887
 3537SOL    HW122070   3.515   4.412   7.683 -0.3256  0.5494 -1.7992
 3537SOL    HW222071   3.411   4.342   7.764 -1.0188 -1.5077 -1.0550
 3538SOL     OW22072   1.985   2.431  11.020  0.0337 -0.6124 -0.4078
 3538SOL    HW122073   2.019   2.342  11.018 -0.6068 -0.8454 -0.9407
 3538SOL    HW222074   1.972   2.433  11.114  1.7906 -1.8622 -0.1459
 3539SOL     OW22075   0.758   1.130   8.048  0.2612  0.5960 -0.4311
 3539SOL    HW122076   0.745   1.059   8.111 -1.5017  0.8081 -0.5498
 3539SOL    HW222077   0.843   1.102   8.014  1.4832  1.3316  2.0041
 3540SOL     OW22078   2.966   0.556   3.511  0.0987  0.1160 -1.0984
 3540SOL    HW122079   2.990   0.579   3.600  0.3695  0.6454 -1.3110
 3540SOL    HW222080   3.047   0.564   3.460 -0.0441  0.5973 -1.2497
 3541SOL     OW22081   0.363   2.780  13.725 -0.1045 -0.6952 -0.2984
 3541SOL    HW122082   0.267   2.783  13.717 -0.0351 -2.5337 -1.8164
 3541SOL    HW222083   0.368   2.692  13.762  1.8032 -0.4837 -0.0557
 3542SOL     OW22084   1.042   1.412   2.092  1.1291 -0.2934 -0.1038
 3542SOL    HW122085   1.088   1.345   2.042 -1.6201 -0.3827 -2.4868
 3542SOL    HW222086   0.954   1.408   2.055  1.1771  0.0695 -0.2589
 3543SOL     OW22087   2.883   4.027   3.537  0.1894 -0.7366 -0.2777
 3543SOL    HW122088   2.898   3.959   3.471  1.3708  0.3471 -1.1189
 3543SOL    HW222089   2.902   4.107   3.488  1.2398  0.1389  1.5447
 3544SOL     OW22090   2.183   1.534   1.151 -0.0175 -0.1016 -0.6194
 3544SOL    HW122091   2.257   1.571   1.199 -2.1875  1.3584  1.6029
 3544SOL    HW222092   2.155   1.463   1.208  0.7362  0.8389  0.9323
 3545SOL     OW22093   3.726   2.965   5.713  0.5217 -0.2113  0.7377
 3545SOL    HW122094   3.774   2.960   5.630  0.6449  1.3964  0.7035
 3545SOL    HW222095   3.748   3.054   5.741 -1.1515  0.8978 -1.3888
 3546SOL     OW22096   2.114   0.651   5.424 -0.4289 -0.1301  0.0256
 3546SOL    HW122097   2.059   0.614   5.355 -1.1250  1.7494 -0.4438
 3546SOL    HW222098   2.198   0.657   5.379  0.0241 -2.5422  0.6086
 3547SOL     OW22099   3.573   0.188   6.997 -0.3208  0.2668  0.0444
 3547SOL    HW122100   3.615   0.102   7.002 -0.3243  0.1660 -1.7709
 3547SOL    HW222101   3.593   0.234   7.079  0.0038 -2.8404  1.7004
 3548SOL     OW22102   4.239   2.004   5.380  1.1090  0.1550 -0.2387
 3548SOL    HW122103   4.255   2.084   5.330  0.0161  0.4626 -0.0963
 3548SOL    HW222104   4.217   2.041   5.466 -0.2302  2.3172 -1.5026
 3549SOL     OW22105   4.515   1.429   4.292 -0.4472 -0.5828 -0.0699
 3549SOL    HW122106   4.519   1.346   4.340  0.2653 -0.8589 -0.6141
 3549SOL    HW222107   4.550   1.408   4.206 -1.4008  2.2679 -1.1773
 3550SOL     OW22108   0.492   0.295   7.689  0.0025  0.2899 -0.2398
 3550SOL    HW122109   0.410   0.255   7.663 -0.6103  0.5911  1.2390
 3550SOL    HW222110   0.550   0.277   7.616  3.2210 -0.1138  2.4080
 3551SOL     OW22111   2.415   2.920   8.867  0.0696  0.5637 -0.1560
 3551SOL    HW122112   2.332   2.931   8.821 -1.4746 -1.5422  2.1219
 3551SOL    HW222113   2.468   2.993   8.837  1.4751  0.1921  1.4311
 3552SOL     OW22114   3.339   1.830  16.787  0.1533  0.4365  0.0596
 3552SOL    HW122115   3.265   1.783  16.750 -0.4759 -0.8551  2.9825
 3552SOL    HW222116   3.303   1.914  16.760  0.4275  0.7614  0.6914
 3553SOL     OW22117   3.302   1.300  12.010  0.6237  0.0249 -0.1639
 3553SOL    HW122118   3.372   1.234  12.013  1.2104  0.6766  0.6584
 3553SOL    HW222119   3.251   1.261  12.081  0.1037  1.1564  0.0851
 3554SOL     OW22120   0.113   3.712   6.668 -0.1377  0.0427  0.1717
 3554SOL    HW122121   0.115   3.791   6.614  3.9558 -0.5899 -0.5932
 3554SOL    HW222122   0.187   3.731   6.726  0.6257  0.8929 -1.0889
 3555SOL     OW22123   1.086   0.492   5.070  0.0342  0.3920 -0.1357
 3555SOL    HW122124   1.089   0.425   5.002  0.1919  0.6673 -0.4040
 3555SOL    HW222125   1.122   0.441   5.142  1.7301  2.4451  0.4919
 3556SOL     OW22126   3.291   0.833  11.191 -1.5250  0.4998 -0.2555
 3556SOL    HW122127   3.251   0.747  11.198  0.2272  0.0265  3.5491
 3556SOL    HW222128   3.293   0.848  11.285  0.1386 -1.5593  0.0348
 3557SOL     OW22129   4.182   0.419   3.703 -0.3324 -0.3112 -0.0732
 3557SOL    HW122130   4.229   0.417   3.620 -1.2264  1.0267 -0.6077
 3557SOL    HW222131   4.105   0.366   3.681  0.5373 -0.5633 -2.5248
 3558SOL     OW22132   3.456   2.185  13.754  1.1943  0.3594 -0.2479
 3558SOL    HW122133   3.459   2.194  13.659 -1.2274  0.9045 -0.2769
 3558SOL    HW222134   3.542   2.146  13.766 -0.3319 -2.3448  2.0480
 3559SOL     OW22135   4.318   1.403   7.372 -0.0763  0.3290 -0.4049
 3559SOL    HW122136   4.413   1.411   7.364 -0.0748  1.5697  0.8356
 3559SOL    HW222137   4.298   1.310   7.359  0.7127  0.1438 -0.3277
 3560SOL     OW22138   1.381   1.283   7.347 -0.4033 -0.7601 -0.1450
 3560SOL    HW122139   1.390   1.303   7.440  0.3100 -2.9767  0.2651
 3560SOL    HW222140   1.306   1.335   7.317 -0.3649 -1.2023 -0.9961
 3561SOL     OW22141   2.700   0.842   6.835 -0.3086  0.2036 -0.2521
 3561SOL    HW122142   2.766   0.900   6.874 -0.1827 -0.3525  0.3460
 3561SOL    HW222143   2.624   0.860   6.891 -0.3736  1.8797 -0.8721
 3562SOL     OW22144   4.642   4.029   7.798  0.1885  0.2485  0.6554
 3562SOL    HW122145   4.618   3.978   7.875 -0.8584 -2.6519 -1.6082
 3562SOL    HW222146   4.630   3.967   7.727  2.6634 -2.0604  2.2824
 3563SOL     OW22147   4.367   0.077  10.330  0.3056  0.1103  0.0355
 3563SOL    HW122148   4.446   0.096  10.280 -0.2734  2.3465 -0.0267
 3563SOL    HW222149   4.338   0.165  10.354  0.8417 -0.4874  2.8471
 3564SOL     OW22150   2.832   1.669   9.953  0.3139 -0.1948  0.7018
 3564SOL    HW122151   2.897   1.717  10.004  1.5939  0.4951 -1.6270
 3564SOL    HW222152   2.880   1.660   9.871  1.6084 -1.9473  1.6562
 3565SOL     OW22153   0.846   1.252  12.893  0.2155  0.1925  0.1054
 3565SOL    HW122154   0.871   1.318  12.959  2.2650 -1.8093  1.3369
 3565SOL    HW222155   0.882   1.173  12.934 -0.3684  0.0742  0.3899
 3566SOL     OW22156   3.529   0.852  11.806  0.0446 -0.1981 -0.0766
 3566SOL    HW122157   3.494   0.785  11.748 -0.0065  0.3040 -0.6322
 3566SOL    HW222158   3.520   0.801  11.886  1.4707 -0.8141 -0.3135
 3567SOL     OW22159   2.029   3.540  11.566  0.1772  0.3311 -0.1691
 3567SOL    HW122160   2.032   3.550  11.661  1.0311 -1.2293 -0.0383
 3567SOL    HW222161   1.972   3.610  11.534  0.2344  0.8242  0.8012
 3568SOL     OW22162   3.796   1.374   7.751  0.6003 -0.5550  0.0615
 3568SOL    HW122163   3.866   1.366   7.815  1.6768 -1.7934 -1.2742
 3568SOL    HW222164   3.778   1.283   7.727 -1.2744 -0.0361 -0.5470
 3569SOL     OW22165   4.207   3.445   8.286 -0.4837  0.1356  0.0122
 3569SOL    HW122166   4.269   3.394   8.339  1.0628  2.4540  0.4276
 3569SOL    HW222167   4.219   3.532   8.324 -1.3142  1.1734 -2.1340
 3570SOL     OW22168   3.512   0.634   2.312  0.0070 -0.4842 -0.0715
 3570SOL    HW122169   3.421   0.642   2.284 -0.5370 -0.4125  1.7286
 3570SOL    HW222170   3.504   0.558   2.369 -2.1524 -0.4399 -0.2984
 3571SOL     OW22171   1.620   3.532   8.241 -0.9055 -0.3587  0.3632
 3571SOL    HW122172   1.658   3.552   8.155 -1.0717  0.1299  0.4060
 3571SOL    HW222173   1.684   3.557   8.307 -0.9505 -0.8830  0.6040
 3572SOL     OW22174   0.748   1.438   2.047 -0.1351 -0.1745 -0.0230
 3572SOL    HW122175   0.658   1.449   2.017 -0.5478  1.8640  1.9904
 3572SOL    HW222176   0.744   1.503   2.117 -3.1319 -0.0630 -0.2961
 3573SOL     OW22177   2.927   2.886  15.276 -0.6196 -0.0193  0.2365
 3573SOL    HW122178   3.015   2.925  15.271 -0.7081 -0.1340 -2.1387
 3573SOL    HW222179   2.948   2.797  15.249 -1.7923  0.0603 -0.9353
 3574SOL     OW22180   2.811   3.413   9.143 -0.0089  0.5954  0.2057
 3574SOL    HW122181   2.793   3.505   9.125 -1.8016  0.0425 -0.8832
 3574SOL    HW222182   2.885   3.422   9.203  0.8094 -1.6406 -0.4715
 3575SOL     OW22183   3.144   2.626   4.097  0.2945 -0.5005  0.3281
 3575SOL    HW122184   3.205   2.659   4.032  0.7677 -3.9469 -0.9500
 3575SOL    HW222185   3.171   2.535   4.097 -0.2354 -0.6435 -2.2562
 3576SOL     OW22186   0.001   0.110   4.753  0.5964 -0.1184  0.1673
 3576SOL    HW122187   0.093   0.134   4.745  0.1964  1.0216 -1.1663
 3576SOL    HW222188   4.674   0.166   4.691  0.4362 -1.9916 -1.4091
 3577SOL     OW22189   0.360   1.449  16.319  0.7276  0.4376 -0.6357
 3577SOL    HW122190   0.434   1.389  16.324 -0.6075 -1.1658 -0.2057
 3577SOL    HW222191   0.291   1.410  16.372  1.2184 -1.1010 -1.1289
 3578SOL     OW22192   3.869   1.005   6.006 -0.1298 -0.4122  0.3560
 3578SOL    HW122193   3.935   0.942   5.977  2.2310  0.8235  3.1531
 3578SOL    HW222194   3.808   0.949   6.055 -0.3966 -1.0096 -0.6492
 3579SOL     OW22195   2.482   0.827   8.067 -0.0706  0.0262 -0.2616
 3579SOL    HW122196   2.481   0.768   7.992  0.6786 -1.0393  0.5646
 3579SOL    HW222197   2.569   0.803   8.099 -0.7226  0.4261  1.8025
 3580SOL     OW22198   4.099   2.835   2.435 -0.0936  0.2349  0.6207
 3580SOL    HW122199   4.135   2.922   2.418  0.1007  0.2654  1.2186
 3580SOL    HW222200   4.139   2.789   2.361  0.6914  0.8263  0.6799
 3581SOL     OW22201   1.006   2.041   6.086  0.1307  0.4226  0.0643
 3581SOL    HW122202   1.058   2.059   6.008  0.1841 -0.0829 -0.0192
 3581SOL    HW222203   1.073   2.003   6.142  2.3072 -1.9619 -4.1308
 3582SOL     OW22204   4.536   0.492   1.415 -0.3015 -0.6409 -0.9445
 3582SOL    HW122205   4.504   0.581   1.429 -2.0409 -1.0278 -2.4942
 3582SOL    HW222206   4.509   0.479   1.324 -2.0089 -1.0522 -0.3732
 3583SOL     OW22207   0.698   4.011   7.325 -0.2208 -0.4456  0.1084
 3583SOL    HW122208   0.762   4.077   7.299  0.4130 -0.7898  0.8084
 3583SOL    HW222209   0.732   3.997   7.413 -2.5427 -1.0490  0.9083
 3584SOL     OW22210   0.607   0.957   1.071  0.0206  0.5412  0.1323
 3584SOL    HW122211   0.634   1.018   1.002  4.3792 -1.5113 -0.0119
 3584SOL    HW222212   0.683   0.968   1.129  1.1590 -3.2371 -0.6239
 3585SOL     OW22213   2.693   0.374   3.228  0.7342  1.0833 -0.1647
 3585SOL    HW122214   2.614   0.400   3.275  1.0236  0.3059  0.7370
 3585SOL    HW222215   2.658   0.380   3.139  0.9768 -0.5943 -0.3817
 3586SOL     OW22216   3.962   0.394  12.742  0.5308 -0.1135 -0.3346
 3586SOL    HW122217   3.909   0.474  12.746 -2.3926 -2.0127 -1.1267
 3586SOL    HW222218   3.924   0.353  12.819 -1.3180  1.1260 -0.5815
 3587SOL     OW22219   3.282   4.197  11.449  0.1164  0.2078  0.5093
 3587SOL    HW122220   3.333   4.236  11.378  1.9314 -1.7590  0.7425
 3587SOL    HW222221   3.210   4.258  11.433 -0.0716 -0.7693 -2.3805
 3588SOL     OW22222   0.079   2.029  16.867  0.2390  0.1968 -0.0912
 3588SOL    HW122223   0.074   2.018  16.772 -0.4288 -1.0086  0.0768
 3588SOL    HW222224   4.713   2.063  16.893  0.3845  0.9821 -0.6661
 3589SOL     OW22225   0.180   1.231   0.528  0.2659  0.5086 -0.5810
 3589SOL    HW122226   0.111   1.298   0.525  0.1576  0.4280  0.1180
 3589SOL    HW222227   0.215   1.243   0.440  1.2714 -0.9554 -0.3837
 3590SOL     OW22228   3.576   4.360   8.831 -0.2528  0.1156  0.1956
 3590SOL    HW122229   3.501   4.323   8.878 -0.5130  0.3737 -0.0142
 3590SOL    HW222230   3.548   4.352   8.739  0.1765  0.0742  0.0706
 3591SOL     OW22231   0.001   1.780   4.916  0.3329  0.2807 -0.3339
 3591SOL    HW122232   4.627   1.794   4.930 -0.0831  0.6753 -3.5724
 3591SOL    HW222233   0.040   1.844   4.976 -0.2859  1.3342 -1.0730
 3592SOL     OW22234   1.989   1.521   4.970  0.3123  0.0875 -0.1048
 3592SOL    HW122235   1.948   1.605   4.947 -2.6105 -1.0037  1.0792
 3592SOL    HW222236   1.939   1.493   5.047  0.2664  0.7418  0.1110
 3593SOL     OW22237   2.868   3.925   9.581  0.7587  0.3250  0.0355
 3593SOL    HW122238   2.879   3.991   9.650  0.3919 -1.7647  2.1026
 3593SOL    HW222239   2.834   3.977   9.508 -3.5033 -2.7300 -0.1782
 3594SOL     OW22240   0.264   0.061   2.871  1.2990 -0.1745 -0.1410
 3594SOL    HW122241   0.269   0.078   2.966 -2.0011  1.4566 -0.2520
 3594SOL    HW222242   0.292   4.689   2.863  0.6919 -0.2305 -1.5804
 3595SOL     OW22243   0.959   4.704   8.445  0.3520  0.0155  0.1117
 3595SOL    HW122244   1.016   4.670   8.515  1.6052 -2.1439 -1.9769
 3595SOL    HW222245   0.882   0.021   8.488 -0.5774 -3.1170  1.0196
 3596SOL     OW22246   3.606   0.141   3.530  0.1785 -0.1757 -0.0311
 3596SOL    HW122247   3.515   0.150   3.556  0.4273  1.7184  0.1971
 3596SOL    HW222248   3.591   0.091   3.450 -0.7511 -0.7353  0.4912
 3597SOL     OW22249   2.447   3.218   6.218 -0.1338 -0.2651 -0.0170
 3597SOL    HW122250   2.511   3.159   6.259  0.5012  1.0656  0.8799
 3597SOL    HW222251   2.484   3.236   6.131 -1.2176 -1.6869 -0.7833
 3598SOL     OW22252   4.535   0.395   5.595 -0.0001 -0.0614  0.1562
 3598SOL    HW122253   4.483   0.318   5.572  0.1093 -0.0352 -0.1877
 3598SOL    HW222254   4.621   0.353   5.598 -0.0641 -0.2537 -0.6035
 3599SOL     OW22255   0.210   3.292   5.486 -0.5640  0.1148 -0.4399
 3599SOL    HW122256   0.198   3.202   5.457 -1.8378 -0.5671  2.2332
 3599SOL    HW222257   0.281   3.318   5.426 -1.6434 -0.2821 -1.8908
 3600SOL     OW22258   0.395   3.256   5.939  0.3731 -0.1474 -0.2870
 3600SOL    HW122259   0.323   3.269   6.000  1.1901 -2.3544  1.1594
 3600SOL    HW222260   0.350   3.188   5.889  0.1936  0.4284 -0.9094
 3601SOL     OW22261   0.883   1.213   1.724  0.7161  0.6201 -0.3587
 3601SOL    HW122262   0.892   1.217   1.820 -0.2733 -0.8040 -0.2100
 3601SOL    HW222263   0.794   1.245   1.707  0.1358 -1.9464 -2.0917
 3602SOL     OW22264   2.202   3.510  12.817  0.8143 -0.6446  0.5354
 3602SOL    HW122265   2.258   3.584  12.839  0.7282 -0.9631  1.8281
 3602SOL    HW222266   2.139   3.543  12.753  0.8941 -1.4797  0.0184
 3603SOL     OW22267   3.032   0.067   3.118 -0.5417 -0.4323 -0.1774
 3603SOL    HW122268   2.979   0.106   3.187 -1.1762  2.4447 -2.2935
 3603SOL    HW222269   3.030   0.123   3.040  3.5360  0.6788  0.4905
 3604SOL     OW22270   2.589   4.057   3.404 -0.0140  0.2534 -0.1736
 3604SOL    HW122271   2.536   4.051   3.324 -1.0841  0.1030  0.5492
 3604SOL    HW222272   2.672   4.047   3.356  1.6148 -0.0381  2.7483
 3605SOL     OW22273   2.613   1.905   9.429  0.1212 -0.0568  0.1653
 3605SOL    HW122274   2.636   1.893   9.521  2.2499 -1.1163 -0.5219
 3605SOL    HW222275   2.530   1.859   9.443 -0.8495  0.9699 -2.2569
 3606SOL     OW22276   0.565   3.864   5.837  0.5387 -0.1356  0.1894
 3606SOL    HW122277   0.485   3.864   5.890  0.8776  2.1183  0.7060
 3606SOL    HW222278   0.592   3.952   5.864 -0.6587  0.4511 -0.5290
 3607SOL     OW22279   1.512   2.771   9.928 -0.0361  0.3868  0.4308
 3607SOL    HW122280   1.458   2.849   9.918  0.7504  0.9010  0.1978
 3607SOL    HW222281   1.442   2.706   9.926  1.2184 -0.9342 -2.0259
 3608SOL     OW22282   2.091   4.408   5.075 -0.0234  0.2013 -0.4450
 3608SOL    HW122283   2.052   4.468   5.012  0.7529 -0.3955 -1.4946
 3608SOL    HW222284   2.109   4.332   5.020 -0.7578 -2.3167  2.8537
 3609SOL     OW22285   2.856   4.596  12.539  0.1463 -0.6257 -0.7004
 3609SOL    HW122286   2.788   4.619  12.475 -0.6176 -3.2108 -0.8358
 3609SOL    HW222287   2.842   4.501  12.549  0.7010 -0.5581  0.7182
 3610SOL     OW22288   0.705   2.640  11.615 -0.1861 -0.4243  0.9593
 3610SOL    HW122289   0.749   2.725  11.622  3.6629 -2.5597  2.3106
 3610SOL    HW222290   0.685   2.620  11.706 -3.2800  1.8754  0.8074
 3611SOL     OW22291   2.334   1.833   2.794 -0.6885  0.0129 -0.0359
 3611SOL    HW122292   2.264   1.869   2.739  1.6031  2.5891 -1.3084
 3611SOL    HW222293   2.380   1.772   2.738  1.1683  1.4996 -0.1229
 3612SOL     OW22294   1.741   0.962   1.213 -0.4167 -0.3806  0.2920
 3612SOL    HW122295   1.816   1.008   1.250  0.3439 -2.4696  1.2903
 3612SOL    HW222296   1.775   0.946   1.125 -1.5835 -0.6233 -0.1173
 3613SOL     OW22297   1.534   4.210   6.366 -0.1203  0.3280 -0.2033
 3613SOL    HW122298   1.488   4.252   6.438  1.5467 -0.5440  1.3450
 3613SOL    HW222299   1.571   4.289   6.326 -0.5349  1.3965  1.5496
 3614SOL     OW22300   3.904   1.484   7.498  0.3619  0.3288 -0.1787
 3614SOL    HW122301   3.991   1.519   7.515 -0.3207  1.0768  1.7967
 3614SOL    HW222302   3.878   1.448   7.583  0.8893  2.5865  0.9397
 3615SOL     OW22303   1.671   1.350   1.088 -0.1402 -0.0540  0.1274
 3615SOL    HW122304   1.760   1.357   1.055 -0.4525 -1.2832 -1.0012
 3615SOL    HW222305   1.623   1.364   1.006 -0.7777  0.9872  0.6815
 3616SOL     OW22306   0.664   3.284   7.699  0.1533  0.3518  0.0781
 3616SOL    HW122307   0.747   3.247   7.671 -1.7056 -3.1194 -0.7713
 3616SOL    HW222308   0.684   3.375   7.722 -2.2578  0.7728  0.5580
 3617SOL     OW22309   4.472   0.983  17.623  0.5440 -0.2324  0.1684
 3617SOL    HW122310   4.493   1.053  17.561 -0.9247  1.8584  2.0391
 3617SOL    HW222311   4.484   0.906  17.568  1.9804  0.8472 -1.0322
 3618SOL     OW22312   3.201   4.379   7.528  0.4002  0.6449  0.0468
 3618SOL    HW122313   3.281   4.367   7.579 -1.0489 -0.6046  2.0449
 3618SOL    HW222314   3.176   4.467   7.559  1.9036  1.3526 -0.7362
 3619SOL     OW22315   3.783   0.608   3.177  0.2815 -0.3329  0.3354
 3619SOL    HW122316   3.827   0.540   3.228  0.7890 -0.8372 -0.7754
 3619SOL    HW222317   3.708   0.560   3.140 -0.9156  0.8764  1.2046
 3620SOL     OW22318   2.310   4.440   3.114 -0.0770  0.3974 -0.4039
 3620SOL    HW122319   2.373   4.368   3.117 -0.9662 -0.4534 -2.2936
 3620SOL    HW222320   2.250   4.404   3.050  2.9695 -1.7729 -2.0536
 3621SOL     OW22321   2.376   2.689  11.148  0.4191  0.5262 -0.2783
 3621SOL    HW122322   2.465   2.683  11.184  0.3356 -2.4344 -0.5211
 3621SOL    HW222323   2.347   2.598  11.151 -0.4974  0.8949  1.4699
 3622SOL     OW22324   1.425   2.497   4.650  0.3170 -0.0433 -0.0355
 3622SOL    HW122325   1.379   2.573   4.686 -0.3192 -1.2081  1.5919
 3622SOL    HW222326   1.352   2.467   4.595  0.0649 -0.3683  0.4804
 3623SOL     OW22327   0.117   1.122  14.934 -0.2198 -0.5323  0.1633
 3623SOL    HW122328   0.030   1.089  14.913 -0.0776  0.2871 -1.7328
 3623SOL    HW222329   0.091   1.214  14.940 -1.7406 -0.9250 -0.4693
 3624SOL     OW22330   2.657   4.173   9.591  0.1753  0.7903 -0.3280
 3624SOL    HW122331   2.587   4.116   9.558  0.7694  0.5324 -1.1387
 3624SOL    HW222332   2.664   4.149   9.683  0.4489  0.7063 -0.3698
 3625SOL     OW22333   1.080   0.880   2.720 -0.4455 -0.0362 -0.1482
 3625SOL    HW122334   1.006   0.940   2.729  0.0203  1.0689 -3.6392
 3625SOL    HW222335   1.101   0.901   2.629  0.1761 -2.4666 -0.5557
 3626SOL     OW22336   3.252   0.720   4.605 -0.6927  0.0607  0.1503
 3626SOL    HW122337   3.252   0.658   4.531  2.6641  0.3994 -0.1545
 3626SOL    HW222338   3.283   0.800   4.562  1.5981 -1.9366 -1.9234
 3627SOL     OW22339   1.900   0.012  10.892  0.2995  0.4813  0.1584
 3627SOL    HW122340   1.820   0.002  10.944 -0.6392  1.1070 -1.1395
 3627SOL    HW222341   1.962   4.685  10.948 -2.3642 -0.4513  2.3367
 3628SOL     OW22342   0.042   3.509   8.598  0.4417 -0.3261  0.1276
 3628SOL    HW122343   0.072   3.516   8.689  0.8319  0.1206 -0.0357
 3628SOL    HW222344   4.669   3.531   8.608  0.1736 -1.5673  0.4605
 3629SOL     OW22345   0.629   1.320   2.695  0.4911  0.1306  0.2204
 3629SOL    HW122346   0.534   1.314   2.691  0.4109  1.2112  0.4884
 3629SOL    HW222347   0.642   1.412   2.715 -2.9149  0.9795 -1.5344
 3630SOL     OW22348   2.385   2.532   1.888  0.1872 -0.0483  0.0681
 3630SOL    HW122349   2.420   2.585   1.959 -0.8709  1.0573 -0.2203
 3630SOL    HW222350   2.455   2.522   1.824 -1.3507 -0.5544 -1.5676
 3631SOL     OW22351   1.614   3.935   4.295  0.3466  0.9119  0.7050
 3631SOL    HW122352   1.572   3.939   4.381  1.4179 -0.5009  1.2870
 3631SOL    HW222353   1.685   3.880   4.328 -0.0453  0.3959  0.6942
 3632SOL     OW22354   0.333   0.045   4.869 -0.1781  0.0654  0.3074
 3632SOL    HW122355   0.425   0.037   4.895  0.4290  3.8228 -0.6497
 3632SOL    HW222356   0.295   0.114   4.925 -0.4550 -1.6145  2.1768
 3633SOL     OW22357   0.918   3.848   7.763  0.2266 -0.4554  0.1868
 3633SOL    HW122358   0.992   3.890   7.719  1.2019 -1.3051  1.0066
 3633SOL    HW222359   0.866   3.807   7.694  0.0070  1.6226 -0.8592
 3634SOL     OW22360   2.486   0.503  10.864 -0.2036 -0.5619  0.5261
 3634SOL    HW122361   2.395   0.519  10.838 -0.2118 -3.4877 -1.2831
 3634SOL    HW222362   2.543   0.538  10.796 -0.3675 -1.4459 -0.0647
 3635SOL     OW22363   2.611   2.416  14.102 -0.6238  0.1156  0.4899
 3635SOL    HW122364   2.695   2.369  14.107 -0.8545 -0.1698  1.8741
 3635SOL    HW222365   2.551   2.370  14.162 -1.0256 -1.2622 -0.9619
 3636SOL     OW22366   4.516   0.882   7.609  0.5229  0.6244  0.4708
 3636SOL    HW122367   4.528   0.937   7.531  0.5551  1.5392  1.1188
 3636SOL    HW222368   4.588   0.903   7.669 -0.0851 -0.2466  1.5121
 3637SOL     OW22369   3.913   3.979  11.101 -0.6606  0.3246  0.3160
 3637SOL    HW122370   3.834   4.020  11.064 -0.6279  0.7286  0.7006
 3637SOL    HW222371   3.882   3.942  11.184  0.0778  1.4054  1.0608
 3638SOL     OW22372   3.112   1.387   9.355  0.5273 -0.1445  0.1286
 3638SOL    HW122373   3.052   1.437   9.300  1.8347  1.1123 -0.1422
 3638SOL    HW222374   3.072   1.404   9.440  0.0216 -2.3149  0.3361
 3639SOL     OW22375   3.598   1.262   8.271 -0.5451  0.4254 -0.3513
 3639SOL    HW122376   3.688   1.293   8.255 -0.0200  0.6911  3.1027
 3639SOL    HW222377   3.544   1.303   8.203  1.3566 -0.3158 -2.3267
 3640SOL     OW22378   2.598   4.366  13.877  0.0763  0.0941  0.3806
 3640SOL    HW122379   2.618   4.309  13.951 -1.5102 -1.3213 -0.2773
 3640SOL    HW222380   2.510   4.401  13.892 -0.7847 -1.6850 -0.6356
 3641SOL     OW22381   3.697   1.706   6.955 -0.0987  0.6004 -0.3365
 3641SOL    HW122382   3.733   1.779   7.005  0.4609  0.0727  0.0268
 3641SOL    HW222383   3.603   1.724   6.967 -0.1879 -0.1237  0.1219
 3642SOL     OW22384   3.631   0.081   5.338 -0.1705 -0.6666  0.1784
 3642SOL    HW122385   3.679   0.061   5.257  1.5117 -0.8058  1.1990
 3642SOL    HW222386   3.632   4.715   5.382  0.8519 -1.6902 -1.8463
 3643SOL     OW22387   0.958   1.038   7.729 -0.3446  0.0968 -0.6299
 3643SOL    HW122388   1.044   1.041   7.685 -0.5527 -1.2173 -1.1331
 3643SOL    HW222389   0.906   1.002   7.657 -0.9870  1.4298 -0.8337
 3644SOL     OW22390   3.033   1.239   7.798 -0.2308  0.2218 -0.8463
 3644SOL    HW122391   3.041   1.148   7.829 -1.2831 -0.0156 -1.2523
 3644SOL    HW222392   3.088   1.251   7.721  1.0603 -0.0509  0.0339
 3645SOL     OW22393   1.767   4.546  11.527 -0.0616  0.4294 -1.0029
 3645SOL    HW122394   1.702   4.548  11.596 -0.3371  1.5406 -1.3020
 3645SOL    HW222395   1.715   4.536  11.447  0.0090 -0.5367 -0.9328
 3646SOL     OW22396   4.523   2.652   6.381  0.6622 -0.4834 -0.8002
 3646SOL    HW122397   4.453   2.588   6.373 -1.0774  1.7157 -3.1497
 3646SOL    HW222398   4.598   2.596   6.360 -0.8615 -3.3868  1.5914
 3647SOL     OW22399   0.340   4.585   3.347  0.1830  0.3342  0.0374
 3647SOL    HW122400   0.371   4.624   3.429  0.0888 -0.9029  0.6567
 3647SOL    HW222401   0.266   4.532   3.376  0.1915 -0.1262 -0.7743
 3648SOL     OW22402   0.393   2.528  16.321 -0.9633  0.8150 -0.1750
 3648SOL    HW122403   0.402   2.530  16.416 -0.8034 -0.7920 -0.1533
 3648SOL    HW222404   0.305   2.554  16.296 -0.9588  0.7378 -0.2708
 3649SOL     OW22405   3.127   0.719   8.014  0.2658  0.7531  0.1849
 3649SOL    HW122406   3.110   0.631   7.978  0.0842  0.1773  1.6634
 3649SOL    HW222407   3.196   0.709   8.079  0.5563  1.8725  0.0446
 3650SOL     OW22408   4.522   0.779   0.576  0.4145  0.2005  0.6599
 3650SOL    HW122409   4.542   0.860   0.623 -0.0024 -0.0109  1.1954
 3650SOL    HW222410   4.578   0.717   0.622  2.6031  1.7929  0.1553
 3651SOL     OW22411   2.445   2.333   7.465  0.3249  0.1972 -0.2542
 3651SOL    HW122412   2.414   2.337   7.375  1.8499  1.2469 -0.7238
 3651SOL    HW222413   2.398   2.410   7.498  0.9327 -0.0947  1.3116
 3652SOL     OW22414   3.331   4.175   6.672 -0.2410 -0.6760  0.2054
 3652SOL    HW122415   3.416   4.135   6.657 -0.5203  0.0701 -3.1870
 3652SOL    HW222416   3.312   4.159   6.765  1.6334 -1.0396  0.5217
 3653SOL     OW22417   4.550   2.828   4.640  0.3225  0.3379 -0.0581
 3653SOL    HW122418   4.469   2.877   4.654  1.6701  1.3781  4.0994
 3653SOL    HW222419   4.533   2.744   4.682  0.1570 -0.2945 -1.4010
 3654SOL     OW22420   0.916   1.569  11.586  0.2216 -0.5409 -0.3382
 3654SOL    HW122421   0.946   1.487  11.627  0.4679 -0.7246 -0.8854
 3654SOL    HW222422   0.994   1.591  11.535  0.4437 -2.2362 -0.7407
 3655SOL     OW22423   4.029   2.017   3.875 -0.0773 -0.1893 -0.2657
 3655SOL    HW122424   3.980   1.947   3.918 -0.6478  0.1323 -0.3881
 3655SOL    HW222425   4.017   2.000   3.781  0.5696  1.0693 -0.5755
 3656SOL     OW22426   1.690   1.031  16.756 -0.4823 -0.2500 -0.0903
 3656SOL    HW122427   1.603   1.018  16.796 -0.6702  1.4648  0.0485
 3656SOL    HW222428   1.740   1.074  16.825 -0.1582 -0.4719 -0.1855
 3657SOL     OW22429   0.124   3.236  16.266 -0.3553 -0.0062  0.7760
 3657SOL    HW122430   0.130   3.308  16.203  0.4780 -1.2184 -0.5426
 3657SOL    HW222431   0.048   3.203  16.218 -0.0452  1.2462 -0.5839
 3658SOL     OW22432   4.619   3.317   5.424  0.2944  0.6022  0.1279
 3658SOL    HW122433   4.589   3.226   5.425 -2.9446  1.7046  1.4769
 3658SOL    HW222434   4.695   3.306   5.367 -0.0519 -1.2232 -0.0042
 3659SOL     OW22435   2.200   4.108   7.275 -0.0026  0.2685  0.0184
 3659SOL    HW122436   2.172   4.190   7.315 -1.9182 -0.5161  0.3102
 3659SOL    HW222437   2.174   4.046   7.344 -1.9981  1.3812  0.2875
 3660SOL     OW22438   2.153   3.567   7.000  0.3772  0.1872 -0.4470
 3660SOL    HW122439   2.137   3.623   7.076 -0.5077  0.6508 -0.9776
 3660SOL    HW222440   2.248   3.557   7.001  0.7591  3.7868 -0.9744
 3661SOL     OW22441   0.051   3.307   7.534  1.0480 -0.1389 -0.4140
 3661SOL    HW122442   4.706   3.354   7.587  1.6470  0.9502 -0.6400
 3661SOL    HW222443   0.062   3.224   7.580  1.2743  0.8655  1.3626
 3662SOL     OW22444   1.592   4.656   8.026 -0.7722 -0.3742 -0.3800
 3662SOL    HW122445   1.529   4.670   8.097 -0.3597  1.8322 -0.4636
 3662SOL    HW222446   1.667   4.622   8.073  0.1722  0.2849 -1.4079
 3663SOL     OW22447   4.137   1.237   4.331  0.0251 -0.4251 -0.0807
 3663SOL    HW122448   4.108   1.213   4.419 -2.2611 -1.4657 -1.1110
 3663SOL    HW222449   4.183   1.157   4.304 -0.3058 -0.9048  0.7634
 3664SOL     OW22450   3.317   2.494  10.559 -0.3230  0.2544  0.6044
 3664SOL    HW122451   3.386   2.496  10.626 -0.3702 -0.1360  0.6606
 3664SOL    HW222452   3.242   2.509  10.616 -0.6093 -0.5144  0.4212
 3665SOL     OW22453   1.796   3.994  12.793  0.2857  0.6098  0.0544
 3665SOL    HW122454   1.795   4.008  12.887  0.9540 -0.2466  0.1889
 3665SOL    HW222455   1.871   4.048  12.766  1.2469 -0.7868 -0.0621
 3666SOL     OW22456   0.325   2.136   4.164 -0.5971 -0.1428  0.8216
 3666SOL    HW122457   0.344   2.129   4.257  1.3883 -2.1032  0.2808
 3666SOL    HW222458   0.299   2.044   4.156 -0.4804 -0.0486 -0.7017
 3667SOL     OW22459   1.817   1.347  17.139 -0.3484  0.3847 -0.3463
 3667SOL    HW122460   1.900   1.383  17.169 -0.6649  1.0275 -0.2339
 3667SOL    HW222461   1.769   1.332  17.221 -1.3338  1.3671 -0.7384
 3668SOL     OW22462   3.157   1.354  16.530 -0.8591 -0.3156 -0.3327
 3668SOL    HW122463   3.123   1.273  16.491  0.3420 -0.2698 -1.4641
 3668SOL    HW222464   3.249   1.344  16.504 -0.9375  1.8430 -1.4080
 3669SOL     OW22465   0.556   3.118   6.368 -0.3185  0.2694 -0.4766
 3669SOL    HW122466   0.578   3.144   6.457  0.3687  2.7044 -1.3514
 3669SOL    HW222467   0.552   3.200   6.320  1.2054  1.1960  0.9769
 3670SOL     OW22468   3.047   3.407   7.862  0.4346  0.2162  0.4669
 3670SOL    HW122469   2.970   3.408   7.919  0.3863 -0.5695  0.4123
 3670SOL    HW222470   3.038   3.496   7.829  1.6472  0.6955  1.4362
 3671SOL     OW22471   2.782   0.118   5.443  0.2115  0.1211 -0.1406
 3671SOL    HW122472   2.808   0.039   5.395 -2.2667 -0.6969 -0.1074
 3671SOL    HW222473   2.847   0.119   5.513  2.1973  0.4047 -1.9839
 3672SOL     OW22474   2.226   4.241  13.387  0.0381 -0.0534  0.2864
 3672SOL    HW122475   2.231   4.175  13.456 -2.8428 -1.5679 -0.9823
 3672SOL    HW222476   2.284   4.197  13.324 -0.0516 -2.0677  1.6096
 3673SOL     OW22477   1.989   4.680   3.113 -0.2104  0.1084 -0.1726
 3673SOL    HW122478   1.928   0.031   3.091  0.5365  1.5796  2.3929
 3673SOL    HW222479   1.930   4.608   3.093 -0.8858  0.3348  0.9952
 3674SOL     OW22480   3.006   0.789   7.100  0.2641 -0.1033  0.9026
 3674SOL    HW122481   3.038   0.713   7.052 -0.9863 -0.5824  0.8245
 3674SOL    HW222482   2.972   0.846   7.030 -0.3274  0.6309  1.7956
 3675SOL     OW22483   3.527   4.311   8.567  0.2959 -0.0663  0.5229
 3675SOL    HW122484   3.482   4.236   8.527  2.0721 -2.6940  3.4998
 3675SOL    HW222485   3.615   4.298   8.530 -0.5976 -1.6694 -1.0634
 3676SOL     OW22486   1.532   1.371   5.270  0.0563  0.2110  0.2116
 3676SOL    HW122487   1.508   1.287   5.309 -1.2106  1.5024  2.2203
 3676SOL    HW222488   1.460   1.425   5.300 -0.0447 -0.6999  1.6042
 3677SOL     OW22489   0.879   1.916   0.043 -0.1511 -0.4041  0.6189
 3677SOL    HW122490   0.964   1.897   0.002 -0.0136  0.6354  0.4183
 3677SOL    HW222491   0.827   1.841   0.013 -1.6167  1.5785 -1.7328
 3678SOL     OW22492   4.439   3.627   9.737 -0.2678  0.0137  0.1674
 3678SOL    HW122493   4.398   3.631   9.823 -1.2850 -2.3554 -0.2132
 3678SOL    HW222494   4.528   3.651   9.762  0.3599 -1.3188 -0.7819
 3679SOL     OW22495   2.069   1.001   8.773  0.3334 -0.8121 -0.7161
 3679SOL    HW122496   2.151   1.050   8.780  0.6301 -1.3767 -0.2711
 3679SOL    HW222497   2.105   0.912   8.776  3.0287  0.3008 -0.2505
 3680SOL     OW22498   0.867   0.574   6.781  0.2416 -0.2747  0.2018
 3680SOL    HW122499   0.808   0.532   6.717 -0.5547  0.0637  0.7104
 3680SOL    HW222500   0.874   0.655   6.731 -1.0059  0.1886  0.7755
 3681SOL     OW22501   3.406   2.434   1.861  0.3830 -0.4256  0.5102
 3681SOL    HW122502   3.492   2.466   1.887  0.5444  0.6440 -1.3922
 3681SOL    HW222503   3.423   2.413   1.770 -0.2302  3.7898 -0.5548
 3682SOL     OW22504   1.474   4.335   4.267  0.5282  0.1430  0.5180
 3682SOL    HW122505   1.470   4.405   4.202 -0.2671 -0.9036 -0.5689
 3682SOL    HW222506   1.382   4.336   4.292 -0.1549  0.5713 -2.0356
 3683SOL     OW22507   2.606   2.160  10.516  0.2555 -0.0082  0.2692
 3683SOL    HW122508   2.698   2.186  10.504  0.8069 -0.5604  3.1695
 3683SOL    HW222509   2.627   2.079  10.563  0.6867 -0.0507  0.0114
 3684SOL     OW22510   3.935   2.834  17.472 -0.0943 -0.1901 -0.2924
 3684SOL    HW122511   3.892   2.758  17.511  0.8008  0.1321  1.3261
 3684SOL    HW222512   4.027   2.818  17.491  0.8588  2.8600 -2.2831
 3685SOL     OW22513   3.990   1.004   2.634  0.1017  0.1654 -0.3337
 3685SOL    HW122514   4.060   0.942   2.613  0.7697  0.9061 -0.3045
 3685SOL    HW222515   4.006   1.078   2.574  3.6150 -1.3245 -1.1957
 3686SOL     OW22516   1.484   0.274   1.041 -0.1383 -0.2300  0.0018
 3686SOL    HW122517   1.562   0.326   1.061 -0.1583  0.0564 -0.6577
 3686SOL    HW222518   1.512   0.204   0.982  2.1111  2.0037 -1.5757
 3687SOL     OW22519   0.241   1.833   1.340 -0.2158 -0.0653 -0.4310
 3687SOL    HW122520   0.292   1.801   1.415 -0.5132  1.1470  0.2931
 3687SOL    HW222521   0.306   1.829   1.270  0.0532 -3.1773 -0.0313
 3688SOL     OW22522   0.913   3.474  12.178  0.5840  0.0594 -0.2495
 3688SOL    HW122523   0.863   3.408  12.227  1.0996 -1.9454 -2.4639
 3688SOL    HW222524   0.867   3.552  12.209  2.5068  0.3783  1.7919
 3689SOL     OW22525   0.292   1.505  10.090 -0.4000  0.5346  0.5739
 3689SOL    HW122526   0.384   1.525  10.104 -0.0467 -0.8518  0.2315
 3689SOL    HW222527   0.257   1.516  10.179  1.1440 -2.2903  1.5188
 3690SOL     OW22528   1.212   1.443  13.337  0.4919  0.6960 -0.1215
 3690SOL    HW122529   1.131   1.464  13.384  0.1171 -2.1975  0.5541
 3690SOL    HW222530   1.188   1.459  13.246  0.7920 -3.5374 -0.9622
 3691SOL     OW22531   3.666   1.467   6.593  0.1909 -0.3539 -0.1754
 3691SOL    HW122532   3.661   1.402   6.663  0.1188 -1.4382 -1.1976
 3691SOL    HW222533   3.696   1.543   6.643  0.1878  0.0573 -0.8040
 3692SOL     OW22534   1.847   1.874   0.311 -0.5571  0.0074 -0.0183
 3692SOL    HW122535   1.804   1.791   0.287 -0.3842  0.3317 -1.4791
 3692SOL    HW222536   1.830   1.929   0.234 -0.4459 -1.7463 -1.3148
 3693SOL     OW22537   2.681   3.504  14.978 -0.5123 -0.5044 -0.1134
 3693SOL    HW122538   2.646   3.462  14.899  0.0275  0.1662 -0.7096
 3693SOL    HW222539   2.612   3.484  15.040  1.2869 -0.4019  1.9232
 3694SOL     OW22540   4.715   4.601   7.787  0.0855  0.3479 -0.1292
 3694SOL    HW122541   0.030   4.535   7.727  1.0433 -0.2111  1.0249
 3694SOL    HW222542   4.643   4.559   7.835  2.0416 -1.3132  1.3466
 3695SOL     OW22543   3.981   4.577  11.320  0.5561 -0.2379  0.0015
 3695SOL    HW122544   3.939   4.548  11.401  1.3075 -1.8878 -0.1936
 3695SOL    HW222545   4.045   4.508  11.300 -0.5584 -1.3610  0.2975
 3696SOL     OW22546   0.161   0.654   6.923 -0.0416  0.2428 -0.1097
 3696SOL    HW122547   0.237   0.649   6.866 -0.2855  1.6189 -0.5682
 3696SOL    HW222548   0.089   0.642   6.860  1.8035 -1.6532 -1.8349
 3697SOL     OW22549   1.558   1.642   8.897 -0.5953 -0.1995  0.7692
 3697SOL    HW122550   1.491   1.674   8.837 -1.6093  0.3745  2.2093
 3697SOL    HW222551   1.557   1.551   8.867  2.7262  0.8450 -2.5374
 3698SOL     OW22552   1.432   2.784   8.266 -0.0023 -0.3571 -0.8369
 3698SOL    HW122553   1.426   2.844   8.192 -0.7619 -0.0010 -0.4896
 3698SOL    HW222554   1.489   2.717   8.229 -2.0409 -1.9606 -1.1020
 3699SOL     OW22555   4.177   3.710   3.205  0.6112 -0.6207 -0.1900
 3699SOL    HW122556   4.110   3.667   3.258  0.2513  1.8192  1.3294
 3699SOL    HW222557   4.247   3.747   3.259 -0.7702 -0.3960  1.4548
 3700SOL     OW22558   3.787   3.051  17.377 -0.1038 -0.0311  0.2811
 3700SOL    HW122559   3.812   3.110  17.447 -0.2285  0.0700  0.2417
 3700SOL    HW222560   3.836   2.976  17.408 -0.3001 -0.0150  0.6276
 3701SOL     OW22561   3.120   4.306   4.263 -0.0807  0.2951 -0.8562
 3701SOL    HW122562   3.028   4.319   4.286  0.7398 -0.1292  2.6279
 3701SOL    HW222563   3.125   4.273   4.173 -0.1900 -2.2349  0.0595
 3702SOL     OW22564   0.760   2.145   2.065  0.3614  0.1093 -0.6624
 3702SOL    HW122565   0.673   2.169   2.033  0.2384  0.1399 -0.3128
 3702SOL    HW222566   0.730   2.106   2.147 -2.6244  0.3141 -1.6664
 3703SOL     OW22567   2.669   4.334  11.346  0.1894  0.4070  0.0478
 3703SOL    HW122568   2.686   4.345  11.439  0.8750 -1.1227  0.1057
 3703SOL    HW222569   2.633   4.418  11.318 -2.2056  0.6706  3.9584
 3704SOL     OW22570   0.902   1.773  14.801 -0.7780 -0.5748  0.0562
 3704SOL    HW122571   0.840   1.808  14.737 -0.6371 -0.5087 -0.0441
 3704SOL    HW222572   0.973   1.750  14.742 -0.9172  0.2608 -0.4353
 3705SOL     OW22573   0.032   3.109  16.483  0.6158  0.0445 -0.7411
 3705SOL    HW122574   0.081   3.162  16.420  0.1423 -0.6422 -1.6979
 3705SOL    HW222575   4.686   3.171  16.517  0.3805 -1.1338  0.9593
 3706SOL     OW22576   2.790   4.335   3.196 -0.1045  0.2964  0.5797
 3706SOL    HW122577   2.769   4.426   3.177  2.3166  0.7926  0.2999
 3706SOL    HW222578   2.884   4.330   3.178 -0.4895  0.9960 -1.5112
 3707SOL     OW22579   1.577   2.272   7.206 -0.7006 -0.4652  0.2830
 3707SOL    HW122580   1.594   2.271   7.300 -0.8725  1.3361  0.3332
 3707SOL    HW222581   1.627   2.192   7.188 -1.1036 -0.4357 -0.9735
 3708SOL     OW22582   4.552   2.429   8.003 -0.3037  0.1079  0.0409
 3708SOL    HW122583   4.462   2.408   8.029 -0.4415  1.3699  0.5932
 3708SOL    HW222584   4.602   2.420   8.083  1.0616  0.5823 -0.7641
 3709SOL     OW22585   2.711   3.525  12.897 -0.3643 -0.4301  0.0679
 3709SOL    HW122586   2.778   3.575  12.944 -0.7236  1.1142 -1.0410
 3709SOL    HW222587   2.772   3.463  12.856  1.3542  0.7384  0.8217
 3710SOL     OW22588   1.060   0.042   6.766  0.5741 -0.1747 -0.1431
 3710SOL    HW122589   1.067   0.119   6.709 -1.0638  0.5541  0.6460
 3710SOL    HW222590   1.008   4.703   6.711 -1.7373  0.1005  1.7497
 3711SOL     OW22591   1.823   3.110   2.637  0.1360  0.2634 -0.0050
 3711SOL    HW122592   1.761   3.183   2.634 -1.0011 -0.6695  0.7546
 3711SOL    HW222593   1.767   3.036   2.660  1.6901 -1.3190 -1.3687
 3712SOL     OW22594   4.627   0.879   2.188 -0.3255  0.1554  0.3464
 3712SOL    HW122595   4.703   0.902   2.134 -1.3236  0.6048 -0.8699
 3712SOL    HW222596   4.582   0.962   2.174 -3.0114 -1.4491 -0.5597
 3713SOL     OW22597   0.458   4.436  17.635  0.1511  0.2482 -0.4531
 3713SOL    HW122598   0.407   4.437  17.554 -0.8612  2.6517  0.1874
 3713SOL    HW222599   0.463   4.531  17.649  1.8146  0.5129 -2.9659
 3714SOL     OW22600   2.330   2.307  13.483 -0.1992  0.3346 -0.0735
 3714SOL    HW122601   2.380   2.388  13.485  0.5861 -0.1727  0.9109
 3714SOL    HW222602   2.401   2.243  13.480  0.2579  0.8474 -0.0652
 3715SOL     OW22603   2.366   3.839   5.286 -0.0462  0.1685  0.7299
 3715SOL    HW122604   2.301   3.904   5.313  1.7464  2.3424 -0.1076
 3715SOL    HW222605   2.379   3.866   5.195 -0.3781 -0.6546  0.4420
 3716SOL     OW22606   1.721   3.946  16.950 -0.2281  0.0207  0.3419
 3716SOL    HW122607   1.720   3.979  17.040 -1.3920 -1.4026  0.8491
 3716SOL    HW222608   1.736   3.856  16.978  2.4732  1.0787  2.2892
 3717SOL     OW22609   0.279   0.873   4.988  0.2345 -0.0436  0.2554
 3717SOL    HW122610   0.317   0.939   4.929  1.2584  0.1179  1.0911
 3717SOL    HW222611   0.314   0.792   4.952 -2.8727 -1.9628  1.5538
 3718SOL     OW22612   4.223   0.970  10.937 -0.0047 -0.2099  0.1857
 3718SOL    HW122613   4.163   0.998  10.869 -0.1444  2.5180  1.4378
 3718SOL    HW222614   4.285   0.914  10.890 -0.6011  0.8142 -1.8302
 3719SOL     OW22615   0.154   0.423  10.964 -0.1072  0.1057  0.6831
 3719SOL    HW122616   0.221   0.403  10.897 -0.3010  0.0359  0.5107
 3719SOL    HW222617   0.200   0.399  11.044  1.0735  1.5047  0.4330
 3720SOL     OW22618   0.751   3.671   2.252  1.1460 -0.1432 -0.4057
 3720SOL    HW122619   0.772   3.593   2.201  1.3361  0.4284 -1.2043
 3720SOL    HW222620   0.662   3.641   2.271  1.4267 -0.7364 -0.0148
 3721SOL     OW22621   0.274   2.853   9.333 -0.6336  0.1551 -0.8665
 3721SOL    HW122622   0.194   2.802   9.318  0.5361 -1.7466 -0.6912
 3721SOL    HW222623   0.283   2.893   9.247  1.9236 -2.5267 -1.8315
 3722SOL     OW22624   0.070   0.993   2.002  0.4488  0.1224 -0.1413
 3722SOL    HW122625   0.029   0.992   1.916 -0.1905  2.5443  0.1524
 3722SOL    HW222626   0.159   1.024   1.984  0.0568  0.2352 -1.8548
 3723SOL     OW22627   2.110   2.184   2.790 -0.1506  0.4041 -0.2566
 3723SOL    HW122628   2.175   2.238   2.745  1.9207 -0.9199  1.1665
 3723SOL    HW222629   2.027   2.231   2.784  1.1181  2.3895 -2.2236
 3724SOL     OW22630   3.550   3.672  17.227 -0.0752  0.1779  0.2763
 3724SOL    HW122631   3.467   3.637  17.194 -1.9638  3.1687  1.8644
 3724SOL    HW222632   3.529   3.755  17.270  4.8863  0.6918  1.7238
 3725SOL     OW22633   2.184   1.257   1.078  0.3429  0.0367 -0.0551
 3725SOL    HW122634   2.175   1.164   1.099 -2.3783  0.5584  1.0522
 3725SOL    HW222635   2.233   1.284   1.155  1.2439  0.8550 -0.9101
 3726SOL     OW22636   2.857   1.741   3.388 -0.3324  0.2572  0.4199
 3726SOL    HW122637   2.764   1.755   3.405 -0.3379  1.7397 -0.7701
 3726SOL    HW222638   2.897   1.811   3.440 -2.3516  1.8016 -0.0820
 3727SOL     OW22639   3.023   3.933  10.131  0.2347  0.0356  0.3294
 3727SOL    HW122640   3.023   4.028  10.116 -0.1815 -0.1845 -0.9778
 3727SOL    HW222641   3.096   3.925  10.193  0.4712  0.2684  0.0810
 3728SOL     OW22642   2.730   2.193   9.130 -0.2338 -0.3088  0.4397
 3728SOL    HW122643   2.752   2.178   9.222  2.8829 -1.8070 -0.5573
 3728SOL    HW222644   2.637   2.169   9.134 -0.5204  0.8294  0.6554
 3729SOL     OW22645   2.239   4.510   9.432  0.1493  0.7235  0.3930
 3729SOL    HW122646   2.176   4.453   9.387 -1.5112  2.2980  0.7127
 3729SOL    HW222647   2.249   4.471   9.519 -2.3386 -1.2311 -0.1805
 3730SOL     OW22648   3.352   0.802   4.153  0.5762  0.2883  0.3148
 3730SOL    HW122649   3.360   0.840   4.066 -0.0608  0.7962  0.4792
 3730SOL    HW222650   3.416   0.734   4.133  0.2168 -0.0616  0.3637
 3731SOL     OW22651   4.448   0.763   7.279  0.7634  0.3941  0.6479
 3731SOL    HW122652   4.403   0.710   7.214  3.7184 -0.6052 -0.5968
 3731SOL    HW222653   4.401   0.734   7.358 -1.9198  0.4440 -0.9297
 3732SOL     OW22654   3.022   1.661   8.061 -0.5515 -0.5312  0.2239
 3732SOL    HW122655   3.083   1.726   8.095 -1.3805 -0.0701  0.8552
 3732SOL    HW222656   3.063   1.593   8.113 -1.1012 -1.7471 -0.9367
 3733SOL     OW22657   1.820   2.390   6.972  0.2319  0.0113 -0.1828
 3733SOL    HW122658   1.894   2.337   6.941  0.4170  0.9695 -1.3706
 3733SOL    HW222659   1.755   2.320   6.982 -0.1373  0.5974  1.4991
 3734SOL     OW22660   1.802   2.520   1.522  0.3843 -0.2555  0.1935
 3734SOL    HW122661   1.890   2.499   1.490  0.0432 -2.2272  0.5682
 3734SOL    HW222662   1.779   2.451   1.583 -0.2322 -0.3727 -0.1764
 3735SOL     OW22663   0.743   2.428   6.545  0.4496 -0.4242 -0.2135
 3735SOL    HW122664   0.726   2.338   6.518  2.3572 -0.7508 -0.3725
 3735SOL    HW222665   0.797   2.458   6.472  0.2938  0.2242 -0.0707
 3736SOL     OW22666   0.252   0.316  11.210 -0.3079 -0.4965 -0.3474
 3736SOL    HW122667   0.251   0.370  11.289  0.6456 -0.9890  0.0025
 3736SOL    HW222668   0.346   0.296  11.209 -0.3230 -0.6583  1.2163
 3737SOL     OW22669   2.377   2.867   3.472 -0.3915  0.1382  0.2099
 3737SOL    HW122670   2.472   2.854   3.467 -0.2564  1.0158  0.5520
 3737SOL    HW222671   2.361   2.828   3.558 -0.5750 -2.5815 -1.0380
 3738SOL     OW22672   2.853   4.360   9.505 -0.4071 -0.1427  0.0519
 3738SOL    HW122673   2.813   4.374   9.419 -1.5915 -2.2385  0.2529
 3738SOL    HW222674   2.796   4.288   9.532 -0.9307 -0.4150 -1.7529
 3739SOL     OW22675   3.551   0.601   1.453  0.0625  0.3760 -0.3035
 3739SOL    HW122676   3.569   0.672   1.392  0.1036  1.4534  0.9683
 3739SOL    HW222677   3.476   0.639   1.498 -1.5557 -0.8734 -1.9752
 3740SOL     OW22678   3.313   2.805   2.106  0.4730 -0.5132  0.3328
 3740SOL    HW122679   3.246   2.752   2.147 -0.0755  0.0308  0.1305
 3740SOL    HW222680   3.315   2.773   2.015 -0.0715 -1.0989  0.5272
 3741SOL     OW22681   4.375   0.122   1.723 -0.3828  0.0352 -0.4625
 3741SOL    HW122682   4.418   0.053   1.774 -1.4266 -0.5295 -0.3394
 3741SOL    HW222683   4.443   0.175   1.681  1.0174 -0.0509  1.6768
 3742SOL     OW22684   1.206   4.269   6.229 -0.0666  0.1796  0.2791
 3742SOL    HW122685   1.238   4.357   6.209 -1.1511  0.5289  0.1027
 3742SOL    HW222686   1.260   4.215   6.171  2.6058 -0.1050  3.0385
 3743SOL     OW22687   0.102   0.238   1.710  0.3559  0.0299 -0.8896
 3743SOL    HW122688   0.126   0.323   1.747  0.3439  0.4090 -1.7590
 3743SOL    HW222689   0.011   0.263   1.691  0.2802 -0.3930 -1.0891
 3744SOL     OW22690   0.086   3.948   7.414 -0.0806 -0.0080  0.4540
 3744SOL    HW122691   0.128   3.888   7.352 -0.6593 -0.3353  0.3723
 3744SOL    HW222692   0.019   3.997   7.366  0.5644  0.1406 -0.2903
 3745SOL     OW22693   0.498   3.783   6.476 -0.9604 -0.5740 -0.6104
 3745SOL    HW122694   0.461   3.695   6.475 -0.4247 -0.7959 -1.2249
 3745SOL    HW222695   0.556   3.788   6.553 -0.6532 -0.4142 -0.8540
 3746SOL     OW22696   4.221   2.296   8.357 -0.2594  0.1204  0.3908
 3746SOL    HW122697   4.157   2.228   8.380 -0.1567 -0.6000 -1.4376
 3746SOL    HW222698   4.298   2.272   8.409  0.3879  1.8512  0.2453
 3747SOL     OW22699   0.130   1.813   6.793 -0.3909 -0.0576 -0.2219
 3747SOL    HW122700   0.176   1.875   6.736 -0.4974  1.1501  1.0078
 3747SOL    HW222701   0.134   1.735   6.738 -0.2376 -1.3475  1.6164
 3748SOL     OW22702   3.551   0.766   2.651 -0.0389 -0.0646 -0.1345
 3748SOL    HW122703   3.636   0.731   2.680 -0.5082 -1.9453 -1.0764
 3748SOL    HW222704   3.503   0.688   2.624  0.3184 -0.6050  0.7780
 3749SOL     OW22705   1.365   1.806  11.696 -0.0941 -0.2529 -1.3526
 3749SOL    HW122706   1.455   1.787  11.671  0.4346 -1.7701  1.6941
 3749SOL    HW222707   1.319   1.724  11.680 -0.7760 -0.0475 -0.4477
 3750SOL     OW22708   1.342   1.369   6.708 -0.3757  0.3916  0.7703
 3750SOL    HW122709   1.334   1.459   6.740  0.6281  0.6216  0.3554
 3750SOL    HW222710   1.254   1.369   6.670  0.0942 -1.4615 -0.3337
 3751SOL     OW22711   4.321   3.493   5.017  0.4042  0.2937 -0.0290
 3751SOL    HW122712   4.393   3.431   5.029  2.1301  2.4965  0.9798
 3751SOL    HW222713   4.293   3.510   5.107 -0.1652  1.2318 -0.3818
 3752SOL     OW22714   0.021   1.742   2.197 -0.4581  0.3683 -0.0993
 3752SOL    HW122715   4.685   1.663   2.192 -0.4479  0.4524 -1.4800
 3752SOL    HW222716   0.018   1.749   2.292  0.4734  0.9504 -0.1130
 3753SOL     OW22717   1.320   2.240   6.601 -0.4808 -0.0222  0.0563
 3753SOL    HW122718   1.409   2.205   6.610 -0.9110 -0.7851  1.3284
 3753SOL    HW222719   1.282   2.174   6.543  0.4243 -0.5249  0.0173
 3754SOL     OW22720   2.832   3.142  12.762 -0.0914  0.5317 -0.2414
 3754SOL    HW122721   2.900   3.078  12.781 -1.5958 -0.7932  0.6683
 3754SOL    HW222722   2.760   3.117  12.820 -2.0201  0.5186 -2.6646
 3755SOL     OW22723   3.414   4.099   8.458  0.5850  0.0522  0.0300
 3755SOL    HW122724   3.394   4.054   8.540  1.7630  1.3646  1.0366
 3755SOL    HW222725   3.464   4.036   8.405  0.9646 -1.9148  2.7084
 3756SOL     OW22726   0.994   3.946  11.245 -0.3437 -0.3396  0.1001
 3756SOL    HW122727   0.918   3.891  11.226 -0.3266 -1.2207  2.6087
 3756SOL    HW222728   1.030   3.894  11.317 -2.2153 -2.7438 -0.6953
 3757SOL     OW22729   3.362   3.352   3.199  0.5950 -0.1576 -0.3963
 3757SOL    HW122730   3.443   3.372   3.152  0.4810  2.9087  0.7362
 3757SOL    HW222731   3.399   3.320   3.282  1.0522  1.6098  0.0821
 3758SOL     OW22732   2.360   3.580   4.902 -0.5421 -0.4788 -0.1618
 3758SOL    HW122733   2.382   3.671   4.924 -1.9381 -1.0735  3.6952
 3758SOL    HW222734   2.347   3.544   4.990 -0.8947 -2.0495 -0.8455
 3759SOL     OW22735   3.557   0.909   3.060  0.3408 -0.3949 -0.4854
 3759SOL    HW122736   3.580   0.887   3.150  0.2706  2.3047  0.2047
 3759SOL    HW222737   3.591   0.999   3.061 -0.6920  0.0023 -1.1193
 3760SOL     OW22738   0.200   1.622   4.275 -0.1935 -0.3762 -0.6433
 3760SOL    HW122739   0.191   1.540   4.225  1.5005 -0.6308 -0.5357
 3760SOL    HW222740   0.121   1.629   4.328 -0.4327  1.6888 -1.2789
 3761SOL     OW22741   0.471   3.606   8.242  0.2431 -0.0113 -0.6997
 3761SOL    HW122742   0.520   3.527   8.217 -0.8615 -1.3577  1.3403
 3761SOL    HW222743   0.432   3.578   8.325  0.1901 -2.0882 -1.4249
 3762SOL     OW22744   2.764   1.190   4.624 -0.0903 -0.1879 -0.3987
 3762SOL    HW122745   2.764   1.157   4.714 -0.3441  1.2697  0.1292
 3762SOL    HW222746   2.792   1.277   4.650 -0.7907  0.5984 -2.2735
 3763SOL     OW22747   4.475   0.719  11.488 -0.4387 -0.0828  0.1472
 3763SOL    HW122748   4.526   0.770  11.425 -0.2913 -1.1463 -0.5912
 3763SOL    HW222749   4.445   0.651  11.428  0.9680  0.7287 -1.4959
 3764SOL     OW22750   4.324   3.512   9.167  0.3370  0.4885 -0.2170
 3764SOL    HW122751   4.312   3.431   9.117  1.3153 -0.0318  0.3928
 3764SOL    HW222752   4.357   3.571   9.100  1.5090  1.0322  0.8431
 3765SOL     OW22753   4.123   0.410   7.232  0.0873  0.1586  0.0346
 3765SOL    HW122754   4.122   0.352   7.155  2.8084 -1.8178  1.4740
 3765SOL    HW222755   4.032   0.421   7.257 -0.3836 -1.9709 -0.7538
 3766SOL     OW22756   2.791   4.092   4.035  0.3616  0.2574  0.2158
 3766SOL    HW122757   2.768   4.094   3.942 -2.3642 -1.0442  0.8464
 3766SOL    HW222758   2.728   4.027   4.067 -1.1517  0.5935 -2.0548
 3767SOL     OW22759   0.668   4.284  17.464 -0.1385 -0.0772  0.4760
 3767SOL    HW122760   0.641   4.360  17.412  0.6164 -0.0409  0.1405
 3767SOL    HW222761   0.701   4.230  17.393 -0.5065 -2.9479  2.4793
 3768SOL     OW22762   2.872   1.316   9.871 -0.5277  0.8217  0.2675
 3768SOL    HW122763   2.790   1.291   9.828 -0.6137  1.2837  0.1595
 3768SOL    HW222764   2.835   1.354   9.951  1.9227  1.3270  1.1484
 3769SOL     OW22765   3.347   4.568   2.318 -0.8287  0.1507  0.4333
 3769SOL    HW122766   3.325   4.480   2.288 -1.7953  0.8599 -0.9840
 3769SOL    HW222767   3.429   4.551   2.364  0.3163 -0.3488 -1.7762
 3770SOL     OW22768   4.409   4.101  13.109  0.4528  0.0569 -0.3680
 3770SOL    HW122769   4.391   4.118  13.202  0.5135  1.2093 -0.5644
 3770SOL    HW222770   4.475   4.166  13.082  0.6176 -0.2170 -0.6164
 3771SOL     OW22771   1.152   1.799   3.819  0.7660 -0.3345 -0.2065
 3771SOL    HW122772   1.241   1.782   3.788  1.4665 -0.1980  1.6763
 3771SOL    HW222773   1.113   1.714   3.840  3.2253 -1.6394 -0.8783
 3772SOL     OW22774   1.020   4.292   1.974  0.1692 -0.3976 -0.2064
 3772SOL    HW122775   0.930   4.322   1.965  0.1636 -0.4070 -0.1823
 3772SOL    HW222776   1.026   4.242   1.892  0.3381  0.0961 -0.4962
 3773SOL     OW22777   2.373   0.416   7.256  0.6540 -0.3211  0.1906
 3773SOL    HW122778   2.286   0.424   7.217 -0.5294 -0.5451  2.7284
 3773SOL    HW222779   2.428   0.477   7.208 -2.4996  1.4755 -1.1330
 3774SOL     OW22780   1.859   1.273   0.516 -0.1973  0.3375 -0.1398
 3774SOL    HW122781   1.820   1.360   0.522 -0.0363  0.5392 -2.2346
 3774SOL    HW222782   1.949   1.304   0.528  0.6650 -1.5580 -1.8441
 3775SOL     OW22783   1.725   0.834  12.434 -0.2364  0.5810 -0.1873
 3775SOL    HW122784   1.677   0.906  12.393 -1.7290 -0.7775 -0.8614
 3775SOL    HW222785   1.727   0.842  12.529  1.1730  1.2202 -0.2789
 3776SOL     OW22786   1.671   0.169   2.377  0.4676 -0.4360  0.4483
 3776SOL    HW122787   1.721   0.147   2.298  1.3814 -2.7533  1.6409
 3776SOL    HW222788   1.723   0.242   2.411  0.2023 -0.5509  1.0994
 3777SOL     OW22789   1.032   1.696   9.076  0.0560 -0.3467  0.2643
 3777SOL    HW122790   1.032   1.608   9.113  0.6179 -1.2440 -1.8240
 3777SOL    HW222791   1.113   1.733   9.111 -1.4647  0.2728  3.1071
 3778SOL     OW22792   0.889   0.212  11.446  0.1119  0.6253 -0.7762
 3778SOL    HW122793   0.978   0.180  11.451  0.3846  0.9058 -3.8256
 3778SOL    HW222794   0.883   0.250  11.534 -0.2799 -0.7507 -0.2175
 3779SOL     OW22795   0.767   4.250  11.957 -0.2339  0.1276 -0.3003
 3779SOL    HW122796   0.769   4.324  11.896  1.7354 -0.5208 -0.9879
 3779SOL    HW222797   0.791   4.297  12.037  1.0072 -0.2512 -0.4515
 3780SOL     OW22798   2.659   1.423  12.617 -0.1640  0.4910 -0.0948
 3780SOL    HW122799   2.579   1.420  12.566 -0.8044  3.0885  0.7442
 3780SOL    HW222800   2.721   1.373  12.564 -3.8238 -1.9870 -1.9737
 3781SOL     OW22801   4.311   2.453   7.228 -0.0317  0.6348 -0.1801
 3781SOL    HW122802   4.323   2.544   7.199  0.1265  0.3538 -0.9846
 3781SOL    HW222803   4.222   2.449   7.263  0.7804  1.2776  1.9450
 3782SOL     OW22804   4.443   1.916   3.620  0.3082  0.1260  0.2039
 3782SOL    HW122805   4.493   1.983   3.573 -2.1954  0.4859 -1.9925
 3782SOL    HW222806   4.491   1.842   3.582 -0.8602 -0.4203 -0.2085
 3783SOL     OW22807   1.209   2.215  10.943 -0.0245 -0.1266  0.3369
 3783SOL    HW122808   1.154   2.212  11.021  0.6431 -1.1999  0.7651
 3783SOL    HW222809   1.178   2.298  10.907  1.4047 -0.0262 -0.6658
 3784SOL     OW22810   1.005   2.475   4.214  0.1394  0.5909 -0.1630
 3784SOL    HW122811   0.992   2.500   4.306  3.4002 -0.4289  0.5753
 3784SOL    HW222812   1.061   2.545   4.181  0.5603  1.2859  2.0184
 3785SOL     OW22813   3.343   1.727  11.890  0.5045  0.0364 -0.4440
 3785SOL    HW122814   3.426   1.696  11.854 -1.0401 -2.6506 -1.7015
 3785SOL    HW222815   3.285   1.651  11.895  1.5589 -0.6213  1.8414
 3786SOL     OW22816   3.721   1.888   8.316 -0.0184  0.0224 -0.6543
 3786SOL    HW122817   3.785   1.958   8.304  3.3016 -2.8511  0.1801
 3786SOL    HW222818   3.651   1.937   8.359 -1.0391 -1.1142 -1.0388
 3787SOL     OW22819   0.731   1.205   7.056  0.2799  0.1981 -0.0798
 3787SOL    HW122820   0.716   1.117   7.091 -1.8480  0.2064 -1.0159
 3787SOL    HW222821   0.694   1.261   7.124  0.0941  0.2010 -0.1853
 3788SOL     OW22822   4.141   2.685   6.947 -1.1395  0.1287  0.3056
 3788SOL    HW122823   4.059   2.734   6.955 -2.0819 -1.2125 -1.2264
 3788SOL    HW222824   4.112   2.595   6.964 -2.2460  0.8326  2.2162
 3789SOL     OW22825   1.046   2.879   7.300 -0.2536 -0.5519 -0.3021
 3789SOL    HW122826   0.958   2.867   7.263 -0.1997  1.3892 -1.0698
 3789SOL    HW222827   1.072   2.787   7.303 -0.6213 -0.6188  0.7145
 3790SOL     OW22828   2.368   3.071   5.900 -0.2954 -0.1255  0.0416
 3790SOL    HW122829   2.448   3.119   5.921 -1.4270  0.6487  2.4959
 3790SOL    HW222830   2.401   2.988   5.865  1.6985  0.5078  0.4303
 3791SOL     OW22831   2.227   3.012   2.068  0.6311 -0.8636 -0.2323
 3791SOL    HW122832   2.249   2.957   1.992  0.2173  0.3810 -1.2645
 3791SOL    HW222833   2.310   3.048   2.099 -0.5018  0.3320  1.4338
 3792SOL     OW22834   0.193   3.974   2.695 -0.3811 -0.0606 -0.6990
 3792SOL    HW122835   0.130   4.032   2.651  0.3900  0.5426 -1.0124
 3792SOL    HW222836   0.171   3.985   2.787  0.4572  0.5418 -0.5731
 3793SOL     OW22837   1.784   2.762   8.869 -0.0882 -0.3893  0.3329
 3793SOL    HW122838   1.847   2.801   8.929  0.0279  0.6059 -0.4400
 3793SOL    HW222839   1.779   2.826   8.798 -1.4658  2.3767  2.9459
 3794SOL     OW22840   1.921   3.923   3.969 -0.0775 -0.1068  0.3956
 3794SOL    HW122841   1.991   3.920   4.034 -0.2418 -0.1500  0.5721
 3794SOL    HW222842   1.925   4.008   3.926  0.0234  0.0006  0.6182
 3795SOL     OW22843   3.548   4.210  11.609  0.8358  0.5754  0.2120
 3795SOL    HW122844   3.521   4.294  11.646  1.3856  0.8250  0.0346
 3795SOL    HW222845   3.466   4.187  11.566  0.9231 -0.1798  0.4488
 3796SOL     OW22846   0.900   2.775  16.057  0.3617  0.1954  0.4836
 3796SOL    HW122847   0.824   2.827  16.032  0.2025  0.3356  1.2573
 3796SOL    HW222848   0.861   2.688  16.049 -1.4943  0.7974  2.9996
 3797SOL     OW22849   3.822   0.963   4.774 -0.7651 -0.3337  0.0874
 3797SOL    HW122850   3.740   1.013   4.769 -1.8961 -2.0776  1.0852
 3797SOL    HW222851   3.813   0.924   4.687 -2.4871 -1.5108  0.7984
 3798SOL     OW22852   3.245   2.784   8.316  0.6140 -0.2201 -0.0003
 3798SOL    HW122853   3.254   2.790   8.411 -1.5153 -0.5303  0.2190
 3798SOL    HW222854   3.317   2.721   8.305  0.1121 -0.8571  0.3622
 3799SOL     OW22855   3.250   0.569  16.589  0.4359  0.0771  0.5340
 3799SOL    HW122856   3.159   0.545  16.572  1.2889 -2.5994 -0.2274
 3799SOL    HW222857   3.247   0.586  16.683 -1.5907  1.3518  0.2344
 3800SOL     OW22858   4.308   0.345  11.013 -0.2651 -0.3281  0.1271
 3800SOL    HW122859   4.373   0.343  10.943  0.5552 -1.7328  0.9155
 3800SOL    HW222860   4.329   0.265  11.061  1.2947 -0.1391 -0.2417
 3801SOL     OW22861   2.470   0.657   3.167  0.1034  0.2064 -0.1683
 3801SOL    HW122862   2.488   0.631   3.257 -2.4414 -1.0072 -0.0177
 3801SOL    HW222863   2.553   0.684   3.127 -0.2718  0.4461 -0.7952
 3802SOL     OW22864   1.679   2.883   9.685 -0.7139  0.2934  0.1700
 3802SOL    HW122865   1.758   2.924   9.720  0.1445 -1.7324  0.6541
 3802SOL    HW222866   1.647   2.829   9.757  0.2383  0.7494  0.9249
 3803SOL     OW22867   0.246   2.445  10.589 -0.4520 -0.1092 -0.1396
 3803SOL    HW122868   0.310   2.383  10.555 -1.7173 -0.9410 -0.9850
 3803SOL    HW222869   0.262   2.523  10.536 -0.0685 -0.8247 -1.0812
 3804SOL     OW22870   1.311   0.649  10.546  0.1748 -0.6632 -0.0859
 3804SOL    HW122871   1.378   0.604  10.598 -0.6690 -0.1718  1.4200
 3804SOL    HW222872   1.274   0.572  10.504 -0.2404 -1.2777  1.4328
 3805SOL     OW22873   3.902   3.902   7.938  0.0653 -0.1727 -0.2840
 3805SOL    HW122874   3.933   3.961   8.006 -1.4143 -1.2939  1.3713
 3805SOL    HW222875   3.820   3.950   7.928 -1.5640 -2.7541  0.6103
 3806SOL     OW22876   1.311   4.583  11.043 -0.2850 -0.2953 -0.4410
 3806SOL    HW122877   1.281   4.674  11.049  0.8811  0.0955 -0.6866
 3806SOL    HW222878   1.304   4.564  10.949  3.0991 -0.5921 -0.6144
 3807SOL     OW22879   0.751   1.668   6.304  1.0088 -0.9738  0.5374
 3807SOL    HW122880   0.751   1.755   6.263 -1.3527 -1.3879 -0.3851
 3807SOL    HW222881   0.666   1.633   6.275  1.4112 -0.3788 -1.3618
 3808SOL     OW22882   3.368   2.840  12.020  0.2362 -0.5464 -0.3705
 3808SOL    HW122883   3.294   2.780  12.008  0.1818 -1.1563  3.2329
 3808SOL    HW222884   3.334   2.906  12.081  2.1520 -0.5178  0.6631
 3809SOL     OW22885   0.210   0.921   5.232  0.0996 -0.5294  0.1174
 3809SOL    HW122886   0.236   0.905   5.142 -1.9354 -2.6762 -0.0834
 3809SOL    HW222887   0.248   1.008   5.243 -0.4518 -0.1432 -1.0940
 3810SOL     OW22888   1.628   0.061  10.950  0.1585  0.0413 -0.1037
 3810SOL    HW122889   1.544   0.041  10.993  0.3703  0.4607  0.4983
 3810SOL    HW222890   1.602   0.040  10.861  0.5510  0.5770 -0.3395
 3811SOL     OW22891   1.007   0.757  10.383  0.3008  0.2332  0.2886
 3811SOL    HW122892   1.018   0.673  10.426 -1.2509  0.0671  0.3565
 3811SOL    HW222893   1.069   0.812  10.431 -0.4037  0.5572  0.8247
 3812SOL     OW22894   2.862   0.563   1.834 -0.3776  0.0131  0.0662
 3812SOL    HW122895   2.785   0.597   1.787 -0.5445  1.4854  1.3685
 3812SOL    HW222896   2.887   0.485   1.786  3.1319 -0.3272  2.4923
 3813SOL     OW22897   2.216   3.438   2.392  0.4469  0.4426 -0.2059
 3813SOL    HW122898   2.271   3.395   2.327 -0.6393  1.7212 -1.9432
 3813SOL    HW222899   2.136   3.452   2.341  0.7691  1.4838 -0.4236
 3814SOL     OW22900   2.540   1.273   3.181 -0.0343  0.0096  0.1991
 3814SOL    HW122901   2.607   1.206   3.171 -0.8247 -0.8118  0.3612
 3814SOL    HW222902   2.584   1.357   3.195 -1.7034  0.9550 -0.1116
 3815SOL     OW22903   0.006   3.669   0.261 -0.1746  0.3910 -0.1316
 3815SOL    HW122904   4.671   3.664   0.340 -0.9401  0.1458 -0.6707
 3815SOL    HW222905   0.092   3.695   0.295 -0.0986 -0.1721  0.1211
 3816SOL     OW22906   3.528   4.597  12.840  0.1337  0.1788  0.4029
 3816SOL    HW122907   3.456   4.590  12.903  1.2071  2.2309  1.8453
 3816SOL    HW222908   3.504   4.680  12.798  1.1562  0.5909  0.6520
 3817SOL     OW22909   3.027   0.477   6.729 -0.0292 -0.3543  0.4825
 3817SOL    HW122910   3.024   0.485   6.825 -1.6683  0.5618  0.3545
 3817SOL    HW222911   2.962   0.543   6.705 -0.1053 -0.6306 -0.0628
 3818SOL     OW22912   1.912   0.468   8.608 -0.5267 -0.3638  0.3325
 3818SOL    HW122913   1.969   0.510   8.543  1.1232 -0.4127  1.7304
 3818SOL    HW222914   1.869   0.544   8.647 -1.0036  0.4113 -1.7231
 3819SOL     OW22915   2.566   3.256   9.700 -0.0238  0.1286  0.7247
 3819SOL    HW122916   2.507   3.285   9.631  0.0626  1.3575  1.1663
 3819SOL    HW222917   2.622   3.333   9.710  0.0196  0.4695 -2.1134
 3820SOL     OW22918   0.961   1.092   6.544 -0.3792  0.1411  0.2666
 3820SOL    HW122919   0.911   1.016   6.575 -0.7900  1.3767  2.6814
 3820SOL    HW222920   1.018   1.046   6.484 -0.8263 -0.6292  0.4254
 3821SOL     OW22921   0.694   0.808   5.054 -0.3363 -0.3019  0.2186
 3821SOL    HW122922   0.706   0.796   4.960 -1.9898  0.3669 -0.0848
 3821SOL    HW222923   0.758   0.745   5.086 -1.3759 -0.4537  2.0278
 3822SOL     OW22924   4.221   4.149  11.251 -0.4191 -0.1064  0.4312
 3822SOL    HW122925   4.298   4.094  11.265  0.0115 -0.0924 -1.9585
 3822SOL    HW222926   4.177   4.094  11.187 -0.5415 -0.2499  0.6401
 3823SOL     OW22927   1.040   1.489  11.006 -0.4471  0.8615 -0.2778
 3823SOL    HW122928   1.082   1.543  10.939  0.4388  0.1253 -0.3224
 3823SOL    HW222929   0.970   1.545  11.040 -0.2529  1.4118 -0.7864
 3824SOL     OW22930   0.654   1.436   5.480  0.0844  0.8533 -0.3080
 3824SOL    HW122931   0.608   1.520   5.484 -0.2536  0.6259  0.5839
 3824SOL    HW222932   0.628   1.398   5.395  0.2998  1.8206 -0.8067
 3825SOL     OW22933   3.360   2.266   9.853 -0.2570 -0.1242 -0.2757
 3825SOL    HW122934   3.412   2.195   9.890 -0.7760  0.0758  0.8560
 3825SOL    HW222935   3.425   2.330   9.825 -0.1818  0.6917  1.7122
 3826SOL     OW22936   2.702   0.642   2.362 -0.7412  0.3689  0.4311
 3826SOL    HW122937   2.754   0.562   2.358  0.0136  0.9634 -1.6988
 3826SOL    HW222938   2.612   0.613   2.379 -1.1675 -0.2588 -2.9450
 3827SOL     OW22939   1.837   0.735   8.585  0.1604 -0.2990 -0.3992
 3827SOL    HW122940   1.751   0.755   8.548  1.0905 -1.0011 -2.9502
 3827SOL    HW222941   1.895   0.779   8.523 -0.8168 -0.9326 -1.7738
 3828SOL     OW22942   4.468   2.204  17.635  0.5874 -0.3773  0.9218
 3828SOL    HW122943   4.450   2.284  17.586  2.3525 -0.5894 -0.0909
 3828SOL    HW222944   4.528   2.237   0.024  0.7050 -0.4476  0.8523
 3829SOL     OW22945   1.944   0.424   4.727 -0.1874  0.5994 -0.0081
 3829SOL    HW122946   1.899   0.454   4.648 -1.5697 -0.8016  0.2601
 3829SOL    HW222947   2.019   0.390   4.678  1.0011 -0.1240  2.3094
 3830SOL     OW22948   1.560   0.603   5.445  0.0280 -0.0111 -0.4284
 3830SOL    HW122949   1.533   0.551   5.520  0.7580 -0.7772 -0.6900
 3830SOL    HW222950   1.611   0.536   5.399  0.4935  0.2885 -0.3427
 3831SOL     OW22951   1.949   1.822   3.904 -0.0310 -0.0492  0.1247
 3831SOL    HW122952   1.862   1.861   3.897  0.2814  0.5510 -0.3971
 3831SOL    HW222953   1.969   1.818   3.811 -0.4307 -1.6111  0.1059
 3832SOL     OW22954   1.331   0.909   6.855  0.3598  0.1818  0.2862
 3832SOL    HW122955   1.393   0.837   6.849  2.7783  2.3234 -0.0826
 3832SOL    HW222956   1.380   0.977   6.900  1.0801 -0.5176  0.5666
 3833SOL     OW22957   3.385   4.578  13.086 -0.0635  0.0487 -0.1978
 3833SOL    HW122958   3.372   4.484  13.102 -0.4218  0.0317 -0.6295
 3833SOL    HW222959   3.429   4.607  13.167  2.0490 -0.5581 -1.1368
 3834SOL     OW22960   0.245   2.836   1.185 -0.5339  0.4084  0.0071
 3834SOL    HW122961   0.257   2.754   1.137  2.4194  1.0808 -0.4301
 3834SOL    HW222962   0.235   2.897   1.112 -2.8109 -0.1429 -0.1601
 3835SOL     OW22963   1.271   3.760   7.792 -0.2711  0.2845  0.1365
 3835SOL    HW122964   1.360   3.759   7.756 -0.2878 -0.8747  0.1449
 3835SOL    HW222965   1.213   3.747   7.718  2.2996  0.5686 -1.9090
 3836SOL     OW22966   0.032   0.277  12.754 -0.4103 -0.6976 -0.1597
 3836SOL    HW122967   0.085   0.327  12.816 -1.4895 -0.4161  0.5392
 3836SOL    HW222968   4.667   0.286  12.799 -0.1990 -0.3565  0.1686
 3837SOL     OW22969   4.160   4.558   5.908 -0.0028 -0.4001  0.1371
 3837SOL    HW122970   4.244   4.515   5.891  0.5512  0.7998 -0.2118
 3837SOL    HW222971   4.150   4.510   5.990 -0.5781  1.3440  1.0824
 3838SOL     OW22972   4.628   1.509   6.591 -0.3058 -0.6151  0.4851
 3838SOL    HW122973   4.639   1.457   6.511 -0.8880  0.5971 -0.3700
 3838SOL    HW222974   4.697   1.573   6.570 -0.0321 -0.8324  0.7118
 3839SOL     OW22975   0.453   2.607  15.730 -0.3976 -0.6193  0.0873
 3839SOL    HW122976   0.398   2.679  15.701  0.3103 -0.1243 -0.0205
 3839SOL    HW222977   0.536   2.653  15.745 -0.5524 -1.6235  4.0623
 3840SOL     OW22978   2.027   2.055   6.088 -0.7987  0.0744  0.0492
 3840SOL    HW122979   2.012   1.965   6.120 -0.6450  0.1403  0.3038
 3840SOL    HW222980   2.091   2.080   6.154 -0.1831  2.0523 -1.3151
 3841SOL     OW22981   2.711   3.522   6.708 -0.1784  0.2113  0.8437
 3841SOL    HW122982   2.678   3.476   6.631  1.5337 -0.2728  0.4064
 3841SOL    HW222983   2.787   3.467   6.727 -0.3899  0.0711  1.3033
 3842SOL     OW22984   2.471   3.360  10.238 -0.0326 -0.1429 -0.0193
 3842SOL    HW122985   2.431   3.341  10.153 -0.2874  0.1334  0.0382
 3842SOL    HW222986   2.565   3.346  10.226 -0.0868 -3.0520  2.5626
 3843SOL     OW22987   2.558   2.594   4.544 -0.7900 -0.6035 -0.5541
 3843SOL    HW122988   2.569   2.629   4.456  0.7064  0.7442  0.1665
 3843SOL    HW222989   2.465   2.613   4.552 -1.1121 -2.8367  1.1987
 3844SOL     OW22990   0.972   3.440   3.072  0.0850 -0.3557 -0.4758
 3844SOL    HW122991   0.954   3.507   3.138 -2.2129 -0.0477 -1.4240
 3844SOL    HW222992   0.908   3.462   3.005 -2.4693  0.2525  2.1791
 3845SOL     OW22993   0.855   3.154   4.096 -0.4273 -0.1987  0.0973
 3845SOL    HW122994   0.783   3.109   4.053  0.6592  0.3161 -2.2509
 3845SOL    HW222995   0.929   3.095   4.083  1.7165  2.3692  0.6418
 3846SOL     OW22996   0.100   2.819   3.372  0.5365  0.2194 -0.7382
 3846SOL    HW122997   0.146   2.898   3.402 -1.2049  0.4054  1.4491
 3846SOL    HW222998   0.163   2.749   3.386 -2.4563 -2.0835  1.1996
 3847SOL     OW22999   0.599   1.892   3.503  0.2059  0.5551 -0.0241
 3847SOL    HW123000   0.677   1.849   3.470 -0.7049 -0.6852 -0.5422
 3847SOL    HW223001   0.541   1.830   3.546  1.5689  0.6837  1.9747
 3848SOL     OW23002   3.917   1.411   9.199  0.1614 -0.0639  0.4755
 3848SOL    HW123003   3.856   1.379   9.265  0.2875  1.2619  1.2442
 3848SOL    HW223004   3.956   1.484   9.247  1.6396  0.0125 -0.8430
 3849SOL     OW23005   1.945   2.274   5.935 -0.6919 -0.5003  0.3723
 3849SOL    HW123006   1.928   2.188   5.975  0.7168 -0.7288  0.4747
 3849SOL    HW223007   2.024   2.294   5.986 -0.6741  0.2077  0.0577
 3850SOL     OW23008   1.851   4.104   5.585 -0.6160 -0.3830  0.2889
 3850SOL    HW123009   1.779   4.113   5.523 -2.0905 -1.1548  1.8483
 3850SOL    HW223010   1.801   4.122   5.665  1.0691  1.4998  0.8974
 3851SOL     OW23011   2.798   1.559   9.435  0.0828 -0.6218  0.2067
 3851SOL    HW123012   2.852   1.560   9.356 -0.4249  0.3558 -0.1333
 3851SOL    HW223013   2.738   1.485   9.429 -1.1453  0.3319  0.5156
 3852SOL     OW23014   2.718   1.726   2.429 -0.3698  0.1349  0.2778
 3852SOL    HW123015   2.672   1.810   2.423  2.5324  1.7666  1.1722
 3852SOL    HW223016   2.803   1.739   2.388  1.0265 -1.5234  2.6879
 3853SOL     OW23017   4.187   3.251   2.075  0.2864  0.1373  0.0917
 3853SOL    HW123018   4.116   3.311   2.095 -0.0955  0.4472 -2.1871
 3853SOL    HW223019   4.250   3.296   2.019 -1.1577 -1.7509 -3.0382
 3854SOL     OW23020   4.575   0.095  16.327 -0.1927 -0.1554  0.6493
 3854SOL    HW123021   4.508   0.162  16.314 -2.1514 -2.6194 -1.8945
 3854SOL    HW223022   4.543   0.021  16.276 -0.1216 -0.4642  1.0480
 3855SOL     OW23023   3.222   3.505   2.935 -0.2427  0.0798  0.5676
 3855SOL    HW123024   3.160   3.503   2.862 -0.1840 -1.7935  0.5685
 3855SOL    HW223025   3.303   3.527   2.889  0.5987 -2.7453  0.6995
 3856SOL     OW23026   2.748   1.310  13.701  0.2662  0.7975  0.1335
 3856SOL    HW123027   2.784   1.229  13.738 -1.6520 -0.6197 -1.1091
 3856SOL    HW223028   2.655   1.289  13.706  0.8457 -2.2153 -1.8961
 3857SOL     OW23029   1.815   4.018   0.213 -0.9061  0.5221  0.4183
 3857SOL    HW123030   1.887   3.981   0.163 -1.6321  0.6999 -0.7442
 3857SOL    HW223031   1.823   4.105   0.176 -0.4609 -0.0848 -0.8930
 3858SOL     OW23032   1.713   2.932  14.940 -0.1501 -0.5742 -0.1577
 3858SOL    HW123033   1.656   2.935  14.864 -0.8727  2.4166  0.4999
 3858SOL    HW223034   1.785   2.986  14.906 -1.7650  0.6826 -1.5475
 3859SOL     OW23035   1.098   3.414  16.262 -0.6405 -0.2914 -0.0366
 3859SOL    HW123036   1.151   3.401  16.183 -0.5222  0.6471 -0.1165
 3859SOL    HW223037   1.077   3.504  16.236 -1.1212 -0.8025 -1.4333
 3860SOL     OW23038   3.354   4.542   8.545  0.0032  0.2848  0.6303
 3860SOL    HW123039   3.422   4.475   8.553 -1.9707 -1.6247  1.3866
 3860SOL    HW223040   3.377   4.598   8.619 -1.7620 -1.6871  2.6486
 3861SOL     OW23041   2.218   0.274  12.792  0.1117 -0.2425 -0.0883
 3861SOL    HW123042   2.131   0.280  12.832  0.6930 -0.4071  1.2146
 3861SOL    HW223043   2.269   0.273  12.873  0.1706  2.3346 -0.0759
 3862SOL     OW23044   1.120   3.326   4.897  0.5905 -0.4712  0.2342
 3862SOL    HW123045   1.170   3.277   4.962  1.5801 -0.8701 -0.8056
 3862SOL    HW223046   1.171   3.407   4.900 -2.5816  1.6519 -3.0103
 3863SOL     OW23047   3.485   2.942   1.828 -0.3433  0.3739  0.0354
 3863SOL    HW123048   3.555   2.961   1.891  1.0367  1.5850 -1.8584
 3863SOL    HW223049   3.527   2.959   1.744  1.1688 -0.6312  0.5834
 3864SOL     OW23050   2.823   2.757  13.175  0.2299 -0.3978  0.2975
 3864SOL    HW123051   2.752   2.749  13.112  0.3251 -0.8289  0.2448
 3864SOL    HW223052   2.791   2.814  13.244  1.0183 -3.2949  3.0263
 3865SOL     OW23053   1.853   1.570   8.819  0.1122  0.0600  0.2681
 3865SOL    HW123054   1.813   1.517   8.888 -0.8873 -1.6492 -1.6240
 3865SOL    HW223055   1.947   1.569   8.838 -0.2613 -3.2269  1.8827
 3866SOL     OW23056   1.010   1.008   3.229  0.4884 -0.1190  0.3536
 3866SOL    HW123057   1.012   0.916   3.255 -0.4360 -0.3550 -0.4296
 3866SOL    HW223058   1.054   0.991   3.146 -0.0471 -2.3857  0.5408
 3867SOL     OW23059   1.433   2.328  10.790 -0.3758 -0.6610  0.5988
 3867SOL    HW123060   1.420   2.353  10.698  0.1458 -1.0137  0.4332
 3867SOL    HW223061   1.359   2.374  10.831 -1.8087 -1.0055 -1.5770
 3868SOL     OW23062   0.571   1.322   5.223  0.4830 -0.5041 -0.4430
 3868SOL    HW123063   0.546   1.232   5.241 -0.8333 -0.0850 -0.2258
 3868SOL    HW223064   0.487   1.363   5.202  0.1018 -1.9247 -1.7517
 3869SOL     OW23065   3.735   0.165   8.100 -0.1065 -0.0715  0.0509
 3869SOL    HW123066   3.818   0.129   8.071 -0.7020 -1.9907  0.7476
 3869SOL    HW223067   3.673   0.101   8.065  1.9283 -1.9844 -0.0261
 3870SOL     OW23068   3.877   0.922  13.259  0.6516 -0.3866  0.3210
 3870SOL    HW123069   3.842   0.870  13.331 -1.4133 -0.2295 -0.5715
 3870SOL    HW223070   3.970   0.898  13.260  1.5947  3.1943  0.5304
 3871SOL     OW23071   0.947   4.622   3.831  0.2345 -0.3279 -0.0593
 3871SOL    HW123072   0.993   4.668   3.901 -0.2436  1.5817 -1.0065
 3871SOL    HW223073   0.867   4.603   3.879  0.3689 -1.9317 -0.4545
 3872SOL     OW23074   1.253   0.141   2.896 -0.5136 -0.0085  0.8524
 3872SOL    HW123075   1.192   0.083   2.849 -0.8711  0.0888  1.1932
 3872SOL    HW223076   1.328   0.086   2.917  0.7019  1.5201  0.4521
 3873SOL     OW23077   0.088   0.128   9.459  0.2028  0.0206  0.0972
 3873SOL    HW123078   0.104   0.062   9.391 -2.5269 -0.6060  0.0714
 3873SOL    HW223079   0.144   0.097   9.531 -3.3815  0.1029  2.9186
 3874SOL     OW23080   1.681   2.561   3.761 -0.4794 -0.0318 -0.0508
 3874SOL    HW123081   1.607   2.587   3.814 -0.8862 -0.9720 -0.1566
 3874SOL    HW223082   1.638   2.489   3.715 -1.6343  1.8150 -1.9044
 3875SOL     OW23083   1.134   0.205   0.979  0.5610  0.2172 -0.3358
 3875SOL    HW123084   1.119   0.299   0.967 -1.3365  0.2504  2.4063
 3875SOL    HW223085   1.216   0.203   1.028 -1.0198 -0.7934  2.2351
 3876SOL     OW23086   0.560   2.013   5.094 -0.3121  0.4263  0.1588
 3876SOL    HW123087   0.637   1.958   5.082 -0.7431 -0.2280  0.3569
 3876SOL    HW223088   0.483   1.956   5.084  1.7420 -2.4689  0.9443
 3877SOL     OW23089   3.315   2.600  15.505  0.0569  0.0889  0.0653
 3877SOL    HW123090   3.332   2.507  15.521 -2.4767 -0.3486  0.3373
 3877SOL    HW223091   3.237   2.589  15.451  0.0701  1.8099 -0.2821
 3878SOL     OW23092   2.294   1.434   6.678  0.2566  0.0546  0.4945
 3878SOL    HW123093   2.298   1.344   6.711  0.9815 -0.5944 -1.3648
 3878SOL    HW223094   2.249   1.418   6.595  3.0377 -1.8131 -0.6679
 3879SOL     OW23095   4.642   4.217   1.175 -0.6026 -0.1442 -0.0936
 3879SOL    HW123096   4.687   4.223   1.259 -0.1782  0.5420 -0.3737
 3879SOL    HW223097   4.572   4.281   1.181 -1.5473 -1.1042 -0.7205
 3880SOL     OW23098   1.517   0.814   3.807 -0.4309  0.2406 -0.5577
 3880SOL    HW123099   1.608   0.788   3.816 -0.0980  1.7648  0.4293
 3880SOL    HW223100   1.474   0.824   3.892 -1.8617 -2.3088 -0.9482
 3881SOL     OW23101   1.369   3.726   5.164  0.1505  0.2509  0.0784
 3881SOL    HW123102   1.383   3.738   5.257  2.5003  2.5968 -0.5963
 3881SOL    HW223103   1.456   3.738   5.126  0.3695 -1.0965  0.1491
 3882SOL     OW23104   0.303   0.316   3.235 -0.1630  0.6071 -0.2775
 3882SOL    HW123105   0.362   0.389   3.253  1.1117 -0.0673 -1.7970
 3882SOL    HW223106   0.242   0.346   3.167 -0.2902 -1.6890 -1.1771
 3883SOL     OW23107   3.857   2.474   0.191 -1.0419 -0.4410 -0.7481
 3883SOL    HW123108   3.938   2.430   0.219 -1.0128  1.2408  1.8450
 3883SOL    HW223109   3.795   2.458   0.263 -1.1505 -1.6614 -1.1143
 3884SOL     OW23110   0.708   4.405  11.315  0.1063  0.0147 -0.3504
 3884SOL    HW123111   0.767   4.469  11.276  1.2019 -0.5897  0.3119
 3884SOL    HW223112   0.690   4.349  11.239 -0.5459  1.5905 -1.3384
 3885SOL     OW23113   4.343   1.500   3.464  0.1519 -0.0748 -0.5102
 3885SOL    HW123114   4.313   1.555   3.391  0.4358  0.9762  0.1575
 3885SOL    HW223115   4.298   1.419   3.439  1.3698 -0.5602 -1.1034
 3886SOL     OW23116   0.140   3.539  12.922 -0.3539  0.5342 -0.3645
 3886SOL    HW123117   0.168   3.627  12.946 -0.9259  0.6568 -0.1371
 3886SOL    HW223118   0.047   3.550  12.939 -0.0700  1.4102  0.5685
 3887SOL     OW23119   3.089   3.754   9.622  0.0761  0.4078  0.0560
 3887SOL    HW123120   3.170   3.796   9.651 -0.3772  1.3311  0.0083
 3887SOL    HW223121   3.029   3.828   9.629  1.5162  1.5884  0.0064
 3888SOL     OW23122   3.633   1.291   6.774 -0.4647 -0.9298  0.2355
 3888SOL    HW123123   3.552   1.261   6.814 -0.3167  0.1106  1.3141
 3888SOL    HW223124   3.701   1.238   6.816 -1.0830 -0.9496  1.2049
 3889SOL     OW23125   0.267   0.794   8.000 -0.0419  0.5219  0.0877
 3889SOL    HW123126   0.288   0.713   8.046  0.4295  0.8847  0.5065
 3889SOL    HW223127   0.223   0.768   7.920  2.1652  0.7566 -1.2042
 3890SOL     OW23128   1.617   1.241   8.597  0.2600 -0.8967  0.1712
 3890SOL    HW123129   1.572   1.173   8.547 -1.9908  0.2248  0.6922
 3890SOL    HW223130   1.698   1.193   8.614  0.8639 -0.5298 -1.6434
 3891SOL     OW23131   3.833   0.139   7.753 -0.0851  0.0560 -0.3942
 3891SOL    HW123132   3.810   0.232   7.756 -0.7256 -0.1796  2.5155
 3891SOL    HW223133   3.910   0.146   7.809  1.2696 -3.6492 -1.8016
 3892SOL     OW23134   3.225   2.293  15.667  0.4154  0.2852  0.2951
 3892SOL    HW123135   3.227   2.240  15.587 -0.2377  0.2926  0.2760
 3892SOL    HW223136   3.140   2.338  15.667 -0.0560 -0.6319 -2.3572
 3893SOL     OW23137   1.557   3.176   9.833  0.3384 -0.0391  0.0656
 3893SOL    HW123138   1.604   3.124   9.898 -0.4156  2.5048  2.6894
 3893SOL    HW223139   1.563   3.266   9.868 -0.8673  0.4226 -0.9512
 3894SOL     OW23140   2.453   1.131   2.783 -0.2123  0.0888  0.2173
 3894SOL    HW123141   2.500   1.091   2.710  0.7055  0.6583  0.4965
 3894SOL    HW223142   2.469   1.069   2.854 -2.1283 -1.0699 -0.3783
 3895SOL     OW23143   0.389   0.258  15.163 -0.4841  0.2736  0.3726
 3895SOL    HW123144   0.451   0.194  15.198 -0.0865 -0.2556 -1.2652
 3895SOL    HW223145   0.320   0.199  15.131  0.0753  1.5456 -3.1677
 3896SOL     OW23146   3.405   0.710   5.414 -0.0595 -0.0680 -0.4773
 3896SOL    HW123147   3.475   0.674   5.468 -0.1473  0.0328 -0.2994
 3896SOL    HW223148   3.378   0.787   5.463 -0.9318 -0.5174 -0.2439
 3897SOL     OW23149   0.399   0.392  10.822  0.2207  0.1086  0.2897
 3897SOL    HW123150   0.445   0.325  10.772 -0.6338  0.3536 -0.8257
 3897SOL    HW223151   0.474   0.400  10.880  0.2630  2.2536 -0.0362
 3898SOL     OW23152   4.250   4.021   3.945  0.1725 -0.2278 -0.2386
 3898SOL    HW123153   4.307   4.074   4.001  0.8906 -0.7171 -0.5003
 3898SOL    HW223154   4.197   3.981   4.014 -0.6608  0.7963 -0.2923
 3899SOL     OW23155   3.584   3.093   8.993  0.3044  0.0104 -0.1301
 3899SOL    HW123156   3.558   3.184   9.005  1.8290  0.0406  2.9995
 3899SOL    HW223157   3.571   3.059   9.082  1.0835  0.5393  0.1826
 3900SOL     OW23158   0.264   4.403  13.353 -0.1521 -0.1316  0.3073
 3900SOL    HW123159   0.180   4.430  13.389  1.1439  1.1730  2.3497
 3900SOL    HW223160   0.249   4.308  13.359 -2.9612  0.1675 -2.2053
 3901SOL     OW23161   0.436   3.095  13.515  0.1778  0.1147 -0.7789
 3901SOL    HW123162   0.343   3.093  13.535  0.5653  0.5928  1.0783
 3901SOL    HW223163   0.470   3.092  13.605 -0.9911  2.8176 -0.2413
 3902SOL     OW23164   1.685   1.088   2.633  0.0532  0.4316  0.3045
 3902SOL    HW123165   1.775   1.055   2.634  0.1724  0.8186  2.7717
 3902SOL    HW223166   1.662   1.066   2.542  0.3969  1.2933  0.0138
 3903SOL     OW23167   1.435   4.677   8.225 -0.0427 -0.0056  0.2786
 3903SOL    HW123168   1.367   0.025   8.224 -0.9289 -0.8828  3.0519
 3903SOL    HW223169   1.473   4.684   8.312 -0.6524  0.1268  0.5292
 3904SOL     OW23170   2.635   1.791  12.256  0.2543  0.0359  0.0629
 3904SOL    HW123171   2.678   1.733  12.319  1.2359  0.4626 -0.2075
 3904SOL    HW223172   2.548   1.798  12.296  0.6661  0.4685  0.8955
 3905SOL     OW23173   3.610   4.440   3.470  0.0341  0.3128  0.5333
 3905SOL    HW123174   3.686   4.485   3.507 -0.1947 -0.0412  1.4326
 3905SOL    HW223175   3.631   4.351   3.500  2.9872  0.7363 -0.2653
 3906SOL     OW23176   3.325   0.739  17.544  0.2831 -0.3248 -0.5265
 3906SOL    HW123177   3.262   0.810  17.536 -1.8555 -2.2549 -1.0080
 3906SOL    HW223178   3.323   0.727  17.639  1.3723  0.1559 -0.4515
 3907SOL     OW23179   3.068   1.665   0.680 -0.3680  0.4251  0.6590
 3907SOL    HW123180   3.117   1.739   0.716 -0.6471  1.2523 -0.6454
 3907SOL    HW223181   3.025   1.634   0.760 -3.2027 -0.5022 -1.2017
 3908SOL     OW23182   0.734   0.426  10.624  0.0392  0.2392  0.2814
 3908SOL    HW123183   0.726   0.515  10.589 -0.1020  0.2121  0.2451
 3908SOL    HW223184   0.656   0.393  10.580  0.6324  0.7068 -1.1296
 3909SOL     OW23185   4.633   1.368  16.974  0.0652  0.2213  0.2462
 3909SOL    HW123186   4.699   1.367  17.043  1.1983 -1.7330 -0.8644
 3909SOL    HW223187   4.679   1.423  16.912 -0.2175  2.3402  1.8955
 3910SOL     OW23188   2.582   2.729   7.930 -0.3095 -0.3026  0.4147
 3910SOL    HW123189   2.568   2.696   8.019 -2.8888  1.4676  0.6404
 3910SOL    HW223190   2.493   2.760   7.913 -0.6199 -2.1908 -1.5040
 3911SOL     OW23191   0.236   0.002  11.202 -0.6170  0.3905 -0.1740
 3911SOL    HW123192   0.271   0.087  11.231  2.5557 -0.1537 -2.3664
 3911SOL    HW223193   0.302   4.667  11.246 -0.0887  1.0983 -0.0976
 3912SOL     OW23194   1.630   4.290  14.369 -0.6267  0.0271  0.0999
 3912SOL    HW123195   1.608   4.296  14.462 -1.0431 -2.0166  0.1325
 3912SOL    HW223196   1.606   4.378  14.343  0.1796  0.4853  0.8735
 3913SOL     OW23197   3.406   1.408   3.597  0.1170  0.2951 -0.1445
 3913SOL    HW123198   3.353   1.353   3.538  1.7004  1.3137 -2.5386
 3913SOL    HW223199   3.336   1.439   3.653 -1.7628 -3.0720 -0.6409
 3914SOL     OW23200   4.633   0.381  11.263  0.6856 -0.0544 -0.0862
 3914SOL    HW123201   4.655   0.464  11.305 -3.2943  0.0524  1.7690
 3914SOL    HW223202   4.700   0.381  11.195 -1.2863  1.1331 -2.0240
 3915SOL     OW23203   2.054   3.277  13.700 -0.1692 -0.1204  0.2001
 3915SOL    HW123204   2.149   3.266  13.704  0.1012  1.1505 -2.3930
 3915SOL    HW223205   2.048   3.309  13.610 -2.0740  2.2337  1.1494
 3916SOL     OW23206   0.380   4.079   6.130  0.2848 -0.2379 -0.0481
 3916SOL    HW123207   0.367   4.004   6.187  1.8000 -1.4089 -1.2595
 3916SOL    HW223208   0.356   4.038   6.047  1.8839 -0.5936 -0.3315
 3917SOL     OW23209   3.129   0.015   3.530 -0.0181 -0.3276 -0.0142
 3917SOL    HW123210   3.187   4.671   3.487 -0.9742 -1.1909 -0.0336
 3917SOL    HW223211   3.044   4.697   3.506 -0.2357  0.0794  0.1189
 3918SOL     OW23212   1.093   3.350   9.228 -0.2843  0.6078 -0.0558
 3918SOL    HW123213   1.014   3.389   9.190 -2.1428 -2.1009  1.0207
 3918SOL    HW223214   1.119   3.296   9.154 -1.4044 -1.2453  0.9083
 3919SOL     OW23215   4.165   0.983   2.366  0.1924  0.0016  0.0772
 3919SOL    HW123216   4.184   0.917   2.300 -0.2540  0.8139 -0.8540
 3919SOL    HW223217   4.166   0.923   2.441  0.6931 -1.1371 -0.8374
 3920SOL     OW23218   3.304   2.180   9.069 -0.7094  0.3725  0.2289
 3920SOL    HW123219   3.378   2.143   9.117 -0.7655 -1.8256 -1.4005
 3920SOL    HW223220   3.239   2.187   9.138  0.9351  0.5103  1.7713
 3921SOL     OW23221   4.327   0.455   7.784  0.3344  0.0065 -0.2639
 3921SOL    HW123222   4.288   0.528   7.832  0.1794 -1.5966  2.0386
 3921SOL    HW223223   4.252   0.441   7.727  1.2077 -0.4472 -1.2878
 3922SOL     OW23224   0.516   2.581   3.008  0.1423  0.0221  0.4953
 3922SOL    HW123225   0.594   2.634   2.997 -0.0432  0.0489 -0.6335
 3922SOL    HW223226   0.451   2.643   3.042  0.3696  1.6551 -2.1199
 3923SOL     OW23227   3.141   4.082  12.846  0.4918 -0.0378  0.3517
 3923SOL    HW123228   3.105   4.168  12.825  0.0450  0.0794  1.6177
 3923SOL    HW223229   3.229   4.104  12.814 -0.2409  0.1844 -1.4949
 3924SOL     OW23230   4.436   1.301   3.771  0.6006 -0.2665 -0.1893
 3924SOL    HW123231   4.377   1.248   3.718  1.8688  0.1757 -2.0450
 3924SOL    HW223232   4.401   1.389   3.756 -0.2966 -1.1282 -3.0982
 3925SOL     OW23233   1.590   0.736   4.862 -0.3424 -0.1136 -0.3198
 3925SOL    HW123234   1.642   0.657   4.875 -1.0364 -0.2273  1.6578
 3925SOL    HW223235   1.537   0.741   4.941  1.0236  0.6803  0.5466
 3926SOL     OW23236   2.455   0.847   4.820 -0.4797 -0.0342 -0.0991
 3926SOL    HW123237   2.505   0.768   4.797 -1.0972 -0.1176 -1.1544
 3926SOL    HW223238   2.467   0.841   4.915  0.9431  0.7739 -0.2261
 3927SOL     OW23239   2.627   4.132  11.169 -0.2001 -0.1437  0.1250
 3927SOL    HW123240   2.625   4.205  11.230 -1.4068 -0.4676  0.4665
 3927SOL    HW223241   2.653   4.184  11.093  1.5425 -0.2946  0.6175
 3928SOL     OW23242   2.119   1.391  11.726  0.4351  0.0509  0.0953
 3928SOL    HW123243   2.142   1.339  11.650  0.9006 -1.1843  1.0722
 3928SOL    HW223244   2.201   1.391  11.776  0.0852 -1.2127  0.6566
 3929SOL     OW23245   2.440   4.131  13.729 -0.2633 -0.3211 -0.1788
 3929SOL    HW123246   2.401   4.096  13.809 -1.9546  4.0027  0.8991
 3929SOL    HW223247   2.364   4.119  13.671 -0.4078 -0.3430  0.0136
 3930SOL     OW23248   4.689   0.607   3.113  0.7067 -0.4433  0.7262
 3930SOL    HW123249   4.684   0.580   3.204  0.3388 -0.1784  0.7838
 3930SOL    HW223250   4.607   0.656   3.110  1.0060  0.0208 -0.1531
 3931SOL     OW23251   1.459   4.280   7.052 -0.4405  0.4676  0.7190
 3931SOL    HW123252   1.486   4.249   7.138  1.7469 -1.2431 -0.5863
 3931SOL    HW223253   1.491   4.370   7.056  0.2862  0.3204 -1.5145
 3932SOL     OW23254   3.763   0.808   4.558 -0.7594 -0.1947  0.2278
 3932SOL    HW123255   3.796   0.746   4.494 -2.0644 -2.0578  1.3662
 3932SOL    HW223256   3.669   0.792   4.548 -1.0145  1.1397  0.4291
 3933SOL     OW23257   2.232   2.478  11.279  0.1032  0.5276  0.6809
 3933SOL    HW123258   2.267   2.416  11.215  0.7626  0.6840  0.8934
 3933SOL    HW223259   2.147   2.505  11.244  1.0379  2.1492 -0.3721
 3934SOL     OW23260   2.645   3.783  12.694 -0.0298 -0.2386  0.2827
 3934SOL    HW123261   2.688   3.861  12.730 -0.2303  1.8439 -3.9650
 3934SOL    HW223262   2.635   3.805  12.602 -2.0618 -1.0247  0.3204
 3935SOL     OW23263   3.823   3.091  12.070 -0.2767  0.8694 -0.4823
 3935SOL    HW123264   3.732   3.077  12.042 -1.2611  1.1144  2.5497
 3935SOL    HW223265   3.881   3.058  12.002 -1.2199 -2.3301  0.2647
 3936SOL     OW23266   1.695   1.249   4.710  0.0281  0.1572  0.1022
 3936SOL    HW123267   1.666   1.158   4.709 -3.0943  1.2100 -3.3057
 3936SOL    HW223268   1.790   1.239   4.716  0.0023  0.3050  0.8218
 3937SOL     OW23269   1.846   2.014   9.426  0.5251 -0.4002 -0.3730
 3937SOL    HW123270   1.936   2.002   9.394  0.8870 -0.1762  0.5333
 3937SOL    HW223271   1.835   2.106   9.404  0.5306 -0.2682  0.1660
 3938SOL     OW23272   1.050   2.084   1.774  0.1816  0.0823 -0.1433
 3938SOL    HW123273   1.078   2.115   1.688  0.2183  0.6986  0.0875
 3938SOL    HW223274   0.956   2.083   1.755 -0.3247  1.1980  2.3390
 3939SOL     OW23275   1.959   3.500  17.497  0.3259 -0.0348  0.2428
 3939SOL    HW123276   2.007   3.553  17.561  2.4026 -2.4390  0.6852
 3939SOL    HW223277   2.028   3.437  17.474  0.2034 -0.3331  0.6768
 3940SOL     OW23278   2.673   1.444   6.743  0.1936 -0.0897 -0.2167
 3940SOL    HW123279   2.607   1.508   6.772  1.0267 -0.1735  1.8291
 3940SOL    HW223280   2.677   1.466   6.650  3.0646  2.2462  0.4482
 3941SOL     OW23281   2.778   4.185   6.288  0.0257 -0.5556 -0.2855
 3941SOL    HW123282   2.798   4.154   6.377  2.1581 -1.3381 -1.0334
 3941SOL    HW223283   2.696   4.141   6.267 -1.0956  1.6670 -0.6056
 3942SOL     OW23284   3.483   1.568   5.325 -0.0947  0.3596  0.1923
 3942SOL    HW123285   3.451   1.478   5.319 -1.2062  0.7725 -0.0906
 3942SOL    HW223286   3.453   1.593   5.413 -0.7262 -1.8709  0.6018
 3943SOL     OW23287   1.402   0.019   8.733  0.1739  0.8096  0.3377
 3943SOL    HW123288   1.362   4.696   8.809  0.4193 -1.3779 -0.7334
 3943SOL    HW223289   1.490   0.048   8.756  0.7071  0.5362 -1.3282
 3944SOL     OW23290   2.305   2.947   6.659  0.2620  0.5718  0.5372
 3944SOL    HW123291   2.264   2.984   6.581 -0.6111  1.5622  1.4609
 3944SOL    HW223292   2.329   2.860   6.627 -1.1053  1.0723 -1.8457
 3945SOL     OW23293   3.993   3.489  10.479 -0.3800  0.1419 -0.0683
 3945SOL    HW123294   4.050   3.565  10.492 -0.1056 -0.1852  0.6026
 3945SOL    HW223295   3.981   3.457  10.569 -1.3023 -0.7287 -0.4981
 3946SOL     OW23296   3.097   0.558   8.442  0.2235 -0.0005 -0.4639
 3946SOL    HW123297   3.010   0.589   8.467  0.8677  0.5903  1.0596
 3946SOL    HW223298   3.078   0.465   8.431  0.3285 -0.0131 -0.5507
 3947SOL     OW23299   4.036   1.224   2.486 -0.2770  0.5638 -0.8883
 3947SOL    HW123300   3.968   1.290   2.491  1.0921  1.9438 -0.3854
 3947SOL    HW223301   4.111   1.270   2.525  0.4822  0.0392 -1.7230
 3948SOL     OW23302   4.565   3.579   2.547 -0.0772 -0.4692  0.4205
 3948SOL    HW123303   4.491   3.623   2.505  1.2047  2.4820  1.2547
 3948SOL    HW223304   4.568   3.624   2.632  0.3485  2.2589 -1.0752
 3949SOL     OW23305   0.154   1.391   2.383  0.1280  0.2826  0.0127
 3949SOL    HW123306   0.240   1.408   2.344  0.3202  0.2040  0.3931
 3949SOL    HW223307   0.130   1.481   2.403 -3.2548 -0.5092 -0.5481
 3950SOL     OW23308   0.359   3.438   0.678  0.1997 -0.3018 -0.7722
 3950SOL    HW123309   0.410   3.460   0.600 -1.3279  1.4367 -1.2695
 3950SOL    HW223310   0.318   3.522   0.698 -0.8734 -0.9046 -0.4181
 3951SOL     OW23311   3.197   4.223   2.456  0.1968  0.2256 -0.1450
 3951SOL    HW123312   3.260   4.262   2.394 -0.2512  1.8270  0.4186
 3951SOL    HW223313   3.139   4.190   2.388  1.2895 -0.6566 -0.6567
 3952SOL     OW23314   2.617   3.616  13.761  0.7025  0.1833  0.4964
 3952SOL    HW123315   2.660   3.700  13.745  0.4868  0.8036  3.3259
 3952SOL    HW223316   2.618   3.598  13.855 -1.1159  0.0515  0.5003
 3953SOL     OW23317   1.143   4.024   2.710 -0.0986 -0.3882 -0.2824
 3953SOL    HW123318   1.166   4.035   2.618  1.1676  1.4070  0.2342
 3953SOL    HW223319   1.047   4.026   2.713 -0.0454 -0.5905  1.6208
 3954SOL     OW23320   0.053   0.048  10.171  0.0861 -0.2239  0.5455
 3954SOL    HW123321   0.145   0.052  10.147 -0.6665 -0.7703 -2.4139
 3954SOL    HW223322   0.053   4.682  10.216 -1.3394 -0.0877  0.8172
 3955SOL     OW23323   3.425   1.576  16.657 -0.4858 -0.6390  0.2976
 3955SOL    HW123324   3.352   1.526  16.693 -0.5561 -0.8474 -0.1428
 3955SOL    HW223325   3.387   1.661  16.680 -1.1513 -0.6626 -0.7445
 3956SOL     OW23326   3.651   3.671  10.896  0.2072 -0.0517  0.4798
 3956SOL    HW123327   3.722   3.682  10.959  0.5921  0.5599 -0.0622
 3956SOL    HW223328   3.697   3.650  10.814 -1.8188  0.1443 -0.7242
 3957SOL     OW23329   2.227   0.597   1.148 -0.1812  0.1706  0.2102
 3957SOL    HW123330   2.154   0.536   1.146  0.8282 -1.0213 -0.4877
 3957SOL    HW223331   2.261   0.587   1.059 -0.4544  0.7426  0.0374
 3958SOL     OW23332   0.936   1.626   0.645 -0.1915 -0.0148  0.1010
 3958SOL    HW123333   0.919   1.533   0.629  1.4173 -0.4970  1.1532
 3958SOL    HW223334   0.849   1.662   0.657 -0.6275 -0.6909 -1.0276
 3959SOL     OW23335   2.242   1.106   6.620  0.1312  0.2886  0.1110
 3959SOL    HW123336   2.225   1.139   6.532  0.3911  0.1866  0.0221
 3959SOL    HW223337   2.164   1.055   6.641  0.0924  0.3161  0.0340
 3960SOL     OW23338   3.273   0.120   5.681  0.0598 -0.1353 -0.5062
 3960SOL    HW123339   3.248   0.207   5.710  1.3116  0.0262  0.0749
 3960SOL    HW223340   3.308   0.150   5.597  1.1787  2.2665  0.8439
 3961SOL     OW23341   0.314   1.685   0.795 -0.1038  0.5272  0.4727
 3961SOL    HW123342   0.299   1.775   0.767 -0.3680 -0.0561 -1.2439
 3961SOL    HW223343   0.346   1.641   0.716 -2.0558 -0.1671  0.0806
 3962SOL     OW23344   0.116   1.515   5.921  0.0984  0.2637 -0.0729
 3962SOL    HW123345   0.038   1.571   5.914 -0.2805 -0.0008  2.1627
 3962SOL    HW223346   0.088   1.443   5.978 -0.1835 -0.8904 -1.6785
 3963SOL     OW23347   0.015   3.743   5.176  0.4289 -0.2448 -0.1698
 3963SOL    HW123348   0.016   3.650   5.151 -0.7903  0.1275 -1.5835
 3963SOL    HW223349   0.033   3.789   5.094  0.2156 -0.8530 -0.5538
 3964SOL     OW23350   0.425   3.084  11.376 -0.3673 -0.1843  0.1108
 3964SOL    HW123351   0.384   3.033  11.446  0.3947 -0.8335  0.0828
 3964SOL    HW223352   0.352   3.102  11.317  1.0041  2.3432 -0.8165
 3965SOL     OW23353   0.218   2.107   7.072  0.7833  0.2001  0.3004
 3965SOL    HW123354   0.255   2.140   7.154 -1.6078 -0.0302  1.4712
 3965SOL    HW223355   0.135   2.156   7.069  1.2716  0.9309 -1.1983
 3966SOL     OW23356   1.320   2.331   7.113 -0.1281  0.6568  0.3304
 3966SOL    HW123357   1.294   2.246   7.077  3.4857 -0.7824  1.0758
 3966SOL    HW223358   1.404   2.307   7.153 -0.6226  1.7827  2.0381
 3967SOL     OW23359   1.800   2.821   7.159 -0.2979  0.1261 -0.1740
 3967SOL    HW123360   1.861   2.793   7.227 -1.1457 -0.6150  0.2915
 3967SOL    HW223361   1.762   2.734   7.150  1.3121 -0.3017 -2.7059
 3968SOL     OW23362   0.079   2.707  14.766 -0.2445 -0.0892 -0.1289
 3968SOL    HW123363   0.017   2.691  14.837 -1.5553 -1.9611 -1.7004
 3968SOL    HW223364   0.036   2.664  14.691 -0.2807 -0.6877  0.2352
 3969SOL     OW23365   0.073   2.209   9.223 -0.2128  0.1921  0.4665
 3969SOL    HW123366   0.161   2.209   9.260 -0.3692 -2.5220  0.8184
 3969SOL    HW223367   0.030   2.142   9.276 -2.7409  0.6249 -1.0437
 3970SOL     OW23368   0.768   1.359  12.250 -0.3907 -0.1752 -0.7359
 3970SOL    HW123369   0.832   1.346  12.180  0.9713 -2.3031  0.8834
 3970SOL    HW223370   0.753   1.267  12.273 -2.0995 -0.1065 -1.6035
 3971SOL     OW23371   0.716   1.164   0.923 -0.1811  0.1074  0.1995
 3971SOL    HW123372   0.683   1.131   0.839 -0.6051 -0.2472  0.5007
 3971SOL    HW223373   0.690   1.256   0.920 -0.2095  0.0677 -0.7906
 3972SOL     OW23374   3.022   2.275   6.662 -0.0521  0.3231 -0.3132
 3972SOL    HW123375   3.117   2.267   6.651  0.4068  3.1267  1.5722
 3972SOL    HW223376   2.993   2.355   6.618 -0.1428 -0.1606 -1.1369
 3973SOL     OW23377   0.580   1.243  16.378  0.0250  0.2283 -0.2966
 3973SOL    HW123378   0.555   1.170  16.321  1.2145 -1.6293  1.5431
 3973SOL    HW223379   0.652   1.287  16.332  0.2604  1.3228  1.1142
 3974SOL     OW23380   0.815   3.986  10.246  0.2498  0.7770 -0.0379
 3974SOL    HW123381   0.823   3.955  10.155 -1.8036  0.4111 -0.1062
 3974SOL    HW223382   0.825   4.079  10.226  2.9924  0.4808 -0.0433
 3975SOL     OW23383   4.343   4.336   2.519  0.4395  0.2169  0.0674
 3975SOL    HW123384   4.296   4.345   2.437  0.4468 -1.6653 -0.1376
 3975SOL    HW223385   4.289   4.278   2.573  0.8025  1.0862  1.3820
 3976SOL     OW23386   3.799   0.193   5.045  0.4053  0.1568  0.1090
 3976SOL    HW123387   3.804   0.099   5.027  1.1912 -0.0420  1.3739
 3976SOL    HW223388   3.722   0.218   4.994  0.0047 -2.3399 -0.5082
 3977SOL     OW23389   3.773   2.627   5.108  0.4521 -0.3429 -0.7115
 3977SOL    HW123390   3.863   2.660   5.113  1.1216 -2.5893  1.9159
 3977SOL    HW223391   3.715   2.694   5.072  2.0635  0.2826 -2.1502
 3978SOL     OW23392   1.051   1.663   5.427  0.1397  0.0153  0.6752
 3978SOL    HW123393   1.082   1.750   5.400 -3.2301  0.3847 -1.8964
 3978SOL    HW223394   1.048   1.632   5.337  1.6899 -1.4758  1.1212
 3979SOL     OW23395   4.614   0.536  12.776 -0.4992 -0.0301 -0.1356
 3979SOL    HW123396   4.638   0.516  12.866 -1.3254 -1.3303 -0.2141
 3979SOL    HW223397   4.537   0.586  12.801 -1.9464 -1.4975 -1.6652
 3980SOL     OW23398   0.683   1.798   1.860  0.0847  0.4987  0.1747
 3980SOL    HW123399   0.615   1.852   1.819  0.1879 -0.1650 -0.8618
 3980SOL    HW223400   0.652   1.772   1.947  1.0228  0.9476  0.6507
 3981SOL     OW23401   3.755   4.220   5.306 -0.1884  0.1124 -0.2846
 3981SOL    HW123402   3.841   4.245   5.341 -1.5436  0.7428  2.5949
 3981SOL    HW223403   3.733   4.150   5.368  0.3309  0.4661  0.3034
 3982SOL     OW23404   4.342   4.689  12.229  0.4407 -0.0802 -0.2625
 3982SOL    HW123405   4.304   0.044  12.182 -2.7529 -1.1559  0.6005
 3982SOL    HW223406   4.414   4.716  12.285 -0.1770 -3.2604  2.0777
 3983SOL     OW23407   4.041   1.297   1.917  0.1304  0.0468  0.1337
 3983SOL    HW123408   4.025   1.304   2.011 -1.9648  0.6530 -0.2694
 3983SOL    HW223409   4.090   1.379   1.905  1.1014 -0.6424 -0.5897
 3984SOL     OW23410   4.111   0.096   5.871 -0.1895  0.7148 -0.1100
 3984SOL    HW123411   4.194   0.103   5.824  0.0267 -0.8097  0.0295
 3984SOL    HW223412   4.103   0.001   5.883 -1.4449  1.2165  2.9826
 3985SOL     OW23413   0.062   3.815  13.260 -0.4703  0.3264  0.4344
 3985SOL    HW123414   0.124   3.858  13.202 -1.1672 -0.4171 -0.8707
 3985SOL    HW223415   0.118   3.811  13.337  0.9873  0.8935 -0.5851
 3986SOL     OW23416   3.720   2.410   1.100 -0.5174 -0.4910  0.2834
 3986SOL    HW123417   3.710   2.358   1.021  0.7674  0.6308 -0.6241
 3986SOL    HW223418   3.689   2.347   1.165  0.8831 -0.5379  0.9008
 3987SOL     OW23419   2.651   1.918  12.845 -0.1074  0.6604  0.3353
 3987SOL    HW123420   2.746   1.910  12.836  0.0667  0.6048  2.3464
 3987SOL    HW223421   2.633   1.898  12.753 -2.2915  1.0069  0.6781
 3988SOL     OW23422   0.365   0.012   5.857 -0.3976  0.6864 -0.0883
 3988SOL    HW123423   0.426   4.693   5.920  1.6961  0.5144 -2.1946
 3988SOL    HW223424   0.321   4.651   5.828  0.0174  0.4561 -0.0889
 3989SOL     OW23425   3.391   1.693   3.897 -0.1527 -0.2334 -0.2009
 3989SOL    HW123426   3.381   1.657   3.985 -4.2467 -0.4013 -0.7419
 3989SOL    HW223427   3.387   1.787   3.914  1.9852 -0.3954  1.2133
 3990SOL     OW23428   3.470   3.962   7.351 -0.0854  0.0664 -0.5008
 3990SOL    HW123429   3.477   4.057   7.356  1.0527  0.0375 -1.5031
 3990SOL    HW223430   3.448   3.951   7.443 -0.9796  0.2208 -0.7018
 3991SOL     OW23431   1.292   2.644   8.462  0.0371  0.2202  1.1164
 3991SOL    HW123432   1.325   2.715   8.407  0.0631 -0.2094  0.5682
 3991SOL    HW223433   1.245   2.588   8.399 -3.1303  0.4731  3.2734
 3992SOL     OW23434   4.209   0.264   7.508 -0.3515 -0.2070  0.3813
 3992SOL    HW123435   4.230   0.193   7.447  2.2072  0.9186 -0.0476
 3992SOL    HW223436   4.260   0.334   7.468 -2.5427  2.1945  1.8167
 3993SOL     OW23437   3.854   4.217  13.399  0.0603  0.2284 -0.2887
 3993SOL    HW123438   3.851   4.185  13.309  3.0722  0.4018 -0.4240
 3993SOL    HW223439   3.944   4.249  13.392  0.0256  0.3266 -0.2851
 3994SOL     OW23440   2.024   3.113  13.929 -0.0467  0.4853 -0.0286
 3994SOL    HW123441   2.115   3.135  13.951  0.5872 -3.6542  1.4407
 3994SOL    HW223442   2.016   3.138  13.837 -2.1328 -0.5506 -0.1274
 3995SOL     OW23443   2.170   3.581   0.259 -0.1276 -0.5014  0.0891
 3995SOL    HW123444   2.254   3.614   0.227 -0.2862 -1.1346 -1.0010
 3995SOL    HW223445   2.119   3.569   0.179  2.1548  0.8663 -1.5709
 3996SOL     OW23446   0.165   4.224   6.215 -0.0304  0.0487  0.3005
 3996SOL    HW123447   0.193   4.269   6.295 -0.3116 -0.6939  0.8098
 3996SOL    HW223448   0.252   4.198   6.181 -0.5471  0.3941 -1.2966
 3997SOL     OW23449   0.407   0.319  12.773  0.3487 -0.0180  0.6481
 3997SOL    HW123450   0.346   0.279  12.711 -2.1623  0.5713  2.7395
 3997SOL    HW223451   0.352   0.343  12.847 -0.9044  0.6258 -0.4867
 3998SOL     OW23452   2.132   1.659   5.847  0.0240 -0.1021  0.2516
 3998SOL    HW123453   2.121   1.618   5.933  1.0304  0.3597  0.6045
 3998SOL    HW223454   2.138   1.576   5.800 -0.8435  1.2395 -2.1897
 3999SOL     OW23455   2.025   4.361  14.867 -0.4177 -0.6554  0.3619
 3999SOL    HW123456   2.046   4.383  14.776  0.7749 -0.2011  0.7395
 3999SOL    HW223457   2.035   4.448  14.904  2.4765  0.1964 -2.3647
 4000SOL     OW23458   3.404   1.086   6.455 -0.2388  0.4209 -0.0082
 4000SOL    HW123459   3.467   1.086   6.383 -0.9009  0.1122 -0.5844
 4000SOL    HW223460   3.339   1.148   6.423 -2.9722 -1.4430  1.9791
 4001SOL     OW23461   3.000   4.026  12.538  0.1508 -0.0947  0.2832
 4001SOL    HW123462   3.063   4.067  12.479  0.2523  1.8453  1.7522
 4001SOL    HW223463   3.003   4.069  12.623  2.3219  0.5706 -0.1150
 4002SOL     OW23464   2.780   3.840  15.144 -0.0046 -0.3431 -0.3007
 4002SOL    HW123465   2.814   3.877  15.225 -2.1034 -0.5772  0.7009
 4002SOL    HW223466   2.696   3.807  15.176 -0.0138 -0.8037 -0.7927
 4003SOL     OW23467   2.176   4.246   6.789  0.3162 -0.5697 -0.2880
 4003SOL    HW123468   2.146   4.201   6.868  0.0294 -1.9644 -1.1919
 4003SOL    HW223469   2.141   4.334   6.801 -0.2114 -0.8325  0.0780
 4004SOL     OW23470   1.203   2.299  10.342 -0.1307  0.4031 -0.4212
 4004SOL    HW123471   1.221   2.325  10.252 -2.4095 -0.3211 -1.0795
 4004SOL    HW223472   1.165   2.212  10.327 -0.2133  0.5097 -0.8318
 4005SOL     OW23473   3.529   2.062   3.543 -0.5436  0.2677  0.4310
 4005SOL    HW123474   3.601   2.057   3.605  0.3917 -1.8890 -0.8106
 4005SOL    HW223475   3.504   1.970   3.536 -0.4717  0.1499  1.8636
 4006SOL     OW23476   3.786   0.072  13.207 -0.6553 -0.9544 -0.1216
 4006SOL    HW123477   3.760   0.011  13.138 -2.5142  0.0398 -0.3091
 4006SOL    HW223478   3.858   0.029  13.252 -0.7275 -1.5457 -0.5753
 4007SOL     OW23479   2.136   3.055   5.600  0.0956 -0.1164 -0.7576
 4007SOL    HW123480   2.178   2.984   5.552  2.1699 -0.2819  1.2921
 4007SOL    HW223481   2.087   3.009   5.669 -1.0707  1.1199 -0.7428
 4008SOL     OW23482   0.402   4.593   4.658  0.0645  0.4215 -0.1245
 4008SOL    HW123483   0.385   4.648   4.734 -1.2486 -0.3072  0.1115
 4008SOL    HW223484   0.446   4.517   4.696 -1.0849 -0.2705 -0.1781
 4009SOL     OW23485   2.489   2.320   9.302  0.0033 -0.2553 -0.7155
 4009SOL    HW123486   2.553   2.317   9.373 -0.0116  0.1812 -0.6804
 4009SOL    HW223487   2.492   2.232   9.264 -0.2637 -0.6513  0.1827
 4010SOL     OW23488   3.878   1.175   8.001  0.2240 -0.4343 -0.3293
 4010SOL    HW123489   3.855   1.088   8.033 -0.7633  0.7268  2.1534
 4010SOL    HW223490   3.840   1.165   7.914  1.5922  0.7081 -1.0565
 4011SOL     OW23491   1.530   3.249  11.928 -0.5394 -0.1995  0.5258
 4011SOL    HW123492   1.454   3.208  11.967  0.0410 -0.0339  1.8277
 4011SOL    HW223493   1.546   3.324  11.984  0.4200 -0.1413  0.1794
 4012SOL     OW23494   4.099   3.515   7.033 -0.2533  0.0941  0.0758
 4012SOL    HW123495   4.135   3.603   7.045  2.2281 -0.4400 -3.4768
 4012SOL    HW223496   4.005   3.532   7.033  0.3116  3.1602 -0.8471
 4013SOL     OW23497   4.146   3.095  15.166 -0.3218 -0.5665  0.0822
 4013SOL    HW123498   4.115   3.039  15.237 -1.6330 -0.1821 -0.1987
 4013SOL    HW223499   4.230   3.052  15.151 -2.2548 -3.5213 -2.1510
 4014SOL     OW23500   2.174   4.639   9.735 -0.1715 -0.1732  0.1359
 4014SOL    HW123501   2.199   0.011   9.753 -0.1151 -0.0229 -0.7122
 4014SOL    HW223502   2.181   4.592   9.818 -1.5082  1.5227  1.2296
 4015SOL     OW23503   0.709   2.065   2.588  0.0397  0.2124 -0.3046
 4015SOL    HW123504   0.679   2.130   2.526  1.0609 -1.4553 -2.5280
 4015SOL    HW223505   0.715   2.116   2.669 -0.2166  0.3291 -0.3576
 4016SOL     OW23506   0.798   3.960  11.508  0.0976  0.6026  0.2331
 4016SOL    HW123507   0.766   4.002  11.428  0.6909 -1.4470 -1.0774
 4016SOL    HW223508   0.736   3.985  11.576 -2.1507  2.8308 -2.6945
 4017SOL     OW23509   0.377   2.713   8.597  0.0376 -0.2037 -0.0123
 4017SOL    HW123510   0.432   2.686   8.671  0.7696  0.8641 -0.1654
 4017SOL    HW223511   0.381   2.643   8.532 -0.6219  1.5637 -1.9292
 4018SOL     OW23512   3.625   2.451  15.669  0.2194  0.0840  0.1595
 4018SOL    HW123513   3.552   2.443  15.730  0.2726 -0.8322  0.1020
 4018SOL    HW223514   3.631   2.546  15.659 -0.2287 -0.0253 -1.1491
 4019SOL     OW23515   1.271   3.088   6.520  0.2204 -0.7775  0.0073
 4019SOL    HW123516   1.249   3.044   6.603  3.0667  0.4098  1.3677
 4019SOL    HW223517   1.366   3.080   6.524  0.3900  1.5236  1.0630
 4020SOL     OW23518   3.573   3.139   7.941  0.0385 -0.0366  0.5895
 4020SOL    HW123519   3.507   3.081   7.978  1.8489 -3.0583 -0.9348
 4020SOL    HW223520   3.517   3.209   7.907 -1.8225 -1.5054  0.6902
 4021SOL     OW23521   2.910   3.227  13.497 -0.2905 -0.6066  0.3823
 4021SOL    HW123522   2.892   3.200  13.587  0.8788 -0.2031  0.7340
 4021SOL    HW223523   2.945   3.146  13.459  0.2498 -0.0093 -0.4062
 4022SOL     OW23524   1.725   0.303   8.741 -0.2465  0.4205 -0.1474
 4022SOL    HW123525   1.788   0.367   8.707 -0.3188  0.8168  0.4540
 4022SOL    HW223526   1.641   0.347   8.727 -1.1979 -0.7081  2.1050
 4023SOL     OW23527   1.970   4.491   9.029 -0.6536 -0.1668 -0.3991
 4023SOL    HW123528   2.062   4.467   9.027 -1.0462 -1.8489  2.0130
 4023SOL    HW223529   1.956   4.489   9.124  1.7705 -1.7195 -0.0779
 4024SOL     OW23530   2.492   1.565   2.387 -0.1458 -0.1968  0.1590
 4024SOL    HW123531   2.440   1.635   2.346  1.0000  0.3338 -0.3987
 4024SOL    HW223532   2.582   1.598   2.379 -0.4776  1.0275  1.3701
 4025SOL     OW23533   2.058   3.874   4.752 -0.2131  0.6369  0.2178
 4025SOL    HW123534   2.000   3.931   4.702  0.7780  0.4588 -1.1264
 4025SOL    HW223535   2.022   3.787   4.735  1.5032 -0.3495  1.5925
 4026SOL     OW23536   2.105   4.640   7.877  0.2070  0.0338  0.0985
 4026SOL    HW123537   2.019   4.646   7.836 -0.0091 -1.1032  0.3711
 4026SOL    HW223538   2.113   4.545   7.888 -0.0412  0.0003 -0.0250
 4027SOL     OW23539   2.883   4.524   5.596  0.1632 -0.3906  0.0212
 4027SOL    HW123540   2.937   4.511   5.673  0.1711 -1.2047 -0.1188
 4027SOL    HW223541   2.950   4.531   5.527  0.8743  1.1848  0.8929
 4028SOL     OW23542   4.425   1.889   8.561 -0.3176  0.2313 -0.0178
 4028SOL    HW123543   4.419   1.795   8.576  1.8139 -0.0611 -1.0859
 4028SOL    HW223544   4.506   1.907   8.608 -0.0940 -0.8067 -0.0227
 4029SOL     OW23545   1.789   4.584   8.213  0.3285 -0.0890  0.0002
 4029SOL    HW123546   1.738   4.539   8.281 -0.9979  0.2069 -0.8008
 4029SOL    HW223547   1.866   4.622   8.256 -0.5373  0.8124  0.7619
 4030SOL     OW23548   3.170   1.145  14.544  0.9002  0.4901  0.3175
 4030SOL    HW123549   3.242   1.208  14.542  0.1878  1.2284 -2.8041
 4030SOL    HW223550   3.188   1.080  14.611 -0.7722  0.9209  1.1959
 4031SOL     OW23551   2.938   2.889   5.917 -0.3905 -0.4572 -0.0739
 4031SOL    HW123552   2.945   2.816   5.856  1.6327 -1.8518  1.8075
 4031SOL    HW223553   2.883   2.952   5.870  0.3523  0.5693  0.4363
 4032SOL     OW23554   2.236   2.366  10.578 -0.1030 -0.1347  0.1718
 4032SOL    HW123555   2.239   2.430  10.507 -1.3261  0.3250  0.5486
 4032SOL    HW223556   2.330   2.358  10.594 -0.4027 -0.5363  1.7516
 4033SOL     OW23557   3.970   0.848   4.003 -0.0596 -0.4617 -0.0920
 4033SOL    HW123558   3.939   0.895   3.925 -3.0935 -0.6588  0.9743
 4033SOL    HW223559   3.959   0.757   3.976 -0.5657 -0.6003  0.5874
 4034SOL     OW23560   2.203   0.745   8.802 -0.1426  1.0938 -0.4355
 4034SOL    HW123561   2.213   0.649   8.802  1.1790  1.2213 -0.5797
 4034SOL    HW223562   2.218   0.752   8.896  0.0238  1.8130 -0.5181
 4035SOL     OW23563   2.464   2.114   7.623  0.3819  0.0563 -0.1939
 4035SOL    HW123564   2.450   2.199   7.583 -2.7571 -1.6299 -2.6711
 4035SOL    HW223565   2.474   2.057   7.547 -0.2328  0.8196 -0.8406
 4036SOL     OW23566   3.749   2.440  15.046 -0.0804 -0.4728  0.2380
 4036SOL    HW123567   3.813   2.402  15.106  2.3379  0.2163 -1.9067
 4036SOL    HW223568   3.796   2.469  14.967 -1.3417 -1.6485 -0.9401
 4037SOL     OW23569   2.626   2.275   5.425  0.1095  0.5301  0.2099
 4037SOL    HW123570   2.698   2.338   5.429  0.3216  0.3721 -0.9491
 4037SOL    HW223571   2.551   2.333   5.415 -1.2388 -1.0373  1.4489
 4038SOL     OW23572   2.865   0.187  16.411 -0.0798  0.0642 -0.2613
 4038SOL    HW123573   2.938   0.146  16.457  1.0788  2.0541 -0.3374
 4038SOL    HW223574   2.923   0.255  16.378 -0.4270  0.1640 -0.6571
 4039SOL     OW23575   2.021   1.457  13.291 -0.5167 -0.0672 -0.2728
 4039SOL    HW123576   1.950   1.411  13.335 -0.1773 -0.5598 -0.2459
 4039SOL    HW223577   1.965   1.471  13.215 -0.9273 -1.6062 -0.2401
 4040SOL     OW23578   2.973   4.335   8.746 -0.3641  0.3742  0.3788
 4040SOL    HW123579   2.880   4.314   8.747 -0.7494  2.0742 -0.9011
 4040SOL    HW223580   2.969   4.425   8.715  1.3194 -0.1732 -1.4543
 4041SOL     OW23581   1.571   1.595  12.847  0.6832  0.3740  0.0723
 4041SOL    HW123582   1.520   1.553  12.778  2.0680 -1.7105  0.3162
 4041SOL    HW223583   1.615   1.521  12.888 -1.7070 -0.8465  0.4715
 4042SOL     OW23584   2.909   0.046   7.002  0.8474  0.0134  0.0002
 4042SOL    HW123585   2.862   0.068   6.922  0.3917  0.4049  0.3774
 4042SOL    HW223586   2.991   0.011   6.967  0.3444  0.1137 -1.2721
 4043SOL     OW23587   0.463   1.471  14.065  0.0253 -0.5362  0.3885
 4043SOL    HW123588   0.429   1.480  13.976 -2.5112 -1.0364  1.3014
 4043SOL    HW223589   0.416   1.548  14.098 -1.9820 -0.4965 -2.5745
 4044SOL     OW23590   1.464   3.312   6.788 -0.5328 -0.3189 -0.0777
 4044SOL    HW123591   1.527   3.374   6.749 -0.4936  0.7866  1.7203
 4044SOL    HW223592   1.505   3.226   6.782 -1.0801 -0.8315  3.1664
 4045SOL     OW23593   3.011   1.756   5.092  0.3549  0.3341 -0.3122
 4045SOL    HW123594   3.101   1.789   5.092  0.3252  0.4126 -2.7361
 4045SOL    HW223595   2.969   1.802   5.164 -0.1536  2.0307 -1.7026
 4046SOL     OW23596   0.718   1.773   8.799  0.1397  0.4595 -0.4346
 4046SOL    HW123597   0.703   1.678   8.799  0.1474  0.4425 -2.5879
 4046SOL    HW223598   0.812   1.763   8.810  0.2338  0.8718 -0.8451
 4047SOL     OW23599   1.486   4.491   4.002  0.0775  0.3251 -0.0065
 4047SOL    HW123600   1.480   4.567   3.944  1.8899 -1.2979 -2.3535
 4047SOL    HW223601   1.577   4.460   4.000  0.1147  0.4034  0.4170
 4048SOL     OW23602   1.585   2.926  15.927  0.0649 -0.2074 -0.6863
 4048SOL    HW123603   1.532   2.973  15.992 -2.7918 -2.1119 -1.6253
 4048SOL    HW223604   1.522   2.928  15.855 -1.7752  1.4597  0.9602
 4049SOL     OW23605   0.112   4.197   1.947 -0.1844 -0.8898 -0.4952
 4049SOL    HW123606   0.157   4.113   1.955  1.0535 -0.1771  0.0927
 4049SOL    HW223607   0.159   4.259   2.003  1.5303 -2.6021 -0.0543
 4050SOL     OW23608   1.068   0.284   4.905  0.2959 -0.2165 -0.4950
 4050SOL    HW123609   1.080   0.270   4.811  0.0515 -1.3807 -0.3592
 4050SOL    HW223610   1.000   0.221   4.931 -2.2482  3.0251  0.6848
 4051SOL     OW23611   3.525   3.451   5.857  0.2967  0.1421 -0.0630
 4051SOL    HW123612   3.608   3.469   5.812  0.4630 -1.9121 -0.5507
 4051SOL    HW223613   3.508   3.545   5.863 -1.6707 -0.1632 -0.9685
 4052SOL     OW23614   3.537   0.892   5.870 -0.4898 -0.1508  0.2570
 4052SOL    HW123615   3.619   0.921   5.830  0.7587 -1.9971  1.5005
 4052SOL    HW223616   3.488   0.973   5.854 -2.7188 -1.6571 -0.5449
 4053SOL     OW23617   4.001   1.798  14.450 -0.8604  0.0719  0.4302
 4053SOL    HW123618   3.971   1.727  14.393  1.1316  0.5581 -1.2704
 4053SOL    HW223619   3.947   1.873  14.425 -0.3443  0.1841 -0.3608
 4054SOL     OW23620   4.530   4.249   3.975 -0.0584  0.1142 -0.3955
 4054SOL    HW123621   4.572   4.179   3.925 -0.7586  0.0842 -0.9291
 4054SOL    HW223622   4.529   4.319   3.910 -0.5756  2.7871  2.4968
 4055SOL     OW23623   3.913   2.541   7.476 -0.0606  0.2497  0.1160
 4055SOL    HW123624   3.896   2.447   7.477 -0.9368  0.4276  1.4219
 4055SOL    HW223625   3.952   2.546   7.563  0.2522  0.0676 -0.0149
 4056SOL     OW23626   4.060   2.521   7.915  0.0651 -0.1029 -0.7925
 4056SOL    HW123627   4.125   2.471   7.964 -1.4303 -1.3359 -0.0558
 4056SOL    HW223628   4.082   2.607   7.950  0.0533 -0.3806 -0.0965
 4057SOL     OW23629   4.030   4.622   9.773 -0.1741 -0.3418 -0.1709
 4057SOL    HW123630   4.117   4.619   9.733 -1.3486 -0.7038 -2.7136
 4057SOL    HW223631   3.972   4.599   9.701 -2.0257 -0.2289  1.2925
 4058SOL     OW23632   2.211   4.338   9.015  0.5100  0.3998 -0.2618
 4058SOL    HW123633   2.242   4.425   8.993  0.3118  1.2278  2.8299
 4058SOL    HW223634   2.171   4.317   8.930 -0.9491 -0.4093  0.6208
 4059SOL     OW23635   0.869   1.256   3.484  0.0122  0.0574  0.2682
 4059SOL    HW123636   0.809   1.314   3.531 -0.0356 -0.0821  0.3806
 4059SOL    HW223637   0.915   1.217   3.559  1.2474 -1.9950 -1.5272
 4060SOL     OW23638   0.465   0.159   7.972  0.1390  0.2390  0.3254
 4060SOL    HW123639   0.417   0.192   7.896 -2.9224 -0.1197  2.0805
 4060SOL    HW223640   0.513   0.090   7.926 -0.3726 -1.1750  1.8949
 4061SOL     OW23641   2.269   2.821   9.199  0.2308 -0.3478  0.4067
 4061SOL    HW123642   2.338   2.786   9.255  0.6419 -1.2552 -0.6724
 4061SOL    HW223643   2.218   2.743   9.177 -3.2350  1.6609  1.3302
 4062SOL     OW23644   3.632   2.453   8.665 -0.8530 -0.4583  0.6646
 4062SOL    HW123645   3.648   2.544   8.639  0.9936 -1.1111 -0.4703
 4062SOL    HW223646   3.540   2.445   8.641 -1.0660  0.9950  1.0084
 4063SOL     OW23647   1.625   2.393   6.719 -0.1476  0.1208  0.1006
 4063SOL    HW123648   1.678   2.330   6.670 -0.9210  0.3434 -1.0209
 4063SOL    HW223649   1.554   2.336   6.749  0.0617 -0.5729 -0.7141
 4064SOL     OW23650   4.360   2.876  15.123 -0.4597 -0.8973  0.1690
 4064SOL    HW123651   4.353   2.870  15.028 -1.2132 -0.7096  0.2133
 4064SOL    HW223652   4.419   2.802  15.139  0.1589 -0.3770  0.2938
 4065SOL     OW23653   0.697   2.016   9.491  0.2202 -0.5901  0.2236
 4065SOL    HW123654   0.637   2.077   9.534 -0.1993 -0.1503 -0.9748
 4065SOL    HW223655   0.645   1.981   9.419 -0.8203 -0.5345  0.9346
 4066SOL     OW23656   3.850   2.987   7.268 -0.1119 -0.3170 -0.0146
 4066SOL    HW123657   3.803   2.935   7.333 -1.8575 -0.6988 -1.6049
 4066SOL    HW223658   3.930   3.010   7.315  1.5269 -2.4621 -1.7074
 4067SOL     OW23659   1.397   3.941  16.770  0.3298  0.0142  0.3934
 4067SOL    HW123660   1.333   3.902  16.829 -0.5454  2.0761  0.8016
 4067SOL    HW223661   1.340   3.964  16.696 -0.4470 -1.3674  0.5641
 4068SOL     OW23662   3.547   3.379  10.467 -0.1283  0.3632  0.4914
 4068SOL    HW123663   3.508   3.375  10.379  0.8801 -1.4234  0.1276
 4068SOL    HW223664   3.614   3.312  10.456 -0.9240 -0.4831  0.7220
 4069SOL     OW23665   1.832   0.724  14.161 -0.4154  0.1631 -0.3230
 4069SOL    HW123666   1.779   0.798  14.130 -0.9451  0.3461  1.0122
 4069SOL    HW223667   1.812   0.711  14.254 -2.1634 -0.1993 -0.7483
 4070SOL     OW23668   3.471   1.837   7.871  0.1019  0.3630 -0.1314
 4070SOL    HW123669   3.471   1.798   7.959  1.6797 -0.9892 -0.7236
 4070SOL    HW223670   3.474   1.760   7.814 -3.6217 -0.0524  0.2214
 4071SOL     OW23671   2.499   2.150   5.935  0.1750  0.7249 -0.0596
 4071SOL    HW123672   2.478   2.090   6.006 -2.0818  1.6523  0.0799
 4071SOL    HW223673   2.592   2.170   5.945 -0.2842  2.2255  1.1468
 4072SOL     OW23674   0.340   2.033  12.494  0.4209 -0.8419  0.0779
 4072SOL    HW123675   0.397   2.110  12.488  0.4367 -0.8475  0.1582
 4072SOL    HW223676   0.362   1.980  12.417  3.0769 -0.3350  0.4669
 4073SOL     OW23677   4.252   1.870   9.569 -0.4928  0.2306  0.1000
 4073SOL    HW123678   4.211   1.786   9.551  0.8721 -0.7590  1.6241
 4073SOL    HW223679   4.291   1.857   9.655 -0.6927  1.8949  0.4480
 4074SOL     OW23680   1.229   2.920   7.719 -0.6659 -0.2974  0.0362
 4074SOL    HW123681   1.196   2.830   7.717  0.1920 -0.6283  0.8083
 4074SOL    HW223682   1.297   2.910   7.653  1.7022 -1.2258  2.5942
 4075SOL     OW23683   2.447   2.681   8.480  0.0714  0.1086 -0.0823
 4075SOL    HW123684   2.374   2.726   8.522  0.0968 -0.4081  0.5238
 4075SOL    HW223685   2.505   2.753   8.455 -0.9420  0.7862 -0.4358
 4076SOL     OW23686   2.020   3.764   3.404  0.4957  0.5693  0.3056
 4076SOL    HW123687   2.056   3.700   3.465  0.5425  0.0313 -0.2806
 4076SOL    HW223688   2.025   3.849   3.448 -0.8903  0.1150  1.3092
 4077SOL     OW23689   4.006   3.309   7.877 -0.1133  0.6589 -0.3893
 4077SOL    HW123690   3.998   3.314   7.782  1.1230 -1.3272 -0.5930
 4077SOL    HW223691   4.087   3.361   7.883  0.5490 -0.4675  0.3531
 4078SOL     OW23692   0.400   4.344   7.882 -0.0517 -0.6168  0.0659
 4078SOL    HW123693   0.406   4.389   7.966  0.6152  1.4009 -1.0692
 4078SOL    HW223694   0.306   4.327   7.885 -0.0310 -0.3565  2.8078
 4079SOL     OW23695   1.120   2.988   2.723 -0.1341  0.3150 -0.2516
 4079SOL    HW123696   1.060   3.060   2.744  0.7352  1.2854 -1.1186
 4079SOL    HW223697   1.062   2.916   2.749  0.8974 -0.7772 -0.9532
 4080SOL     OW23698   3.618   1.291   3.886  0.3147 -0.0781  0.2450
 4080SOL    HW123699   3.643   1.318   3.974  0.6732  1.6741 -0.4005
 4080SOL    HW223700   3.667   1.349   3.828  0.2823 -1.3517 -1.0545
 4081SOL     OW23701   3.433   2.762  15.225 -0.2761  0.4045  0.5326
 4081SOL    HW123702   3.433   2.847  15.269 -2.5556  0.4032  0.5537
 4081SOL    HW223703   3.341   2.738  15.213  0.8980 -2.5851 -2.5352
 4082SOL     OW23704   3.149   4.448   5.449  0.2827 -0.2658 -0.2460
 4082SOL    HW123705   3.187   4.409   5.370  1.6845 -0.2386  0.4197
 4082SOL    HW223706   3.149   4.540   5.423  3.5739 -0.1394  0.2314
 4083SOL     OW23707   2.830   4.238   0.041 -0.0804  0.3996 -0.4590
 4083SOL    HW123708   2.800   4.212  17.633  1.1979  1.2873 -1.1658
 4083SOL    HW223709   2.919   4.261   0.015 -0.0591  0.6992 -0.1241
 4084SOL     OW23710   1.836   3.382   3.590  0.2415 -0.1869  1.0245
 4084SOL    HW123711   1.866   3.331   3.514  0.7132  2.7448 -0.7543
 4084SOL    HW223712   1.833   3.473   3.560 -0.4035 -0.9962 -1.4183
 4085SOL     OW23713   2.098   1.635   2.507  0.2021  0.6317  0.6118
 4085SOL    HW123714   2.179   1.684   2.495 -0.1328  0.6276 -1.6558
 4085SOL    HW223715   2.042   1.707   2.535 -0.0543 -0.2749  2.4292
 4086SOL     OW23716   2.296   0.485  15.272 -0.1053 -0.4354  0.0236
 4086SOL    HW123717   2.278   0.566  15.224  3.0064  0.3045  0.1255
 4086SOL    HW223718   2.248   0.433  15.207  0.1973  0.2576 -0.7530
 4087SOL     OW23719   2.789   0.092  10.491  0.4312 -0.4204 -0.1053
 4087SOL    HW123720   2.751   0.176  10.466  1.4142  0.5308  1.6320
 4087SOL    HW223721   2.799   0.043  10.410  0.2481  0.3449 -0.5903
 4088SOL     OW23722   0.829   3.446   4.942 -0.1787  0.3234  0.5957
 4088SOL    HW123723   0.867   3.510   5.002  2.0390 -0.4311 -0.0085
 4088SOL    HW223724   0.901   3.384   4.925 -1.5863 -1.4137  0.9790
 4089SOL     OW23725   0.779   4.408   7.376  0.0294  0.2860 -0.6547
 4089SOL    HW123726   0.825   4.329   7.406 -1.1208  0.5667  1.8062
 4089SOL    HW223727   0.849   4.471   7.359  1.0197 -0.2893  1.2698
 4090SOL     OW23728   3.617   4.118   6.717  0.3408  0.4305 -0.3172
 4090SOL    HW123729   3.685   4.081   6.774 -2.1272 -1.0837  1.6343
 4090SOL    HW223730   3.671   4.173   6.660  0.3728 -0.1686 -0.8565
 4091SOL     OW23731   4.092   1.074   6.478 -0.3107 -0.0049  0.2842
 4091SOL    HW123732   4.087   1.099   6.570  0.6839 -0.7886  0.5482
 4091SOL    HW223733   4.001   1.044   6.469  0.1752 -0.8268 -1.8100
 4092SOL     OW23734   2.774   0.657   5.135  0.5571  0.3464  0.1092
 4092SOL    HW123735   2.818   0.592   5.081 -1.3298 -2.4919  1.9278
 4092SOL    HW223736   2.851   0.693   5.178  1.3380  0.2676 -1.2272
 4093SOL     OW23737   4.143   3.856  16.640  0.3698 -0.9046  0.3450
 4093SOL    HW123738   4.159   3.802  16.562 -0.8406  0.8965 -1.1561
 4093SOL    HW223739   4.050   3.846  16.662  0.2862 -1.4799 -0.2833
 4094SOL     OW23740   4.264   0.281  15.701  0.3322  0.8975  0.3026
 4094SOL    HW123741   4.201   0.327  15.645 -0.8036 -1.0020  0.0251
 4094SOL    HW223742   4.340   0.298  15.646  1.2220 -0.0843  1.2512
 4095SOL     OW23743   1.508   1.655   3.259  0.3246 -0.3523  0.1874
 4095SOL    HW123744   1.567   1.619   3.326 -0.0484  1.6258  1.5812
 4095SOL    HW223745   1.536   1.746   3.258 -1.5064  0.1865 -0.3816
 4096SOL     OW23746   1.262   4.477  17.216 -0.0995  0.4216  0.4693
 4096SOL    HW123747   1.263   4.570  17.195 -0.5872 -0.0623 -1.6567
 4096SOL    HW223748   1.354   4.456  17.197 -0.0131 -0.1434  1.5129
 4097SOL     OW23749   1.246   3.337   8.452  0.3021 -0.1644 -0.2814
 4097SOL    HW123750   1.226   3.424   8.487 -0.9644  0.3905 -2.4571
 4097SOL    HW223751   1.156   3.310   8.436  1.1574 -2.5072 -1.0513
 4098SOL     OW23752   3.397   2.601   0.906  0.2402 -0.0329  0.1867
 4098SOL    HW123753   3.493   2.601   0.912  0.2122 -2.0419  0.6169
 4098SOL    HW223754   3.389   2.603   0.810 -1.3372 -4.4162  0.2576
 4099SOL     OW23755   0.100   2.641   7.775 -0.5558 -0.4064 -0.0699
 4099SOL    HW123756   0.065   2.709   7.832 -0.8600  2.0800 -3.2020
 4099SOL    HW223757   0.019   2.603   7.742 -0.7806 -0.5866  0.7066
 4100SOL     OW23758   2.397   0.694  13.536 -0.1905  0.2317  0.3366
 4100SOL    HW123759   2.316   0.694  13.484  0.0997  2.7213 -0.0940
 4100SOL    HW223760   2.430   0.784  13.539 -1.3402  0.6887 -0.6640
 4101SOL     OW23761   4.463   3.935   5.534  0.2196 -0.0300 -0.5069
 4101SOL    HW123762   4.444   3.901   5.621 -0.7765  0.6541 -0.4543
 4101SOL    HW223763   4.544   3.886   5.522  0.9348  0.5734  1.9970
 4102SOL     OW23764   4.035   2.381   5.674 -0.0728  0.4528  0.1943
 4102SOL    HW123765   4.029   2.443   5.602 -0.5951 -0.6859 -0.7396
 4102SOL    HW223766   3.991   2.421   5.749 -0.6827  0.8352 -0.3667
 4103SOL     OW23767   1.772   3.227   5.730 -0.0815  0.0102  0.3033
 4103SOL    HW123768   1.694   3.177   5.751 -0.5354 -0.1643 -1.8366
 4103SOL    HW223769   1.821   3.215   5.811 -0.5138 -0.9879  0.4071
 4104SOL     OW23770   1.396   2.331  15.222 -0.0909 -0.1174 -0.2956
 4104SOL    HW123771   1.327   2.284  15.268 -1.1278 -0.3923 -2.1132
 4104SOL    HW223772   1.351   2.389  15.161  3.4873  0.4581 -2.4190
 4105SOL     OW23773   2.063   3.662  17.667  0.1559 -0.0867 -0.1228
 4105SOL    HW123774   1.991   3.675   0.051  0.7518 -1.6511  0.8763
 4105SOL    HW223775   2.078   3.755  17.647  0.9305 -0.1766  0.0330
 4106SOL     OW23776   1.441   2.332   7.485 -0.2248  0.5249 -0.5530
 4106SOL    HW123777   1.420   2.336   7.578  2.8907 -1.8656  0.2351
 4106SOL    HW223778   1.379   2.270   7.446  0.2923 -0.4219  0.1225
 4107SOL     OW23779   4.400   1.302   2.670 -0.0341  0.9179 -0.0958
 4107SOL    HW123780   4.344   1.361   2.618 -0.6927  0.8361  0.5212
 4107SOL    HW223781   4.403   1.241   2.596 -2.7793 -0.0513  0.6120
 4108SOL     OW23782   2.134   2.593   3.082  0.1124  0.0951  0.4235
 4108SOL    HW123783   2.223   2.574   3.052 -0.6019 -2.2970 -0.2125
 4108SOL    HW223784   2.159   2.649   3.156  1.6640 -0.1995  0.1237
 4109SOL     OW23785   2.801   0.869   4.650 -0.2119  0.3553  0.5100
 4109SOL    HW123786   2.818   0.864   4.744  1.6486  1.1458  0.2154
 4109SOL    HW223787   2.834   0.958   4.638  1.0061 -0.0830  0.6176
 4110SOL     OW23788   2.871   3.628   1.727  0.0269  0.0847 -0.2492
 4110SOL    HW123789   2.910   3.608   1.643 -0.6691 -0.2841 -0.4882
 4110SOL    HW223790   2.853   3.538   1.756 -0.5173  1.3071  3.2606
 4111SOL     OW23791   4.654   1.633   7.807  0.1368 -0.6414  0.0395
 4111SOL    HW123792   0.000   1.603   7.869 -1.6971  1.1822  2.8589
 4111SOL    HW223793   4.716   1.658   7.738  0.3514 -0.5813  0.2555
 4112SOL     OW23794   3.576   3.621  14.788  0.3422  0.0741 -0.0030
 4112SOL    HW123795   3.544   3.706  14.821 -1.5414  0.6549 -3.3068
 4112SOL    HW223796   3.669   3.617  14.809  0.9125  3.5750 -1.8436
 4113SOL     OW23797   4.024   4.611   7.448 -0.8232  0.6335  0.0053
 4113SOL    HW123798   3.980   4.588   7.366  1.6908 -0.2963 -1.0878
 4113SOL    HW223799   3.946   4.607   7.504  0.4993  1.8389  1.9138
 4114SOL     OW23800   0.137   1.389   3.346 -0.4197  0.3035  0.0964
 4114SOL    HW123801   0.188   1.311   3.322 -1.2297 -0.6464  1.4843
 4114SOL    HW223802   0.195   1.445   3.397 -1.9319  0.4828  1.6090
 4115SOL     OW23803   1.764   0.633   4.118 -0.5590  0.4127 -0.1504
 4115SOL    HW123804   1.745   0.540   4.131  1.8239 -0.0165  0.2729
 4115SOL    HW223805   1.731   0.680   4.195 -0.1560 -0.2757  0.4437
 4116SOL     OW23806   4.382   4.606   2.560  0.1317  0.6209 -0.1139
 4116SOL    HW123807   4.473   4.625   2.538  0.1403  1.0590  0.2786
 4116SOL    HW223808   4.370   4.517   2.526 -0.7605  0.0649  1.6140
 4117SOL     OW23809   2.322   3.987  14.530  0.3865  0.3778  0.2637
 4117SOL    HW123810   2.333   4.082  14.539 -2.2872  0.7995 -0.9842
 4117SOL    HW223811   2.273   3.973  14.610  0.5553 -0.9768  0.1345
 4118SOL     OW23812   1.500   2.236   0.225 -0.3619 -0.2675 -0.4452
 4118SOL    HW123813   1.538   2.278   0.147  0.8459 -1.9011 -0.7460
 4118SOL    HW223814   1.570   2.226   0.290  0.2074 -1.8283 -1.2951
 4119SOL     OW23815   0.849   1.772   1.524 -0.5514 -0.5569 -0.1830
 4119SOL    HW123816   0.836   1.794   1.616 -0.6617  0.7925 -0.5263
 4119SOL    HW223817   0.803   1.844   1.481  0.4753  0.0401 -0.2759
 4120SOL     OW23818   4.272   0.426   2.054 -0.1055 -0.1352  0.4392
 4120SOL    HW123819   4.216   0.422   2.131  1.1881  2.5454  1.4835
 4120SOL    HW223820   4.250   0.507   2.008  1.8953 -1.1339 -2.3068
 4121SOL     OW23821   0.869   0.461   1.878  0.2648  0.0714  0.1173
 4121SOL    HW123822   0.873   0.488   1.786 -1.6731  0.2229  0.0842
 4121SOL    HW223823   0.909   0.541   1.913 -0.9803  0.3565  0.8605
 4122SOL     OW23824   1.077   2.907  15.872 -0.3827 -0.2328 -0.7566
 4122SOL    HW123825   1.052   2.862  15.791 -0.3905 -0.6920 -0.5029
 4122SOL    HW223826   1.026   2.859  15.937  0.0239  1.3219  0.6987
 4123SOL     OW23827   3.308   1.221  11.348 -0.0132 -0.1929  0.2390
 4123SOL    HW123828   3.351   1.219  11.263 -0.7886  1.2058 -0.1892
 4123SOL    HW223829   3.376   1.195  11.411 -0.4848 -1.4326  0.2282
 4124SOL     OW23830   1.701   2.829  16.956  0.2328 -0.1326 -0.4107
 4124SOL    HW123831   1.742   2.914  16.936 -0.7295  0.4179 -0.0209
 4124SOL    HW223832   1.745   2.775  16.890 -0.0211 -1.7588  0.7423
 4125SOL     OW23833   2.572   2.748  10.646  0.2937  0.7559 -0.4781
 4125SOL    HW123834   2.608   2.666  10.612  0.0920 -0.3285  1.9505
 4125SOL    HW223835   2.540   2.718  10.730 -1.7212 -0.4597 -1.6928
 4126SOL     OW23836   0.548   2.482   6.129 -0.2556 -0.1526  0.0177
 4126SOL    HW123837   0.634   2.476   6.088 -0.1448 -1.4308  0.4405
 4126SOL    HW223838   0.541   2.575   6.110 -2.3086 -0.2365  0.4094
 4127SOL     OW23839   2.500   0.726   5.548  0.2288 -0.0209  0.0903
 4127SOL    HW123840   2.533   0.808   5.584 -0.0552  1.2131 -2.5092
 4127SOL    HW223841   2.409   0.740   5.522  0.7210 -1.0768 -2.1676
 4128SOL     OW23842   2.045   1.340   2.193  0.0451 -0.4347 -0.5478
 4128SOL    HW123843   2.053   1.273   2.125 -1.3997 -1.5137  0.3246
 4128SOL    HW223844   2.000   1.293   2.264  2.0199 -0.3204  0.7667
 4129SOL     OW23845   0.792   1.237   1.418 -0.3126 -0.1829 -0.0532
 4129SOL    HW123846   0.860   1.240   1.484 -1.5407  0.3303  1.1886
 4129SOL    HW223847   0.778   1.331   1.412 -2.4273 -0.5073 -0.4405
 4130SOL     OW23848   4.019   2.484   4.613 -0.4173  0.4201  0.0449
 4130SOL    HW123849   3.943   2.437   4.579 -0.1643  0.7426 -0.9455
 4130SOL    HW223850   4.096   2.471   4.558  0.1244  1.7773  0.4945
 4131SOL     OW23851   2.696   1.800   9.072  0.5336 -0.0297  0.0445
 4131SOL    HW123852   2.681   1.712   9.107  1.8407 -0.2822 -0.0123
 4131SOL    HW223853   2.609   1.835   9.088  0.6366 -0.2768  1.1982
 4132SOL     OW23854   4.466   0.892   6.680  0.0558 -0.0388  0.0554
 4132SOL    HW123855   4.413   0.906   6.602  0.1354 -0.6193 -0.0943
 4132SOL    HW223856   4.414   0.826   6.726 -1.6335 -0.5204 -2.5357
 4133SOL     OW23857   2.830   0.145   3.326  0.3198  0.2821 -0.4888
 4133SOL    HW123858   2.809   0.226   3.373  0.3206  0.2888 -0.4999
 4133SOL    HW223859   2.756   0.143   3.266 -1.0397 -1.4613  1.2716
 4134SOL     OW23860   3.792   2.306   6.613  0.6557 -0.3231  0.2285
 4134SOL    HW123861   3.864   2.256   6.651  2.0615  1.2392 -0.3764
 4134SOL    HW223862   3.844   2.376   6.573 -0.8404 -0.5190 -2.0388
 4135SOL     OW23863   0.418   4.456   4.070  0.2784 -0.5627  0.2630
 4135SOL    HW123864   0.453   4.456   3.981  2.6966  0.6363  1.2279
 4135SOL    HW223865   0.335   4.416   4.046 -1.1597  1.7937  1.2956
 4136SOL     OW23866   3.623   3.526   3.581  0.5003  0.3492 -0.7203
 4136SOL    HW123867   3.540   3.496   3.542  1.3011 -1.1170 -1.3109
 4136SOL    HW223868   3.631   3.609   3.536  1.8821  0.3974 -0.3711
 4137SOL     OW23869   4.482   0.901   1.250  0.0758  0.4365 -0.4221
 4137SOL    HW123870   4.518   0.843   1.184  0.9733  0.9394 -0.3664
 4137SOL    HW223871   4.506   0.864   1.335 -0.5357 -1.7841 -1.2185
 4138SOL     OW23872   2.368   0.563   8.482 -0.2933 -0.0434  0.2681
 4138SOL    HW123873   2.331   0.650   8.495 -2.1067 -0.4774 -2.0077
 4138SOL    HW223874   2.316   0.528   8.409  0.3745  0.2887 -0.3743
 4139SOL     OW23875   2.274   2.599   5.700  0.2779 -0.0487  0.5800
 4139SOL    HW123876   2.322   2.539   5.643 -1.7095 -0.9512 -0.1705
 4139SOL    HW223877   2.242   2.535   5.764 -2.0499 -0.9276 -1.4490
 4140SOL     OW23878   0.952   1.294   4.092  0.2369 -0.3826 -0.6604
 4140SOL    HW123879   0.945   1.199   4.090 -1.3435 -0.2632 -0.6277
 4140SOL    HW223880   0.883   1.316   4.030 -1.7860 -1.5208  1.2102
 4141SOL     OW23881   0.095   3.467   5.093 -0.0469  0.0316  0.8431
 4141SOL    HW123882   0.035   3.396   5.117  2.6358 -2.2594  0.8154
 4141SOL    HW223883   0.104   3.457   4.998 -0.4133  1.2611  0.6862
 4142SOL     OW23884   4.110   0.565   5.754  0.2472  0.5832 -0.3154
 4142SOL    HW123885   4.185   0.591   5.701  0.1088  1.3412 -0.1332
 4142SOL    HW223886   4.147   0.525   5.833  2.1539 -0.2664 -1.6517
 4143SOL     OW23887   2.294   3.278   4.106 -0.5565  0.4088  0.1182
 4143SOL    HW123888   2.350   3.310   4.036  0.6203  0.9124  1.3015
 4143SOL    HW223889   2.357   3.262   4.176 -0.9528 -1.8084 -0.0229
 4144SOL     OW23890   1.295   2.853   8.634 -0.4188  0.5182  0.1534
 4144SOL    HW123891   1.321   2.771   8.591  0.6165  0.4904  0.8385
 4144SOL    HW223892   1.319   2.921   8.570  1.9149 -0.0789  0.3944
 4145SOL     OW23893   0.671   0.053   3.503 -0.1115  0.4876 -0.2313
 4145SOL    HW123894   0.694   0.026   3.414  1.2821  0.7430  0.0427
 4145SOL    HW223895   0.737   4.714   3.542 -0.6925  0.0405  0.0714
 4146SOL     OW23896   3.830   1.167   2.888 -0.2960  0.0038 -0.6109
 4146SOL    HW123897   3.876   1.105   2.945  0.8973  2.2410  0.8379
 4146SOL    HW223898   3.877   1.134   2.811  0.9895  0.9964 -0.2560
 4147SOL     OW23899   0.042   2.493   5.080  0.0602 -0.1283  0.0019
 4147SOL    HW123900   4.682   2.498   5.133  1.2931 -2.4114  2.0714
 4147SOL    HW223901   0.057   2.398   5.076  0.5468 -0.0512 -0.0987
 4148SOL     OW23902   1.818   3.226   3.318  0.1742 -0.0332  0.0138
 4148SOL    HW123903   1.737   3.265   3.284  0.2250  0.8592  0.8980
 4148SOL    HW223904   1.868   3.189   3.246 -0.8904 -0.2139 -0.6275
 4149SOL     OW23905   1.510   1.371  15.155  0.6795 -0.1498  0.0789
 4149SOL    HW123906   1.456   1.383  15.077 -1.1333  1.0096  1.5112
 4149SOL    HW223907   1.588   1.420  15.129  1.5110 -2.1233 -1.2075
 4150SOL     OW23908   3.712   4.398  13.671  0.0355  0.5805  0.0159
 4150SOL    HW123909   3.764   4.468  13.709 -2.5510  2.4235  0.1213
 4150SOL    HW223910   3.709   4.336  13.743 -0.0682  0.8174  0.2133
 4151SOL     OW23911   3.383   4.405   3.976  0.7827 -0.0857  0.5514
 4151SOL    HW123912   3.389   4.446   4.062 -0.0120 -1.3166  1.1919
 4151SOL    HW223913   3.290   4.420   3.960  0.7737 -0.4032  0.3123
 4152SOL     OW23914   1.968   3.727   2.503 -0.0425  0.0672  0.4137
 4152SOL    HW123915   1.994   3.727   2.411  0.6373 -0.3261  0.6044
 4152SOL    HW223916   1.952   3.819   2.527 -0.9598 -0.3147  1.2680
 4153SOL     OW23917   3.229   0.241   2.516  0.4533 -0.7378 -0.0742
 4153SOL    HW123918   3.149   0.257   2.465  0.5987  0.3330  0.0229
 4153SOL    HW223919   3.243   0.147   2.504  0.2596 -0.6764 -0.8175
 4154SOL     OW23920   4.134   3.082   7.996  0.1708  0.7361  0.2840
 4154SOL    HW123921   4.211   3.066   7.942 -0.1661 -1.3024  0.4117
 4154SOL    HW223922   4.090   3.158   7.958 -0.9258 -0.7430 -1.3943
 4155SOL     OW23923   1.570   2.598  16.748  0.5421 -0.0668  0.0454
 4155SOL    HW123924   1.524   2.669  16.704 -0.7526 -1.5636 -0.9921
 4155SOL    HW223925   1.657   2.615  16.712  0.6187 -1.4875 -0.4392
 4156SOL     OW23926   2.596   2.371  17.605  0.5389  0.0673 -0.3960
 4156SOL    HW123927   2.601   2.293  17.661  0.3984  1.0360  0.9699
 4156SOL    HW223928   2.505   2.399  17.618  0.1613 -0.6639 -1.4682
 4157SOL     OW23929   2.643   2.468   8.565  0.3561  0.4032  0.6077
 4157SOL    HW123930   2.586   2.414   8.620 -1.1976  0.7786 -0.6498
 4157SOL    HW223931   2.585   2.540   8.541 -2.4396 -0.9561  3.3334
 4158SOL     OW23932   4.419   1.379  16.332 -0.2068 -0.8139  0.8575
 4158SOL    HW123933   4.400   1.399  16.424  3.7729  2.4230  0.9705
 4158SOL    HW223934   4.425   1.469  16.298  1.1372 -1.6341 -1.0455
 4159SOL     OW23935   1.228   2.071   1.426  0.0937 -0.4102 -0.2997
 4159SOL    HW123936   1.308   2.032   1.390  0.4110 -0.6913  0.7292
 4159SOL    HW223937   1.168   2.045   1.356  1.1398 -0.7937 -1.0554
 4160SOL     OW23938   1.784   4.173  17.414  0.0707 -0.0419  0.6829
 4160SOL    HW123939   1.865   4.128  17.388  0.0127 -0.6617  1.5626
 4160SOL    HW223940   1.811   4.187  17.505  3.3453 -0.0947 -0.2658
 4161SOL     OW23941   0.438   2.672  12.517 -0.1438 -0.3105 -0.0688
 4161SOL    HW123942   0.447   2.755  12.470  2.4487 -1.2031 -1.1487
 4161SOL    HW223943   0.397   2.622  12.447 -1.5789 -0.2736  0.7468
 4162SOL     OW23944   2.956   3.358   4.847 -0.7748  0.6880 -0.5334
 4162SOL    HW123945   2.962   3.303   4.925  0.0936  3.0367  1.0691
 4162SOL    HW223946   2.861   3.354   4.847 -0.7582  0.3416 -0.7345
 4163SOL     OW23947   3.023   3.636   6.739  0.3566 -0.0038 -0.8455
 4163SOL    HW123948   3.014   3.578   6.815 -0.2396  0.6993 -0.3809
 4163SOL    HW223949   3.077   3.708   6.772 -2.3904  1.1882  1.0860
 4164SOL     OW23950   3.216   3.608   3.469 -0.8994 -0.4313 -0.1926
 4164SOL    HW123951   3.183   3.552   3.540  0.2327 -1.9629 -0.8807
 4164SOL    HW223952   3.143   3.597   3.407 -1.1112  0.7589 -0.1616
 4165SOL     OW23953   1.724   3.849   4.775 -0.0295  0.1693  0.3822
 4165SOL    HW123954   1.778   3.824   4.850 -1.6799  2.2796  2.2694
 4165SOL    HW223955   1.742   3.942   4.763  1.6067 -0.5156 -2.6151
 4166SOL     OW23956   1.487   2.935   4.953  0.0869 -0.7903  0.5662
 4166SOL    HW123957   1.411   2.877   4.967 -1.6237  0.8811 -1.7403
 4166SOL    HW223958   1.453   2.996   4.887 -0.8007 -1.0387  0.7847
 4167SOL     OW23959   1.365   1.173  12.166 -0.3311 -0.1678 -0.1315
 4167SOL    HW123960   1.359   1.179  12.070  0.5390  0.7663 -0.1306
 4167SOL    HW223961   1.362   1.262  12.198 -0.1815 -0.1062 -0.2852
 4168SOL     OW23962   3.505   0.131   2.960  0.0992 -0.3575 -0.4804
 4168SOL    HW123963   3.596   0.120   2.934  0.0049 -2.0173 -0.1322
 4168SOL    HW223964   3.506   0.226   2.955 -1.9126 -0.2887  0.3272
 4169SOL     OW23965   0.847   4.491   1.451 -0.3680  0.1596 -0.0295
 4169SOL    HW123966   0.906   4.534   1.513 -3.7074 -1.8416  4.5379
 4169SOL    HW223967   0.880   4.520   1.366 -0.2405  2.5485  0.8509
 4170SOL     OW23968   3.816   4.035  12.729  0.2490 -0.6025 -0.7137
 4170SOL    HW123969   3.816   3.946  12.694  1.7122 -1.5555  1.6979
 4170SOL    HW223970   3.801   4.022  12.823 -1.3123  0.1021 -0.8725
 4171SOL     OW23971   1.050   0.764   6.576 -0.0092 -0.3098  0.2616
 4171SOL    HW123972   1.110   0.835   6.550  1.2659 -0.4424  2.9124
 4171SOL    HW223973   0.971   0.817   6.585  1.4579  1.9516  0.0172
 4172SOL     OW23974   1.278   1.339  17.106 -0.0009  0.3897 -0.0679
 4172SOL    HW123975   1.296   1.392  17.184 -1.1275  0.2016  0.3219
 4172SOL    HW223976   1.343   1.372  17.044 -0.0342 -1.1193 -0.8920
 4173SOL     OW23977   3.564   2.041   4.882 -0.7304 -0.1890  0.1098
 4173SOL    HW123978   3.545   2.135   4.876 -0.6064 -0.0109  2.3539
 4173SOL    HW223979   3.589   2.035   4.974 -0.9749  1.3477  0.2868
 4174SOL     OW23980   1.145   1.518   6.519 -0.3132 -0.0241  0.1787
 4174SOL    HW123981   1.081   1.533   6.450 -0.6575 -1.1821  0.2420
 4174SOL    HW223982   1.097   1.460   6.578 -0.8534  0.7237  0.4687
 4175SOL     OW23983   0.043   0.006   4.031 -0.3954  0.6138  0.0856
 4175SOL    HW123984   0.055   4.638   4.067 -0.6866  0.6748  0.3284
 4175SOL    HW223985   0.093   0.055   4.097  0.4415  0.0205 -0.1071
 4176SOL     OW23986   4.150   4.170   2.645 -0.6668  0.5979  0.0104
 4176SOL    HW123987   4.138   4.170   2.740 -0.4898  0.8960  0.0320
 4176SOL    HW223988   4.176   4.079   2.628 -0.6359  1.1520 -3.0636
 4177SOL     OW23989   3.909   4.366  12.970 -0.3713 -0.1562  0.4553
 4177SOL    HW123990   3.973   4.315  13.019  0.2570  1.1918  1.0469
 4177SOL    HW223991   3.941   4.353  12.880 -1.8024  0.4474 -0.1364
 4178SOL     OW23992   4.299   4.535   6.395 -0.0860  0.0134 -0.0193
 4178SOL    HW123993   4.317   4.587   6.317 -0.8040  0.7963  0.3456
 4178SOL    HW223994   4.373   4.474   6.390  0.1296  0.3308 -0.7648
 4179SOL     OW23995   1.513   3.955   3.022  0.1261  0.4111 -0.2838
 4179SOL    HW123996   1.430   3.969   3.067 -0.3321  0.1534 -1.0522
 4179SOL    HW223997   1.480   3.944   2.932 -0.3515 -1.0075  0.0564
 4180SOL     OW23998   0.387   0.486   3.601 -0.1658 -0.1581  0.2671
 4180SOL    HW123999   0.482   0.490   3.589  0.0495 -0.8560  1.7411
 4180SOL    HW224000   0.391   0.514   3.692  1.2148 -0.7412  0.3935
 4181SOL     OW24001   3.792   0.711   7.522  0.5248 -0.1693  0.1190
 4181SOL    HW124002   3.748   0.759   7.592  1.2374  1.1112 -0.3002
 4181SOL    HW224003   3.811   0.792   7.474  0.1012  0.3031  0.7439
 4182SOL     OW24004   0.611   3.765  11.991 -0.4796 -0.5190  0.5590
 4182SOL    HW124005   0.525   3.721  11.985  0.5700 -2.5635  0.3101
 4182SOL    HW224006   0.650   3.704  12.053 -0.9067 -0.9836  0.3812
 4183SOL     OW24007   0.289   2.319   6.161  0.1718 -0.6942  0.6623
 4183SOL    HW124008   0.382   2.317   6.141  0.1311  1.0128  0.3003
 4183SOL    HW224009   0.284   2.403   6.207  4.1769  0.3392 -0.7516
 4184SOL     OW24010   1.509   0.149  14.419 -0.4962  0.3084  0.1176
 4184SOL    HW124011   1.465   0.231  14.398 -1.3814 -0.2126 -0.0587
 4184SOL    HW224012   1.562   0.141  14.340 -0.9664 -2.7605  0.1108
 4185SOL     OW24013   0.333   4.593   8.590 -0.3357  0.1256  0.0072
 4185SOL    HW124014   0.282   4.657   8.541 -0.8589  1.1032  1.8526
 4185SOL    HW224015   0.265   4.548   8.641 -0.5570  0.6084  0.1340
 4186SOL     OW24016   1.948   3.764  12.359 -0.0297  0.1511  0.0062
 4186SOL    HW124017   1.898   3.844  12.343 -1.3453 -0.9634 -1.2905
 4186SOL    HW224018   1.915   3.742  12.446  2.2755 -0.9338  0.6090
 4187SOL     OW24019   4.228   3.887   9.073  0.2827  0.1406  0.0127
 4187SOL    HW124020   4.254   3.971   9.111 -1.3993  1.0759 -0.9150
 4187SOL    HW224021   4.221   3.916   8.982  2.5317  0.4858 -0.0413
 4188SOL     OW24022   2.512   1.735   7.206 -0.2659  0.4161  0.1583
 4188SOL    HW124023   2.571   1.662   7.225  1.7195  2.0085  0.1585
 4188SOL    HW224024   2.424   1.699   7.215 -0.4394 -0.1719 -3.6947
 4189SOL     OW24025   4.055   2.984  12.005  0.6315 -0.1477  0.2996
 4189SOL    HW124026   4.150   2.993  11.996  0.5642 -0.6548 -1.0185
 4189SOL    HW224027   4.030   2.901  11.963  0.5363  0.1752 -0.2835
 4190SOL     OW24028   3.224   0.117   1.722 -0.1842  0.0042  0.3273
 4190SOL    HW124029   3.135   0.081   1.721 -0.2090  0.0488  1.1788
 4190SOL    HW224030   3.274   0.038   1.735 -1.0511 -1.2382 -3.7022
 4191SOL     OW24031   1.479   1.540   3.857  0.3335 -0.1847  0.1659
 4191SOL    HW124032   1.537   1.570   3.927 -1.1265 -0.4570  1.4964
 4191SOL    HW224033   1.495   1.604   3.788 -0.5912  0.1435  0.2533
 4192SOL     OW24034   4.681   1.006   1.757 -0.5409  0.1412  0.2810
 4192SOL    HW124035   4.685   1.089   1.709 -2.0019  0.0783  0.0512
 4192SOL    HW224036   4.586   0.996   1.761 -0.4709 -0.3937  0.6765
 4193SOL     OW24037   4.136   1.472   2.589 -0.1677  0.0208  0.4324
 4193SOL    HW124038   4.134   1.567   2.604 -0.0993  0.2296 -0.8419
 4193SOL    HW224039   4.205   1.458   2.524 -1.0203 -2.5063  0.0820
 4194SOL     OW24040   0.434   4.142   7.156  0.0014  0.4184  0.5319
 4194SOL    HW124041   0.425   4.116   7.248  0.7123  1.2733  0.8450
 4194SOL    HW224042   0.484   4.223   7.154 -0.6287  0.8729  2.7525
 4195SOL     OW24043   2.672   1.017   7.355 -0.1501  0.0266 -0.1571
 4195SOL    HW124044   2.670   1.050   7.445 -0.6226 -1.3359  0.3433
 4195SOL    HW224045   2.600   1.058   7.307  0.7172  0.3311 -1.2018
 4196SOL     OW24046   2.078   0.598   4.080 -0.5803 -0.4276 -0.4410
 4196SOL    HW124047   2.093   0.691   4.095  2.0623 -0.7278 -1.1937
 4196SOL    HW224048   1.983   0.593   4.087 -0.3803 -0.3488  2.1328
 4197SOL     OW24049   2.919   2.431   6.068  0.3451 -0.2594 -0.6952
 4197SOL    HW124050   3.012   2.452   6.058  0.6783 -0.3861  2.3199
 4197SOL    HW224051   2.889   2.522   6.059 -0.5115 -0.3731  1.1353
 4198SOL     OW24052   3.006   2.032  13.632 -0.3185 -0.3797 -0.8944
 4198SOL    HW124053   3.024   2.124  13.612  1.5841 -0.9696 -1.8405
 4198SOL    HW224054   3.096   2.001  13.634 -0.1088  0.3859  0.8453
 4199SOL     OW24055   2.517   2.843   5.449 -0.7811 -0.0906 -0.1136
 4199SOL    HW124056   2.586   2.799   5.499 -2.6149 -0.6081  1.9432
 4199SOL    HW224057   2.536   2.932   5.478 -1.6311  0.4647 -1.2611
 4200SOL     OW24058   2.910   1.346  10.806 -0.4388 -0.1519  0.6596
 4200SOL    HW124059   2.950   1.278  10.860  0.0291 -1.5382 -1.4343
 4200SOL    HW224060   2.974   1.417  10.801 -0.4318 -0.2471 -0.6156
 4201SOL     OW24061   0.508   1.153  13.951  0.0798 -0.3700  0.6728
 4201SOL    HW124062   0.553   1.071  13.973  2.2899  0.2674 -1.4512
 4201SOL    HW224063   0.577   1.189  13.895 -0.7636 -1.7044 -1.2305
 4202SOL     OW24064   0.067   1.892   1.942  0.0998 -0.0063  0.3394
 4202SOL    HW124065   0.036   1.981   1.925 -1.5627 -0.5337  0.6580
 4202SOL    HW224066   0.052   1.883   2.036 -2.3081  0.5217  0.0179
 4203SOL     OW24067   1.658   0.932   2.115 -0.3946 -0.8434 -0.3848
 4203SOL    HW124068   1.632   0.852   2.070 -0.9449 -0.4668 -0.7352
 4203SOL    HW224069   1.752   0.920   2.100 -0.0668 -1.7171  2.3435
 4204SOL     OW24070   2.485   3.094   2.118 -0.0221 -0.2544  0.6302
 4204SOL    HW124071   2.558   3.032   2.111 -2.3814 -2.6577 -2.6256
 4204SOL    HW224072   2.541   3.172   2.111 -0.2223 -0.1381  0.3189
 4205SOL     OW24073   4.457   3.244   6.777 -0.2312 -0.0611  0.2993
 4205SOL    HW124074   4.463   3.257   6.682  0.5059 -1.3145  0.1700
 4205SOL    HW224075   4.369   3.275   6.795  1.2724  2.4597  3.4349
 4206SOL     OW24076   4.281   3.748   7.912  0.8521 -0.0631 -0.0068
 4206SOL    HW124077   4.200   3.732   7.865  1.3090 -1.8129 -0.2220
 4206SOL    HW224078   4.322   3.662   7.901 -1.3601 -0.8356 -2.0690
 4207SOL     OW24079   2.281   1.278   3.152  0.5654  0.1539 -0.1600
 4207SOL    HW124080   2.375   1.287   3.170  0.7458  0.3136 -1.2284
 4207SOL    HW224081   2.280   1.298   3.059  0.2508 -1.1810 -0.4526
 4208SOL     OW24082   2.916   1.000   6.947 -0.0753 -0.4976 -0.6319
 4208SOL    HW124083   2.871   1.071   6.994  0.7286 -0.6278  0.3100
 4208SOL    HW224084   2.995   1.049   6.925 -0.5755  0.6357  0.0872
 4209SOL     OW24085   4.284   1.662   3.231  0.3638 -0.4034  0.0617
 4209SOL    HW124086   4.356   1.724   3.219  0.2005 -0.1277  0.5010
 4209SOL    HW224087   4.275   1.627   3.142  2.3963 -0.3024 -0.1985
 4210SOL     OW24088   2.281   2.818   4.222 -0.4526 -0.0530 -0.7706
 4210SOL    HW124089   2.239   2.883   4.165 -1.4818 -0.4949 -0.5147
 4210SOL    HW224090   2.210   2.787   4.279  1.1265  0.3931  1.4489
 4211SOL     OW24091   4.666   3.812  13.666 -0.3981  0.4672 -0.3710
 4211SOL    HW124092   4.597   3.845  13.609  0.8515  1.3989 -1.3370
 4211SOL    HW224093   0.019   3.824  13.605  0.0068 -1.6415 -0.2949
 4212SOL     OW24094   1.487   3.667   3.649  0.5136  0.2668  0.2104
 4212SOL    HW124095   1.559   3.641   3.591  0.6773  1.3891 -0.0814
 4212SOL    HW224096   1.491   3.758   3.621  0.8255 -0.2097 -1.2983
 4213SOL     OW24097   2.678   3.854   4.130 -0.4613  0.6258  0.2240
 4213SOL    HW124098   2.710   3.771   4.095 -1.1757  1.2109 -1.7956
 4213SOL    HW224099   2.700   3.843   4.223 -0.0256  1.4147  0.2207
 4214SOL     OW24100   3.748   0.445   8.492  0.3763 -0.1016 -0.0520
 4214SOL    HW124101   3.723   0.436   8.400 -0.8219 -1.7133  0.4323
 4214SOL    HW224102   3.839   0.414   8.493  1.0853  1.9055 -2.3100
 4215SOL     OW24103   2.541   0.991   4.145 -0.2180  0.3289 -0.6844
 4215SOL    HW124104   2.603   0.986   4.218 -0.7926 -1.4460 -0.3265
 4215SOL    HW224105   2.512   1.081   4.156  0.6007  0.6276 -0.9698
 4216SOL     OW24106   2.987   4.475   7.001 -0.3128  0.2639  0.3096
 4216SOL    HW124107   2.985   4.431   7.086  0.2622  0.5205  0.4608
 4216SOL    HW224108   2.893   4.493   6.998 -0.8237 -2.1079  1.6876
 4217SOL     OW24109   1.345   4.298   5.036 -0.6167 -0.1744 -0.1236
 4217SOL    HW124110   1.358   4.295   4.941  1.6009  0.1765  0.1752
 4217SOL    HW224111   1.379   4.387   5.042 -0.0820 -0.3642 -0.4315
 4218SOL     OW24112   3.380   1.427   4.754  0.4796  0.7099  0.1568
 4218SOL    HW124113   3.305   1.391   4.707  0.1554 -0.0821  1.2898
 4218SOL    HW224114   3.423   1.477   4.684  0.8994  0.4468  0.2308
 4219SOL     OW24115   1.371   1.984   3.055  0.1016 -0.3582  0.3518
 4219SOL    HW124116   1.292   1.983   3.002  1.6583  0.3193 -1.9862
 4219SOL    HW224117   1.400   1.893   3.048 -2.0769 -1.2136  2.4207
 4220SOL     OW24118   4.006   3.327  12.482 -0.1360  0.3520  0.1553
 4220SOL    HW124119   4.094   3.364  12.469 -0.3511  1.0650  0.7213
 4220SOL    HW224120   3.971   3.311  12.394 -2.0081 -1.8533  1.2971
 4221SOL     OW24121   0.885   0.249   7.299 -0.0161  0.5621  0.0266
 4221SOL    HW124122   0.910   0.332   7.258  0.2688 -0.0064 -0.9609
 4221SOL    HW224123   0.937   0.248   7.379  2.0586  0.5456 -1.3056
 4222SOL     OW24124   3.048   2.712  11.787 -0.4599 -0.2037 -0.0417
 4222SOL    HW124125   2.998   2.631  11.797  2.7656 -2.1349  0.5592
 4222SOL    HW224126   3.062   2.727  11.881  1.1973 -1.3063 -0.1297
 4223SOL     OW24127   1.791   1.906   6.272 -0.3360 -0.0635  0.4588
 4223SOL    HW124128   1.739   1.900   6.351  1.0601 -0.4018  1.3600
 4223SOL    HW224129   1.775   1.819   6.236  1.8422 -0.3327  0.1206
 4224SOL     OW24130   0.033   2.665   2.837  0.3449 -0.0835 -0.0932
 4224SOL    HW124131   0.026   2.738   2.897  1.8087 -0.9216  1.0933
 4224SOL    HW224132   0.065   2.704   2.755 -0.3516  1.0752  0.1910
 4225SOL     OW24133   3.791   1.923   6.359 -0.5358 -0.3868  0.1961
 4225SOL    HW124134   3.777   1.883   6.273  3.0267  2.4377 -1.7185
 4225SOL    HW224135   3.775   2.016   6.340  2.5425  0.6953  2.9160
 4226SOL     OW24136   3.474   0.365   2.467 -0.3049 -0.1307  0.1570
 4226SOL    HW124137   3.514   0.323   2.391  0.5420  0.8707  0.0469
 4226SOL    HW224138   3.396   0.311   2.479 -0.4287 -0.1567 -0.7582
 4227SOL     OW24139   4.389   2.112   8.100 -0.5646 -0.0081 -0.4208
 4227SOL    HW124140   4.354   2.058   8.172 -1.6386 -0.6566 -1.4368
 4227SOL    HW224141   4.484   2.123   8.110 -0.5521 -0.1612 -0.3716
 4228SOL     OW24142   3.748   4.032   4.829 -0.6290 -0.4076 -0.0667
 4228SOL    HW124143   3.676   4.088   4.859 -1.0880 -0.4753 -1.0311
 4228SOL    HW224144   3.736   3.956   4.886  0.6299  0.5294  1.4385
 4229SOL     OW24145   3.648   2.492   7.883 -0.6216  0.0593 -0.4657
 4229SOL    HW124146   3.624   2.440   7.807 -1.7235 -0.6320  0.3563
 4229SOL    HW224147   3.585   2.564   7.883 -1.5979 -0.8132 -0.3459
 4230SOL     OW24148   3.292   3.449   2.513  0.1090  0.3352 -0.6336
 4230SOL    HW124149   3.258   3.496   2.437  0.9374  2.3823  0.2439
 4230SOL    HW224150   3.374   3.498   2.509  0.1235  0.3415 -0.2581
 4231SOL     OW24151   2.402   0.777   9.022  0.2062 -0.2086  0.3255
 4231SOL    HW124152   2.477   0.734   8.980 -0.6365  0.0117 -1.4052
 4231SOL    HW224153   2.413   0.868   8.997 -0.9919 -0.6309 -1.7611
 4232SOL     OW24154   1.965   3.986  16.744  0.4331 -0.5606  0.1701
 4232SOL    HW124155   1.918   4.067  16.763 -0.4328 -1.1106  0.3705
 4232SOL    HW224156   1.894   3.926  16.719 -0.9725  1.7828 -1.5565
 4233SOL     OW24157   2.160   3.687   9.748 -0.6533  0.6787  0.3043
 4233SOL    HW124158   2.071   3.681   9.713 -0.2084 -1.8533 -0.4261
 4233SOL    HW224159   2.169   3.782   9.751 -0.4053  0.6556  0.2893
 4234SOL     OW24160   0.953   4.447  17.667 -0.3170  0.2493  0.4755
 4234SOL    HW124161   0.887   4.454   0.058  0.5189 -0.5961  1.3615
 4234SOL    HW224162   0.908   4.499  17.600 -0.3442 -3.5829 -2.4342
 4235SOL     OW24163   0.138   2.354  11.987 -0.3379 -0.0702  0.3058
 4235SOL    HW124164   0.067   2.399  12.034 -0.4269 -0.9503  1.0120
 4235SOL    HW224165   0.184   2.305  12.055  1.6386  0.4740 -0.6476
 4236SOL     OW24166   0.975   1.749   5.953 -0.5236 -0.7100  0.8277
 4236SOL    HW124167   1.062   1.788   5.962 -0.7566  0.1965 -0.8503
 4236SOL    HW224168   0.971   1.704   5.869  2.6872  2.3393 -0.9591
 4237SOL     OW24169   2.247   0.948   3.982 -0.4745 -0.6841  0.0297
 4237SOL    HW124170   2.295   0.965   3.900  2.4033  1.2380  2.0912
 4237SOL    HW224171   2.322   0.958   4.041  0.4284 -0.6713 -1.1197
 4238SOL     OW24172   0.964   0.593   2.949 -0.3326 -0.9883 -0.0377
 4238SOL    HW124173   0.994   0.602   2.859 -0.9221  1.4346  0.0111
 4238SOL    HW224174   0.893   0.529   2.952 -2.4778  1.4088  0.5810
 4239SOL     OW24175   1.422   1.137  15.522 -0.4808 -0.1553 -0.7672
 4239SOL    HW124176   1.401   1.220  15.480  2.8157  0.3074 -1.5615
 4239SOL    HW224177   1.468   1.155  15.604 -1.3361  1.8335 -0.7294
 4240SOL     OW24178   2.661   0.097   2.240  0.4444 -0.0512  0.1145
 4240SOL    HW124179   2.689   0.177   2.195 -0.0669 -0.5294 -1.0645
 4240SOL    HW224180   2.571   0.097   2.207  0.6825 -1.2341 -0.5387
 4241SOL     OW24181   0.282   1.757  13.211 -0.5522  0.1491 -0.6472
 4241SOL    HW124182   0.199   1.763  13.258 -1.1023  0.3050 -1.6319
 4241SOL    HW224183   0.314   1.844  13.188  1.6337 -1.2406 -2.8605
 4242SOL     OW24184   0.528   1.071   6.017 -0.0546 -0.5226  0.0708
 4242SOL    HW124185   0.524   1.144   5.956 -1.2943 -0.4919  0.1983
 4242SOL    HW224186   0.487   1.001   5.966  0.0005 -0.6199  0.1600
 4243SOL     OW24187   3.740   4.672  16.513  0.2477 -0.4607  0.1219
 4243SOL    HW124188   3.695   0.037  16.506 -1.4920 -1.3037  1.2441
 4243SOL    HW224189   3.822   4.672  16.463  1.6653 -1.0327  2.4516
 4244SOL     OW24190   1.413   2.400   7.763 -0.2392 -0.2173 -0.4042
 4244SOL    HW124191   1.376   2.394   7.851  1.2505  1.9795  0.3742
 4244SOL    HW224192   1.476   2.469   7.780 -1.1924  0.1566  1.5592
 4245SOL     OW24193   2.167   2.430  15.238 -0.0540 -0.5427 -0.2846
 4245SOL    HW124194   2.108   2.467  15.173 -1.0751 -0.7741  0.5105
 4245SOL    HW224195   2.130   2.457  15.322  0.3024 -1.8774  0.3046
 4246SOL     OW24196   3.339   1.577   2.462 -0.4234  0.3912  0.2337
 4246SOL    HW124197   3.343   1.532   2.377 -2.0587 -1.1181  0.9609
 4246SOL    HW224198   3.399   1.651   2.458  1.2923 -0.9229  1.4392
 4247SOL     OW24199   3.478   1.908   4.314  0.3847 -0.2148  0.4794
 4247SOL    HW124200   3.573   1.905   4.330  0.0350 -0.9436  2.4611
 4247SOL    HW224201   3.442   1.956   4.388  2.6927  2.2082  0.0090
 4248SOL     OW24202   3.742   1.422   2.855 -0.3006 -0.1586  0.6113
 4248SOL    HW124203   3.651   1.417   2.884  0.3310 -0.4586  2.4769
 4248SOL    HW224204   3.768   1.332   2.873 -0.4884 -0.0077  1.6378
 4249SOL     OW24205   2.068   1.195  14.390  0.3703 -0.2711 -0.3227
 4249SOL    HW124206   2.054   1.177  14.483  0.0144 -1.4706 -0.6037
 4249SOL    HW224207   2.122   1.274  14.395 -0.5259  0.3411 -0.4498
 4250SOL     OW24208   3.103   0.208   7.975 -0.1318  0.0520 -0.4501
 4250SOL    HW124209   3.064   0.144   8.035  0.5182 -0.8419 -0.9787
 4250SOL    HW224210   3.145   0.254   8.048 -0.7050 -0.8528  0.4432
 4251SOL     OW24211   2.665   2.978   6.033 -0.3052  0.2145  0.1054
 4251SOL    HW124212   2.730   3.027   6.083  1.6789 -0.7581 -1.5385
 4251SOL    HW224213   2.670   3.033   5.955  2.6312  0.9408  0.8139
 4252SOL     OW24214   2.986   2.364   5.797  0.3670  0.6286 -0.1480
 4252SOL    HW124215   3.074   2.330   5.785  0.4622  0.6305  0.5463
 4252SOL    HW224216   2.970   2.353   5.891 -2.0563 -0.8735 -0.7396
 4253SOL     OW24217   1.426   3.129   4.496  0.0897 -0.1672 -0.1693
 4253SOL    HW124218   1.448   3.217   4.466  1.3894 -0.5743 -0.4057
 4253SOL    HW224219   1.395   3.145   4.585  0.7667 -2.0012  0.3834
 4254SOL     OW24220   1.930   2.708   3.808 -0.5389 -0.2370 -0.4520
 4254SOL    HW124221   1.898   2.775   3.868 -0.1055 -1.0593  0.6752
 4254SOL    HW224222   1.847   2.678   3.769 -0.1741 -2.9007  0.8898
 4255SOL     OW24223   2.009   3.185   7.815 -0.3243 -0.0736 -0.2168
 4255SOL    HW124224   1.985   3.242   7.742  1.1809  0.1334 -0.5620
 4255SOL    HW224225   2.040   3.254   7.874  0.7507 -1.1988  0.5522
 4256SOL     OW24226   2.477   1.927   6.099 -0.3207  0.1317 -0.2540
 4256SOL    HW124227   2.563   1.885   6.112 -0.9455 -0.3452  2.3165
 4256SOL    HW224228   2.437   1.856   6.047 -1.6350  1.9111 -1.6684
 4257SOL     OW24229   1.369   4.717   2.538 -0.4136 -0.5577  0.2067
 4257SOL    HW124230   1.319   0.070   2.499  0.6740  0.4851  0.7433
 4257SOL    HW224231   1.301   4.667   2.582 -0.8778  0.8817  1.1390
 4258SOL     OW24232   0.782   0.887  16.784 -0.4976  0.4341  0.2926
 4258SOL    HW124233   0.771   0.940  16.705 -0.6792  2.5162  1.7147
 4258SOL    HW224234   0.690   0.893  16.811 -0.8432  1.1070 -1.0494
 4259SOL     OW24235   0.280   3.003   7.947 -0.1577  0.2952 -0.2127
 4259SOL    HW124236   0.200   3.042   7.912 -1.5427 -1.0518  1.4347
 4259SOL    HW224237   0.258   2.944   8.019  1.0098  1.5607  1.1804
 4260SOL     OW24238   3.089   4.179   7.171  0.2572  0.4879 -0.0553
 4260SOL    HW124239   3.024   4.249   7.180 -0.0631  0.2080 -0.1994
 4260SOL    HW224240   3.025   4.108   7.177  2.3511 -1.3795  0.3101
 4261SOL     OW24241   4.595   0.506   7.739 -0.1230  0.0342 -0.3134
 4261SOL    HW124242   4.504   0.486   7.759  0.1735 -0.8699  0.1216
 4261SOL    HW224243   4.580   0.554   7.657 -0.6391  0.8097  0.2362
 4262SOL     OW24244   3.107   0.593  12.139 -0.1141  0.1404  0.4638
 4262SOL    HW124245   3.061   0.510  12.152 -0.8743  0.1937 -2.0351
 4262SOL    HW224246   3.170   0.572  12.071  1.0656 -0.4067  1.7228
 4263SOL     OW24247   4.379   3.083  15.784 -0.0577 -0.0497 -0.2954
 4263SOL    HW124248   4.445   3.077  15.853 -0.5717  0.9910  0.2870
 4263SOL    HW224249   4.410   3.160  15.738  2.2820  0.1795  1.7046
 4264SOL     OW24250   3.574   4.027   8.092 -0.1648 -0.0742  0.3133
 4264SOL    HW124251   3.581   4.082   8.170  0.5797  1.4452 -0.8189
 4264SOL    HW224252   3.482   4.002   8.093 -0.1270 -0.1799  1.1839
 4265SOL     OW24253   1.569   0.820   8.516 -0.1206  0.1682  0.1455
 4265SOL    HW124254   1.542   0.822   8.424 -0.4853 -1.9159  0.2142
 4265SOL    HW224255   1.541   0.909   8.537  1.8194  0.6204  0.7793
 4266SOL     OW24256   2.622   3.526  12.425  0.2127  0.3068 -0.8343
 4266SOL    HW124257   2.655   3.485  12.345  0.9881 -1.2857  0.2922
 4266SOL    HW224258   2.588   3.603  12.380  1.4479  1.9767  1.0793
 4267SOL     OW24259   3.566   4.277  12.474 -0.2897 -0.1764 -0.1038
 4267SOL    HW124260   3.541   4.189  12.445 -0.6326  0.1361 -0.7791
 4267SOL    HW224261   3.607   4.267  12.559 -1.0279 -1.0202  0.1436
 4268SOL     OW24262   4.441   1.652   5.131  0.2702 -0.0456 -0.2836
 4268SOL    HW124263   4.386   1.607   5.066  0.2783 -1.2447  0.5550
 4268SOL    HW224264   4.397   1.643   5.215  0.0572  0.6731 -0.3162
 4269SOL     OW24265   0.486   2.955   2.967 -0.4567 -0.0741 -0.2327
 4269SOL    HW124266   0.540   2.913   3.035 -0.2761  0.1063 -0.2649
 4269SOL    HW224267   0.420   3.007   3.012 -2.1033 -2.0763 -0.3541
 4270SOL     OW24268   4.562   3.606   3.700  0.2571 -0.3965  0.1840
 4270SOL    HW124269   4.590   3.516   3.691  4.6794  1.1543 -1.2758
 4270SOL    HW224270   4.475   3.602   3.660 -0.2850  1.2856  1.1801
 4271SOL     OW24271   3.712   2.704  14.521  0.2437  0.5016  0.0449
 4271SOL    HW124272   3.688   2.674  14.433 -0.7682 -0.1511  0.5517
 4271SOL    HW224273   3.783   2.642  14.538  0.6949  1.4514  1.6759
 4272SOL     OW24274   2.150   4.701  10.201  0.2221 -0.4003 -0.2443
 4272SOL    HW124275   2.165   4.712  10.295 -0.1056  1.7122 -0.4280
 4272SOL    HW224276   2.227   4.651  10.175 -0.2250  0.0200 -2.4256
 4273SOL     OW24277   0.187   4.092   3.148  0.1692 -0.1211  0.1657
 4273SOL    HW124278   0.155   4.121   3.063 -0.8500  3.0040  1.6193
 4273SOL    HW224279   0.106   4.060   3.188 -0.3036  0.3410 -0.4096
 4274SOL     OW24280   1.877   4.612  10.623 -0.0208  0.2375  0.0498
 4274SOL    HW124281   1.792   4.656  10.617 -0.0216  0.3405  0.7861
 4274SOL    HW224282   1.930   4.668  10.680  1.7853 -1.7001  0.2408
 4275SOL     OW24283   3.043   4.313  11.479 -0.0952  0.3193  0.1898
 4275SOL    HW124284   3.051   4.275  11.566  0.6034 -3.9107 -1.7073
 4275SOL    HW224285   2.985   4.387  11.497  0.9469  0.9348  0.9743
 4276SOL     OW24286   4.646   1.622   5.672  0.5859 -0.4575  0.1039
 4276SOL    HW124287   4.666   1.670   5.752  0.8422  1.6892 -1.2418
 4276SOL    HW224288   0.010   1.627   5.624  0.8807  2.6303  0.8844
 4277SOL     OW24289   2.331   1.392   5.970  0.4928  0.5824  0.2454
 4277SOL    HW124290   2.373   1.469   6.006 -1.2190  2.6678 -2.1462
 4277SOL    HW224291   2.304   1.344   6.048  0.3088 -0.6583 -0.5802
 4278SOL     OW24292   2.224   4.062  13.577  0.3163 -0.1274 -0.1527
 4278SOL    HW124293   2.230   3.967  13.571  0.3511 -0.2265  1.5970
 4278SOL    HW224294   2.157   4.085  13.642  0.9347 -0.6472  0.6561
 4279SOL     OW24295   0.496   0.118   5.255 -0.0473 -0.1920 -0.2704
 4279SOL    HW124296   0.567   0.093   5.315  1.9224  1.3206 -1.9822
 4279SOL    HW224297   0.525   0.111   5.164  0.8907  1.4377 -0.0968
 4280SOL     OW24298   3.893   2.236   2.026 -0.4690  0.7180  0.0913
 4280SOL    HW124299   3.865   2.322   1.997 -0.6607  0.3676 -0.7467
 4280SOL    HW224300   3.841   2.180   1.969  0.2133 -0.9230  1.0704
 4281SOL     OW24301   4.164   1.408   4.663 -0.0508 -0.2767  0.2890
 4281SOL    HW124302   4.194   1.449   4.582  2.7071 -1.6138  0.6460
 4281SOL    HW224303   4.167   1.316   4.636 -1.3882  0.0733 -1.0392
 4282SOL     OW24304   0.051   3.356   9.722  0.5769  0.2182  0.3543
 4282SOL    HW124305   0.121   3.296   9.748 -0.3853 -0.1076  2.2111
 4282SOL    HW224306   0.080   3.430   9.775  0.3567  2.4982 -2.7132
 4283SOL     OW24307   1.390   0.986   0.806  0.1242  0.0857 -0.0225
 4283SOL    HW124308   1.366   1.010   0.896  0.3132 -2.0494  0.5744
 4283SOL    HW224309   1.411   1.072   0.769  1.4341 -0.9096 -1.5875
 4284SOL     OW24310   1.091   3.444  14.299  0.2314  0.1972  0.2081
 4284SOL    HW124311   1.042   3.367  14.272  2.6442 -1.1244 -0.4253
 4284SOL    HW224312   1.118   3.469  14.211  0.3724  2.7837  0.9844
 4285SOL     OW24313   2.556   2.369   0.488 -0.4443  0.6912  0.1619
 4285SOL    HW124314   2.542   2.371   0.394 -0.5366  0.0147  0.1572
 4285SOL    HW224315   2.498   2.442   0.510 -0.9349 -0.4122  2.6034
 4286SOL     OW24316   0.699   1.694   5.083 -0.3334  0.0821  0.8397
 4286SOL    HW124317   0.767   1.761   5.080  0.7506 -1.1196 -1.5945
 4286SOL    HW224318   0.678   1.675   5.175 -1.5655 -0.5573  0.4135
 4287SOL     OW24319   1.565   3.867   9.741 -0.0623 -0.0939 -0.0764
 4287SOL    HW124320   1.630   3.893   9.677 -2.1743 -3.4112 -3.5408
 4287SOL    HW224321   1.503   3.938   9.728 -0.1272 -0.4183 -1.4596
 4288SOL     OW24322   4.617   2.399  14.982 -0.0160 -0.0321 -0.6705
 4288SOL    HW124323   4.686   2.402  15.049  0.0017  0.0745 -0.6935
 4288SOL    HW224324   4.582   2.312  15.003  2.0376 -0.7265 -0.0724
 4289SOL     OW24325   2.436   1.799   9.139  0.0509  0.1309  0.3112
 4289SOL    HW124326   2.341   1.813   9.142  0.3135  2.1365 -0.8863
 4289SOL    HW224327   2.433   1.726   9.077  1.4190 -0.5309  1.0425
 4290SOL     OW24328   1.718   0.919   3.288  0.2500 -0.4831 -0.4005
 4290SOL    HW124329   1.793   0.859   3.289 -0.8044 -1.8033  0.1603
 4290SOL    HW224330   1.649   0.860   3.318  1.1498 -1.1599  0.3397
 4291SOL     OW24331   0.389   2.629   7.774  0.1217  0.8167  0.2199
 4291SOL    HW124332   0.402   2.599   7.864  0.5317 -0.3033 -0.2268
 4291SOL    HW224333   0.300   2.599   7.753  0.1710  0.6679  0.2267
 4292SOL     OW24334   3.302   2.755   2.876 -0.3531  0.5381 -0.2570
 4292SOL    HW124335   3.266   2.832   2.834  1.0621  0.2477 -1.9997
 4292SOL    HW224336   3.223   2.704   2.893  0.1379  0.4259  1.6241
 4293SOL     OW24337   2.780   2.011   8.261 -0.0522 -1.0659 -0.0179
 4293SOL    HW124338   2.787   2.038   8.352 -2.1673 -1.3097  0.2286
 4293SOL    HW224339   2.872   1.987   8.259  0.3554  0.5187 -0.8914
 4294SOL     OW24340   1.786   3.742   4.144  0.5634  0.6939 -0.3321
 4294SOL    HW124341   1.843   3.813   4.115  2.0162  0.1425  1.1891
 4294SOL    HW224342   1.697   3.765   4.117  1.0229 -1.0282 -3.3348
 4295SOL     OW24343   2.525   3.968   7.339 -0.0719  0.0215 -0.0891
 4295SOL    HW124344   2.505   3.950   7.430  0.9539 -1.2265 -0.1144
 4295SOL    HW224345   2.507   3.881   7.304 -2.1672  0.2919  0.3112
 4296SOL     OW24346   3.812   1.907   0.164  0.1023  0.4627  0.0919
 4296SOL    HW124347   3.872   1.897   0.090 -0.6428 -0.8406 -0.3257
 4296SOL    HW224348   3.737   1.955   0.129  0.8816  1.9721  0.4707
 4297SOL     OW24349   1.559   4.485  13.248 -0.1116  0.1123 -0.3250
 4297SOL    HW124350   1.504   4.441  13.184  0.7709  0.4897 -1.3399
 4297SOL    HW224351   1.613   4.412  13.279 -1.6945 -0.4850  1.0064
 4298SOL     OW24352   1.264   1.526  16.465 -0.5814  0.0528 -0.7349
 4298SOL    HW124353   1.269   1.615  16.431 -0.2475  0.1893 -0.3306
 4298SOL    HW224354   1.341   1.532  16.521 -0.5725 -0.7742 -0.6556
 4299SOL     OW24355   1.498   4.276  13.646 -0.2158 -0.2750 -0.6838
 4299SOL    HW124356   1.418   4.227  13.662  0.3043 -1.2942 -1.2584
 4299SOL    HW224357   1.554   4.257  13.722 -2.9334  0.0532  1.4128
 4300SOL     OW24358   1.318   3.171   4.162  0.6210 -0.3923 -0.1103
 4300SOL    HW124359   1.365   3.221   4.229  1.5307 -0.5081 -0.6669
 4300SOL    HW224360   1.355   3.221   4.089 -0.6076 -1.1369 -1.2375
 4301SOL     OW24361   1.734   2.675  16.270 -0.5272 -0.3418  0.4041
 4301SOL    HW124362   1.780   2.718  16.198 -0.6842  0.5664  0.8358
 4301SOL    HW224363   1.665   2.742  16.273 -0.8925 -0.5743 -2.7407
 4302SOL     OW24364   1.169   3.663   2.440  0.1907  0.0302 -0.3107
 4302SOL    HW124365   1.157   3.574   2.406  0.0939  0.9801 -2.7369
 4302SOL    HW224366   1.079   3.679   2.469 -0.2677 -0.1063 -1.6579
 4303SOL     OW24367   3.747   2.152  12.809 -0.2641  0.0508 -0.3739
 4303SOL    HW124368   3.710   2.222  12.863 -1.5634 -1.8828  1.2427
 4303SOL    HW224369   3.817   2.126  12.869  1.6060  0.0536 -2.5685
 4304SOL     OW24370   2.919   1.469   7.230 -0.1585  0.1484 -0.2074
 4304SOL    HW124371   2.825   1.473   7.244  0.0078  2.6402  0.3416
 4304SOL    HW224372   2.949   1.534   7.293 -1.3324 -0.3960  0.8871
 4305SOL     OW24373   1.152   1.728   8.494  0.3664 -0.0393  0.0335
 4305SOL    HW124374   1.141   1.737   8.399 -0.4266 -1.2952  0.0095
 4305SOL    HW224375   1.111   1.810   8.524  2.4535  0.4309  1.5412
 4306SOL     OW24376   1.590   1.538   7.984  0.2727  0.2930 -0.4361
 4306SOL    HW124377   1.625   1.627   7.995  0.8400 -0.3695  2.9009
 4306SOL    HW224378   1.665   1.483   8.006 -0.4146 -0.3139  0.3612
 4307SOL     OW24379   2.614   2.431   3.424  0.1558  0.2914 -0.4943
 4307SOL    HW124380   2.564   2.467   3.350  1.2579 -0.8989 -1.8324
 4307SOL    HW224381   2.592   2.505   3.480 -1.3252 -2.1668  2.1533
 4308SOL     OW24382   3.417   0.712   7.353 -0.1577 -0.4527 -0.1961
 4308SOL    HW124383   3.375   0.782   7.402 -0.1249  1.4837 -2.9592
 4308SOL    HW224384   3.359   0.639   7.376  0.7229 -1.0892  0.0121
 4309SOL     OW24385   1.921   2.941   3.957 -0.0302 -0.2449 -0.3121
 4309SOL    HW124386   2.011   2.973   3.967 -0.1012 -0.4635  1.0795
 4309SOL    HW224387   1.913   2.885   4.034  2.8208 -0.0988  0.1022
 4310SOL     OW24388   3.814   3.427   6.925  0.4110  0.4953  0.2581
 4310SOL    HW124389   3.732   3.420   6.973  0.5905 -0.7176  0.3905
 4310SOL    HW224390   3.861   3.361   6.976 -0.7277 -1.9656 -1.8820
 4311SOL     OW24391   1.742   0.840   5.313  0.1152  0.3509 -0.2387
 4311SOL    HW124392   1.733   0.905   5.243 -0.3366  2.1440  1.4966
 4311SOL    HW224393   1.722   0.894   5.389 -1.6372  2.8353 -2.4410
 4312SOL     OW24394   4.217   2.433   4.461 -0.4998 -0.0032 -0.0915
 4312SOL    HW124395   4.259   2.503   4.410 -1.8422 -0.3693 -1.7255
 4312SOL    HW224396   4.281   2.362   4.455  0.3244  0.8359 -1.1878
 4313SOL     OW24397   0.966   3.762   4.924  0.1305 -0.1035 -0.5818
 4313SOL    HW124398   0.951   3.724   5.011 -0.2994 -0.0709 -0.6379
 4313SOL    HW224399   0.878   3.744   4.891 -0.0200 -1.4098  0.5286
 4314SOL     OW24400   1.716   3.995   6.340 -0.0517 -0.6942 -0.4106
 4314SOL    HW124401   1.659   3.927   6.303 -1.4893  0.1937  0.1678
 4314SOL    HW224402   1.667   4.076   6.330  0.6631 -0.0621  1.1047
 4315SOL     OW24403   0.137   2.792   4.714 -0.2720 -0.1357  0.0265
 4315SOL    HW124404   0.059   2.738   4.706 -0.4411  0.3788 -1.6636
 4315SOL    HW224405   0.166   2.782   4.624  0.7582 -1.5705  0.5039
 4316SOL     OW24406   3.634   1.650   3.511 -0.1922 -0.2403  0.1156
 4316SOL    HW124407   3.717   1.605   3.493 -0.5468 -1.3819  1.3123
 4316SOL    HW224408   3.571   1.579   3.520 -1.3346  0.5248 -1.6981
 4317SOL     OW24409   1.146   1.610   2.841 -0.3735 -0.4096 -0.2563
 4317SOL    HW124410   1.056   1.605   2.808 -0.6939 -0.1172  0.5408
 4317SOL    HW224411   1.138   1.611   2.937  1.2082 -3.1342 -0.1045
 4318SOL     OW24412   0.656   1.478   6.033  0.1347  0.0191  0.0035
 4318SOL    HW124413   0.596   1.454   6.103 -0.3962 -0.7585 -0.7192
 4318SOL    HW224414   0.734   1.426   6.051  0.6904  0.3883 -1.3240
 4319SOL     OW24415   4.435   2.460   9.123  0.3501  0.3648  0.4605
 4319SOL    HW124416   4.403   2.481   9.035  0.6761  2.1157  0.7445
 4319SOL    HW224417   4.530   2.473   9.114  0.6632 -1.1721  1.4893
 4320SOL     OW24418   4.420   3.576  11.950 -0.2530 -1.1065 -0.5520
 4320SOL    HW124419   4.492   3.634  11.924 -1.7279  1.2291  0.6347
 4320SOL    HW224420   4.384   3.558  11.863  0.1005  0.1275 -0.9512
 4321SOL     OW24421   2.480   2.133  11.803 -0.6370  0.2488  0.0465
 4321SOL    HW124422   2.568   2.168  11.796 -0.4457  0.2358  2.4556
 4321SOL    HW224423   2.493   2.075  11.878 -1.0580  0.2990  0.1605
 4322SOL     OW24424   1.404   3.922  14.602  0.8105 -0.2964  0.2973
 4322SOL    HW124425   1.480   3.942  14.546 -1.2083 -0.4467 -2.4731
 4322SOL    HW224426   1.454   3.905  14.682  1.2468  0.2791  0.1503
 4323SOL     OW24427   0.135   4.076  16.577 -0.1102  0.1489  0.2560
 4323SOL    HW124428   0.067   4.071  16.510  2.2045  1.8109 -2.2420
 4323SOL    HW224429   0.099   4.156  16.617  0.6012  0.1266  0.9588
 4324SOL     OW24430   3.631   2.973  14.695 -0.1423  0.6448 -0.3519
 4324SOL    HW124431   3.545   3.009  14.717 -0.9769 -1.3371 -0.3786
 4324SOL    HW224432   3.676   3.016  14.767  1.1508  0.0752 -0.8140
 4325SOL     OW24433   1.958   4.481   4.622  0.0710 -0.2273 -0.2231
 4325SOL    HW124434   1.942   4.398   4.576 -1.8647  0.6087 -1.0514
 4325SOL    HW224435   1.912   4.540   4.562 -0.8531 -0.1173  0.6112
 4326SOL     OW24436   4.445   1.966   2.984 -0.2164 -0.0182 -0.2390
 4326SOL    HW124437   4.357   1.996   2.959 -0.1350 -0.6824 -1.3095
 4326SOL    HW224438   4.499   2.044   2.975 -0.6845  0.2327 -0.8196
 4327SOL     OW24439   3.703   2.421   5.622 -0.1125  0.0738 -0.4295
 4327SOL    HW124440   3.621   2.372   5.612  0.7080 -1.8726  2.4417
 4327SOL    HW224441   3.753   2.417   5.540  0.1713 -0.8330 -0.2120
 4328SOL     OW24442   0.268   3.906   9.844  0.0356  0.0964  0.1755
 4328SOL    HW124443   0.199   3.892   9.909 -0.8680 -0.0496 -0.8061
 4328SOL    HW224444   0.253   3.999   9.827  0.9607  0.4595  1.2927
 4329SOL     OW24445   1.446   3.714   6.472  0.0759 -0.6070 -0.2693
 4329SOL    HW124446   1.473   3.634   6.517  2.0589  1.0386  1.4971
 4329SOL    HW224447   1.409   3.679   6.391  0.7585 -1.0181 -0.4099
 4330SOL     OW24448   3.220   0.859   6.511 -0.4459  0.2872 -0.2895
 4330SOL    HW124449   3.188   0.821   6.593 -0.1510  3.3935  1.2770
 4330SOL    HW224450   3.279   0.926   6.545  1.2616 -1.4659  0.1734
 4331SOL     OW24451   3.943   1.585   5.408  0.1671  0.0030  0.3128
 4331SOL    HW124452   3.897   1.607   5.489  1.1530  1.8941  0.3585
 4331SOL    HW224453   3.970   1.494   5.421 -0.7055 -0.4698 -1.2905
 4332SOL     OW24454   2.032   0.399  12.128 -0.2003  0.1331  0.0957
 4332SOL    HW124455   1.980   0.321  12.150  0.7279 -1.3766 -3.0551
 4332SOL    HW224456   1.966   0.468  12.135 -0.6186 -0.3978  1.3924
 4333SOL     OW24457   3.199   3.824   6.842 -0.6998  0.0405 -0.1476
 4333SOL    HW124458   3.239   3.803   6.927 -2.8726 -1.6891  0.4448
 4333SOL    HW224459   3.269   3.877   6.805 -2.6701  1.9022 -1.2278
 4334SOL     OW24460   2.155   2.379  15.681  0.2613 -0.0611 -0.0066
 4334SOL    HW124461   2.104   2.421  15.612  0.8108  0.6083  0.0006
 4334SOL    HW224462   2.105   2.298  15.673  1.1946 -0.6768  0.3347
 4335SOL     OW24463   2.752   2.108  11.734  0.2718  0.4642 -0.0836
 4335SOL    HW124464   2.810   2.098  11.809 -1.0651 -2.2622  0.5865
 4335SOL    HW224465   2.817   2.133  11.668  0.0167 -0.2268 -0.5947
 4336SOL     OW24466   0.872   0.301   8.357  0.1232  0.4943  0.0217
 4336SOL    HW124467   0.928   0.366   8.314  0.5994 -0.8616 -1.3905
 4336SOL    HW224468   0.919   0.272   8.436 -3.1554 -1.5392  1.2148
 4337SOL     OW24469   2.382   3.629  12.568  0.4379 -0.2666  0.3235
 4337SOL    HW124470   2.386   3.724  12.552 -0.5000 -0.1523  0.7017
 4337SOL    HW224471   2.297   3.611  12.609  0.8386 -0.5259  1.0473
 4338SOL     OW24472   1.162   0.087   8.964 -0.1263 -0.2698 -0.3989
 4338SOL    HW124473   1.176   4.712   8.967 -1.0401 -0.4302 -1.1683
 4338SOL    HW224474   1.068   0.090   8.977 -0.2613 -0.6691 -1.2456
 4339SOL     OW24475   0.027   1.867   0.163 -0.5626  0.2779  0.1902
 4339SOL    HW124476   0.039   1.858   0.069  1.0096  0.5593  0.3739
 4339SOL    HW224477   4.669   1.924   0.162  0.0603  1.1707  1.8246
 4340SOL     OW24478   1.689   4.682   3.037 -0.0002  0.5014  0.2442
 4340SOL    HW124479   1.678   4.643   3.124 -0.5303 -2.0185 -0.9421
 4340SOL    HW224480   1.717   0.051   3.061 -0.2075  0.5191  0.4297
 4341SOL     OW24481   2.176   0.276   8.578 -0.5475  0.2309  0.3880
 4341SOL    HW124482   2.215   0.219   8.511 -0.0313  0.6274  0.3590
 4341SOL    HW224483   2.081   0.281   8.564 -0.4259  0.7123 -0.2070
 4342SOL     OW24484   4.199   4.509  12.798  0.3867 -0.1456 -0.0981
 4342SOL    HW124485   4.139   4.486  12.727  0.5004 -1.6305  0.2844
 4342SOL    HW224486   4.218   4.431  12.850  1.0982  2.1242  3.0779
 4343SOL     OW24487   4.260   1.440   1.018  0.5534  0.2034  0.1244
 4343SOL    HW124488   4.261   1.375   1.089  0.2191  0.0495 -0.0137
 4343SOL    HW224489   4.319   1.507   1.053 -0.4754  1.4500 -0.5581
 4344SOL     OW24490   0.789   2.493   8.822  0.7134 -1.1762  0.6233
 4344SOL    HW124491   0.832   2.485   8.907 -0.8108 -0.4552  1.4743
 4344SOL    HW224492   0.868   2.527   8.779  0.9680  1.0629  2.8456
 4345SOL     OW24493   3.566   4.688  16.121  0.2589  0.0305  0.2409
 4345SOL    HW124494   3.483   4.718  16.084  0.9187  1.2283 -0.2480
 4345SOL    HW224495   3.574   0.034  16.191  3.9907 -0.0110 -0.1407
 4346SOL     OW24496   1.154   0.120   8.283 -0.5224 -0.1772  0.2070
 4346SOL    HW124497   1.072   0.091   8.322 -0.7088  1.1402  0.7601
 4346SOL    HW224498   1.206   0.164   8.350 -0.3206  1.3247 -0.9371
 4347SOL     OW24499   4.033   3.187   6.635  1.1481 -0.1607  0.9077
 4347SOL    HW124500   4.020   3.247   6.709  0.0114  1.5168 -0.6295
 4347SOL    HW224501   4.070   3.107   6.673  0.1802 -1.4853 -0.9905
 4348SOL     OW24502   2.626   1.063  16.178 -0.1826 -0.0101 -0.0952
 4348SOL    HW124503   2.598   0.972  16.184  0.0833 -0.1411 -0.9164
 4348SOL    HW224504   2.544   1.112  16.182 -0.3953 -0.4920  1.4415
 4349SOL     OW24505   0.420   0.816  11.060  0.4209 -0.1712 -0.3773
 4349SOL    HW124506   0.382   0.751  11.120  1.2543  0.8740  1.2636
 4349SOL    HW224507   0.481   0.870  11.109  3.4193 -1.0756 -3.0802
 4350SOL     OW24508   1.212   2.561   9.526 -0.2077 -0.3730 -0.1385
 4350SOL    HW124509   1.133   2.521   9.561  0.4436 -1.3986  0.1595
 4350SOL    HW224510   1.205   2.541   9.432  0.7802 -0.1850 -0.2525
 4351SOL     OW24511   3.639   4.567   6.019  0.1857  0.4028 -0.0020
 4351SOL    HW124512   3.698   4.515   6.075  0.2518  1.3284  0.7849
 4351SOL    HW224513   3.699   4.637   5.996  0.6386 -0.0092 -0.0809
 4352SOL     OW24514   3.318   3.387   7.864 -0.2859  0.5407 -0.4463
 4352SOL    HW124515   3.227   3.359   7.876 -0.4490  2.1877  2.0949
 4352SOL    HW224516   3.314   3.410   7.771  0.2479  1.0734 -0.3397
 4353SOL     OW24517   1.100   0.577  11.346 -0.3668  0.0148  0.2639
 4353SOL    HW124518   1.141   0.607  11.265 -0.1995  2.3617  1.2276
 4353SOL    HW224519   1.009   0.574  11.319 -0.5401 -0.0829  0.8666
 4354SOL     OW24520   3.364   0.652   5.864  0.3682  0.7607  0.1873
 4354SOL    HW124521   3.428   0.593   5.823 -0.4950 -0.8182  1.1371
 4354SOL    HW224522   3.419   0.726   5.837  0.8071 -0.4737 -2.2578
 4355SOL     OW24523   2.892   1.145   7.215 -0.0673 -0.5692 -0.4443
 4355SOL    HW124524   2.832   1.076   7.242  1.1295 -0.9891  1.1061
 4355SOL    HW224525   2.853   1.217   7.265  3.1917 -0.4839  1.9241
 4356SOL     OW24526   2.113   2.124   1.187 -0.3721  0.0211  0.0051
 4356SOL    HW124527   2.119   2.038   1.228  2.1917  0.2527  0.1028
 4356SOL    HW224528   2.027   2.152   1.219  1.9450  4.0710  2.6160
 4357SOL     OW24529   0.909   3.063   3.568 -0.7509  0.3205  0.0734
 4357SOL    HW124530   0.843   3.007   3.608  0.5329 -0.4959  1.0423
 4357SOL    HW224531   0.979   3.046   3.631 -0.8798  2.3348  0.7448
 4358SOL     OW24532   0.915   3.176   7.612 -0.2447  0.4328  0.1943
 4358SOL    HW124533   0.868   3.141   7.537  0.2054  2.0362 -0.8278
 4358SOL    HW224534   0.881   3.123   7.684 -0.2057  2.5565  1.7879
 4359SOL     OW24535   2.982   2.992  16.398  0.2260  0.4173 -0.6056
 4359SOL    HW124536   3.068   3.028  16.378 -0.1919  0.9798 -1.3977
 4359SOL    HW224537   2.987   2.904  16.360  1.8955  1.0448 -1.8171
 4360SOL     OW24538   3.200   0.123  13.786 -0.0816 -0.0301  0.2623
 4360SOL    HW124539   3.267   0.055  13.787 -0.0858 -0.0661 -1.7169
 4360SOL    HW224540   3.245   0.188  13.731  2.6101  0.4346  3.0009
 4361SOL     OW24541   0.506   0.767   4.368 -0.0677  0.1627  0.0694
 4361SOL    HW124542   0.553   0.849   4.353 -2.9865  1.6673 -0.8250
 4361SOL    HW224543   0.418   0.799   4.349 -0.4138  0.4310  2.1292
 4362SOL     OW24544   3.685   2.689   7.438 -0.0953 -0.8193 -0.5927
 4362SOL    HW124545   3.761   2.637   7.466  0.0999 -1.9363 -3.1952
 4362SOL    HW224546   3.638   2.713   7.517  0.1087 -2.1590 -0.0570
 4363SOL     OW24547   4.451   3.693   4.100  0.0188 -0.4962  0.4758
 4363SOL    HW124548   4.475   3.601   4.098  2.6878  0.1749  1.8925
 4363SOL    HW224549   4.384   3.692   4.168  0.1064 -1.8504  0.5461
 4364SOL     OW24550   3.082   2.628   2.933  0.2550  0.4379 -0.2899
 4364SOL    HW124551   3.029   2.618   3.012 -0.4897 -0.9096 -0.9660
 4364SOL    HW224552   3.099   2.540   2.900 -0.5001  0.1485  0.0901
 4365SOL     OW24553   2.207   1.973   7.078  0.1940  0.7126  0.0043
 4365SOL    HW124554   2.279   2.022   7.117  1.7609 -0.2524 -1.7064
 4365SOL    HW224555   2.219   1.988   6.984  0.2304  0.5889 -0.0107
 4366SOL     OW24556   2.492   2.265   6.730  0.6023 -0.1482  0.3478
 4366SOL    HW124557   2.478   2.324   6.656  1.7918 -0.4029 -0.0741
 4366SOL    HW224558   2.468   2.184   6.686 -2.5619  0.7061  0.4836
 4367SOL     OW24559   4.497   0.267  10.681 -0.1431  0.1675 -0.0619
 4367SOL    HW124560   4.580   0.241  10.640 -0.0784 -0.1357  0.2596
 4367SOL    HW224561   4.524   0.313  10.760  2.2735  1.5294 -1.6785
 4368SOL     OW24562   2.232   3.565   8.349 -0.5364  0.3680 -0.3277
 4368SOL    HW124563   2.203   3.522   8.430  0.3868 -2.5298 -1.5511
 4368SOL    HW224564   2.323   3.552   8.373 -0.5808 -0.3760 -0.5673
 4369SOL     OW24565   1.287   4.085  10.357 -0.1672  0.1869 -0.0322
 4369SOL    HW124566   1.308   4.062  10.447 -0.8670 -0.7993 -0.1201
 4369SOL    HW224567   1.247   4.004  10.326 -0.0759 -0.5113  1.7005
 4370SOL     OW24568   1.143   1.128   4.267 -0.1356 -0.2104  0.1997
 4370SOL    HW124569   1.089   1.071   4.321  0.7711  1.7942  3.2522
 4370SOL    HW224570   1.089   1.204   4.248  2.3142  0.8746 -2.4581
 4371SOL     OW24571   4.161   3.049   2.272 -0.6740  1.0773 -0.1003
 4371SOL    HW124572   4.245   3.006   2.259 -1.7282 -1.1661  0.5555
 4371SOL    HW224573   4.178   3.115   2.205  0.3575  3.0384  2.0533
 4372SOL     OW24574   1.107   3.024   5.901 -0.1473  0.1626  0.2056
 4372SOL    HW124575   1.021   3.006   5.864  0.4961 -3.0181  0.2987
 4372SOL    HW224576   1.116   3.120   5.905 -0.5590  0.2690 -1.2581
 4373SOL     OW24577   2.819   2.941   0.362  0.3885 -0.2134  0.4145
 4373SOL    HW124578   2.865   3.025   0.364 -0.7175  0.4026  0.1412
 4373SOL    HW224579   2.769   2.943   0.280  1.9726  0.8182 -0.5420
 4374SOL     OW24580   0.083   4.338   3.729 -0.1601  0.3117  0.1972
 4374SOL    HW124581   0.030   4.364   3.654  0.2174  1.2283  0.2448
 4374SOL    HW224582   0.172   4.355   3.697  0.1928  0.1756  1.1250
 4375SOL     OW24583   4.401   2.797   5.156  0.3808 -0.3524 -0.3883
 4375SOL    HW124584   4.436   2.750   5.080  0.0251 -1.9410  0.4321
 4375SOL    HW224585   4.467   2.784   5.224 -2.3211 -1.6964  1.9948
 4376SOL     OW24586   4.336   1.203   1.480 -0.2292 -0.4099  0.5330
 4376SOL    HW124587   4.337   1.265   1.553  2.1076  2.4080 -1.9073
 4376SOL    HW224588   4.300   1.124   1.521 -0.7547 -1.0923 -1.2366
 4377SOL     OW24589   4.532   4.072  15.586  0.3025  0.2427 -0.0230
 4377SOL    HW124590   4.626   4.068  15.572  0.0045 -0.6559 -1.7729
 4377SOL    HW224591   4.539   4.025  15.669  0.7729 -0.3852 -0.4122
 4378SOL     OW24592   0.188   4.031  13.758  0.6323  0.5692  0.9455
 4378SOL    HW124593   0.131   4.098  13.721  2.1993  1.5118  0.2503
 4378SOL    HW224594   0.270   4.079  13.768  0.5544  0.7919  0.5235
 4379SOL     OW24595   1.804   2.118   4.352 -0.0082  0.1862  0.0131
 4379SOL    HW124596   1.884   2.160   4.385 -0.3300  0.7696  0.0603
 4379SOL    HW224597   1.750   2.193   4.328  0.8812  0.2809 -1.7034
 4380SOL     OW24598   1.458   1.058   8.438  0.5324  0.1798 -0.0961
 4380SOL    HW124599   1.458   1.003   8.360  0.6882  1.3725 -0.9244
 4380SOL    HW224600   1.377   1.107   8.428 -0.6136 -2.2107 -2.5374
 4381SOL     OW24601   0.802   1.116   5.933 -0.0645  0.5516 -0.2038
 4381SOL    HW124602   0.726   1.066   5.963 -0.1486  0.9938  0.3219
 4381SOL    HW224603   0.835   1.064   5.860 -0.3195 -0.2637  0.2659
 4382SOL     OW24604   0.824   3.656  14.233  0.3084  0.0703 -0.0989
 4382SOL    HW124605   0.836   3.680  14.141 -0.7050  2.7408  0.4541
 4382SOL    HW224606   0.876   3.726  14.273 -0.8166  1.4672 -1.0941
 4383SOL     OW24607   1.086   2.703   4.105 -0.0507 -0.4241 -0.4470
 4383SOL    HW124608   1.174   2.677   4.133  1.7413  2.2132 -3.7001
 4383SOL    HW224609   1.107   2.791   4.073  0.5402 -0.6565 -0.6854
 4384SOL     OW24610   4.417   0.677   1.035  0.0034 -0.4678 -0.0951
 4384SOL    HW124611   4.429   0.583   1.029  0.6046 -0.4704  1.1934
 4384SOL    HW224612   4.491   0.714   0.986  1.3994  0.9173  3.0666
 4385SOL     OW24613   4.474   1.125   9.082  0.0180 -0.7386 -0.4286
 4385SOL    HW124614   4.443   1.035   9.071 -0.5490 -0.3662 -1.9174
 4385SOL    HW224615   4.565   1.109   9.105  0.3521  3.8810  1.4347
 4386SOL     OW24616   2.587   0.616  11.395 -0.0019  0.2389 -0.0551
 4386SOL    HW124617   2.571   0.649  11.307 -0.5592 -1.0314 -0.4363
 4386SOL    HW224618   2.567   0.696  11.443 -0.4826 -1.5315  2.7082
 4387SOL     OW24619   3.267   4.591   8.058 -0.0164 -0.0132 -0.0280
 4387SOL    HW124620   3.178   4.611   8.088  0.1899  0.0912  0.5273
 4387SOL    HW224621   3.242   4.579   7.967  0.6852 -1.0304 -0.0837
 4388SOL     OW24622   1.386   0.306   9.837  0.5647 -0.6805 -0.3335
 4388SOL    HW124623   1.359   0.219   9.865 -0.0755  1.2580  5.1132
 4388SOL    HW224624   1.466   0.318   9.889  0.5865  0.2179 -0.5807
 4389SOL     OW24625   4.349   1.639  14.468 -0.5704 -0.6860  0.2535
 4389SOL    HW124626   4.301   1.584  14.529 -2.7529  0.7136 -0.2135
 4389SOL    HW224627   4.436   1.637  14.508  0.1990  0.9017 -1.3379
 4390SOL     OW24628   2.448   1.186   8.508  0.6429 -0.2280 -0.2908
 4390SOL    HW124629   2.440   1.107   8.455  0.3790 -1.1845  1.1599
 4390SOL    HW224630   2.444   1.254   8.441 -0.2922  0.0690  0.0792
 4391SOL     OW24631   0.212   2.287   5.538  0.5926 -0.1618  0.1357
 4391SOL    HW124632   0.213   2.201   5.495 -0.3214  0.9098 -2.0201
 4391SOL    HW224633   0.262   2.335   5.472  1.7528 -1.0155  0.3903
 4392SOL     OW24634   1.409   4.153  17.526  0.7254  0.2937 -0.3502
 4392SOL    HW124635   1.341   4.161  17.458 -0.3788  0.3236  0.7611
 4392SOL    HW224636   1.485   4.123  17.476 -0.9792 -2.5708 -1.2365
 4393SOL     OW24637   2.998   2.744  16.271  0.3099 -0.0787  0.2699
 4393SOL    HW124638   2.981   2.779  16.184 -1.9471 -0.6723  0.4841
 4393SOL    HW224639   3.035   2.656  16.262 -1.3378 -0.6150 -1.0969
 4394SOL     OW24640   1.499   1.953   7.147  0.5136 -0.4556 -0.0889
 4394SOL    HW124641   1.565   1.889   7.121  0.2139 -0.9906  0.4947
 4394SOL    HW224642   1.531   1.996   7.226 -0.0145  1.0308 -0.6856
 4395SOL     OW24643   1.636   0.781   8.103 -0.3667  0.2939 -0.1797
 4395SOL    HW124644   1.727   0.753   8.098 -0.8014 -0.8000 -1.9787
 4395SOL    HW224645   1.595   0.769   8.017 -2.2408 -0.1561  0.7614
 4396SOL     OW24646   0.720   1.795  12.333  0.4351  0.0201 -0.1089
 4396SOL    HW124647   0.704   1.758  12.420  1.6143  1.8393  0.8753
 4396SOL    HW224648   0.813   1.809  12.350  0.7508 -0.6936 -1.2416
 4397SOL     OW24649   2.176   3.808   7.830 -0.7714 -0.8033  0.1611
 4397SOL    HW124650   2.248   3.867   7.853  0.1960 -1.7531 -0.3548
 4397SOL    HW224651   2.175   3.742   7.900  0.2777  0.7622  1.6482
 4398SOL     OW24652   0.217   4.127  13.356  0.3387  0.5150  0.1442
 4398SOL    HW124653   0.123   4.145  13.355  0.5067  1.3002 -1.9658
 4398SOL    HW224654   0.216   4.041  13.399 -1.3192  0.7301  0.5382
 4399SOL     OW24655   1.165   3.215   5.553  0.1564  0.1583 -0.0929
 4399SOL    HW124656   1.118   3.140   5.516  1.0073  0.3699 -1.5970
 4399SOL    HW224657   1.252   3.181   5.575  0.0231  0.6571  1.1523
 4400SOL     OW24658   2.507   2.077   3.150 -0.2806  0.3124  0.0616
 4400SOL    HW124659   2.438   2.010   3.150 -0.0630  0.0819  1.0807
 4400SOL    HW224660   2.502   2.095   3.244 -2.2908 -0.9730  0.2074
 4401SOL     OW24661   4.310   3.998   8.018 -0.1013 -0.1722 -0.0162
 4401SOL    HW124662   4.218   4.019   8.032  0.5571  1.2196  2.2678
 4401SOL    HW224663   4.315   3.905   7.997 -0.2647  0.0762 -1.1603
 4402SOL     OW24664   2.072   1.224   5.508 -0.2184 -0.3740 -0.0520
 4402SOL    HW124665   2.077   1.269   5.423  0.4488 -0.0791  0.1406
 4402SOL    HW224666   2.166   1.217   5.524 -0.3440 -1.1157  0.3532
 4403SOL     OW24667   0.177   1.274   4.895  0.2351  0.1593  0.2259
 4403SOL    HW124668   0.217   1.348   4.850 -1.2733 -0.2424 -1.7735
 4403SOL    HW224669   0.241   1.208   4.868 -1.7170 -1.1202 -1.2902
 4404SOL     OW24670   2.893   1.118  13.473  0.6613  0.2161  0.3922
 4404SOL    HW124671   2.843   1.054  13.525 -2.1846  1.5941 -0.6662
 4404SOL    HW224672   2.953   1.154  13.539 -0.1538  1.6539  0.3601
 4405SOL     OW24673   2.719   2.097   2.251  0.3161 -0.3435 -0.1438
 4405SOL    HW124674   2.783   2.157   2.289 -0.0075 -0.9476  1.3681
 4405SOL    HW224675   2.681   2.063   2.333  1.8773  0.7886  1.0499
 4406SOL     OW24676   2.099   0.195   6.031 -0.0096 -0.2132  0.6914
 4406SOL    HW124677   2.099   0.274   5.977  0.8242 -0.0085  0.9997
 4406SOL    HW224678   2.192   0.172   6.028  0.1416  0.4692  0.2026
 4407SOL     OW24679   0.425   3.880   3.782 -0.0854  1.0341  0.2319
 4407SOL    HW124680   0.446   3.963   3.740  0.3000  0.1498 -1.3094
 4407SOL    HW224681   0.515   3.865   3.811 -0.5623 -0.7000  0.8225
 4408SOL     OW24682   1.962   2.427   9.023  0.0655  0.3941 -0.1791
 4408SOL    HW124683   1.869   2.442   9.007  0.1491  0.9744 -0.1172
 4408SOL    HW224684   1.965   2.346   9.075 -1.0050  2.2699  2.8288
 4409SOL     OW24685   3.423   3.988   3.041 -0.5830 -0.1909  0.0220
 4409SOL    HW124686   3.481   3.986   3.117 -1.3409 -0.2072  0.5996
 4409SOL    HW224687   3.373   4.067   3.063 -0.7122 -0.1370 -0.4630
 4410SOL     OW24688   2.562   1.984   2.448  0.0747 -0.4473  0.2760
 4410SOL    HW124689   2.565   1.990   2.544  0.8662  0.6118  0.1796
 4410SOL    HW224690   2.488   2.040   2.425  0.3452 -0.7780 -1.3802
 4411SOL     OW24691   0.187   2.055   6.657  0.1436  0.1064 -0.0398
 4411SOL    HW124692   0.165   2.136   6.611  0.0412 -0.3582 -0.8049
 4411SOL    HW224693   0.267   2.085   6.702  0.7323 -2.8512  0.8712
 4412SOL     OW24694   2.724   0.815   8.712 -0.1821 -0.3973 -0.0140
 4412SOL    HW124695   2.674   0.893   8.686 -0.5260 -1.0132 -1.1987
 4412SOL    HW224696   2.813   0.841   8.689 -0.4060  0.5294  0.1473
 4413SOL     OW24697   2.656   3.446   4.415  0.3287  0.4055 -0.3704
 4413SOL    HW124698   2.630   3.400   4.335 -2.2677  2.0295 -0.4827
 4413SOL    HW224699   2.635   3.378   4.480 -1.2864 -0.0268 -1.3560
 4414SOL     OW24700   0.252   3.639   2.129 -0.2738 -0.0637 -0.2336
 4414SOL    HW124701   0.188   3.622   2.198  0.0971  0.0960  0.1508
 4414SOL    HW224702   0.224   3.599   2.047 -0.3126  0.5068 -0.5053
 4415SOL     OW24703   0.987   2.012   7.945 -0.3724 -0.0912 -0.2587
 4415SOL    HW124704   0.962   1.947   8.011  1.5824 -0.4680  0.1126
 4415SOL    HW224705   0.993   2.098   7.987  0.1674  0.0576 -0.6355
 4416SOL     OW24706   1.050   3.391   3.586 -0.5670 -0.1469 -0.1359
 4416SOL    HW124707   1.005   3.367   3.504 -1.6527  1.9629 -0.1583
 4416SOL    HW224708   1.121   3.449   3.559 -2.7778  2.8680  0.4434
 4417SOL     OW24709   0.901   1.382   0.572 -0.5907 -0.2289  0.1902
 4417SOL    HW124710   0.907   1.345   0.484  0.7641  0.0365  0.1663
 4417SOL    HW224711   0.982   1.344   0.607 -0.5519 -0.2132  0.1169
 4418SOL     OW24712   2.969   2.887   0.966 -0.1416  0.2940  0.2029
 4418SOL    HW124713   2.906   2.914   0.899  2.1735  1.7593 -1.3996
 4418SOL    HW224714   3.012   2.815   0.919  0.0731 -0.8651  2.1598
 4419SOL     OW24715   0.235   2.923   4.986 -0.3944 -0.5312  0.0067
 4419SOL    HW124716   0.213   2.890   4.899  1.6127 -1.1198 -0.2712
 4419SOL    HW224717   0.326   2.894   4.990 -0.1487  0.0793 -1.2672
 4420SOL     OW24718   4.007   4.312   3.400 -0.0612 -0.0491 -0.2260
 4420SOL    HW124719   3.924   4.265   3.397  1.2930 -2.4813  0.2834
 4420SOL    HW224720   4.077   4.249   3.383 -1.7323 -2.0962  0.4668
 4421SOL     OW24721   0.647   1.879   9.263  0.2726  0.5001  0.0666
 4421SOL    HW124722   0.668   1.901   9.172  0.4326  2.3928  0.5483
 4421SOL    HW224723   0.683   1.793   9.281 -0.7663 -0.0545 -0.5545
 4422SOL     OW24724   4.539   2.737   6.836  0.1461  0.3361  0.0989
 4422SOL    HW124725   4.476   2.807   6.824  0.9130  0.7228 -1.7274
 4422SOL    HW224726   4.613   2.765   6.782  1.6777 -1.1233  1.4194
 4423SOL     OW24727   4.236   3.898  10.737  0.3086  0.5513  0.0553
 4423SOL    HW124728   4.295   3.845  10.791  1.7925  0.7548 -1.3700
 4423SOL    HW224729   4.303   3.960  10.709  1.1778  0.1474  1.2373
 4424SOL     OW24730   2.858   3.090  15.475  0.0277 -0.3388  0.2264
 4424SOL    HW124731   2.768   3.072  15.503 -0.3478  1.2063  0.0401
 4424SOL    HW224732   2.839   3.070  15.383  0.5397  1.3264 -0.2428
 4425SOL     OW24733   4.084   2.665   4.267  0.7783  0.1281 -0.4686
 4425SOL    HW124734   4.178   2.649   4.277  0.6381 -2.0616 -2.8818
 4425SOL    HW224735   4.082   2.761   4.261 -1.0405  0.3919  3.8809
 4426SOL     OW24736   4.718   0.469   8.376 -0.1917  0.2173  0.7994
 4426SOL    HW124737   0.020   0.561   8.395  0.2149 -0.0500  1.6490
 4426SOL    HW224738   0.084   0.428   8.360 -0.0398  1.1352 -0.8343
 4427SOL     OW24739   1.093   3.752   4.286  0.2416  0.2045 -0.0333
 4427SOL    HW124740   1.044   3.760   4.205 -1.6859 -0.4531  1.0547
 4427SOL    HW224741   1.181   3.729   4.256  0.2540  0.9999 -0.5851
 4428SOL     OW24742   2.603   0.699   8.396  0.2437 -0.0800  0.0648
 4428SOL    HW124743   2.541   0.626   8.401  0.2963 -0.2839 -2.1570
 4428SOL    HW224744   2.617   0.723   8.304  1.2410  1.8978  0.7355
 4429SOL     OW24745   1.452   0.137  10.223  0.0753 -0.6245  0.4092
 4429SOL    HW124746   1.441   0.066  10.159  2.5838  1.5222 -2.4176
 4429SOL    HW224747   1.504   0.200  10.173  2.6559 -1.8498  1.5263
 4430SOL     OW24748   0.405   1.441   0.648  0.4688 -0.2790  0.5872
 4430SOL    HW124749   0.387   1.482   0.563 -0.4987  0.2510  1.0499
 4430SOL    HW224750   0.350   1.363   0.641 -0.3929  0.3118  0.7918
 4431SOL     OW24751   3.927   4.683  10.715  0.5088  0.3474 -0.7753
 4431SOL    HW124752   3.991   4.631  10.668  0.5674  0.7891 -1.1846
 4431SOL    HW224753   3.974   4.702  10.796  1.3828  0.3455 -1.2821
 4432SOL     OW24754   4.396   2.437   6.091  0.0238  0.3852  0.0485
 4432SOL    HW124755   4.390   2.401   6.002  0.2791 -0.5406  0.4025
 4432SOL    HW224756   4.315   2.401   6.125 -0.8396  0.9457 -1.4051
 4433SOL     OW24757   1.319   2.525  15.664  0.1401  0.3897  0.3152
 4433SOL    HW124758   1.343   2.579  15.740  0.1045  0.6214  0.1590
 4433SOL    HW224759   1.237   2.488  15.695  0.1632 -1.7142 -2.1123
 4434SOL     OW24760   0.033   3.152   4.157  0.1825 -0.1230 -0.6916
 4434SOL    HW124761   4.700   3.186   4.084  0.7337 -1.4500 -1.6890
 4434SOL    HW224762   0.067   3.071   4.121 -0.0919 -0.0369 -1.1344
 4435SOL     OW24763   3.282   1.316   8.960 -0.3293  1.1862  0.1000
 4435SOL    HW124764   3.291   1.273   8.876 -0.3638  3.0383 -0.8458
 4435SOL    HW224765   3.226   1.390   8.938 -0.9858  0.6910  0.0982
 4436SOL     OW24766   1.142   0.563   2.038 -0.1182 -0.9465 -0.8858
 4436SOL    HW124767   1.182   0.496   2.093 -1.5141  0.9869  2.4557
 4436SOL    HW224768   1.165   0.527   1.952 -0.1456  1.8515 -2.0529
 4437SOL     OW24769   4.623   1.348   0.897 -0.2555 -0.2919 -0.5212
 4437SOL    HW124770   4.586   1.289   0.831  3.3201 -2.9928 -0.0656
 4437SOL    HW224771   4.556   1.346   0.965 -0.3661  3.0495 -0.5109
 4438SOL     OW24772   1.161   1.322   1.831  0.4575  0.0937  0.3151
 4438SOL    HW124773   1.225   1.251   1.837  1.3028  0.7286 -1.0321
 4438SOL    HW224774   1.166   1.354   1.741  0.5220 -0.1599  0.2289
 4439SOL     OW24775   0.721   1.026   4.787 -0.0040  0.1432 -0.1301
 4439SOL    HW124776   0.691   1.115   4.770 -0.0018  0.3214  0.7823
 4439SOL    HW224777   0.816   1.027   4.796 -0.1323  1.3245  1.0517
 4440SOL     OW24778   0.152   4.221   7.910 -0.0784  0.2140  0.0269
 4440SOL    HW124779   0.146   4.201   8.004 -0.7971 -0.5892 -0.1840
 4440SOL    HW224780   0.079   4.169   7.877 -0.5843  0.3239  0.9684
 4441SOL     OW24781   0.746   0.046  10.645 -0.0934 -0.4217 -0.3503
 4441SOL    HW124782   0.813   0.114  10.638  0.0514 -0.3704  1.5142
 4441SOL    HW224783   0.753   0.021  10.553 -0.0974  1.0526 -0.7474
 4442SOL     OW24784   3.225   4.132  11.041  0.1017  0.1294  0.2687
 4442SOL    HW124785   3.319   4.119  11.028 -0.0997  0.1705 -1.2623
 4442SOL    HW224786   3.228   4.216  11.086  2.5019 -0.0066  0.3221
 4443SOL     OW24787   1.841   4.160   8.619  0.0487 -0.3177  0.0353
 4443SOL    HW124788   1.765   4.107   8.595 -0.8092  0.1755  1.6999
 4443SOL    HW224789   1.861   4.211   8.540 -1.4020  2.1301  1.2326
 4444SOL     OW24790   2.910   3.192   9.001  0.0024  0.0885 -0.2880
 4444SOL    HW124791   2.877   3.243   9.075 -1.2508 -0.2094 -0.6268
 4444SOL    HW224792   2.969   3.142   9.057  0.0232  1.4155  0.8865
 4445SOL     OW24793   0.567   1.231  14.847 -0.0869  0.8822 -0.0165
 4445SOL    HW124794   0.505   1.304  14.845  0.9828  1.7394 -1.1668
 4445SOL    HW224795   0.541   1.188  14.929 -2.2001 -0.9076 -1.6443
 4446SOL     OW24796   3.054   4.203   3.987  0.1247  0.7937  0.2424
 4446SOL    HW124797   2.961   4.181   3.981  0.8098 -1.6425 -1.4447
 4446SOL    HW224798   3.072   4.211   3.894  0.8913  3.8794  0.6511
 4447SOL     OW24799   1.291   4.238   3.369  0.3446  0.6698  0.1077
 4447SOL    HW124800   1.379   4.253   3.334 -0.6381  1.2654 -2.1261
 4447SOL    HW224801   1.243   4.302   3.317 -1.5248 -1.1356 -0.3996
 4448SOL     OW24802   4.379   4.535  13.804 -0.3071  0.0892  0.2151
 4448SOL    HW124803   4.396   4.599  13.735 -0.9040  2.3375  2.1286
 4448SOL    HW224804   4.426   4.582  13.873  1.0250  2.6343 -2.4308
 4449SOL     OW24805   4.278   4.318   7.832  0.1395 -0.2159  0.3890
 4449SOL    HW124806   4.236   4.233   7.819  0.6890 -0.5574  0.8046
 4449SOL    HW224807   4.250   4.362   7.752  1.1697  1.0826  0.7424
 4450SOL     OW24808   0.797   2.243   7.633 -0.0511 -0.2197 -0.1276
 4450SOL    HW124809   0.790   2.193   7.715  0.8274 -2.6800 -1.5367
 4450SOL    HW224810   0.736   2.313   7.656  1.1502  0.6734  0.3396
 4451SOL     OW24811   4.676   0.308   3.362 -0.5034  0.1060 -0.4007
 4451SOL    HW124812   4.678   0.403   3.377  1.3305  0.3406 -2.1563
 4451SOL    HW224813   0.029   0.281   3.418 -1.4978  1.2601  1.4171
 4452SOL     OW24814   4.453   4.072  10.672 -0.2017 -0.1883 -0.2547
 4452SOL    HW124815   4.495   4.073  10.758 -0.6895 -0.0835 -0.0206
 4452SOL    HW224816   4.480   4.158  10.640  0.4407  0.4454  1.9638
 4453SOL     OW24817   2.335   0.050   8.737  0.0649  0.2887  0.0394
 4453SOL    HW124818   2.291   0.135   8.725  0.1598 -0.1420 -3.5182
 4453SOL    HW224819   2.351   0.023   8.646 -0.1298 -1.0823  0.4231
 4454SOL     OW24820   2.519   2.040   5.042 -0.1337  0.3419  0.0067
 4454SOL    HW124821   2.553   2.129   5.056  1.2410  0.5431 -4.7936
 4454SOL    HW224822   2.597   1.984   5.046  0.1361  0.7305  0.1349
 4455SOL     OW24823   1.038   4.081  10.061 -0.6418 -0.1430 -0.2677
 4455SOL    HW124824   1.130   4.108  10.054 -0.4228 -1.0945 -1.0905
 4455SOL    HW224825   0.993   4.166  10.062  2.8872  1.7408 -0.3224
 4456SOL     OW24826   0.658   0.790  12.607 -0.0707  0.6295 -0.1723
 4456SOL    HW124827   0.563   0.798  12.598 -0.4560 -0.7027  2.5944
 4456SOL    HW224828   0.671   0.716  12.548 -1.5714 -0.2957  0.6561
 4457SOL     OW24829   2.348   3.199   3.055 -0.4353  0.0714 -0.0736
 4457SOL    HW124830   2.411   3.255   3.101 -1.4390  1.5466 -0.5093
 4457SOL    HW224831   2.392   3.225   2.974 -1.8801  1.8963 -0.2641
 4458SOL     OW24832   2.600   4.157  13.446  0.7410  0.2937 -0.1775
 4458SOL    HW124833   2.588   4.188  13.356  0.0851 -2.5813 -1.0588
 4458SOL    HW224834   2.555   4.073  13.454 -3.0342  2.1287 -2.4110
 4459SOL     OW24835   1.569   3.042   5.849 -0.0114  0.0439 -0.6574
 4459SOL    HW124836   1.572   2.947   5.852 -1.4301  0.0526  0.9721
 4459SOL    HW224837   1.562   3.060   5.943  0.7099  0.2050 -0.6380
 4460SOL     OW24838   0.684   4.631  16.829  0.3124  0.3423  0.1864
 4460SOL    HW124839   0.602   4.619  16.782  0.6907  1.6132 -0.8031
 4460SOL    HW224840   0.716   4.716  16.798 -1.0730  0.0865 -1.9329
 4461SOL     OW24841   2.021   1.778  15.338  0.0212 -0.5409 -0.1162
 4461SOL    HW124842   2.022   1.690  15.301  0.3606  0.4535 -2.5255
 4461SOL    HW224843   2.113   1.794  15.358 -0.0805 -0.7321  0.4842
 4462SOL     OW24844   3.912   3.372   4.286 -0.1564  0.1873 -0.4594
 4462SOL    HW124845   4.008   3.377   4.285 -0.1269  0.3762  3.1302
 4462SOL    HW224846   3.903   3.304   4.353 -0.2544 -0.2853 -0.9515
 4463SOL     OW24847   4.621   3.960   4.258 -0.2850  0.2912 -0.0148
 4463SOL    HW124848   4.693   3.928   4.204 -0.3220  1.4491 -0.7514
 4463SOL    HW224849   4.670   3.978   4.339  1.2027 -2.5653 -0.3072
 4464SOL     OW24850   2.498   2.517   3.150 -0.2361 -0.4560 -0.4316
 4464SOL    HW124851   2.491   2.610   3.171 -0.0387 -0.4704 -0.2927
 4464SOL    HW224852   2.547   2.518   3.068  1.0530 -0.5138  0.3216
 4465SOL     OW24853   2.423   2.309  12.276  0.5261 -0.1517 -0.1388
 4465SOL    HW124854   2.402   2.287  12.186 -1.8353  0.4447  0.2758
 4465SOL    HW224855   2.399   2.234  12.332 -0.1383 -0.8110 -1.3221
 4466SOL     OW24856   3.629   2.585  15.283  0.4050  0.0508 -0.2256
 4466SOL    HW124857   3.563   2.645  15.248 -0.9116 -1.5534 -0.4871
 4466SOL    HW224858   3.657   2.540  15.204  0.6499 -0.9628  0.4431
 4467SOL     OW24859   2.342   1.849   8.124 -0.2709 -0.3017  0.3520
 4467SOL    HW124860   2.380   1.901   8.053  0.4467  2.3696  2.7052
 4467SOL    HW224861   2.260   1.895   8.139 -1.7935 -3.4883  1.9281
 4468SOL     OW24862   1.877   3.112   5.956  0.2638  0.0661  0.3643
 4468SOL    HW124863   1.931   3.149   6.027 -0.8229 -0.2800  1.3632
 4468SOL    HW224864   1.801   3.089   6.009  0.7791 -0.6293  0.8006
 4469SOL     OW24865   2.946   0.025  10.695 -0.0665 -0.0011 -0.9326
 4469SOL    HW124866   2.982   0.113  10.685  1.0734 -0.3010  0.5755
 4469SOL    HW224867   2.893   0.018  10.615 -0.7406  1.3699 -0.5952
 4470SOL     OW24868   2.659   0.070  17.549  0.3747 -0.3345  0.1592
 4470SOL    HW124869   2.707   4.711  17.578  2.2525  1.0146  0.7041
 4470SOL    HW224870   2.572   0.033  17.533  0.7044  0.2483 -2.9516
 4471SOL     OW24871   0.310   0.102  10.092 -0.4013 -0.6038 -0.1524
 4471SOL    HW124872   0.349   0.128  10.176 -0.4630  0.7555 -0.5381
 4471SOL    HW224873   0.348   0.014  10.093 -1.4748 -1.0859 -2.2666
 4472SOL     OW24874   4.318   2.834   7.099 -0.1722 -0.6361 -0.0111
 4472SOL    HW124875   4.266   2.777   7.043 -1.3747 -0.9084  1.3844
 4472SOL    HW224876   4.378   2.882   7.042  0.0662 -0.7280  0.1601
 4473SOL     OW24877   1.190   1.715   9.900 -0.5878  0.2371  0.4646
 4473SOL    HW124878   1.128   1.653   9.939 -2.1898  2.7893  1.9621
 4473SOL    HW224879   1.122   1.750   9.842 -0.5820 -0.8966 -0.2254
 4474SOL     OW24880   3.929   2.016   5.345 -0.5889  0.1657 -0.1077
 4474SOL    HW124881   3.989   1.992   5.416  0.7750  0.4586 -1.1678
 4474SOL    HW224882   3.962   1.951   5.282  1.3142  0.0221  1.0203
 4475SOL     OW24883   0.258   1.765   5.800  0.4854 -0.3086 -0.4203
 4475SOL    HW124884   0.352   1.760   5.815  0.6829 -1.8357 -2.0846
 4475SOL    HW224885   0.218   1.686   5.836 -0.4418  0.6260  0.6058
 4476SOL     OW24886   1.654   4.527   6.541 -0.2694 -0.1534  0.3899
 4476SOL    HW124887   1.611   4.523   6.626 -1.5456  0.9657 -0.2044
 4476SOL    HW224888   1.606   4.597   6.496  0.6993 -0.9081 -1.8476
 4477SOL     OW24889   0.116   0.091   6.727 -0.3067 -0.0350  0.2144
 4477SOL    HW124890   0.096   0.060   6.638  0.6344 -2.8442  0.9975
 4477SOL    HW224891   0.201   0.048   6.738 -0.0661  0.5706  0.7276
 4478SOL     OW24892   1.686   3.010  10.004 -0.3172 -0.4740 -0.5091
 4478SOL    HW124893   1.769   2.972   9.975  1.2413  1.3671  1.5851
 4478SOL    HW224894   1.692   2.985  10.096 -0.1501  2.6251  0.3012
 4479SOL     OW24895   0.197   2.500  15.380 -0.2436 -0.3564 -0.3722
 4479SOL    HW124896   0.129   2.521  15.444 -1.1380 -0.0287 -1.4357
 4479SOL    HW224897   0.240   2.585  15.378 -0.4903 -0.2491 -1.1614
 4480SOL     OW24898   1.797   3.858   8.755 -0.2827  0.8673  0.2676
 4480SOL    HW124899   1.784   3.808   8.836 -0.5832  0.4140 -0.0600
 4480SOL    HW224900   1.707   3.880   8.731 -1.4107 -1.7170  2.1977
 4481SOL     OW24901   4.038   1.205   1.671 -0.1128 -0.0002  0.1878
 4481SOL    HW124902   4.122   1.159   1.665 -0.1178 -0.4102  3.5258
 4481SOL    HW224903   4.033   1.234   1.762 -0.5419 -4.1398  1.4790
 4482SOL     OW24904   2.110   3.902  13.901  0.1619 -0.4469 -0.4775
 4482SOL    HW124905   2.026   3.908  13.945  1.4008  0.7962  1.6945
 4482SOL    HW224906   2.114   3.989  13.860  0.5397 -0.6509 -0.8860
 4483SOL     OW24907   2.562   1.586   2.083 -0.0170  0.8274 -0.0958
 4483SOL    HW124908   2.566   1.675   2.117  0.7577  0.4106  0.8949
 4483SOL    HW224909   2.478   1.589   2.037  0.1316  1.0086 -0.3552
 4484SOL     OW24910   0.147   2.733   5.506 -0.1273 -0.0894 -0.4430
 4484SOL    HW124911   0.222   2.701   5.558 -1.2754  1.1076  1.9640
 4484SOL    HW224912   0.172   2.725   5.414 -1.7937 -1.6958 -0.7558
 4485SOL     OW24913   2.831   0.195  12.664  0.5358  0.3306 -0.6644
 4485SOL    HW124914   2.780   0.275  12.659  1.1564  0.6820 -1.4008
 4485SOL    HW224915   2.920   0.230  12.674  0.0747  1.1727  0.5749
 4486SOL     OW24916   4.524   1.893  11.708 -0.7291  0.7160  0.1390
 4486SOL    HW124917   4.496   1.855  11.791 -0.3857  1.0419  0.4077
 4486SOL    HW224918   4.447   1.945  11.686 -0.2146  0.9670 -1.0901
 4487SOL     OW24919   0.957   3.930  10.464 -0.0586  0.2710  0.4210
 4487SOL    HW124920   0.898   3.964  10.397  0.2747  1.3252  0.6612
 4487SOL    HW224921   1.013   3.876  10.408  0.4726 -0.7419  1.9299
 4488SOL     OW24922   1.164   3.068   5.185  0.1063  0.4205 -0.0567
 4488SOL    HW124923   1.140   3.052   5.276  0.9185  1.2369  0.3018
 4488SOL    HW224924   1.247   3.112   5.202 -0.6655  1.1966  1.6125
 4489SOL     OW24925   2.048   1.705  12.067  0.2931  0.4678  0.2607
 4489SOL    HW124926   2.066   1.718  11.974 -1.4031 -0.0590 -0.1487
 4489SOL    HW224927   2.026   1.611  12.064 -0.6378  0.6873  0.4577
 4490SOL     OW24928   1.742   1.194   9.171  0.8192 -0.2970 -0.0203
 4490SOL    HW124929   1.742   1.160   9.260 -0.2832 -1.6379 -0.5372
 4490SOL    HW224930   1.787   1.123   9.125  0.1669  1.4541 -3.4004
 4491SOL     OW24931   0.750   0.275   4.787  0.0094 -0.8374  0.2304
 4491SOL    HW124932   0.761   0.283   4.882  1.2069  1.0707 -0.0702
 4491SOL    HW224933   0.766   0.184   4.764  0.1485 -0.9269  0.6732
 4492SOL     OW24934   4.450   3.707  10.562  0.3686 -0.0355 -0.1246
 4492SOL    HW124935   4.524   3.669  10.608  0.8537 -2.0405 -2.5032
 4492SOL    HW224936   4.451   3.798  10.590 -1.7714  0.0612 -0.3625
 4493SOL     OW24937   0.022   3.055   3.110  0.1190  0.0088 -0.2775
 4493SOL    HW124938   4.704   3.110   3.179  1.2829  1.1896 -0.5826
 4493SOL    HW224939   0.002   3.103   3.029 -4.1202  0.2069  0.9246
 4494SOL     OW24940   0.323   3.008   9.979  0.0394 -0.5664  0.5503
 4494SOL    HW124941   0.336   2.977   9.890  0.1228 -1.9026  1.0247
 4494SOL    HW224942   0.238   2.970  10.000  0.4298 -0.8363  1.6665
 4495SOL     OW24943   2.259   1.498  13.432 -0.3648 -0.1368  0.0407
 4495SOL    HW124944   2.243   1.577  13.484 -0.2005 -0.0458 -0.0448
 4495SOL    HW224945   2.184   1.500  13.373  0.2805 -0.8906 -0.8023
 4496SOL     OW24946   3.607   4.407   3.864 -0.6658 -0.1549  0.4869
 4496SOL    HW124947   3.678   4.394   3.926  1.6748 -0.2499 -2.1974
 4496SOL    HW224948   3.526   4.410   3.915 -0.6984  0.7699  0.3914
 4497SOL     OW24949   2.895   4.660   9.088  0.3255 -0.6810  0.2062
 4497SOL    HW124950   2.931   4.571   9.092 -0.0000 -0.8848 -1.7242
 4497SOL    HW224951   2.966   4.717   9.060  1.7579 -0.8193  3.4743
 4498SOL     OW24952   4.681   0.217   6.361  0.0126  0.6967 -0.0073
 4498SOL    HW124953   0.047   0.253   6.385 -0.5333  0.7920  1.7988
 4498SOL    HW224954   4.663   0.158   6.434 -2.5983 -0.9695 -1.9887
 4499SOL     OW24955   3.644   3.129   4.239 -0.6748 -0.0052 -0.1675
 4499SOL    HW124956   3.616   3.038   4.246 -0.8416  0.0358 -0.3184
 4499SOL    HW224957   3.644   3.153   4.147  1.4170  0.9699  0.0847
 4500SOL     OW24958   2.113   1.616   0.140 -0.4910  0.1911  0.5053
 4500SOL    HW124959   2.120   1.671   0.218  1.7305 -0.5421  0.8287
 4500SOL    HW224960   2.021   1.620   0.116 -0.6274  0.2753  1.0429
 4501SOL     OW24961   3.061   4.398   2.851 -0.4972  0.0137  0.3536
 4501SOL    HW124962   2.982   4.366   2.809 -1.3987  0.6044  1.5730
 4501SOL    HW224963   3.052   4.493   2.841 -0.0469  0.4231  3.6986
 4502SOL     OW24964   2.964   3.192   8.367  0.3202  0.2075 -0.1072
 4502SOL    HW124965   2.956   3.138   8.289  0.9312  0.0675 -0.0764
 4502SOL    HW224966   2.890   3.250   8.350  1.9248  1.4858 -2.8192
 4503SOL     OW24967   2.158   3.040   4.041  0.1438  0.5776  0.7698
 4503SOL    HW124968   2.195   3.111   4.092 -1.3992 -0.5663  3.5089
 4503SOL    HW224969   2.230   3.035   3.979 -1.0169  1.0260 -0.6042
 4504SOL     OW24970   1.155   3.582   5.991  0.7579 -0.1492 -0.4645
 4504SOL    HW124971   1.227   3.567   5.929  1.2233 -1.4046  0.3794
 4504SOL    HW224972   1.131   3.670   5.963  2.1266  0.2753 -0.3262
 4505SOL     OW24973   3.856   2.774   8.999 -0.5627  0.4256  0.1247
 4505SOL    HW124974   3.924   2.841   8.993 -0.7962  0.5347 -1.3248
 4505SOL    HW224975   3.791   2.798   8.933 -1.9642  1.1319  1.7723
 4506SOL     OW24976   0.499   1.005   1.401  0.3780 -0.1627  0.2619
 4506SOL    HW124977   0.586   0.965   1.397  1.8359  2.9321  0.7292
 4506SOL    HW224978   0.490   1.030   1.493  1.5545  3.4917 -0.6156
 4507SOL     OW24979   2.235   1.611   0.729 -0.2096 -0.1708  0.4236
 4507SOL    HW124980   2.181   1.657   0.794 -0.6947  0.7997 -0.6709
 4507SOL    HW224981   2.247   1.678   0.662  1.0643 -0.1044  0.7213
 4508SOL     OW24982   4.551   1.568   2.153 -0.3585  0.6433  0.3481
 4508SOL    HW124983   4.523   1.576   2.061  0.6655 -1.7087 -0.1627
 4508SOL    HW224984   4.472   1.599   2.198 -1.1402  1.3791 -1.5233
 4509SOL     OW24985   1.278   2.585  17.016  0.5973 -0.7529 -0.7037
 4509SOL    HW124986   1.239   2.671  17.003 -0.6584 -1.2501 -0.2543
 4509SOL    HW224987   1.365   2.613  17.046  0.1940  0.4996 -0.7077
 4510SOL     OW24988   4.275   2.673  15.675  0.3839  0.2182 -0.0128
 4510SOL    HW124989   4.299   2.602  15.736 -0.0859 -1.4757 -1.7942
 4510SOL    HW224990   4.344   2.668  15.609 -1.5858  0.9532 -2.1012
 4511SOL     OW24991   1.672   2.661   7.440 -0.0711 -0.0654  0.5915
 4511SOL    HW124992   1.679   2.753   7.463  1.2515 -0.1585  0.5746
 4511SOL    HW224993   1.577   2.654   7.431 -0.0908 -0.0321  0.7745
 4512SOL     OW24994   3.605   0.573  14.149 -0.5722  0.3370  0.5070
 4512SOL    HW124995   3.626   0.645  14.208 -1.3386  0.3114  0.8162
 4512SOL    HW224996   3.691   0.539  14.124 -2.1103 -2.2831 -1.2556
 4513SOL     OW24997   2.432   2.494  10.824 -0.3900  0.6710 -0.0252
 4513SOL    HW124998   2.468   2.441  10.752 -1.9229 -1.8643  1.0619
 4513SOL    HW224999   2.337   2.489  10.811 -0.2400  1.8910 -1.6417
 4514SOL     OW25000   3.017   0.467   7.936 -0.3819  0.2340  0.9690
 4514SOL    HW125001   2.949   0.498   7.996 -1.5388  1.8769 -1.1549
 4514SOL    HW225002   3.025   0.373   7.952  1.3682  0.4123  1.1152
 4515SOL     OW25003   0.385   4.420   0.258  0.2456  0.7093  0.3458
 4515SOL    HW125004   0.390   4.411   0.162  0.1653 -0.4378  0.4504
 4515SOL    HW225005   0.479   4.414   0.274  0.3239 -0.1408 -0.3784
 4516SOL     OW25006   1.954   1.182   6.808 -0.1405 -0.3772  0.2429
 4516SOL    HW125007   1.883   1.228   6.852 -0.3335  0.7929 -1.2921
 4516SOL    HW225008   1.912   1.103   6.773  0.9575  0.1668 -2.3343
 4517SOL     OW25009   0.502   1.340   6.235 -0.4547 -0.2574  0.2588
 4517SOL    HW125010   0.412   1.319   6.260 -0.6276 -0.0217 -0.1566
 4517SOL    HW225011   0.553   1.272   6.278 -0.2951  0.2438  0.8490
 4518SOL     OW25012   2.004   3.116   7.159  0.0699 -0.1109 -0.5973
 4518SOL    HW125013   2.065   3.041   7.157  1.4050  0.9003  1.7684
 4518SOL    HW225014   1.986   3.123   7.066 -0.4915 -1.8886 -0.6300
 4519SOL     OW25015   2.241   1.457  14.369 -1.0863 -0.2887 -0.8984
 4519SOL    HW125016   2.309   1.517  14.339  0.7441 -2.1092 -0.3104
 4519SOL    HW225017   2.156   1.481  14.332 -1.4250 -1.6568 -0.9893
 4520SOL     OW25018   1.093   3.725  11.474  0.1087  0.8620  0.2331
 4520SOL    HW125019   1.168   3.771  11.512  0.8854  1.0745 -1.5292
 4520SOL    HW225020   1.031   3.703  11.543  0.5473  1.7332  0.8928
 4521SOL     OW25021   0.128   4.533   2.127 -0.0594  1.1518 -0.0492
 4521SOL    HW125022   0.147   4.549   2.035  0.4383  1.5033  0.1148
 4521SOL    HW225023   0.051   4.588   2.142 -1.2783 -0.4461 -0.4908
 4522SOL     OW25024   1.873   3.974  14.014 -0.0736 -0.1930  0.0352
 4522SOL    HW125025   1.785   3.936  14.008  0.2153 -0.4349 -2.7860
 4522SOL    HW225026   1.860   4.062  14.049  0.2455  0.0690 -0.5039
 4523SOL     OW25027   2.255   3.791   2.107 -0.5442 -1.0852  0.5393
 4523SOL    HW125028   2.305   3.709   2.098 -0.6487 -1.0106 -0.8322
 4523SOL    HW225029   2.324   3.856   2.114  0.1207 -1.5597 -1.5439
 4524SOL     OW25030   1.069   0.001   2.199  0.4086  0.0585 -0.1005
 4524SOL    HW125031   1.043   0.038   2.283 -0.9890  1.4409 -1.1300
 4524SOL    HW225032   0.986   4.677   2.179  1.2543 -1.2021 -0.9062
 4525SOL     OW25033   2.291   1.796   2.353 -0.0986 -0.1272  0.4270
 4525SOL    HW125034   2.220   1.825   2.295 -1.2194  2.7484  3.2493
 4525SOL    HW225035   2.313   1.880   2.394 -2.2117  0.6689 -0.0485
 4526SOL     OW25036   0.263   4.530   5.729  0.5817  0.4557 -0.3971
 4526SOL    HW125037   0.223   4.538   5.643 -0.5144  1.4015  0.1977
 4526SOL    HW225038   0.322   4.455   5.717 -0.0892 -0.5520  2.4721
 4527SOL     OW25039   3.484   1.755   2.321  0.6602  0.0467  0.0953
 4527SOL    HW125040   3.408   1.794   2.278 -0.8741 -2.2039  0.7682
 4527SOL    HW225041   3.552   1.813   2.286  0.3607 -0.0881 -0.7329
 4528SOL     OW25042   0.163   0.100   4.235 -0.1600 -0.4653 -0.2529
 4528SOL    HW125043   0.231   0.044   4.274 -0.3180 -0.8842 -0.5762
 4528SOL    HW225044   0.112   0.126   4.312 -0.6085  0.5148 -0.8857
 4529SOL     OW25045   4.367   3.562   6.734  0.0908  0.3083  0.1933
 4529SOL    HW125046   4.283   3.547   6.691 -0.1185  0.3517  0.5896
 4529SOL    HW225047   4.433   3.590   6.671  1.7769  0.5400  2.0534
 4530SOL     OW25048   0.284   2.537  14.873 -0.3246  0.2308 -0.2136
 4530SOL    HW125049   0.304   2.586  14.953 -1.0175  0.3419 -0.1069
 4530SOL    HW225050   0.215   2.588  14.828 -0.7023 -0.1118 -0.0186
 4531SOL     OW25051   3.949   1.840   5.152  0.1937 -0.8896  0.5961
 4531SOL    HW125052   3.983   1.849   5.063 -0.0219 -0.4609  0.5610
 4531SOL    HW225053   3.947   1.745   5.160  0.9176 -0.6363  3.7649
 4532SOL     OW25054   2.140   2.784   5.556  0.0664  0.5887 -0.0449
 4532SOL    HW125055   2.189   2.741   5.627 -0.9718  0.5523  0.6497
 4532SOL    HW225056   2.063   2.730   5.539 -0.2153  0.6879  0.8962
 4533SOL     OW25057   3.959   3.509   7.388 -0.3988  0.3121  0.0086
 4533SOL    HW125058   4.035   3.537   7.337  0.6521 -1.2495  0.7368
 4533SOL    HW225059   3.899   3.580   7.362  1.6491  1.6368 -1.0746
 4534SOL     OW25060   0.185   4.209   7.636  0.0155  0.1085 -0.0809
 4534SOL    HW125061   0.189   4.256   7.719 -1.1210  0.3537 -0.1543
 4534SOL    HW225062   0.169   4.118   7.660 -0.0254 -0.7363 -3.2424
 4535SOL     OW25063   1.610   1.559   1.815 -0.0293  0.5212  0.5430
 4535SOL    HW125064   1.608   1.466   1.791 -0.6693  0.3371  1.3262
 4535SOL    HW225065   1.652   1.561   1.901  0.1456  0.3784  0.4591
 4536SOL     OW25066   0.621   4.458   6.728  0.3149 -0.3736 -0.1209
 4536SOL    HW125067   0.713   4.451   6.700  0.3282  0.4194 -0.2720
 4536SOL    HW225068   0.625   4.542   6.774 -1.1294 -0.1854 -0.3520
 4537SOL     OW25069   4.047   0.185   7.903  0.6817  0.1336 -0.3322
 4537SOL    HW125070   4.036   0.275   7.935  1.6194  0.3871 -0.7072
 4537SOL    HW225071   4.129   0.170   7.949 -0.7199  1.1147  2.4547
 4538SOL     OW25072   0.160   2.952   4.003  0.5528 -0.0217  0.1943
 4538SOL    HW125073   0.097   2.881   3.991  1.2080 -0.3176 -1.5337
 4538SOL    HW225074   0.242   2.903   3.996  0.3783 -0.5145  1.6144
 4539SOL     OW25075   1.355   4.010  10.626 -0.2378  0.0737 -0.5098
 4539SOL    HW125076   1.410   4.045  10.697 -2.5702  1.9893  0.3196
 4539SOL    HW225077   1.270   4.006  10.669  0.0298  1.8653  0.1729
 4540SOL     OW25078   1.262   2.750   0.471 -0.2594 -0.1772  0.4621
 4540SOL    HW125079   1.213   2.672   0.443 -0.5384  0.9401 -2.1707
 4540SOL    HW225080   1.326   2.762   0.401 -0.8773 -0.0898 -0.0949
 4541SOL     OW25081   2.469   2.183   8.090 -0.1454  0.7785 -0.2186
 4541SOL    HW125082   2.493   2.239   8.164  1.6050 -0.3144  0.0548
 4541SOL    HW225083   2.379   2.208   8.070 -0.8012 -1.3232  0.1542
 4542SOL     OW25084   2.216   1.637   6.424  0.3802 -0.4215  0.1104
 4542SOL    HW125085   2.211   1.542   6.415 -2.2132 -0.1405 -1.5879
 4542SOL    HW225086   2.127   1.645   6.458 -0.5219 -1.3129 -2.0106
 4543SOL     OW25087   4.707   4.314   1.618  0.0964 -0.0308 -0.1707
 4543SOL    HW125088   4.704   4.388   1.678 -0.9005  0.0213 -0.2841
 4543SOL    HW225089   4.674   4.344   1.534 -1.1216 -0.4037  0.1807
 4544SOL     OW25090   0.687   2.136  17.578 -0.0984  0.4207  0.3478
 4544SOL    HW125091   0.741   2.183  17.514  0.3961  0.6687  0.9502
 4544SOL    HW225092   0.751   2.076  17.615 -0.0894 -0.0127 -0.3569
 4545SOL     OW25093   2.021   1.300   5.234  0.3492 -0.2384 -0.6488
 4545SOL    HW125094   1.940   1.340   5.266  0.4467 -0.3816 -0.2150
 4545SOL    HW225095   1.980   1.231   5.181 -0.7213  1.0853 -1.5178
 4546SOL     OW25096   0.584   2.373  14.160  0.5570 -0.7169  0.2667
 4546SOL    HW125097   0.550   2.418  14.082  3.0831 -0.1150 -0.4842
 4546SOL    HW225098   0.669   2.414  14.172  0.6453 -0.4571 -1.2766
 4547SOL     OW25099   3.328   1.838   9.227  0.2394 -0.2335  0.3589
 4547SOL    HW125100   3.387   1.763   9.215 -0.7011 -0.7859 -0.8048
 4547SOL    HW225101   3.378   1.914   9.257  0.7343 -0.5214  0.2727
 4548SOL     OW25102   4.292   4.559   4.413  0.2405 -0.5549  0.4174
 4548SOL    HW125103   4.225   4.498   4.445  0.3770 -0.1667  1.4522
 4548SOL    HW225104   4.270   4.636   4.465  0.5818 -0.4832  0.4536
 4549SOL     OW25105   3.035   3.747   4.361 -0.2695  0.9103 -0.2974
 4549SOL    HW125106   2.998   3.659   4.365  1.7504  0.0721  0.0602
 4549SOL    HW225107   3.074   3.735   4.275 -0.6768 -0.8888 -0.2200
 4550SOL     OW25108   0.278   2.428  11.277  0.0805 -0.2212  0.2408
 4550SOL    HW125109   0.302   2.448  11.368 -0.6904 -0.7785  0.5646
 4550SOL    HW225110   0.343   2.481  11.231 -2.0602  0.9197 -1.4248
 4551SOL     OW25111   1.531   0.973   7.073  0.1341 -0.2122  0.5442
 4551SOL    HW125112   1.535   1.061   7.109  0.8064  0.5143 -1.3262
 4551SOL    HW225113   1.613   0.933   7.102  0.5052  1.0270  1.1804
 4552SOL     OW25114   4.325   0.318  10.478 -0.0902 -1.4485  0.1582
 4552SOL    HW125115   4.263   0.384  10.511  0.9566 -1.5692  2.3472
 4552SOL    HW225116   4.393   0.315  10.545  0.9598  0.6378 -0.8215
 4553SOL     OW25117   2.548   0.364   8.505 -0.1176  0.1055 -0.2925
 4553SOL    HW125118   2.480   0.429   8.521  0.4827  1.2446 -2.3343
 4553SOL    HW225119   2.598   0.385   8.584  0.5501 -1.1745 -0.3637
 4554SOL     OW25120   2.339   1.194   5.554 -0.0068 -0.2571  0.5752
 4554SOL    HW125121   2.394   1.236   5.619  0.1900  0.8442 -0.3084
 4554SOL    HW225122   2.401   1.197   5.480 -0.7235  0.4902  0.0128
 4555SOL     OW25123   2.312   1.788  12.076  0.2608 -0.0572 -0.0327
 4555SOL    HW125124   2.225   1.749  12.081  1.4774 -2.4905  2.1281
 4555SOL    HW225125   2.342   1.755  12.160 -0.4576  1.1670  0.7015
 4556SOL     OW25126   0.740   1.003   5.226  0.0704  0.1729  0.3638
 4556SOL    HW125127   0.714   0.968   5.141 -0.6388  1.5835  0.0013
 4556SOL    HW225128   0.658   1.022   5.273 -0.0653  0.8170 -0.1329
 4557SOL     OW25129   2.422   4.692  10.875  0.4236 -0.4090  0.0287
 4557SOL    HW125130   2.456   4.650  10.953  0.8281  2.5003  1.4175
 4557SOL    HW225131   2.504   4.692  10.827 -0.4518  1.1458 -1.4794
 4558SOL     OW25132   2.201   3.374   2.836 -0.0295  0.3086 -0.0087
 4558SOL    HW125133   2.141   3.350   2.907 -0.4376 -0.3306 -0.5662
 4558SOL    HW225134   2.137   3.383   2.766  0.0046  0.3738 -0.0311
 4559SOL     OW25135   0.246   3.520   7.533  0.3269 -0.2838  0.1731
 4559SOL    HW125136   0.173   3.459   7.522 -0.2654  0.4703 -0.0735
 4559SOL    HW225137   0.311   3.459   7.567  1.5714  0.3017 -1.1446
 4560SOL     OW25138   1.804   2.695   9.344 -0.2251 -0.1747 -0.0848
 4560SOL    HW125139   1.762   2.685   9.259 -0.2604 -0.6042 -0.0189
 4560SOL    HW225140   1.724   2.722   9.389  1.8331  1.7601  2.4943
 4561SOL     OW25141   1.026   1.338   6.688  0.5138 -0.6795 -0.0812
 4561SOL    HW125142   1.006   1.345   6.782  1.0270 -0.7228  0.0359
 4561SOL    HW225143   0.986   1.253   6.669  1.2550 -0.9934 -0.2696
 4562SOL     OW25144   1.371   3.520   3.309  0.2780  0.1139 -0.2748
 4562SOL    HW125145   1.370   3.613   3.288  1.1414 -0.1446 -1.4228
 4562SOL    HW225146   1.316   3.512   3.388 -0.5574  2.6086 -0.6004
 4563SOL     OW25147   4.708   2.975   7.934  0.1195  0.3891  0.1208
 4563SOL    HW125148   0.005   2.931   8.017  0.2535 -1.2945 -0.7972
 4563SOL    HW225149   4.671   2.910   7.874  1.2827  1.2960 -1.5642
 4564SOL     OW25150   0.705   3.300  14.605 -0.6268 -0.5574  0.1116
 4564SOL    HW125151   0.771   3.350  14.557 -3.2168  2.2361 -0.5656
 4564SOL    HW225152   0.701   3.216  14.559 -1.1692 -0.4471 -0.0516
 4565SOL     OW25153   4.441   3.492   3.074 -0.1442  0.3504  0.0883
 4565SOL    HW125154   4.482   3.577   3.059  1.7327 -0.7914 -1.3395
 4565SOL    HW225155   4.348   3.513   3.067 -0.0685  0.6108 -0.1549
 4566SOL     OW25156   2.360   0.340   2.216 -0.1922 -0.4050  0.1097
 4566SOL    HW125157   2.428   0.355   2.282  0.1379  0.8209 -0.5137
 4566SOL    HW225158   2.306   0.271   2.255 -4.4700  1.6538 -2.1506
 4567SOL     OW25159   3.169   4.331   8.500 -0.5811 -0.3394 -0.2336
 4567SOL    HW125160   3.106   4.313   8.569  0.4137 -1.8130  0.2880
 4567SOL    HW225161   3.213   4.404   8.544  0.0527 -0.5882 -0.4536
 4568SOL     OW25162   4.554   0.540  10.272  0.6758  0.0802  0.4907
 4568SOL    HW125163   4.516   0.460  10.309  1.7714  0.8349  3.2507
 4568SOL    HW225164   4.642   0.545  10.309  2.0399 -2.1712 -2.3966
 4569SOL     OW25165   2.435   0.711   6.135 -0.2098 -0.0047  0.4324
 4569SOL    HW125166   2.351   0.681   6.100 -1.7449  1.6518  2.7240
 4569SOL    HW225167   2.442   0.650   6.209  1.2862  1.9007  1.8486
 4570SOL     OW25168   1.136   3.357   8.774  0.2076  0.0661  0.1500
 4570SOL    HW125169   1.205   3.293   8.759  0.2074  0.3844 -1.1788
 4570SOL    HW225170   1.060   3.306   8.802  0.0834  0.9754  1.5127
 4571SOL     OW25171   3.588   2.742   7.000  0.6737 -0.6251 -0.0676
 4571SOL    HW125172   3.524   2.806   7.032 -0.0492 -1.8399  0.9096
 4571SOL    HW225173   3.576   2.663   7.053  0.4203 -0.8736 -0.4960
 4572SOL     OW25174   2.394   4.592  17.269 -0.2089  0.9142 -0.5544
 4572SOL    HW125175   2.443   4.556  17.343  1.0048  1.0129 -1.2953
 4572SOL    HW225176   2.334   4.524  17.241 -0.3336  1.2038 -0.9951
 4573SOL     OW25177   3.441   3.322  11.650 -0.2617  0.2040  0.0451
 4573SOL    HW125178   3.390   3.270  11.711  0.5812 -1.1153 -0.3609
 4573SOL    HW225179   3.486   3.257  11.595 -0.3245  1.6332 -1.7156
 4574SOL     OW25180   2.335   3.868   5.612  0.1941 -0.6867  0.0138
 4574SOL    HW125181   2.310   3.808   5.541  0.9585 -0.8995 -0.0797
 4574SOL    HW225182   2.277   3.944   5.604 -0.1357 -0.9428 -0.0087
 4575SOL     OW25183   2.776   1.294   6.033 -0.2831 -0.2721 -0.0598
 4575SOL    HW125184   2.851   1.266   6.085 -0.7941 -0.2079  0.7150
 4575SOL    HW225185   2.816   1.362   5.980  2.1533 -0.5903  1.3942
 4576SOL     OW25186   1.589   3.492   6.540 -0.0185  0.2626  0.5909
 4576SOL    HW125187   1.664   3.497   6.482  1.0987  0.0128  2.0129
 4576SOL    HW225188   1.530   3.424   6.506 -0.8053  1.2781 -0.0488
 4577SOL     OW25189   1.538   3.316   7.987 -0.2492 -0.2530  0.4222
 4577SOL    HW125190   1.542   3.283   8.077  1.5996 -0.0578  0.4165
 4577SOL    HW225191   1.444   3.327   7.977 -0.3085  0.1436  1.4155
 4578SOL     OW25192   0.996   1.998   8.916 -0.6789  0.2528 -0.1014
 4578SOL    HW125193   1.076   1.990   8.864 -0.0686  1.3792  0.6395
 4578SOL    HW225194   1.018   1.943   8.991 -1.2100  1.3108  0.8447
 4579SOL     OW25195   2.583   4.653  12.692  0.2993 -0.0192 -0.1929
 4579SOL    HW125196   2.573   4.654  12.597 -1.4904 -1.1622 -0.0063
 4579SOL    HW225197   2.546   0.019  12.716  3.2138  1.0750  0.4363
 4580SOL     OW25198   1.299   2.717   4.780 -0.1640 -0.1844  0.1148
 4580SOL    HW125199   1.352   2.785   4.737 -1.1126 -0.6335 -1.7678
 4580SOL    HW225200   1.207   2.739   4.767  0.1689 -0.4823 -2.6777
 4581SOL     OW25201   1.380   4.188   8.421  0.6641 -0.1862 -0.5306
 4581SOL    HW125202   1.360   4.100   8.390  0.7833 -0.4874  0.2535
 4581SOL    HW225203   1.379   4.228   8.334  1.3658  1.2878  0.1372
 4582SOL     OW25204   0.363   3.818   4.962 -0.0739 -0.1227  0.3664
 4582SOL    HW125205   0.316   3.735   4.964  1.4428 -0.9683  0.3499
 4582SOL    HW225206   0.420   3.807   4.886  1.5272  1.6463  1.3001
 4583SOL     OW25207   2.813   1.887  11.399  0.0815  0.5949  0.4682
 4583SOL    HW125208   2.779   1.920  11.316  1.3885 -0.8779 -0.6560
 4583SOL    HW225209   2.833   1.794  11.384 -0.7815  0.5059 -0.1225
 4584SOL     OW25210   2.004   1.157  13.412 -0.2236 -0.1286 -0.3368
 4584SOL    HW125211   1.995   1.071  13.373 -0.5749 -1.0237  1.6944
 4584SOL    HW225212   1.940   1.209  13.363 -2.3847 -0.4645  2.1243
 4585SOL     OW25213   1.671   2.124   6.936 -0.5095 -0.2707  0.0413
 4585SOL    HW125214   1.586   2.093   6.966 -0.4615  1.3246  1.8244
 4585SOL    HW225215   1.655   2.142   6.843 -2.1777  1.6109  0.7025
 4586SOL     OW25216   4.368   1.824   7.484 -0.3281  0.0709 -0.2063
 4586SOL    HW125217   4.395   1.915   7.472  0.6876 -0.2594 -0.4197
 4586SOL    HW225218   4.450   1.777   7.468 -0.3050  0.6025 -1.6195
 4587SOL     OW25219   2.251   1.580   7.388 -0.5532  0.5975  0.3085
 4587SOL    HW125220   2.194   1.602   7.315 -1.1917  1.2413  1.0115
 4587SOL    HW225221   2.196   1.601   7.463 -0.2433 -2.3772  1.3837
 4588SOL     OW25222   0.373   0.538  17.616  0.0756  0.1608 -0.0062
 4588SOL    HW125223   0.432   0.531  17.541 -1.3688 -0.3043 -1.0963
 4588SOL    HW225224   0.424   0.491   0.003  2.6697  0.4658 -1.7983
 4589SOL     OW25225   1.660   0.962   5.925  0.1353  0.2168 -0.1282
 4589SOL    HW125226   1.634   1.010   5.846 -1.2716 -1.7248 -0.8507
 4589SOL    HW225227   1.749   0.930   5.908 -0.6544 -1.7844 -0.4872
 4590SOL     OW25228   0.440   1.274   8.228 -0.3575 -0.2275 -0.3559
 4590SOL    HW125229   0.372   1.330   8.264  0.1615 -0.5798  1.2253
 4590SOL    HW225230   0.399   1.197   8.189 -1.0399  0.0825 -0.2429
 4591SOL     OW25231   2.031   1.084   2.042  0.1721 -0.6712  0.0257
 4591SOL    HW125232   1.972   1.016   2.074 -0.7835 -0.1458 -0.6207
 4591SOL    HW225233   2.115   1.042   2.062 -0.8061 -2.8725 -0.5249
 4592SOL     OW25234   2.035   2.116   5.173 -0.1566  0.1557 -0.1791
 4592SOL    HW125235   2.096   2.081   5.109 -0.1457 -0.2973  0.0743
 4592SOL    HW225236   2.088   2.171   5.230 -0.5798 -1.0774  1.4241
 4593SOL     OW25237   0.549   2.231   4.015 -0.1296 -0.1331 -0.0890
 4593SOL    HW125238   0.594   2.288   4.077  0.4180 -1.0154  0.3222
 4593SOL    HW225239   0.466   2.213   4.059  0.1992 -0.9600  0.1756
 4594SOL     OW25240   2.149   2.783  10.933 -0.3466 -0.1205  1.0745
 4594SOL    HW125241   2.202   2.848  10.887 -2.7943  0.6817 -0.5928
 4594SOL    HW225242   2.201   2.764  11.012  0.3915  1.2072  0.9202
 4595SOL     OW25243   4.174   0.679  11.512  0.1941  0.2070 -0.0979
 4595SOL    HW125244   4.165   0.604  11.453  1.5035  0.5475 -0.7222
 4595SOL    HW225245   4.151   0.744  11.446 -1.5825 -0.4243 -0.0874
 4596SOL     OW25246   0.631   1.272   0.073 -0.0304 -0.2210 -0.5433
 4596SOL    HW125247   0.658   1.305   0.159  1.9652  0.9081 -1.6118
 4596SOL    HW225248   0.551   1.321   0.053  0.5953  0.4119 -1.4952
 4597SOL     OW25249   1.255   0.271  13.684 -0.0194  0.0782  0.9242
 4597SOL    HW125250   1.297   0.292  13.601  2.0063 -0.8729  1.7132
 4597SOL    HW225251   1.169   0.236  13.660  0.0511 -0.0555  0.8715
 4598SOL     OW25252   3.273   2.513   1.357  0.3652  0.3352  0.4303
 4598SOL    HW125253   3.212   2.584   1.337  0.0744  0.4833  1.7848
 4598SOL    HW225254   3.301   2.487   1.270 -2.5139  2.1276 -1.0055
 4599SOL     OW25255   0.284   1.841   7.029 -0.1938  0.2852  0.3996
 4599SOL    HW125256   0.283   1.937   7.031 -1.6025  0.3287 -2.6807
 4599SOL    HW225257   0.235   1.828   6.948 -0.5832  0.2103  0.6523
 4600SOL     OW25258   2.377   0.319   6.606 -0.2931  0.3874  0.2611
 4600SOL    HW125259   2.415   0.231   6.594  1.5656  1.1167  0.8180
 4600SOL    HW225260   2.429   0.355   6.678 -0.0168  0.6509 -0.0698
 4601SOL     OW25261   1.300   0.296   6.801 -0.2461  0.1072  0.6431
 4601SOL    HW125262   1.232   0.339   6.750 -0.9420 -1.9836 -0.1933
 4601SOL    HW225263   1.272   0.279   6.891 -1.2261 -2.3473 -0.1440
 4602SOL     OW25264   0.397   1.238   2.859  0.3102  0.3821  0.2361
 4602SOL    HW125265   0.416   1.307   2.923 -1.5346  1.5398 -0.4519
 4602SOL    HW225266   0.345   1.291   2.798  1.1069 -0.0986 -0.8629
 4603SOL     OW25267   2.570   0.013  13.714  0.0488  0.3848  0.2519
 4603SOL    HW125268   2.527   0.034  13.796  0.8459  0.9701  0.5179
 4603SOL    HW225269   2.562   0.099  13.674  0.2396  0.4392  0.3310
 4604SOL     OW25270   1.097   1.958   5.637  0.0434  0.2131 -0.0294
 4604SOL    HW125271   1.123   1.934   5.548  2.0049  1.5341  0.1962
 4604SOL    HW225272   1.007   1.987   5.623 -0.4589 -1.7572 -0.9436
 4605SOL     OW25273   1.832   0.021   7.782 -0.0156  0.4952 -0.0188
 4605SOL    HW125274   1.828   0.098   7.725 -2.5904  0.0295 -0.4262
 4605SOL    HW225275   1.793   0.058   7.861 -1.0624 -3.5662  1.3591
 4606SOL     OW25276   0.994   2.553   8.634 -0.3118  0.1034  0.0000
 4606SOL    HW125277   0.989   2.461   8.606  0.7649 -0.1715  0.6743
 4606SOL    HW225278   1.090   2.562   8.630 -0.1616 -1.0702  0.7949
 4607SOL     OW25279   4.012   2.544   1.974 -0.0380 -0.2082  0.1051
 4607SOL    HW125280   4.097   2.583   1.953 -0.6970  0.1873 -1.8754
 4607SOL    HW225281   3.953   2.610   1.936  1.0388  1.1636  0.7803
 4608SOL     OW25282   3.983   2.273   0.857  0.0897 -0.4742  0.0633
 4608SOL    HW125283   3.999   2.309   0.944 -2.9487 -0.5023  0.6280
 4608SOL    HW225284   4.071   2.296   0.826 -0.8060  2.5924 -0.1864
 4609SOL     OW25285   4.318   2.519   2.604 -0.4543  0.1855  0.1241
 4609SOL    HW125286   4.333   2.534   2.511  1.0766  1.0622  0.5020
 4609SOL    HW225287   4.407   2.516   2.641 -0.8179  1.0608  1.0672
 4610SOL     OW25288   3.555   0.523  11.828  0.0072 -0.4341 -0.0762
 4610SOL    HW125289   3.639   0.506  11.871  0.6173  1.7693 -0.4000
 4610SOL    HW225290   3.592   0.548  11.744  0.3163 -0.0051  0.1873
 4611SOL     OW25291   1.947   4.261   2.757  0.2784 -0.0216  0.3876
 4611SOL    HW125292   1.895   4.323   2.706 -1.6575  0.3343  2.8620
 4611SOL    HW225293   1.926   4.277   2.849  1.5563 -1.5833  0.9390
 4612SOL     OW25294   3.915   0.724   6.526 -0.1815  0.4107  0.0701
 4612SOL    HW125295   3.830   0.679   6.523 -0.9647  1.5739  4.8157
 4612SOL    HW225296   3.897   0.804   6.477  1.4100  1.7098  1.6141
 4613SOL     OW25297   0.409   2.662   5.167  0.4414 -0.3317  0.1137
 4613SOL    HW125298   0.423   2.618   5.083  0.4758  0.7419 -0.4448
 4613SOL    HW225299   0.387   2.750   5.137  0.4399 -1.1854 -2.4784
 4614SOL     OW25300   2.767   4.223  17.459  0.4118 -0.2604 -0.2080
 4614SOL    HW125301   2.813   4.141  17.442  0.9197  0.1545 -0.8461
 4614SOL    HW225302   2.687   4.222  17.407  1.7809  1.9729 -2.3788
 4615SOL     OW25303   2.581   3.005   4.166  0.0627  0.2964 -0.1985
 4615SOL    HW125304   2.608   2.934   4.224 -0.3294  1.7834  1.8137
 4615SOL    HW225305   2.626   2.980   4.085 -0.4971  0.7080 -0.6371
 4616SOL     OW25306   0.077   1.274   4.521  0.1190 -0.3924  0.2778
 4616SOL    HW125307   0.009   1.255   4.457  1.5805 -1.3658 -0.9650
 4616SOL    HW225308   0.021   1.328   4.577  1.2123  0.3528  0.6530
 4617SOL     OW25309   4.522   0.973  12.050  0.2036 -0.8579  0.3300
 4617SOL    HW125310   4.557   0.890  12.084  0.6679 -0.4586  0.8247
 4617SOL    HW225311   4.529   0.967  11.955  1.4862 -3.3752  0.5926
 4618SOL     OW25312   4.477   4.683  14.017 -0.5576 -0.7103  0.0832
 4618SOL    HW125313   4.572   4.672  14.018 -0.4029  0.5491 -0.4454
 4618SOL    HW225314   4.472   4.674  14.112 -1.3945 -1.8063 -0.0613
 4619SOL     OW25315   2.505   4.512  17.497  0.3086  0.5184 -0.1970
 4619SOL    HW125316   2.476   4.492  17.586  0.2049  2.0863  0.1209
 4619SOL    HW225317   2.601   4.504  17.498  0.0708 -2.2492  0.1183
 4620SOL     OW25318   3.184   0.528  14.542 -0.3861 -0.1171  0.5371
 4620SOL    HW125319   3.230   0.533  14.458  0.6601  1.3420  1.1805
 4620SOL    HW225320   3.244   0.481  14.599  1.3757 -0.8200 -1.9188
 4621SOL     OW25321   3.213   1.867  13.034  0.1133 -0.1256 -0.0717
 4621SOL    HW125322   3.119   1.854  13.041  0.2762 -1.8298 -0.9617
 4621SOL    HW225323   3.220   1.959  13.008 -3.1450 -0.2328 -1.2701
 4622SOL     OW25324   3.435   2.467   4.421 -0.0314  0.0108  0.1041
 4622SOL    HW125325   3.530   2.455   4.425 -0.0466 -0.4721 -1.1992
 4622SOL    HW225326   3.405   2.542   4.473 -1.2317  0.0936 -0.7210
 4623SOL     OW25327   0.024   4.042   1.568 -0.5692 -0.4439  0.1116
 4623SOL    HW125328   0.013   4.137   1.581  1.5620 -0.4839  2.2155
 4623SOL    HW225329   4.660   4.013   1.604 -1.3551 -0.6103 -1.8479
 4624SOL     OW25330   2.954   1.931  14.750  0.0581  0.0233  0.3509
 4624SOL    HW125331   2.938   1.891  14.835 -2.4278 -0.4131 -0.3356
 4624SOL    HW225332   2.873   1.980  14.734  0.0465  0.2230  1.0167
 4625SOL     OW25333   3.523   2.747   0.671 -0.5183 -0.8069  0.7427
 4625SOL    HW125334   3.553   2.739   0.580  1.8473 -1.4982  1.5618
 4625SOL    HW225335   3.580   2.816   0.706  0.0951 -1.2587  0.6464
 4626SOL     OW25336   4.458   2.060  14.375  0.6238  0.2081  0.2677
 4626SOL    HW125337   4.510   1.997  14.424  1.0895  0.0447 -0.4286
 4626SOL    HW225338   4.378   2.010  14.390 -0.0303  1.6118  1.4001
 4627SOL     OW25339   3.844   4.606   3.850 -0.4976 -0.1526 -0.1085
 4627SOL    HW125340   3.826   4.568   3.936  1.8385 -0.0356  0.4397
 4627SOL    HW225341   3.854   4.526   3.798  1.3973 -0.0786  0.1353
 4628SOL     OW25342   2.137   2.227   8.680  0.5783  0.1891 -0.4095
 4628SOL    HW125343   2.206   2.251   8.743  1.7206 -0.5016 -1.3918
 4628SOL    HW225344   2.181   2.213   8.596  0.6672  0.7962 -0.4605
 4629SOL     OW25345   0.331   1.459   5.177 -0.3452  0.2575 -0.2038
 4629SOL    HW125346   0.342   1.531   5.238 -0.6441  0.8335 -0.8337
 4629SOL    HW225347   0.301   1.512   5.103  0.5834 -0.0330 -0.7926
 4630SOL     OW25348   0.383   2.157  11.347 -0.3381  0.3160 -0.7361
 4630SOL    HW125349   0.329   2.222  11.391 -1.1097 -1.3546  0.7807
 4630SOL    HW225350   0.469   2.197  11.365 -1.1047  0.7563  1.9508
 4631SOL     OW25351   2.921   2.354   0.107 -0.0057  0.4459  0.2605
 4631SOL    HW125352   2.850   2.358   0.171 -0.6931 -2.1164 -0.3214
 4631SOL    HW225353   2.997   2.351   0.164 -0.3804 -0.0607  0.7359
 4632SOL     OW25354   0.429   1.720   2.431  0.4553 -0.1332  0.2280
 4632SOL    HW125355   0.444   1.771   2.510  0.4520  0.3228 -0.0622
 4632SOL    HW225356   0.353   1.766   2.396  0.0302 -0.7477  0.3419
 4633SOL     OW25357   3.643   3.363   4.366  0.1455  0.0745 -0.5194
 4633SOL    HW125358   3.636   3.280   4.319 -2.9983  0.2498 -0.3509
 4633SOL    HW225359   3.725   3.395   4.328  0.2155  1.2802  0.6024
 4634SOL     OW25360   0.586   2.222   1.249  0.3666  0.1942 -0.0815
 4634SOL    HW125361   0.511   2.198   1.303  0.0662  0.6230 -0.3097
 4634SOL    HW225362   0.551   2.276   1.178 -1.1130 -0.4628  0.1567
 4635SOL     OW25363   2.235   2.810   8.591 -0.0393  0.8150  0.3616
 4635SOL    HW125364   2.162   2.752   8.571  0.4653  0.0001  0.8616
 4635SOL    HW225365   2.195   2.872   8.651  0.6886  3.0548 -1.4725
 4636SOL     OW25366   2.157   0.296   5.440  0.0875  0.0616  0.6010
 4636SOL    HW125367   2.189   0.214   5.401  0.1613  0.5086 -0.2883
 4636SOL    HW225368   2.150   0.351   5.362  1.7831  0.4936  0.7705
 4637SOL     OW25369   3.182   2.586   6.103  0.1045 -0.2093 -0.0399
 4637SOL    HW125370   3.208   2.621   6.018  1.5532  0.0098  0.4884
 4637SOL    HW225371   3.271   2.570   6.135  0.8990  1.0853 -1.6439
 4638SOL     OW25372   1.559   2.093   6.672 -0.1361 -0.3927  0.4095
 4638SOL    HW125373   1.630   2.029   6.661 -0.5824 -0.7268 -0.5546
 4638SOL    HW225374   1.509   2.045   6.738 -0.3695  1.5158  1.6162
 4639SOL     OW25375   3.797   1.627   8.619 -0.4364  0.4209 -0.6909
 4639SOL    HW125376   3.743   1.671   8.553 -1.1564 -1.3417 -1.2702
 4639SOL    HW225377   3.753   1.662   8.696  0.7817  0.1480  0.1206
 4640SOL     OW25378   0.352   0.495   6.692 -0.4122  0.0944  0.1797
 4640SOL    HW125379   0.437   0.472   6.731  0.0204  1.3660  0.0124
 4640SOL    HW225380   0.358   0.587   6.666 -1.5296 -0.0201 -0.4538
 4641SOL     OW25381   0.579   3.633  13.255  0.3610 -0.5622  0.0694
 4641SOL    HW125382   0.501   3.661  13.303  0.0270 -1.8469  0.2854
 4641SOL    HW225383   0.544   3.572  13.189 -2.1320 -0.9892  1.7974
 4642SOL     OW25384   0.977   2.301   8.527 -0.1777  0.1161  0.1983
 4642SOL    HW125385   0.994   2.241   8.455 -1.1298  0.1290 -0.0425
 4642SOL    HW225386   0.894   2.275   8.568 -0.9214 -0.0746 -1.4340
 4643SOL     OW25387   3.865   4.410  17.474 -0.3544 -0.2105 -0.2017
 4643SOL    HW125388   3.955   4.377  17.476 -0.6306 -0.8921  0.8833
 4643SOL    HW225389   3.820   4.326  17.485 -0.1972  0.2572  4.0070
 4644SOL     OW25390   1.769   0.028   4.134 -0.2099  0.0763 -0.4484
 4644SOL    HW125391   1.797   4.657   4.151  0.3689  0.7132  1.9862
 4644SOL    HW225392   1.712   0.013   4.059 -0.3110  2.1545 -0.7924
 4645SOL     OW25393   4.192   1.311  10.860  0.3069 -0.3842  0.1714
 4645SOL    HW125394   4.135   1.267  10.922 -0.8153  0.7652 -0.0497
 4645SOL    HW225395   4.273   1.337  10.904  0.0375  2.3037 -0.8716
 4646SOL     OW25396   0.978   3.958   8.650  0.1603  0.1494  0.4822
 4646SOL    HW125397   1.063   3.995   8.629  0.4776 -1.7035 -1.4752
 4646SOL    HW225398   0.949   4.030   8.706 -1.7325 -1.7148  1.9272
 4647SOL     OW25399   0.037   1.376  14.868  0.2451  0.0912  0.2939
 4647SOL    HW125400   0.022   1.464  14.904 -1.4535  0.0070 -0.1729
 4647SOL    HW225401   0.102   1.398  14.802 -0.3740 -0.8054 -0.6190
 4648SOL     OW25402   2.672   3.341   4.839  0.0301  0.1802 -0.9920
 4648SOL    HW125403   2.626   3.268   4.797 -1.9792  0.5068  0.6477
 4648SOL    HW225404   2.645   3.315   4.927  1.9056  0.1219 -0.4392
 4649SOL     OW25405   3.738   2.234   9.622  0.0382  0.2997 -0.1248
 4649SOL    HW125406   3.702   2.175   9.555  2.6222 -0.5254 -0.7839
 4649SOL    HW225407   3.730   2.175   9.697  1.8319 -0.7473 -0.7535
 4650SOL     OW25408   1.230   3.985   6.820 -0.4183  0.1324  1.0643
 4650SOL    HW125409   1.308   4.038   6.802 -1.0563  0.3559 -0.9735
 4650SOL    HW225410   1.277   3.904   6.843 -0.8575  0.3008  2.5673
 4651SOL     OW25411   0.475   0.563   7.749 -0.2016 -0.3938 -0.0778
 4651SOL    HW125412   0.466   0.469   7.735  1.1338 -0.4231 -0.7523
 4651SOL    HW225413   0.488   0.594   7.659 -0.7162 -0.3432 -0.1363
 4652SOL     OW25414   3.058   2.728   3.659 -0.2943  0.0924 -0.4824
 4652SOL    HW125415   3.136   2.683   3.691  0.0322  2.1504  1.6339
 4652SOL    HW225416   3.084   2.763   3.574  0.6342  0.3921 -0.0767
 4653SOL     OW25417   1.428   3.557   0.308  0.4078  0.2260 -0.0702
 4653SOL    HW125418   1.365   3.496   0.346 -0.1170  1.6270  1.2959
 4653SOL    HW225419   1.401   3.637   0.353 -1.1999 -1.4864  1.9825
 4654SOL     OW25420   0.708   2.130   7.884  0.0203  0.3948 -0.5139
 4654SOL    HW125421   0.632   2.106   7.937  0.8225 -0.1875  0.3780
 4654SOL    HW225422   0.772   2.065   7.915 -0.6309  0.3929  0.8305
 4655SOL     OW25423   0.521   2.051   1.551 -0.0355 -0.9005  0.2600
 4655SOL    HW125424   0.437   2.091   1.531 -0.1482 -0.0196  2.5612
 4655SOL    HW225425   0.494   1.997   1.625  1.2695 -0.5718  0.9772
 4656SOL     OW25426   3.639   3.880   7.136 -0.0169  0.3539 -0.5311
 4656SOL    HW125427   3.563   3.875   7.194  1.8318 -3.6179  1.5882
 4656SOL    HW225428   3.675   3.964   7.166  0.0382 -0.0883  0.6682
 4657SOL     OW25429   4.490   3.496   7.512  0.2538 -0.6986 -0.5891
 4657SOL    HW125430   4.504   3.442   7.590  0.4095  0.1566 -0.0193
 4657SOL    HW225431   4.578   3.529   7.494  0.1470 -0.5826 -0.8994
 4658SOL     OW25432   3.971   1.171   8.388 -0.5388  0.5020 -0.1405
 4658SOL    HW125433   3.954   1.235   8.457  2.8106  0.3322  0.8209
 4658SOL    HW225434   3.904   1.103   8.401  0.1040 -0.3359 -1.2017
 4659SOL     OW25435   2.798   1.952   7.099 -0.2923 -0.8041  0.1717
 4659SOL    HW125436   2.844   1.869   7.089 -1.8569 -1.6409  0.0178
 4659SOL    HW225437   2.859   2.003   7.046 -0.3780 -0.0538  0.7896
 4660SOL     OW25438   3.363   0.567   2.606 -0.8119  0.4647 -0.2722
 4660SOL    HW125439   3.376   0.494   2.547  1.2036 -1.5793  2.6733
 4660SOL    HW225440   3.269   0.579   2.595 -0.8074 -2.2463 -3.2625
 4661SOL     OW25441   3.968   0.264   3.671 -0.2682  0.4531 -0.1974
 4661SOL    HW125442   4.016   0.185   3.693 -1.1368  0.2868  1.0985
 4661SOL    HW225443   3.885   0.256   3.718 -1.6339 -0.2756 -2.7108
 4662SOL     OW25444   1.812   3.341  13.914 -0.0940  0.3959  0.3483
 4662SOL    HW125445   1.854   3.353  13.999  1.4879 -1.0070 -0.2345
 4662SOL    HW225446   1.877   3.288  13.867 -1.1818 -0.5393 -0.1129
 4663SOL     OW25447   1.082   2.507   5.479 -0.4336 -0.7174 -0.4146
 4663SOL    HW125448   1.175   2.485   5.479 -0.1702  0.3867  1.2075
 4663SOL    HW225449   1.055   2.416   5.490  0.4390 -1.1144 -1.5230
 4664SOL     OW25450   0.552   3.004   3.366  0.2467  0.0002 -0.1393
 4664SOL    HW125451   0.542   2.910   3.357 -0.3611  0.0598 -0.0759
 4664SOL    HW225452   0.646   3.013   3.354 -0.0480  0.8279 -1.8849
 4665SOL     OW25453   0.260   2.001   0.309 -0.2445 -0.7331 -0.2230
 4665SOL    HW125454   0.224   2.076   0.356 -0.6823 -1.2354  0.2519
 4665SOL    HW225455   0.180   1.968   0.267 -0.5830  1.4635 -1.2610
 4666SOL     OW25456   2.217   0.472   8.776 -0.2015  0.3912  0.3550
 4666SOL    HW125457   2.164   0.439   8.848 -1.3994  1.9691  0.1991
 4666SOL    HW225458   2.198   0.407   8.708 -1.7036  0.3354  0.8245
 4667SOL     OW25459   4.303   4.505  17.214  0.5691  0.2573 -0.0342
 4667SOL    HW125460   4.236   4.499  17.145  1.9348 -2.3204 -1.1281
 4667SOL    HW225461   4.248   4.506  17.292  2.0710 -2.1086  1.0543
 4668SOL     OW25462   1.369   1.933   8.887  0.1190  0.1532 -0.0687
 4668SOL    HW125463   1.368   1.895   8.975  0.8336 -1.3667 -0.7146
 4668SOL    HW225464   1.449   1.985   8.877 -0.4619  0.4235 -3.5295
 4669SOL     OW25465   3.153   1.383   0.539 -0.5350  0.0784 -0.1273
 4669SOL    HW125466   3.087   1.323   0.573  0.2516 -1.7293 -1.7805
 4669SOL    HW225467   3.184   1.427   0.618  0.0668 -1.7649  0.6538
 4670SOL     OW25468   2.713   4.213   9.078 -0.3040  0.7637 -0.3211
 4670SOL    HW125469   2.649   4.159   9.125 -1.8783  1.5132 -1.5858
 4670SOL    HW225470   2.658   4.275   9.031 -1.2292 -0.2228 -0.5451
 4671SOL     OW25471   2.768   3.670   5.149  0.7341 -0.3599  0.1202
 4671SOL    HW125472   2.833   3.662   5.079 -0.1939 -0.0999 -0.7708
 4671SOL    HW225473   2.810   3.725   5.215 -0.7181  1.4508 -0.4868
 4672SOL     OW25474   1.402   4.409   0.468  0.0612  0.0913 -0.0697
 4672SOL    HW125475   1.368   4.338   0.415 -2.0443  0.2956  1.0125
 4672SOL    HW225476   1.491   4.426   0.437  0.3809 -2.4011 -0.4628
 4673SOL     OW25477   3.337   0.053   9.648  0.6550  0.4017  0.4808
 4673SOL    HW125478   3.259   0.087   9.603  0.3549  1.3092  1.6958
 4673SOL    HW225479   3.303   4.696   9.696 -2.7786  1.9518  0.4985
 4674SOL     OW25480   2.669   1.722   5.553 -0.2911 -0.2506 -0.0984
 4674SOL    HW125481   2.657   1.669   5.474  1.5143  0.6002 -0.9136
 4674SOL    HW225482   2.583   1.701   5.589 -0.3409 -0.2684 -0.2279
 4675SOL     OW25483   3.319   3.423  12.267  0.5919  0.1073 -0.0579
 4675SOL    HW125484   3.294   3.376  12.347  0.2543  0.4701  0.0483
 4675SOL    HW225485   3.398   3.473  12.285  0.4940 -0.0664  0.8446
 4676SOL     OW25486   3.005   1.692   0.084 -0.3140  0.0143  0.4499
 4676SOL    HW125487   3.044   1.667   0.168  1.5634 -1.1729 -0.7530
 4676SOL    HW225488   3.007   1.786   0.101  1.0372  0.1071 -0.1969
 4677SOL     OW25489   3.481   2.020   3.079 -0.0778 -0.5510 -0.6943
 4677SOL    HW125490   3.514   1.980   3.160  0.2736  1.3406  0.0931
 4677SOL    HW225491   3.461   2.107   3.113  1.5633 -0.0067 -1.1017
 4678SOL     OW25492   3.328   0.514  11.961 -0.5021  0.4237  0.2849
 4678SOL    HW125493   3.400   0.526  11.899 -0.5800  0.0742  0.1202
 4678SOL    HW225494   3.371   0.444  12.010  2.0437  1.8609  0.0883
 4679SOL     OW25495   0.740   2.403   4.147  0.2548  0.3141  0.6987
 4679SOL    HW125496   0.833   2.422   4.157  1.4632 -4.0803 -2.4834
 4679SOL    HW225497   0.708   2.445   4.227 -0.4106 -1.6643  1.4586
 4680SOL     OW25498   4.262   1.481  15.183  0.0396  0.0751  0.0750
 4680SOL    HW125499   4.173   1.454  15.204 -0.2392  0.5060 -0.5878
 4680SOL    HW225500   4.255   1.569  15.219  1.3085 -0.2724  1.1847
 4681SOL     OW25501   0.334   3.440   8.752 -0.3935  0.1193  0.0264
 4681SOL    HW125502   0.341   3.370   8.817  0.1251  1.1648  1.1024
 4681SOL    HW225503   0.408   3.418   8.696  0.7536  0.9894  1.1952
 4682SOL     OW25504   1.764   3.948   9.588 -0.1367  0.0055 -0.2461
 4682SOL    HW125505   1.831   3.879   9.588 -0.4550 -0.3130 -2.3045
 4682SOL    HW225506   1.747   3.942   9.494  1.9559  1.0682 -0.6898
 4683SOL     OW25507   2.501   2.397  10.584  0.3886  0.1038 -0.1491
 4683SOL    HW125508   2.551   2.316  10.574 -1.4187 -0.9688 -0.3473
 4683SOL    HW225509   2.557   2.459  10.536  0.7536 -1.4065 -1.6622
 4684SOL     OW25510   0.525   3.360   2.975  0.3462  0.2565  0.4150
 4684SOL    HW125511   0.507   3.329   3.063  1.7149 -1.6840  0.0255
 4684SOL    HW225512   0.495   3.450   2.977  1.4991  0.6557 -0.4688
 4685SOL     OW25513   0.115   0.499   6.377 -0.6849  0.2441  0.1255
 4685SOL    HW125514   0.143   0.413   6.408  2.0444  1.5492  1.2389
 4685SOL    HW225515   0.171   0.499   6.299 -1.0861 -0.8936 -0.1546
 4686SOL     OW25516   4.557   3.212   7.927 -0.2051  0.3856 -0.5359
 4686SOL    HW125517   4.624   3.144   7.918  0.9979  1.7267 -1.7002
 4686SOL    HW225518   4.490   3.144   7.923  0.0980 -0.0405  2.1170
 4687SOL     OW25519   1.413   2.037   6.880 -0.1913  0.9495  0.3199
 4687SOL    HW125520   1.331   2.087   6.881 -1.4962 -1.2229  2.0996
 4687SOL    HW225521   1.390   1.968   6.942 -2.9207 -0.4329 -2.1853
 4688SOL     OW25522   1.091   2.497   4.978  0.3006  0.0589  0.0038
 4688SOL    HW125523   1.181   2.485   5.009  0.1373  0.3993  0.6063
 4688SOL    HW225524   1.074   2.574   5.033 -0.0974  0.1815 -0.3001
 4689SOL     OW25525   3.215   0.823   8.445  0.0374  0.0063 -0.0729
 4689SOL    HW125526   3.184   0.733   8.432  1.4223 -0.6968  1.5116
 4689SOL    HW225527   3.203   0.836   8.539 -0.3750 -0.2456 -0.0881
 4690SOL     OW25528   2.341   2.845   6.960 -0.1040 -0.1440 -0.1400
 4690SOL    HW125529   2.334   2.903   6.884  1.9247  2.7293  1.8878
 4690SOL    HW225530   2.293   2.770   6.925 -0.0401  0.5455 -1.6873
 4691SOL     OW25531   1.936   4.320   3.039  0.2462 -0.1196  0.9845
 4691SOL    HW125532   1.857   4.268   3.022  0.2915  0.2798 -0.5136
 4691SOL    HW225533   1.986   4.247   3.075 -0.9532 -1.3267  0.1930
 4692SOL     OW25534   0.446   3.197   3.621  0.3176  0.0008  0.6432
 4692SOL    HW125535   0.398   3.278   3.633  0.7804  0.1762  1.3114
 4692SOL    HW225536   0.461   3.202   3.527  0.7174  0.0532  0.7096
 4693SOL     OW25537   4.403   1.687   0.326  0.2475  0.3721 -0.6498
 4693SOL    HW125538   4.337   1.688   0.257  1.0145  0.5965 -1.3736
 4693SOL    HW225539   4.366   1.625   0.388 -2.7790  0.4308 -2.4088
 4694SOL     OW25540   4.571   3.399   9.997  0.1443 -0.6999 -0.3633
 4694SOL    HW125541   4.481   3.422  10.020  1.1296  0.9408  1.7726
 4694SOL    HW225542   4.559   3.311   9.960 -1.1457 -0.5830 -0.2291
 4695SOL     OW25543   2.467   4.539   2.297 -0.3698 -0.0213 -0.0693
 4695SOL    HW125544   2.528   4.495   2.237  3.4100  2.0953  2.2255
 4695SOL    HW225545   2.530   4.522   2.367 -0.9259 -0.7970  0.2436
 4696SOL     OW25546   0.463   3.857   5.412 -0.7284  0.3208 -0.1353
 4696SOL    HW125547   0.509   3.784   5.370 -2.4655 -0.4548 -0.6784
 4696SOL    HW225548   0.415   3.816   5.484 -0.0617 -0.0849  0.0858
 4697SOL     OW25549   0.175   3.772   4.111 -0.1868  0.4071 -0.3082
 4697SOL    HW125550   0.262   3.736   4.127 -0.7081  0.4139  2.5614
 4697SOL    HW225551   0.124   3.715   4.168 -0.6773 -0.5746 -1.7372
 4698SOL     OW25552   0.732   0.965   9.506  1.1374 -0.1736 -0.3495
 4698SOL    HW125553   0.762   0.925   9.424  0.8576  0.7644 -0.9011
 4698SOL    HW225554   0.757   0.892   9.563  0.5370  1.6741  2.2608
 4699SOL     OW25555   2.054   1.139   0.848  0.2858  0.6293 -0.1137
 4699SOL    HW125556   1.970   1.118   0.889  0.5214  1.5576  0.8622
 4699SOL    HW225557   2.080   1.198   0.918 -1.4892  1.6810 -0.3291
 4700SOL     OW25558   2.727   3.479  12.164 -0.5476 -0.5514 -0.3599
 4700SOL    HW125559   2.758   3.551  12.110 -0.2880  0.6872  1.4322
 4700SOL    HW225560   2.694   3.419  12.097  0.6293 -1.6025 -0.0011
 4701SOL     OW25561   3.187   3.642   9.404 -0.2208 -0.3533 -0.9867
 4701SOL    HW125562   3.144   3.649   9.489  1.6798 -0.1953 -0.0386
 4701SOL    HW225563   3.166   3.730   9.373  0.4406  0.5684  1.1835
 4702SOL     OW25564   3.520   0.421   5.817 -0.4446  0.0015 -0.1443
 4702SOL    HW125565   3.572   0.409   5.738  0.8826 -0.3222  0.7753
 4702SOL    HW225566   3.586   0.390   5.879 -0.3134  1.0331  0.2255
 4703SOL     OW25567   1.480   4.205  10.770 -0.0277 -0.0603 -0.0683
 4703SOL    HW125568   1.427   4.275  10.731  0.1564  0.3810  0.4813
 4703SOL    HW225569   1.552   4.248  10.816 -1.9936  1.7945  1.2617
 4704SOL     OW25570   3.182   1.226   5.045  0.4922  0.3101 -0.1595
 4704SOL    HW125571   3.111   1.222   4.981 -0.3860  0.2351  0.8122
 4704SOL    HW225572   3.144   1.178   5.118  2.2108  0.7409  1.0262
 4705SOL     OW25573   4.288   1.092   0.125  0.2144 -0.3906  0.1664
 4705SOL    HW125574   4.358   1.156   0.140  0.0752  0.2017 -1.7112
 4705SOL    HW225575   4.345   1.039   0.070  0.8748  0.7242 -0.2250
 4706SOL     OW25576   3.571   3.826  13.920  0.2504  0.1557 -0.2534
 4706SOL    HW125577   3.564   3.901  13.860  0.9947 -0.3085 -0.9227
 4706SOL    HW225578   3.528   3.869  13.994 -0.1060  1.8431 -1.4363
 4707SOL     OW25579   3.526   0.105   0.038  0.7657  0.5831 -0.3291
 4707SOL    HW125580   3.568   0.035  17.666 -0.3365  1.1896 -2.0746
 4707SOL    HW225581   3.484   0.163  17.653 -0.7794  1.4654  1.4987
 4708SOL     OW25582   2.155   2.237  12.935  0.5235  0.7368  0.0515
 4708SOL    HW125583   2.187   2.172  12.872  1.8106 -0.4762  1.9380
 4708SOL    HW225584   2.210   2.207  13.008 -0.1958 -2.1261 -0.5785
 4709SOL     OW25585   3.950   2.379  16.966  0.1351  0.2003  0.1754
 4709SOL    HW125586   3.891   2.410  16.898 -2.2523 -1.7152  1.3617
 4709SOL    HW225587   3.890   2.314  17.004  0.7019  0.0123  0.7525
 4710SOL     OW25588   0.465   4.160   2.658 -0.2399  0.5982  0.1219
 4710SOL    HW125589   0.389   4.189   2.608 -1.3323 -1.9022  0.3155
 4710SOL    HW225590   0.418   4.095   2.710 -1.7848 -0.3375 -2.3868
 4711SOL     OW25591   3.316   3.081   7.356  0.4860 -0.1541 -0.1740
 4711SOL    HW125592   3.249   3.016   7.336 -0.1537  0.3134  0.5009
 4711SOL    HW225593   3.322   3.041   7.443  0.7208  1.1235  0.3937
 4712SOL     OW25594   0.810   0.013   3.268 -0.1162 -0.0712 -0.1570
 4712SOL    HW125595   0.834   4.640   3.281  1.0406  0.2250 -0.1982
 4712SOL    HW225596   0.894   0.056   3.251 -0.3600 -0.2109 -1.6952
 4713SOL     OW25597   3.992   3.180   4.015  0.1583 -0.0683  0.1863
 4713SOL    HW125598   4.023   3.264   4.047  0.1265 -0.4962  1.3569
 4713SOL    HW225599   3.915   3.172   4.070 -0.0664  0.6091 -0.0316
 4714SOL     OW25600   0.763   2.905   3.178 -0.2456  0.3755 -0.2989
 4714SOL    HW125601   0.755   2.824   3.127  1.1910 -0.0201  0.1253
 4714SOL    HW225602   0.822   2.958   3.124  1.4126 -0.3085  0.8616
 4715SOL     OW25603   4.216   3.629   4.250 -0.5555 -0.0417  0.4575
 4715SOL    HW125604   4.213   3.588   4.336  0.2312 -1.4257 -0.1915
 4715SOL    HW225605   4.150   3.699   4.252  0.5262  0.9684  1.2311
 4716SOL     OW25606   3.476   2.697   7.898  0.0032  0.1426  0.5086
 4716SOL    HW125607   3.381   2.709   7.893  0.1513  1.0767 -0.1604
 4716SOL    HW225608   3.499   2.747   7.976  0.3015  1.4789 -0.4356
 4717SOL     OW25609   1.537   3.102  15.071 -0.2148 -0.2702  0.6034
 4717SOL    HW125610   1.566   3.016  15.040  1.5795  0.1641  1.0372
 4717SOL    HW225611   1.547   3.148  14.988  0.2260 -2.2320 -0.4236
 4718SOL     OW25612   2.648   0.223   3.774  0.2932 -0.1229  0.1543
 4718SOL    HW125613   2.712   0.152   3.773  0.6054  0.1485  0.7120
 4718SOL    HW225614   2.646   0.241   3.680 -1.2221 -1.4395 -0.0773
 4719SOL     OW25615   3.456   2.107   6.761 -0.3942  0.2612  0.5099
 4719SOL    HW125616   3.500   2.165   6.699 -0.9225 -0.4219 -0.5074
 4719SOL    HW225617   3.527   2.080   6.819  1.4927  0.4228 -1.6963
 4720SOL     OW25618   1.444   2.131   6.078 -0.0443 -0.0424 -0.3582
 4720SOL    HW125619   1.441   2.043   6.118 -1.4064 -0.0024 -0.3598
 4720SOL    HW225620   1.515   2.125   6.015 -3.6790 -1.2129 -4.3354
 4721SOL     OW25621   0.885   3.493   5.536 -0.3245  0.5360  0.5395
 4721SOL    HW125622   0.933   3.558   5.484  2.0152 -0.8890  0.9108
 4721SOL    HW225623   0.796   3.504   5.501 -0.3432  1.5623  0.8975
 4722SOL     OW25624   3.617   1.834  16.861 -0.7003 -0.4500 -1.0381
 4722SOL    HW125625   3.528   1.835  16.825 -0.2755 -0.6990 -2.0981
 4722SOL    HW225626   3.664   1.829  16.778  0.0177  1.5260 -0.7368
 4723SOL     OW25627   3.000   0.191   3.680 -0.4120  0.4805  0.1576
 4723SOL    HW125628   3.006   0.153   3.767  0.8484  0.5915  0.1182
 4723SOL    HW225629   3.049   0.128   3.627  0.9119  0.8352  0.9446
 4724SOL     OW25630   3.113   0.707   1.827  0.2337  0.1168  0.2105
 4724SOL    HW125631   3.029   0.677   1.791  1.1747 -1.4851 -0.6585
 4724SOL    HW225632   3.140   0.748   1.745 -0.1948  0.5013  0.2590
 4725SOL     OW25633   2.072   1.085   4.307 -0.7551 -0.1996 -0.4894
 4725SOL    HW125634   2.060   1.088   4.402  0.5770  1.3704 -0.3746
 4725SOL    HW225635   2.132   1.011   4.293  0.0990  0.6474 -1.2959
 4726SOL     OW25636   0.567   4.629  14.751 -0.0152  0.0322 -0.3353
 4726SOL    HW125637   0.592   4.579  14.673  1.1384 -1.5326  1.0323
 4726SOL    HW225638   0.648   4.624  14.802 -0.8941  0.0157  1.0328
 4727SOL     OW25639   2.670   4.276   1.761  0.0452  0.2490  0.2474
 4727SOL    HW125640   2.640   4.185   1.765 -0.9748  0.5734 -0.1487
 4727SOL    HW225641   2.694   4.285   1.854  1.0632 -1.0785  0.1180
 4728SOL     OW25642   0.330   1.475   3.012 -0.2927 -0.0923 -0.1312
 4728SOL    HW125643   0.344   1.559   2.967 -0.9032  0.2160  0.2417
 4728SOL    HW225644   0.390   1.473   3.086  0.4785  1.1265 -0.7093
 4729SOL     OW25645   0.595   2.758   7.989 -0.1042 -0.6055 -0.9015
 4729SOL    HW125646   0.687   2.758   8.015 -1.0074 -1.1207  2.3185
 4729SOL    HW225647   0.598   2.800   7.903  2.1329  0.9410 -0.0654
 4730SOL     OW25648   1.377   3.345   2.964  0.0219  0.8700  0.4944
 4730SOL    HW125649   1.459   3.307   2.933 -0.6587 -1.7829  1.9269
 4730SOL    HW225650   1.326   3.342   2.883  0.0388  0.5236  0.4969
 4731SOL     OW25651   1.530   4.672   8.485  0.2223  0.1535 -0.2526
 4731SOL    HW125652   1.616   4.691   8.524 -0.7595  2.1690  0.9154
 4731SOL    HW225653   1.508   4.581   8.505 -2.4030  1.4612  2.7756
 4732SOL     OW25654   1.402   4.364  11.205  0.2737 -0.1827 -0.0396
 4732SOL    HW125655   1.375   4.432  11.143 -0.2776 -0.6281 -0.2845
 4732SOL    HW225656   1.369   4.287  11.159 -0.0310 -0.5449  0.7865
 4733SOL     OW25657   0.200   4.278   3.960 -0.4579  0.2171 -0.0024
 4733SOL    HW125658   0.175   4.185   3.967  1.4854 -0.3022 -0.0266
 4733SOL    HW225659   0.147   4.297   3.882  3.2014  1.7988 -2.1073
 4734SOL     OW25660   3.333   1.611   1.825 -0.3433  0.1921  0.1559
 4734SOL    HW125661   3.284   1.607   1.743 -1.1843 -0.1697  0.6769
 4734SOL    HW225662   3.305   1.699   1.851  2.5480  0.0564  3.7277
 4735SOL     OW25663   0.208   3.636  15.960  0.5224  1.3434 -0.1822
 4735SOL    HW125664   0.282   3.691  15.934  0.0348  0.5378 -3.2543
 4735SOL    HW225665   0.142   3.669  15.898 -1.4510 -3.5043 -0.6187
 4736SOL     OW25666   1.582   3.098  12.357 -0.9550 -0.9968 -0.6765
 4736SOL    HW125667   1.619   3.023  12.310  2.6851  0.4616 -0.1572
 4736SOL    HW225668   1.647   3.106  12.427  0.4812 -0.2602 -2.0727
 4737SOL     OW25669   2.896   2.543   2.334  0.1938  0.0263 -0.0115
 4737SOL    HW125670   2.834   2.574   2.268 -0.4318 -3.0792 -0.8459
 4737SOL    HW225671   2.890   2.623   2.386  1.5515  0.4874 -0.5414
 4738SOL     OW25672   0.299   0.863   5.598  0.2683  0.8410  0.0335
 4738SOL    HW125673   0.208   0.865   5.568  1.2133  0.1980 -2.9505
 4738SOL    HW225674   0.353   0.813   5.537  0.6108 -2.0998  2.7823
 4739SOL     OW25675   1.848   0.782   8.964 -0.1820  0.3612  0.1133
 4739SOL    HW125676   1.835   0.687   8.962  0.2648  0.2728  1.5372
 4739SOL    HW225677   1.793   0.813   8.892  1.2758  0.9761 -0.7200
 4740SOL     OW25678   4.241   3.199   6.381  0.8333  0.1336  0.2794
 4740SOL    HW125679   4.182   3.275   6.379  1.7861  0.8823  1.1580
 4740SOL    HW225680   4.285   3.217   6.464  1.5213  0.7608 -0.2285
 4741SOL     OW25681   3.862   2.962   4.942 -0.3201 -0.0953  0.3567
 4741SOL    HW125682   3.779   2.945   4.988 -0.0796 -2.8415 -0.1991
 4741SOL    HW225683   3.920   3.002   5.006  1.1832 -1.9621  0.1440
 4742SOL     OW25684   2.927   1.180   8.847  0.2668 -0.2066 -0.4689
 4742SOL    HW125685   2.888   1.131   8.920  1.2291 -0.4072 -0.0943
 4742SOL    HW225686   2.845   1.220   8.817  0.7032  0.0413 -1.3233
 4743SOL     OW25687   3.474   2.094   9.318  0.6771 -0.1108  0.3158
 4743SOL    HW125688   3.521   2.173   9.344  0.5837 -0.3462  1.2352
 4743SOL    HW225689   3.524   2.030   9.370  1.0317  0.1533  0.2969
 4744SOL     OW25690   4.142   0.092   4.807  0.1930  0.5414  0.8445
 4744SOL    HW125691   4.053   0.125   4.808 -1.5090 -4.0750  0.0775
 4744SOL    HW225692   4.170   0.156   4.873  0.5432 -0.2084  1.4336
 4745SOL     OW25693   0.019   3.100  10.431 -0.5576  0.4631 -0.3710
 4745SOL    HW125694   4.695   3.184  10.416  0.6781  0.9941 -0.9753
 4745SOL    HW225695   4.676   3.046  10.382  2.2418 -2.3502 -0.8307
 4746SOL     OW25696   4.443   1.361   8.378 -0.1575  0.0797 -0.0531
 4746SOL    HW125697   4.446   1.313   8.461  0.2765  1.4875  0.7394
 4746SOL    HW225698   4.349   1.345   8.373 -0.0099 -0.4592 -1.0778
 4747SOL     OW25699   0.484   1.579   3.277  0.4804 -0.4124  0.6098
 4747SOL    HW125700   0.545   1.653   3.269  0.3287 -0.4290 -0.6072
 4747SOL    HW225701   0.408   1.623   3.315 -0.1693 -1.7732  0.9043
 4748SOL     OW25702   3.313   1.956   2.218 -0.7233  0.0450 -0.3058
 4748SOL    HW125703   3.217   1.965   2.222 -0.5337  1.0390  1.9776
 4748SOL    HW225704   3.328   2.042   2.178 -0.6618 -1.3249 -3.1885
 4749SOL     OW25705   0.262   3.205   7.376  0.3653  0.4296 -0.7104
 4749SOL    HW125706   0.192   3.231   7.436 -0.0204 -1.8342 -0.1748
 4749SOL    HW225707   0.346   3.224   7.418 -1.0472  2.4107  1.2118
 4750SOL     OW25708   2.944   1.692   7.084  0.2768  0.1033  0.8886
 4750SOL    HW125709   2.988   1.704   7.000  1.9081 -0.5552  1.6388
 4750SOL    HW225710   2.943   1.597   7.101  0.7494 -0.4168 -2.0851
 4751SOL     OW25711   1.090   0.414  14.757  0.1805 -0.3846 -0.8762
 4751SOL    HW125712   1.046   0.368  14.685  1.0812 -4.0501  0.8764
 4751SOL    HW225713   1.036   0.491  14.775  1.2408  0.5192 -1.5659
 4752SOL     OW25714   1.321   4.369  11.454  0.6497 -0.0087  0.3242
 4752SOL    HW125715   1.356   4.388  11.367 -0.5005  1.5900  0.2019
 4752SOL    HW225716   1.279   4.284  11.444  1.0584 -0.2753  0.8699
 4753SOL     OW25717   3.024   1.234   6.662  0.5468 -0.0230 -0.4209
 4753SOL    HW125718   2.999   1.309   6.716  0.2819  0.1547 -0.7865
 4753SOL    HW225719   3.104   1.262   6.616  0.4405  1.9496  0.5978
 4754SOL     OW25720   1.085   1.087   5.656 -0.3352  0.5896 -0.0154
 4754SOL    HW125721   1.174   1.116   5.676 -0.0529 -1.7362  2.0823
 4754SOL    HW225722   1.047   1.168   5.621  0.4845  0.4746 -1.2004
 4755SOL     OW25723   0.142   3.405   8.350  0.2363 -0.4902  0.0717
 4755SOL    HW125724   0.110   3.393   8.439 -1.1949 -1.5176 -0.5782
 4755SOL    HW225725   0.119   3.322   8.308 -1.7621 -0.4930  1.2087
 4756SOL     OW25726   0.254   0.071   9.686  0.0470 -0.0277 -0.4220
 4756SOL    HW125727   0.298   0.138   9.739  0.1951  1.1403 -1.9933
 4756SOL    HW225728   0.252   0.002   9.752 -0.5732  1.4669  1.1167
 4757SOL     OW25729   3.298   2.746   1.834 -0.1939  0.3072 -0.8355
 4757SOL    HW125730   3.343   2.662   1.829 -1.7783 -0.5159 -1.1258
 4757SOL    HW225731   3.374   2.802   1.820 -0.3255  0.2616 -1.7172
 4758SOL     OW25732   3.696   4.278  16.593  0.1303 -0.1043 -0.7385
 4758SOL    HW125733   3.682   4.284  16.687 -1.2402  0.1820 -0.9512
 4758SOL    HW225734   3.778   4.230  16.582 -0.1392  0.0557 -3.4428
 4759SOL     OW25735   0.598   3.562   7.474  0.3984 -0.5712 -0.3515
 4759SOL    HW125736   0.639   3.590   7.555  2.0781 -2.4712 -0.5445
 4759SOL    HW225737   0.660   3.490   7.464  1.7318  0.2142  2.2154
 4760SOL     OW25738   0.417   2.740   7.396  0.0747  0.0929  0.6698
 4760SOL    HW125739   0.412   2.818   7.341  2.0165 -0.8932 -0.9234
 4760SOL    HW225740   0.511   2.731   7.415  0.4495 -1.5069 -1.9342
 4761SOL     OW25741   1.313   2.016   8.515  0.0529  0.2282 -0.5404
 4761SOL    HW125742   1.396   1.968   8.511  1.9672  3.3502  1.7695
 4761SOL    HW225743   1.278   1.988   8.431  0.6754 -0.3390 -0.6144
 4762SOL     OW25744   1.550   2.413   5.352 -0.0434  0.4317 -0.0990
 4762SOL    HW125745   1.605   2.441   5.424 -0.0312  1.1150 -0.3764
 4762SOL    HW225746   1.552   2.486   5.290  0.5035  1.2595  0.9073
 4763SOL     OW25747   2.910   3.337   6.663 -0.1636 -0.5448  0.2735
 4763SOL    HW125748   2.951   3.275   6.724  1.8360 -0.8043 -1.3440
 4763SOL    HW225749   2.978   3.339   6.595  0.0403 -0.8881  0.4639
 4764SOL     OW25750   0.459   3.147   4.592 -0.3901  0.0227  0.9418
 4764SOL    HW125751   0.398   3.150   4.666 -2.9398  0.6914 -1.1637
 4764SOL    HW225752   0.517   3.084   4.633 -0.0353 -0.8153 -0.8586
 4765SOL     OW25753   3.264   1.820   8.109 -0.0776 -0.1567 -0.4219
 4765SOL    HW125754   3.331   1.885   8.130  0.2491 -0.5663 -0.1873
 4765SOL    HW225755   3.226   1.870   8.037  0.4135 -0.4388 -0.8813
 4766SOL     OW25756   0.825   1.505   1.756  0.4123 -0.3872 -0.3014
 4766SOL    HW125757   0.778   1.437   1.709 -0.1849  0.9173 -1.6121
 4766SOL    HW225758   0.813   1.481   1.848  0.5757  0.0107 -0.1746
 4767SOL     OW25759   1.378   2.987   9.776 -0.0329  0.5859 -0.3368
 4767SOL    HW125760   1.385   3.008   9.683  0.5984  0.9882 -0.1964
 4767SOL    HW225761   1.439   3.056   9.803 -0.1044  0.3823  0.3425
 4768SOL     OW25762   0.994   4.543   5.514  0.2069  0.0963  0.0152
 4768SOL    HW125763   1.033   4.581   5.436  0.8008 -0.7977 -0.1265
 4768SOL    HW225764   0.910   4.513   5.479  0.8774 -0.8510 -0.7703
 4769SOL     OW25765   3.046   0.151   2.199 -0.1137  0.5792 -0.3480
 4769SOL    HW125766   3.076   0.159   2.290  0.1981 -0.0756 -0.3941
 4769SOL    HW225767   3.122   0.194   2.159  1.2458 -0.8263  0.7305
 4770SOL     OW25768   3.575   0.727  16.547 -0.0854  0.3206 -0.2652
 4770SOL    HW125769   3.651   0.785  16.553  0.4223 -0.3038 -0.8034
 4770SOL    HW225770   3.548   0.747  16.457 -1.6270 -2.8847 -0.4906
 4771SOL     OW25771   0.935   3.181  16.281  0.3424 -0.1997 -0.0059
 4771SOL    HW125772   0.881   3.250  16.321  0.6317 -0.4522  0.8227
 4771SOL    HW225773   1.019   3.228  16.281  0.2002  0.0346 -2.6840
 4772SOL     OW25774   1.755   3.464   7.194  0.5494  0.1565 -0.4525
 4772SOL    HW125775   1.669   3.504   7.179  1.1631  1.0061 -1.7398
 4772SOL    HW225776   1.783   3.465   7.102  1.4322 -0.1578 -0.1823
 4773SOL     OW25777   4.063   2.759   4.724  0.1088  0.4734 -0.0986
 4773SOL    HW125778   4.094   2.737   4.812 -0.0002  0.8419  0.0305
 4773SOL    HW225779   4.062   2.673   4.681  0.1220 -0.7409  2.3497
 4774SOL     OW25780   4.334   0.081   2.293 -0.1718 -0.6021  0.1726
 4774SOL    HW125781   4.257   0.034   2.326 -0.2139 -0.9161 -0.3748
 4774SOL    HW225782   4.372   0.011   2.240  1.1779 -0.4845  0.9710
 4775SOL     OW25783   4.388   0.715   1.754 -0.4401  0.2636 -0.0012
 4775SOL    HW125784   4.401   0.679   1.667  1.3813 -0.5840  0.6193
 4775SOL    HW225785   4.378   0.807   1.732 -1.7338 -0.3732 -2.0345
 4776SOL     OW25786   3.431   2.453   6.229 -0.0444 -0.2024  0.4524
 4776SOL    HW125787   3.445   2.544   6.252 -1.0695  0.0262  0.1742
 4776SOL    HW225788   3.466   2.411   6.307  0.7336 -2.5490 -1.1379
 4777SOL     OW25789   2.690   3.558   4.679  0.3714 -0.2635  0.0578
 4777SOL    HW125790   2.672   3.519   4.594 -0.8170  0.8006 -0.1758
 4777SOL    HW225791   2.666   3.490   4.742  0.8033  0.9271  1.5199
 4778SOL     OW25792   0.663   0.452   2.064 -1.0353 -0.0197  0.0480
 4778SOL    HW125793   0.667   0.524   2.001  4.0289  0.3735  0.8382
 4778SOL    HW225794   0.741   0.408   2.031 -0.4831 -1.1615  2.8328
 4779SOL     OW25795   4.672   1.084   0.260  0.3920 -0.5614 -0.0690
 4779SOL    HW125796   0.023   1.069   0.323  2.4724  2.5135 -1.6428
 4779SOL    HW225797   0.008   1.090   0.182 -0.6134  0.9161 -0.6496
 4780SOL     OW25798   0.923   1.309   2.525  0.5385  0.4563 -0.1851
 4780SOL    HW125799   0.842   1.310   2.577 -0.4807 -1.4329 -1.7391
 4780SOL    HW225800   0.935   1.401   2.505  0.8322  0.4657  0.0279
 4781SOL     OW25801   2.952   1.044   2.855  0.1521 -0.2560  0.4445
 4781SOL    HW125802   2.924   1.123   2.808 -0.5466  0.6644  2.3922
 4781SOL    HW225803   3.005   0.997   2.791  0.8890 -0.3594  1.1298
 4782SOL     OW25804   2.468   1.290   5.059 -0.3267 -0.0332 -0.4167
 4782SOL    HW125805   2.450   1.234   4.983 -1.0684  1.7831 -1.5723
 4782SOL    HW225806   2.543   1.343   5.033 -0.9123  1.0679  0.1228
 4783SOL     OW25807   0.864   0.623   4.075  0.5268  0.2668 -0.1088
 4783SOL    HW125808   0.870   0.604   3.982  1.8261 -0.8921  0.2052
 4783SOL    HW225809   0.777   0.595   4.102  0.1335  2.2258  0.6597
 4784SOL     OW25810   3.091   4.116   7.529  0.3697 -0.0672  0.2652
 4784SOL    HW125811   3.120   4.205   7.509  1.9902  0.1832  3.8548
 4784SOL    HW225812   3.012   4.115   7.475  0.8552  0.5722 -0.4477
 4785SOL     OW25813   1.729   2.843   0.192  0.0905  0.1275  0.1736
 4785SOL    HW125814   1.793   2.893   0.243  0.5456  0.7090 -0.9582
 4785SOL    HW225815   1.660   2.833   0.257  0.7293 -1.8947  0.5313
 4786SOL     OW25816   0.505   2.269   1.939  0.7284 -0.7006 -0.2297
 4786SOL    HW125817   0.569   2.302   1.876 -0.7484  1.3173 -0.6741
 4786SOL    HW225818   0.428   2.309   1.898  1.8708 -0.8456 -2.5355
 4787SOL     OW25819   0.423   1.771   6.043  0.3742 -0.1881 -0.2848
 4787SOL    HW125820   0.489   1.793   6.109 -1.6197  0.6607  1.4022
 4787SOL    HW225821   0.368   1.719   6.101  2.2140  0.0997  1.7243
 4788SOL     OW25822   0.978   1.821  12.414 -0.3190  0.0935 -0.4348
 4788SOL    HW125823   1.057   1.872  12.400 -0.2386  0.4221  1.1795
 4788SOL    HW225824   0.993   1.818  12.509  1.8294  1.5984 -0.7356
 4789SOL     OW25825   3.807   2.166   8.788 -0.2334  0.0367  0.4372
 4789SOL    HW125826   3.734   2.220   8.758 -0.9070 -2.5559 -2.5296
 4789SOL    HW225827   3.863   2.161   8.710  0.4866 -0.0982  0.9582
 4790SOL     OW25828   3.768   4.169   9.181 -0.4060  0.0065 -0.3628
 4790SOL    HW125829   3.685   4.138   9.144 -0.0320 -1.4888  0.0518
 4790SOL    HW225830   3.820   4.097   9.144 -1.9382 -1.2082 -0.1983
 4791SOL     OW25831   3.241   0.505   2.005 -0.2156 -0.4203 -0.1608
 4791SOL    HW125832   3.294   0.501   1.925  1.2643  0.1864  0.7792
 4791SOL    HW225833   3.218   0.597   1.991  0.1572 -0.1553  0.9860
 4792SOL     OW25834   1.052   2.460  14.765  0.1626  0.2097  0.5851
 4792SOL    HW125835   1.034   2.380  14.815 -1.2703  1.3394  1.8752
 4792SOL    HW225836   0.983   2.515  14.803  1.7763  0.4835  3.1312
 4793SOL     OW25837   4.663   0.232   2.988  0.0149  0.0781  0.1762
 4793SOL    HW125838   4.595   0.281   2.943 -0.0510 -1.0106 -0.9079
 4793SOL    HW225839   0.015   0.296   2.994  0.8175 -0.9057  1.3685
 4794SOL     OW25840   0.937   1.305   7.370  0.6894 -0.6015  0.2089
 4794SOL    HW125841   0.880   1.303   7.447 -0.2268 -2.7154 -0.5115
 4794SOL    HW225842   0.907   1.377   7.314  0.9218 -0.7566 -0.1211
 4795SOL     OW25843   3.091   0.578   2.556  0.0296  0.2909 -0.7348
 4795SOL    HW125844   3.023   0.645   2.549 -1.5726 -1.2840 -0.2776
 4795SOL    HW225845   3.077   0.525   2.478  0.4430 -1.2020  0.2019
 4796SOL     OW25846   0.502   0.888   9.834  0.0522 -0.0025  0.7392
 4796SOL    HW125847   0.537   0.831   9.902  1.0840  1.0726  1.1242
 4796SOL    HW225848   0.413   0.869   9.865 -0.5966  1.3117 -0.2920
 4797SOL     OW25849   1.632   1.804   8.021 -0.2634  0.0866 -0.5951
 4797SOL    HW125850   1.639   1.822   7.928 -2.5333  1.1204 -0.5485
 4797SOL    HW225851   1.539   1.819   8.034  0.1558  2.3553 -0.1666
 4798SOL     OW25852   1.916   0.996   7.656 -0.1276 -0.0499 -0.3864
 4798SOL    HW125853   1.948   1.065   7.714 -3.3117  0.2503  0.9682
 4798SOL    HW225854   1.822   1.004   7.673  0.0011  2.5916 -0.9561
 4799SOL     OW25855   3.361   1.784   8.927 -0.3306 -1.0030  0.3033
 4799SOL    HW125856   3.323   1.757   8.843  0.1706 -4.1137  1.0953
 4799SOL    HW225857   3.424   1.852   8.906  0.9330 -1.7524  1.6489
 4800SOL     OW25858   3.064   1.960   2.711 -0.2932 -0.3742  0.2163
 4800SOL    HW125859   3.046   2.024   2.642  0.4900 -0.4107 -0.0156
 4800SOL    HW225860   3.071   1.879   2.661 -0.7623 -0.4838  0.3284
 4801SOL     OW25861   3.182   1.621   1.277  0.0526  0.1213 -0.2372
 4801SOL    HW125862   3.181   1.530   1.246  1.4612 -0.0524  0.2379
 4801SOL    HW225863   3.246   1.620   1.348 -1.7037 -0.3220  1.3714
 4802SOL     OW25864   4.624   1.075   8.421 -0.1566  0.0266  0.2678
 4802SOL    HW125865   4.581   1.113   8.498 -0.9971  0.3121 -0.3359
 4802SOL    HW225866   4.699   1.031   8.460  0.5230  0.5710 -0.4273
 4803SOL     OW25867   4.260   3.582   5.261  0.0066 -0.1017  0.1305
 4803SOL    HW125868   4.227   3.666   5.291  1.3527  0.7607 -0.7765
 4803SOL    HW225869   4.331   3.556   5.321  2.0237  2.4796 -1.1244
 4804SOL     OW25870   2.864   0.044   6.729 -0.4174 -0.4106 -0.7205
 4804SOL    HW125871   2.779   0.002   6.735  0.0794 -1.2679  0.2727
 4804SOL    HW225872   2.917   4.691   6.694 -1.9003 -1.2890 -1.1670
 4805SOL     OW25873   2.822   2.098   5.079 -0.1376  0.0794 -0.2857
 4805SOL    HW125874   2.903   2.113   5.129  1.3780 -0.5085 -2.5700
 4805SOL    HW225875   2.762   2.152   5.130 -0.3272 -0.3979 -0.0016
 4806SOL     OW25876   2.468   4.485   7.289  0.2535 -0.1809  0.0957
 4806SOL    HW125877   2.456   4.484   7.194  1.6695  1.3767 -0.1081
 4806SOL    HW225878   2.399   4.426   7.320 -0.2120 -0.3511 -1.2635
 4807SOL     OW25879   2.375   1.731  10.912 -0.0197  0.5516 -0.5985
 4807SOL    HW125880   2.367   1.702  11.003  0.1270 -1.3114 -1.1912
 4807SOL    HW225881   2.439   1.802  10.909  0.2235  0.3164 -0.9768
 4808SOL     OW25882   0.315   3.032   7.161  0.6440 -0.0017 -0.2722
 4808SOL    HW125883   0.305   3.084   7.241  0.1934  1.1868 -1.1235
 4808SOL    HW225884   0.229   3.055   7.126  0.0905 -0.3906  0.8181
 4809SOL     OW25885   4.129   2.352  11.434 -0.6507  0.0762  0.0637
 4809SOL    HW125886   4.052   2.295  11.440  0.2182 -1.1068 -0.0913
 4809SOL    HW225887   4.167   2.346  11.522 -2.4078 -0.4135  0.8064
 4810SOL     OW25888   1.521   2.124   3.839  0.2838 -0.5878 -0.1966
 4810SOL    HW125889   1.486   2.126   3.749 -0.6895 -0.0895  0.1901
 4810SOL    HW225890   1.454   2.072   3.884 -0.9636  0.8782 -0.3285
 4811SOL     OW25891   3.715   1.460   4.123 -0.0122 -0.0685  0.1493
 4811SOL    HW125892   3.805   1.444   4.151 -0.3395 -1.9526  0.0927
 4811SOL    HW225893   3.666   1.462   4.205 -0.5437  0.8847 -0.1911
 4812SOL     OW25894   3.872   2.026  12.581 -0.2053 -0.1986  0.2684
 4812SOL    HW125895   3.832   2.086  12.644 -2.0661 -2.1600  0.9157
 4812SOL    HW225896   3.878   1.943  12.628 -0.5820  0.3111  1.2294
 4813SOL     OW25897   0.027   4.079   2.499 -0.8821  0.0841 -0.1048
 4813SOL    HW125898   4.690   4.144   2.457 -0.1467  0.0374 -1.1615
 4813SOL    HW225899   4.708   4.002   2.457 -2.6000  0.0359  1.5106
 4814SOL     OW25900   0.357   0.177   7.098 -0.5244  0.3942  0.0701
 4814SOL    HW125901   0.274   0.141   7.128  1.1593 -0.9225  3.1635
 4814SOL    HW225902   0.408   0.149   7.174 -0.6087 -1.5827 -0.6059
 4815SOL     OW25903   1.032   4.324  12.910 -0.3534  0.0996  0.4194
 4815SOL    HW125904   1.071   4.402  12.949  2.7182 -1.1202 -0.2650
 4815SOL    HW225905   1.058   4.348  12.821 -0.5872 -0.0560  0.3083
 4816SOL     OW25906   3.233   2.824   6.866  0.2640 -0.0740  0.1764
 4816SOL    HW125907   3.260   2.825   6.958 -0.7143 -0.7613  0.4670
 4816SOL    HW225908   3.282   2.752   6.826  2.3897  0.7640  1.2555
 4817SOL     OW25909   2.221   1.970   0.922  0.5262  0.0188  0.2957
 4817SOL    HW125910   2.201   2.037   0.988 -1.8586 -1.2852  0.8977
 4817SOL    HW225911   2.308   1.998   0.895  0.1044  0.1058 -0.9406
 4818SOL     OW25912   2.087   1.940   7.909  0.2838 -0.4049 -0.0010
 4818SOL    HW125913   2.181   1.935   7.895  0.3891  1.2163  0.0495
 4818SOL    HW225914   2.079   1.973   7.999  2.1658  0.0413  0.0018
 4819SOL     OW25915   0.684   3.756   5.105 -0.5781 -0.5985  0.1077
 4819SOL    HW125916   0.610   3.738   5.163  0.9596  0.5969  2.4347
 4819SOL    HW225917   0.724   3.672   5.084  0.8286  0.8068 -2.7608
 4820SOL     OW25918   2.912   0.182   2.566 -0.7112 -0.3097 -0.8147
 4820SOL    HW125919   2.984   0.120   2.579 -1.3570 -0.8868  0.0880
 4820SOL    HW225920   2.859   0.119   2.516 -0.3632 -1.5238  0.3476
 4821SOL     OW25921   3.095   3.597   6.483  0.5901 -0.5793  0.3102
 4821SOL    HW125922   3.065   3.509   6.459 -0.2035 -0.5593  1.2331
 4821SOL    HW225923   3.078   3.593   6.577 -0.5436 -3.3523 -0.0075
 4822SOL     OW25924   2.850   1.713  16.642  0.7462  0.2091  0.4688
 4822SOL    HW125925   2.837   1.771  16.717  0.0706  0.3703  0.2286
 4822SOL    HW225926   2.856   1.628  16.686 -2.0150  1.4650  3.3150
 4823SOL     OW25927   1.208   1.519   3.845  0.1012 -0.3160 -0.1152
 4823SOL    HW125928   1.192   1.461   3.771 -0.3573  0.9720 -1.0304
 4823SOL    HW225929   1.303   1.521   3.856  0.1346 -3.5625  0.0881
 4824SOL     OW25930   4.295   2.258   2.463  0.7646 -0.5034  0.2648
 4824SOL    HW125931   4.322   2.271   2.372  0.1296 -1.6040 -0.0853
 4824SOL    HW225932   4.208   2.298   2.464  1.4279  1.0292 -2.7722
 4825SOL     OW25933   2.612   1.377   9.443 -0.2837  0.0710  0.2659
 4825SOL    HW125934   2.628   1.314   9.373 -1.9691  0.9810 -0.9494
 4825SOL    HW225935   2.557   1.438   9.393  0.6665  0.0955 -0.7762
 4826SOL     OW25936   1.801   3.751  12.640 -0.0894 -0.6385 -0.0202
 4826SOL    HW125937   1.713   3.731  12.673 -0.3826  1.0298  0.2263
 4826SOL    HW225938   1.814   3.836  12.682  1.0215 -1.7461  1.8124
 4827SOL     OW25939   0.932   1.562   2.438 -0.0911  0.1637  0.7598
 4827SOL    HW125940   0.935   1.637   2.498 -1.1025 -2.5485  4.2012
 4827SOL    HW225941   0.974   1.604   2.363 -2.0308  4.6392  2.1536
 4828SOL     OW25942   2.867   1.762   4.220  0.1565 -0.0976 -0.2826
 4828SOL    HW125943   2.793   1.735   4.275  0.1756 -0.3987 -0.4057
 4828SOL    HW225944   2.945   1.789   4.269  1.5007 -0.4331 -2.2206
 4829SOL     OW25945   1.904   3.573   8.335 -0.5636 -0.2426 -0.1627
 4829SOL    HW125946   1.916   3.483   8.306  1.1907  1.1864 -3.8293
 4829SOL    HW225947   1.998   3.589   8.348 -0.8299 -0.6813  2.3236
 4830SOL     OW25948   3.832   1.514  10.806 -0.8786 -0.0142 -0.3070
 4830SOL    HW125949   3.909   1.493  10.753  0.0952 -1.4814  1.7128
 4830SOL    HW225950   3.874   1.571  10.869 -2.1689  0.7075 -0.1003
 4831SOL     OW25951   3.063   1.891   3.511  0.0673 -0.0976  0.0675
 4831SOL    HW125952   3.105   1.829   3.570 -0.7437 -1.1724 -0.4751
 4831SOL    HW225953   2.997   1.928   3.570  0.4184  1.1823 -0.3311
 4832SOL     OW25954   2.735   1.967  13.571 -0.1640  0.0010  0.2233
 4832SOL    HW125955   2.823   2.005  13.580  0.0289 -0.3938  0.0361
 4832SOL    HW225956   2.770   1.884  13.604  3.8606  1.0479 -1.3144
 4833SOL     OW25957   4.523   0.192   0.409  0.1645  0.1651  0.4806
 4833SOL    HW125958   4.473   0.124   0.454 -1.6695 -0.1667 -2.0607
 4833SOL    HW225959   4.611   0.188   0.446 -0.9649  2.8403  3.4013
 4834SOL     OW25960   3.208   3.392   6.743  0.3659  0.5059  0.2351
 4834SOL    HW125961   3.125   3.425   6.777  1.4357  2.0857  1.3134
 4834SOL    HW225962   3.233   3.340   6.820  1.5461 -0.1620 -0.5917
 4835SOL     OW25963   1.290   0.030  14.138 -0.4051  0.3624  0.1706
 4835SOL    HW125964   1.383   0.049  14.121 -0.6601  0.8231 -0.7094
 4835SOL    HW225965   1.297   4.681  14.205 -3.2890 -1.0200 -0.9336
 4836SOL     OW25966   1.882   0.393   3.886  0.1084 -0.6432 -0.8827
 4836SOL    HW125967   1.800   0.439   3.905  1.7980  2.3348 -0.7890
 4836SOL    HW225968   1.915   0.438   3.809  1.6687  0.2280  0.2846
 4837SOL     OW25969   1.141   1.263   2.286  0.0050  0.0693  0.3440
 4837SOL    HW125970   1.113   1.328   2.222 -0.6372 -0.6817 -0.1217
 4837SOL    HW225971   1.070   1.270   2.350 -0.1912  0.4794  0.0798
 4838SOL     OW25972   2.657   3.608   1.515  0.0924 -0.4927 -0.1178
 4838SOL    HW125973   2.676   3.521   1.478 -2.3962 -1.6445  1.3252
 4838SOL    HW225974   2.680   3.662   1.439 -0.2776  1.2803  1.0372
 4839SOL     OW25975   1.404   2.127   4.704  0.0383 -0.4317 -0.1689
 4839SOL    HW125976   1.453   2.183   4.645 -2.6962 -0.5975 -2.5587
 4839SOL    HW225977   1.325   2.127   4.651  1.3370 -1.8189 -2.0884
 4840SOL     OW25978   4.491   2.694   3.337  0.3171  0.4468 -0.0691
 4840SOL    HW125979   4.430   2.621   3.329  1.6138 -0.4237 -1.9268
 4840SOL    HW225980   4.510   2.716   3.246 -1.9766 -0.3578 -0.7530
 4841SOL     OW25981   1.592   4.378   8.625  0.0952 -0.1336  0.1789
 4841SOL    HW125982   1.655   4.371   8.697 -1.7028  1.6132  1.9179
 4841SOL    HW225983   1.504   4.386   8.662 -0.0151  2.3565 -0.6469
 4842SOL     OW25984   0.385   2.227   3.165 -0.0598 -0.2764  0.1877
 4842SOL    HW125985   0.344   2.314   3.165 -0.7703 -0.6143 -1.1952
 4842SOL    HW225986   0.374   2.215   3.259 -1.0749 -1.7137 -0.1257
 4843SOL     OW25987   2.032   2.318   4.172  0.0024 -0.0218 -0.2259
 4843SOL    HW125988   1.972   2.329   4.098  0.2832 -0.6758 -0.5459
 4843SOL    HW225989   2.006   2.230   4.201 -1.6432  0.4391 -0.2647
 4844SOL     OW25990   2.127   1.596   3.383 -0.1357 -0.0505  0.6584
 4844SOL    HW125991   2.077   1.555   3.313  1.2555 -0.3697 -0.1408
 4844SOL    HW225992   2.075   1.673   3.405  2.1790  1.2069  1.7385
 4845SOL     OW25993   2.043   0.646   1.586 -0.0123 -0.1446  0.0453
 4845SOL    HW125994   1.977   0.713   1.570  0.1858 -0.0709 -0.4539
 4845SOL    HW225995   2.069   0.668   1.675  0.1172  0.6553 -0.1925
 4846SOL     OW25996   3.965   0.272   9.009 -0.5283 -0.7401  0.1567
 4846SOL    HW125997   3.888   0.252   8.956 -0.3588  0.4224 -0.5096
 4846SOL    HW225998   3.958   0.198   9.070  1.7103  0.2132  1.5638
 4847SOL     OW25999   1.583   0.734  12.791  0.3600 -0.1803  0.3635
 4847SOL    HW126000   1.491   0.749  12.813 -0.0412 -1.5230 -0.3816
 4847SOL    HW226001   1.606   0.824  12.772 -1.6066 -0.1695 -1.9839
 4848SOL     OW26002   2.506   4.677   9.702  0.5303 -0.5739  0.1472
 4848SOL    HW126003   2.425   4.627   9.693  0.9096 -1.0065 -0.9013
 4848SOL    HW226004   2.527   4.698   9.611 -0.3628  0.0053  0.0794
 4849SOL     OW26005   1.875   2.924  12.769 -0.4882  0.1238 -0.2840
 4849SOL    HW126006   1.925   2.845  12.789  0.4583  0.0975 -2.8008
 4849SOL    HW226007   1.923   2.983  12.828  0.2423 -1.1471  0.4034
 4850SOL     OW26008   3.104   0.247  16.811 -0.2245  0.3036  0.5418
 4850SOL    HW126009   3.188   0.266  16.853  0.8413  1.4251 -2.1121
 4850SOL    HW226010   3.076   0.176  16.869 -0.3309 -1.1504 -1.2666
 4851SOL     OW26011   0.203   2.844  12.794  0.0812  0.4955  0.1850
 4851SOL    HW126012   0.200   2.940  12.793  1.1633  0.5331  1.1107
 4851SOL    HW226013   0.174   2.829  12.704 -0.5860 -1.8817  0.8116
 4852SOL     OW26014   0.360   0.348  13.427 -0.5466 -0.5707 -0.7230
 4852SOL    HW126015   0.284   0.290  13.424  1.1187 -2.7816 -0.2360
 4852SOL    HW226016   0.430   0.286  13.407 -1.1241 -1.5444  0.2767
 4853SOL     OW26017   4.715   4.640   5.564  0.2019 -0.5480  0.1407
 4853SOL    HW126018   0.050   4.591   5.502  0.3647 -0.6050  0.3245
 4853SOL    HW226019   4.667   4.566   5.601  0.4265 -2.0657 -2.6369
 4854SOL     OW26020   1.511   1.517   5.061  0.7298 -0.3822 -0.1828
 4854SOL    HW126021   1.515   1.452   5.130  0.3173 -0.1469  0.0614
 4854SOL    HW226022   1.562   1.459   5.004 -0.3089 -1.8200  0.3603
 4855SOL     OW26023   4.234   0.737   5.451  0.3371 -0.0434 -0.7207
 4855SOL    HW126024   4.273   0.669   5.507 -0.4568  0.3213  0.2776
 4855SOL    HW226025   4.157   0.687   5.425 -0.4552  0.9400 -0.2373
 4856SOL     OW26026   2.694   4.276  10.944  0.5100  0.7559  0.7535
 4856SOL    HW126027   2.607   4.311  10.928  0.6698  0.5292 -0.5678
 4856SOL    HW226028   2.739   4.274  10.860 -2.3758 -0.0862 -0.7361
 4857SOL     OW26029   3.035   1.430  12.156 -0.2608 -0.3950 -0.3316
 4857SOL    HW126030   3.056   1.337  12.157  0.0752 -0.3271 -0.8999
 4857SOL    HW226031   2.940   1.425  12.155 -0.3142  0.8234 -0.9983
 4858SOL     OW26032   4.581   1.720   9.472  0.3810  0.1378  0.1668
 4858SOL    HW126033   4.513   1.666   9.510  1.4101 -1.0133  0.3692
 4858SOL    HW226034   4.646   1.714   9.542  1.1423  2.1521 -0.3521
 4859SOL     OW26035   0.965   3.789   2.789  0.1675 -0.2577  0.3721
 4859SOL    HW126036   1.060   3.799   2.794  0.0829  0.4364  0.7047
 4859SOL    HW226037   0.943   3.879   2.764  0.8947 -0.1903 -0.0029
 4860SOL     OW26038   3.999   2.537   7.220 -0.3533 -0.6538 -0.0889
 4860SOL    HW126039   3.959   2.605   7.166  0.0039 -0.0059  0.4659
 4860SOL    HW226040   3.979   2.548   7.313  3.2398 -2.1294  0.8347
 4861SOL     OW26041   4.521   2.689  15.562 -0.2782 -0.2665  0.7334
 4861SOL    HW126042   4.576   2.612  15.572 -1.5924 -1.3746 -0.5343
 4861SOL    HW226043   4.537   2.708  15.470  2.5301 -1.9180  0.9036
 4862SOL     OW26044   2.363   4.103   6.637  0.1277 -0.6449 -0.1078
 4862SOL    HW126045   2.403   4.080   6.721 -2.8394  0.9599  1.7684
 4862SOL    HW226046   2.306   4.173   6.670 -0.2920 -1.2553  0.4646
 4863SOL     OW26047   1.364   3.106   8.491 -0.1462  0.1212 -0.4579
 4863SOL    HW126048   1.370   3.095   8.396 -1.3289  0.5193 -0.5816
 4863SOL    HW226049   1.335   3.195   8.509 -2.5619 -0.6630 -0.4282
 4864SOL     OW26050   1.278   4.025   3.977 -0.9592  0.0019  0.4333
 4864SOL    HW126051   1.286   4.115   3.943  0.0430  0.2810  1.3882
 4864SOL    HW226052   1.183   4.018   3.979 -0.9102 -0.7595 -0.0587
 4865SOL     OW26053   2.691   4.254   8.660  0.3643  0.7806  0.2833
 4865SOL    HW126054   2.617   4.299   8.700  1.1199  1.9704  0.3556
 4865SOL    HW226055   2.673   4.282   8.570  1.0024  0.8259  0.1649
 4866SOL     OW26056   2.672   4.569   3.124 -0.1304 -0.0715  0.0602
 4866SOL    HW126057   2.606   4.549   3.191 -0.0555 -0.0254  0.1473
 4866SOL    HW226058   2.627   4.643   3.083  1.2271  0.3658 -0.6252
 4867SOL     OW26059   1.459   1.693   5.370 -0.3453 -0.6824 -0.6032
 4867SOL    HW126060   1.552   1.694   5.344 -0.0798  1.1235  0.4272
 4867SOL    HW226061   1.454   1.787   5.386  0.5007 -0.3402 -2.3582
 4868SOL     OW26062   0.585   1.324   3.295 -0.0008 -0.2220 -0.2523
 4868SOL    HW126063   0.532   1.403   3.285 -0.3262 -0.4311 -0.1650
 4868SOL    HW226064   0.522   1.256   3.319  1.2874 -1.3373 -0.0202
 4869SOL     OW26065   4.575   2.394  15.729  0.3115  0.1039  0.3567
 4869SOL    HW126066   4.550   2.302  15.718  0.8044 -0.1718  1.6175
 4869SOL    HW226067   4.495   2.431  15.766 -0.2806 -1.8196  0.9603
 4870SOL     OW26068   4.435   2.305   4.924  0.1469 -0.3925 -0.0472
 4870SOL    HW126069   4.397   2.225   4.961  0.5535 -0.4217  0.3123
 4870SOL    HW226070   4.358   2.362   4.913 -0.3687 -0.7564  1.5888
 4871SOL     OW26071   2.401   4.702   7.465 -0.4177  0.3268  0.0800
 4871SOL    HW126072   2.460   0.053   7.436  4.2529 -3.7262 -0.1394
 4871SOL    HW226073   2.434   4.636   7.404 -0.5591 -1.9923  2.5097
 4872SOL     OW26074   2.378   0.401   3.655 -0.1925  0.1531  0.6241
 4872SOL    HW126075   2.342   0.477   3.700 -2.6414  0.5155 -1.9475
 4872SOL    HW226076   2.471   0.407   3.679 -1.0306  0.0376  3.8118
 4873SOL     OW26077   1.462   2.102   9.354  0.5843  0.2415  0.3917
 4873SOL    HW126078   1.387   2.114   9.412 -0.3143 -2.1826 -0.2659
 4873SOL    HW226079   1.535   2.070   9.407  0.9047  0.8474  0.3223
 4874SOL     OW26080   0.373   1.983   9.239  0.2205  0.6149 -0.2763
 4874SOL    HW126081   0.403   2.074   9.248  1.9615  0.0131 -0.2250
 4874SOL    HW226082   0.455   1.936   9.245 -0.6952 -0.7014  1.7950
 4875SOL     OW26083   1.143   0.901   2.458 -0.5684  0.2977 -0.2443
 4875SOL    HW126084   1.074   0.850   2.417 -0.8841 -0.2975  1.0320
 4875SOL    HW226085   1.220   0.844   2.460 -0.5551  0.2983 -0.6953
 4876SOL     OW26086   2.726   0.447   6.143  0.0171  0.2282  0.1898
 4876SOL    HW126087   2.784   0.521   6.156  2.1324 -1.4818  0.4841
 4876SOL    HW226088   2.707   0.414   6.232  1.0606 -2.0123 -0.4090
 4877SOL     OW26089   3.079   0.094   3.941 -0.4684 -0.8693  0.8488
 4877SOL    HW126090   3.144   0.147   3.987 -0.3318 -0.9947  0.8010
 4877SOL    HW226091   3.026   0.062   4.013  0.3761 -1.5006  1.1967
 4878SOL     OW26092   2.854   2.845   3.190  0.2106 -0.1901  0.2942
 4878SOL    HW126093   2.811   2.886   3.115  1.0722 -2.3189 -1.3663
 4878SOL    HW226094   2.881   2.756   3.167 -0.8315 -0.7967  1.4181
 4879SOL     OW26095   4.244   3.534   7.387 -0.4168  0.2864  0.2820
 4879SOL    HW126096   4.328   3.507   7.425 -1.3310 -1.9369  0.6899
 4879SOL    HW226097   4.249   3.629   7.403  0.2130  0.3083 -0.0089
 4880SOL     OW26098   1.780   4.522   4.280  0.2452 -0.5032 -0.3800
 4880SOL    HW126099   1.812   4.593   4.335  1.3956  0.4434 -2.2846
 4880SOL    HW226100   1.729   4.487   4.353  1.8164 -1.6656  0.1770
 4881SOL     OW26101   1.486   1.712  15.238  0.0668  0.1829 -0.0646
 4881SOL    HW126102   1.550   1.734  15.306  0.5571  2.8224 -1.3843
 4881SOL    HW226103   1.488   1.792  15.186 -0.7733  0.5849  0.5085
 4882SOL     OW26104   1.719   2.597  12.693 -0.1267 -0.9416  0.3292
 4882SOL    HW126105   1.733   2.534  12.622  3.2611  1.2877 -0.9774
 4882SOL    HW226106   1.738   2.673  12.638  0.4956 -0.6021  1.0149
 4883SOL     OW26107   0.529   3.420  11.355 -0.2436  0.2006  0.1870
 4883SOL    HW126108   0.496   3.332  11.336 -0.1178  0.1529  0.1912
 4883SOL    HW226109   0.595   3.440  11.288 -0.3554  1.9222  0.6001
 4884SOL     OW26110   0.072   1.633   2.503 -0.7267  0.4372 -0.5574
 4884SOL    HW126111   0.085   1.688   2.581  0.1661 -0.3696 -0.1364
 4884SOL    HW226112   4.695   1.630   2.499 -0.6189 -1.6212 -1.4692
 4885SOL     OW26113   4.698   2.480   8.583 -0.5784  0.0687 -0.0251
 4885SOL    HW126114   4.609   2.514   8.577 -0.7330  0.4147  4.2629
 4885SOL    HW226115   0.017   2.545   8.642 -0.8741 -0.9892  1.3394
 4886SOL     OW26116   1.431   2.019   9.752 -0.2420 -0.0782  0.2343
 4886SOL    HW126117   1.495   1.996   9.685  1.0092  1.6298  0.8507
 4886SOL    HW226118   1.425   2.114   9.763  0.3751 -0.1974  1.7304
 4887SOL     OW26119   3.017   4.219   2.224 -0.5790  0.0434  0.5662
 4887SOL    HW126120   3.036   4.265   2.142 -0.6485 -0.8348  0.0688
 4887SOL    HW226121   2.923   4.203   2.217  0.2315 -2.9597 -2.9862
 4888SOL     OW26122   3.851   0.632   7.903 -0.3018  0.1405  0.1706
 4888SOL    HW126123   3.912   0.705   7.915  0.8062 -1.0789  1.8508
 4888SOL    HW226124   3.851   0.596   7.991 -1.6420 -0.6888 -0.1601
 4889SOL     OW26125   0.760   3.131   4.711 -0.3150  0.1415 -0.2555
 4889SOL    HW126126   0.834   3.154   4.656  0.3467  0.4544  0.7514
 4889SOL    HW226127   0.731   3.046   4.678 -3.0607  1.1351 -0.3498
 4890SOL     OW26128   1.557   1.687   0.474  0.4422 -0.5059  0.3119
 4890SOL    HW126129   1.472   1.644   0.483  0.9330 -1.4830  0.3103
 4890SOL    HW226130   1.532   1.774   0.442 -0.3662 -1.4689 -1.6781
 4891SOL     OW26131   1.297   0.417  10.388 -0.5854 -0.3113  0.2031
 4891SOL    HW126132   1.351   0.447  10.315 -2.7361 -1.1218 -1.6887
 4891SOL    HW226133   1.227   0.370  10.343 -0.6621 -0.3356  0.3484
 4892SOL     OW26134   0.601   2.897   6.997  0.0455 -0.1424 -0.5602
 4892SOL    HW126135   0.558   2.817   6.969 -1.1806 -0.2782  1.6753
 4892SOL    HW226136   0.684   2.875   6.955  1.6685 -1.7207  3.4516
 4893SOL     OW26137   1.551   4.531  13.653  0.8560  0.2169 -0.0194
 4893SOL    HW126138   1.517   4.442  13.663 -0.0578  0.6262  0.5015
 4893SOL    HW226139   1.611   4.523  13.578 -0.0178 -3.6612 -0.3297
 4894SOL     OW26140   1.800   4.205  16.860  0.5661  0.4883 -0.1814
 4894SOL    HW126141   1.843   4.206  16.945 -2.3416 -1.6821  1.3141
 4894SOL    HW226142   1.773   4.297  16.857 -1.4495 -0.1367 -1.0860
 4895SOL     OW26143   3.134   4.697  13.093  0.5027  0.5177  0.3941
 4895SOL    HW126144   3.227   4.677  13.105 -0.0779 -3.8325 -2.3123
 4895SOL    HW226145   3.089   4.612  13.103 -2.3937  1.9362 -0.5310
 4896SOL     OW26146   0.000   3.346   5.843  0.4697 -0.2477  0.0353
 4896SOL    HW126147   4.636   3.366   5.800  0.0064  0.1775  1.1243
 4896SOL    HW226148   0.008   3.251   5.834 -1.9103 -0.4497  0.1109
 4897SOL     OW26149   0.332   1.050  13.051 -0.1051 -0.1515 -0.5241
 4897SOL    HW126150   0.338   1.073  12.958  0.8682 -0.0825 -0.4382
 4897SOL    HW226151   0.262   0.986  13.039  1.2588 -1.9263  1.0900
 4898SOL     OW26152   0.757   4.426   8.727 -0.3311 -0.3014  0.2296
 4898SOL    HW126153   0.819   4.424   8.654 -0.0821 -2.8489  0.5080
 4898SOL    HW226154   0.790   4.501   8.776  0.4634  0.6007 -1.6984
 4899SOL     OW26155   3.375   1.017   9.981  0.3959 -0.1875  0.3104
 4899SOL    HW126156   3.428   1.054  10.052 -0.7594 -2.0195  2.1260
 4899SOL    HW226157   3.369   0.931  10.023 -2.3328 -0.1038  0.0983
 4900SOL     OW26158   2.935   2.600   0.365 -0.7888 -0.8327  0.4724
 4900SOL    HW126159   3.029   2.581   0.356 -0.2632  1.9637  0.0172
 4900SOL    HW226160   2.905   2.629   0.279  0.0964 -1.5858 -0.0913
 4901SOL     OW26161   4.309   4.583   8.226  0.4683  0.6572 -0.0502
 4901SOL    HW126162   4.405   4.590   8.231  0.5252 -0.4140  0.2968
 4901SOL    HW226163   4.304   4.504   8.173 -0.6555 -1.4364  3.1852
 4902SOL     OW26164   4.147   2.513   2.833 -0.1777  0.3365 -0.2600
 4902SOL    HW126165   4.212   2.505   2.764  0.4275  0.6285  0.2730
 4902SOL    HW226166   4.063   2.532   2.792 -0.5413  2.2814  1.3601
 4903SOL     OW26167   4.508   0.097   3.782 -0.7520 -0.3796  0.9077
 4903SOL    HW126168   4.477   0.118   3.870 -1.2491 -0.6335  0.7958
 4903SOL    HW226169   4.595   0.135   3.776 -0.9744 -0.0996 -0.5843
 4904SOL     OW26170   2.124   3.698   3.022 -0.4186 -0.8012 -0.0831
 4904SOL    HW126171   2.165   3.648   2.953  2.4948  0.5079  0.7120
 4904SOL    HW226172   2.049   3.641   3.038  1.3594 -2.6908  1.4846
 4905SOL     OW26173   4.177   4.373  11.409 -0.3784  0.2846  0.1220
 4905SOL    HW126174   4.241   4.434  11.373  0.2874 -0.3260  0.2882
 4905SOL    HW226175   4.184   4.298  11.349  1.1668 -1.5994  2.6871
 4906SOL     OW26176   3.232   1.148   9.597  0.1463  0.1087 -0.5071
 4906SOL    HW126177   3.198   1.069   9.556  1.1515  1.3253 -3.6906
 4906SOL    HW226178   3.145   1.185   9.612 -0.1190 -1.4218  1.7387
 4907SOL     OW26179   1.762   1.526  15.078  0.1000 -0.4625 -0.1247
 4907SOL    HW126180   1.756   1.596  15.142 -0.6906 -0.7883  0.1590
 4907SOL    HW226181   1.850   1.494  15.097  0.6787  0.2013 -1.6658
 4908SOL     OW26182   1.577   2.007   4.887  0.2475  0.2323  0.0962
 4908SOL    HW126183   1.660   2.009   4.839 -0.0898  1.0726 -0.4544
 4908SOL    HW226184   1.536   2.071   4.828 -2.0601 -2.9816 -1.7300
 4909SOL     OW26185   1.672   0.438  15.410 -0.3521 -0.1831  0.4850
 4909SOL    HW126186   1.609   0.508  15.394  2.0201  1.2789 -2.4591
 4909SOL    HW226187   1.623   0.382  15.471 -1.3213  1.4264  1.1595
 4910SOL     OW26188   1.468   4.677   2.881 -0.5442 -0.0101  0.2289
 4910SOL    HW126189   1.547   4.694   2.931 -0.0756  0.4152 -0.6727
 4910SOL    HW226190   1.493   4.610   2.817  1.2248  0.9085 -0.0060
 4911SOL     OW26191   4.238   0.147  13.026  0.1470 -0.4044  0.4351
 4911SOL    HW126192   4.179   0.103  12.965 -1.4304  2.5752 -0.1991
 4911SOL    HW226193   4.201   0.236  13.023  0.7658 -0.1123  1.4568
 4912SOL     OW26194   2.959   0.320   4.681  0.3944  0.6142 -0.4623
 4912SOL    HW126195   2.966   0.253   4.612  1.0536  0.3262 -0.1212
 4912SOL    HW226196   2.878   0.365   4.660 -0.0267  0.5044  0.9285
 4913SOL     OW26197   0.581   2.940   9.024  0.4042 -0.2391 -0.3469
 4913SOL    HW126198   0.603   2.955   8.931  1.7964 -0.5487 -0.0695
 4913SOL    HW226199   0.636   3.011   9.058 -1.5847  1.6216 -0.9797
 4914SOL     OW26200   4.181   3.273   3.373  0.2737 -0.3972  0.1582
 4914SOL    HW126201   4.096   3.229   3.372  0.6515 -1.1475  1.3108
 4914SOL    HW226202   4.155   3.358   3.338  1.7875 -0.6111 -1.5469
 4915SOL     OW26203   3.163   1.076  10.257  0.4936 -0.1538 -0.0909
 4915SOL    HW126204   3.122   1.081  10.344  0.1132 -0.4245 -0.2561
 4915SOL    HW226205   3.082   1.096  10.210  0.8686  0.7475 -0.3653
 4916SOL     OW26206   3.569   0.404   6.756  0.0060  0.0308 -0.7001
 4916SOL    HW126207   3.561   0.371   6.845 -0.3157 -2.0467 -1.4746
 4916SOL    HW226208   3.572   0.322   6.706  1.7417 -0.1398 -0.3116
 4917SOL     OW26209   0.667   2.263   5.837 -0.0760 -0.1238  0.1679
 4917SOL    HW126210   0.675   2.168   5.847  0.0010 -0.3240 -1.6899
 4917SOL    HW226211   0.759   2.288   5.835 -0.3480  0.9750  1.5081
 4918SOL     OW26212   2.456   4.420   2.753  0.3033  0.6580  0.0798
 4918SOL    HW126213   2.397   4.354   2.789  1.6914  0.1088  1.3274
 4918SOL    HW226214   2.526   4.411   2.818 -2.0053  1.1779  2.6369
 4919SOL     OW26215   4.450   3.085   9.485 -0.2783  0.0564 -0.3090
 4919SOL    HW126216   4.377   3.042   9.531  1.5074 -1.3283  1.2498
 4919SOL    HW226217   4.435   3.178   9.500 -0.5615 -0.5009  2.9682
 4920SOL     OW26218   1.658   2.921   7.507  0.3125  0.4517  0.5143
 4920SOL    HW126219   1.694   2.924   7.596  1.9869 -1.5845 -0.0782
 4920SOL    HW226220   1.727   2.963   7.455  2.1229 -1.4097  1.3843
 4921SOL     OW26221   1.613   2.136  17.284  0.5651 -0.8167  0.4387
 4921SOL    HW126222   1.698   2.181  17.292 -0.8707  1.9222  0.2144
 4921SOL    HW226223   1.613   2.110  17.192  1.6504 -0.5785  0.3663
 4922SOL     OW26224   0.726   1.245  13.820  0.3102 -0.6582 -0.2261
 4922SOL    HW126225   0.728   1.340  13.823  2.0686 -0.6991 -0.0412
 4922SOL    HW226226   0.759   1.230  13.731  2.4492  0.7827  0.3387
 4923SOL     OW26227   2.007   2.924   0.315  0.2776  0.4657 -0.0140
 4923SOL    HW126228   2.086   2.871   0.328 -0.6915 -0.3981  2.2619
 4923SOL    HW226229   2.007   2.989   0.385  0.5596 -0.0600  0.4774
 4924SOL     OW26230   2.946   1.375   3.086  0.4024 -0.4469  0.5672
 4924SOL    HW126231   2.968   1.416   3.169  1.5787 -1.1227  0.5850
 4924SOL    HW226232   2.907   1.452   3.044 -0.2985 -0.0452  1.9515
 4925SOL     OW26233   3.437   1.247   8.486  0.1542  0.3483 -0.0580
 4925SOL    HW126234   3.444   1.160   8.526 -1.2700 -0.7750 -2.2594
 4925SOL    HW226235   3.506   1.241   8.420 -0.9614  0.1456 -1.1975
 4926SOL     OW26236   3.048   3.277   5.554  0.5217  0.2992  0.3808
 4926SOL    HW126237   3.129   3.254   5.599  0.7138  0.5722  0.1714
 4926SOL    HW226238   3.043   3.371   5.574  2.9463 -0.1913  3.2120
 4927SOL     OW26239   1.712   3.870   2.512  0.2700  0.0736 -0.2888
 4927SOL    HW126240   1.657   3.893   2.437 -1.5508 -1.0753  0.6926
 4927SOL    HW226241   1.694   3.948   2.564  1.4530  0.1895 -0.0753
 4928SOL     OW26242   3.073   2.447  16.223 -0.2129 -0.6658 -0.3544
 4928SOL    HW126243   3.145   2.390  16.248 -1.2192 -1.3731  0.9560
 4928SOL    HW226244   2.995   2.407  16.262 -0.2095 -0.0378  0.3149
 4929SOL     OW26245   3.642   3.614  10.462  0.8048  0.0688  0.4850
 4929SOL    HW126246   3.612   3.523  10.468  1.0790  0.0179  1.1437
 4929SOL    HW226247   3.697   3.593  10.386  0.5535  0.5330  0.1759
 4930SOL     OW26248   4.024   3.462   5.300  0.8312 -0.3061  0.1468
 4930SOL    HW126249   4.100   3.514   5.273  0.3669 -0.4141 -1.3505
 4930SOL    HW226250   4.015   3.407   5.222 -1.0977  0.1825  0.0346
 4931SOL     OW26251   0.615   4.144   5.827  0.6957  0.0126 -0.5579
 4931SOL    HW126252   0.585   4.203   5.897  2.3378 -0.2437  0.3803
 4931SOL    HW226253   0.658   4.206   5.769  0.0543  2.1439  1.2326
 4932SOL     OW26254   1.264   2.976   6.771 -0.3701 -0.1910 -0.4493
 4932SOL    HW126255   1.285   2.896   6.818 -0.4345 -0.4424 -0.8441
 4932SOL    HW226256   1.276   3.041   6.839 -0.7224 -0.0647 -0.5049
 4933SOL     OW26257   2.608   1.681  12.011 -0.5000 -0.1232  0.0059
 4933SOL    HW126258   2.640   1.727  12.089 -0.6131 -0.2504  0.1277
 4933SOL    HW226259   2.574   1.596  12.041  0.6111 -0.7453 -0.5168
 4934SOL     OW26260   0.013   3.554   7.239 -0.6503 -0.1031 -0.0698
 4934SOL    HW126261   0.050   3.625   7.187 -1.2834  0.4124  0.1836
 4934SOL    HW226262   0.060   3.480   7.199  0.9717  0.2692  1.1157
 4935SOL     OW26263   1.934   1.889   5.842 -0.3326 -0.1806 -0.3070
 4935SOL    HW126264   1.991   1.813   5.832  0.2445 -0.1237  2.5188
 4935SOL    HW226265   1.989   1.943   5.899 -0.1782  0.2099 -0.8172
 4936SOL     OW26266   1.568   3.653   2.984 -0.7654 -0.0560  0.1516
 4936SOL    HW126267   1.554   3.747   2.996  1.8368  0.4554 -0.8689
 4936SOL    HW226268   1.658   3.639   3.012 -0.6125 -0.3869 -0.5026
 4937SOL     OW26269   0.526   1.753  17.673  0.6499  0.1603  0.3906
 4937SOL    HW126270   0.541   1.842  17.642  1.1969 -0.7627 -1.9851
 4937SOL    HW226271   0.569   1.691  17.614 -1.3214 -0.1559 -0.7174
 4938SOL     OW26272   4.487   0.362   4.256  0.1226  0.6063 -0.4637
 4938SOL    HW126273   4.394   0.367   4.278  0.0434 -1.0030 -0.4411
 4938SOL    HW226274   4.477   0.298   4.185  1.1800  2.6253 -2.4575
 4939SOL     OW26275   2.523   1.833   9.948 -0.3318 -0.2585 -0.0812
 4939SOL    HW126276   2.557   1.916   9.979 -2.2157  1.1741 -1.8745
 4939SOL    HW226277   2.570   1.773  10.006  0.1298 -0.7787 -0.9863
 4940SOL     OW26278   0.602   3.113   5.805  0.0354  0.0312 -0.3323
 4940SOL    HW126279   0.558   3.196   5.824  0.2314 -0.0570  0.5418
 4940SOL    HW226280   0.539   3.048   5.838 -0.9109  1.6612  1.0998
 4941SOL     OW26281   1.090   3.654   1.439  0.2894  0.0742  0.2455
 4941SOL    HW126282   1.180   3.621   1.445  0.0182 -0.2389  2.7992
 4941SOL    HW226283   1.062   3.623   1.353  0.7200 -0.5654  0.3304
 4942SOL     OW26284   0.019   1.010   2.758 -0.6355  0.1446 -0.2130
 4942SOL    HW126285   4.648   1.010   2.726 -0.7761  0.6376  0.1925
 4942SOL    HW226286   0.037   0.931   2.810  4.4308  1.2444 -0.2768
 4943SOL     OW26287   1.280   1.566   7.129  0.3666 -0.1313  0.0765
 4943SOL    HW126288   1.328   1.642   7.161 -0.1403  1.1295 -2.1805
 4943SOL    HW226289   1.239   1.523   7.204 -0.2333  1.2306  0.5287
 4944SOL     OW26290   3.958   3.107   3.314 -0.0328 -0.0635 -0.3328
 4944SOL    HW126291   3.984   3.021   3.281 -2.5625 -1.2615  0.7764
 4944SOL    HW226292   3.904   3.142   3.244  1.1427 -0.8399 -1.6230
 4945SOL     OW26293   0.838   3.768   1.205 -0.1103  0.3009  0.4552
 4945SOL    HW126294   0.898   3.694   1.207  0.1310  0.4905  0.2019
 4945SOL    HW226295   0.765   3.722   1.164  0.2823 -1.4537  1.6935
 4946SOL     OW26296   3.403   3.939   3.725 -0.4980  0.6383 -0.5400
 4946SOL    HW126297   3.353   3.906   3.800 -0.8489 -0.4250 -1.2338
 4946SOL    HW226298   3.381   4.031   3.740  1.7765  1.0113  0.5784
 4947SOL     OW26299   2.784   1.354   0.415  0.4814 -0.0750 -0.3771
 4947SOL    HW126300   2.829   1.437   0.424 -0.7682  0.2655  2.7524
 4947SOL    HW226301   2.756   1.373   0.326  3.9144 -1.1626 -1.6797
 4948SOL     OW26302   2.969   3.180   5.092  0.0733 -0.3114  0.1785
 4948SOL    HW126303   3.045   3.160   5.147 -0.2567 -1.3358  0.2656
 4948SOL    HW226304   2.912   3.210   5.164  0.6118  0.7614  0.1611
 4949SOL     OW26305   0.454   4.403   2.274  0.6654  0.5263 -0.1339
 4949SOL    HW126306   0.384   4.456   2.312  0.4408 -0.1990  0.4733
 4949SOL    HW226307   0.525   4.466   2.259  0.2384  1.5642  2.1206
 4950SOL     OW26308   1.591   4.029  14.256 -0.3308 -0.4508  0.0486
 4950SOL    HW126309   1.593   4.124  14.264  0.0659 -0.5303  0.8714
 4950SOL    HW226310   1.637   4.007  14.337  1.0281 -0.2390 -0.6467
 4951SOL     OW26311   3.941   0.796  11.037 -0.1275  0.1190 -0.5587
 4951SOL    HW126312   3.924   0.732  11.107  0.9903 -0.7382 -1.0581
 4951SOL    HW226313   4.007   0.744  10.990 -1.3803  0.4427 -2.6154
 4952SOL     OW26314   4.005   2.136   6.689  0.2551  0.1562  0.1118
 4952SOL    HW126315   4.006   2.040   6.689  0.6269  0.1575 -0.7779
 4952SOL    HW226316   4.078   2.146   6.628  2.2214  0.2065  2.4798
 4953SOL     OW26317   1.282   4.333   2.109  0.0123 -0.1121  0.4087
 4953SOL    HW126318   1.203   4.327   2.056  0.6495  1.7277 -0.7557
 4953SOL    HW226319   1.325   4.405   2.062  0.1841  1.1003  2.3949
 4954SOL     OW26320   1.543   2.174   8.863  0.4129 -0.9321 -0.4565
 4954SOL    HW126321   1.593   2.223   8.798 -2.0693  1.7379 -0.3418
 4954SOL    HW226322   1.550   2.213   8.950 -0.6293 -1.0524 -0.3202
 4955SOL     OW26323   3.006   1.228   6.170  0.2163 -0.2649  0.2975
 4955SOL    HW126324   2.962   1.191   6.247 -2.8648  1.3018 -0.7031
 4955SOL    HW226325   3.015   1.150   6.117 -0.7893  0.9427 -1.6581
 4956SOL     OW26326   0.109   4.196  10.467  0.4595  0.5754  0.1051
 4956SOL    HW126327   0.097   4.142  10.545  0.3506 -1.5446 -1.3825
 4956SOL    HW226328   0.202   4.205  10.446  0.8333 -2.1090  0.5817
 4957SOL     OW26329   2.572   0.942   3.683  0.0051  0.3888  0.4182
 4957SOL    HW126330   2.541   0.860   3.721  0.7813  1.0955  2.6031
 4957SOL    HW226331   2.546   0.933   3.592 -0.5454 -0.9580  0.7107
 4958SOL     OW26332   4.698   2.447   6.474 -0.3854  0.6314 -0.7658
 4958SOL    HW126333   4.616   2.435   6.523  0.3312  0.5522  0.4054
 4958SOL    HW226334   4.708   2.361   6.435 -1.8914 -0.5224  1.3531
 4959SOL     OW26335   3.981   3.054   9.146  0.7664  0.3683  0.2033
 4959SOL    HW126336   4.033   3.098   9.212  1.0500  0.5080 -0.1103
 4959SOL    HW226337   3.981   2.962   9.172  0.0279 -0.3605 -2.3449
 4960SOL     OW26338   2.643   1.973  11.221  0.6401 -0.4233  0.1154
 4960SOL    HW126339   2.660   2.011  11.135 -1.4178  0.4338  0.0739
 4960SOL    HW226340   2.648   2.055  11.271 -1.3309 -0.6993  0.7771
 4961SOL     OW26341   1.186   1.875   4.775 -0.1824  0.7518 -0.0978
 4961SOL    HW126342   1.275   1.906   4.757  0.0745  0.6830  1.0294
 4961SOL    HW226343   1.133   1.940   4.728  1.5756  1.0923 -1.5940
 4962SOL     OW26344   3.400   4.429   0.588  0.0113 -0.7431  0.1453
 4962SOL    HW126345   3.395   4.383   0.672  0.4518 -2.2619 -0.6688
 4962SOL    HW226346   3.339   4.500   0.609  0.1129 -0.4984 -0.3971
 4963SOL     OW26347   2.155   2.168  15.284  0.1957  0.2738  0.6551
 4963SOL    HW126348   2.062   2.143  15.283  0.0028  1.1277 -2.3385
 4963SOL    HW226349   2.162   2.261  15.260 -0.9351  0.1684 -0.1062
 4964SOL     OW26350   4.545   2.202   3.716  0.6030 -0.3456  0.0777
 4964SOL    HW126351   4.520   2.225   3.626 -0.1350 -0.0292  0.3613
 4964SOL    HW226352   4.553   2.289   3.755  1.3416 -0.0968 -0.6335
 4965SOL     OW26353   1.117   3.136   7.836  0.3172 -0.2998  0.2539
 4965SOL    HW126354   1.148   3.070   7.775  3.4524 -0.2962  1.8351
 4965SOL    HW226355   1.086   3.198   7.771  1.6758 -0.3760 -0.4709
 4966SOL     OW26356   4.038   1.607   9.321  0.3714  0.2010 -0.0552
 4966SOL    HW126357   4.102   1.672   9.295  0.3281 -0.2141 -1.1922
 4966SOL    HW226358   4.055   1.593   9.414 -0.5116  0.6668  0.1742
 4967SOL     OW26359   1.903   1.216   5.748  0.6897 -0.0530  0.0505
 4967SOL    HW126360   1.971   1.206   5.681  0.5843  2.3653 -0.4328
 4967SOL    HW226361   1.922   1.133   5.791 -0.1177 -1.2152 -1.8031
 4968SOL     OW26362   1.621   2.304  11.009 -0.1299  0.4046 -0.2826
 4968SOL    HW126363   1.565   2.324  10.934  1.5303  2.3287 -0.9964
 4968SOL    HW226364   1.666   2.387  10.999 -0.9818  1.0904  1.5389
 4969SOL     OW26365   3.700   0.763   1.966  0.5116 -0.1050  0.7005
 4969SOL    HW126366   3.666   0.783   2.053 -1.3842 -1.2741  0.2284
 4969SOL    HW226367   3.638   0.695   1.937 -0.1128  0.6650  0.2429
 4970SOL     OW26368   3.864   1.802   3.851  0.2859  0.3186 -0.2620
 4970SOL    HW126369   3.888   1.777   3.940 -2.6394 -0.8408  0.1735
 4970SOL    HW226370   3.799   1.733   3.839  0.7665 -0.0456 -0.8391
 4971SOL     OW26371   0.264   3.452   2.714  0.3190 -0.3972  0.1487
 4971SOL    HW126372   0.273   3.366   2.755  0.2893  0.0375  1.0547
 4971SOL    HW226373   0.264   3.429   2.621  1.1301 -1.2510  0.3659
 4972SOL     OW26374   0.573   4.376   5.365  0.3704 -0.1556 -0.1836
 4972SOL    HW126375   0.571   4.282   5.349 -3.1071  0.0748 -1.1290
 4972SOL    HW226376   0.652   4.401   5.316 -0.4731  1.1640 -0.8712
 4973SOL     OW26377   0.096   1.164   8.202 -0.6882 -0.2012  0.3334
 4973SOL    HW126378   0.039   1.202   8.135 -0.4885 -0.7149 -0.1315
 4973SOL    HW226379   0.036   1.120   8.260 -1.3045  0.8418  0.4919
 4974SOL     OW26380   2.151   0.281   2.570 -0.1875  0.0966  0.3009
 4974SOL    HW126381   2.135   0.367   2.607  1.2003  0.9219 -0.9966
 4974SOL    HW226382   2.210   0.295   2.495 -1.7262 -2.4860 -1.3937
 4975SOL     OW26383   2.435   2.045   1.144 -0.0941 -0.0431 -0.0154
 4975SOL    HW126384   2.422   2.139   1.131  1.9923  0.1291 -0.8711
 4975SOL    HW226385   2.449   2.045   1.239  2.0792 -0.5240 -0.3383
 4976SOL     OW26386   3.941   4.661   8.037  0.1210 -0.2896  0.5822
 4976SOL    HW126387   3.946   4.579   7.988  1.0042 -0.6587  1.3021
 4976SOL    HW226388   3.996   4.714   7.979  1.2625  2.2060  3.9539
 4977SOL     OW26389   2.509   0.154   4.190 -0.2339 -0.6232  0.0196
 4977SOL    HW126390   2.497   0.211   4.114  1.2848  0.4670  0.6121
 4977SOL    HW226391   2.531   0.064   4.166  1.3955 -0.1183 -0.3228
 4978SOL     OW26392   3.787   2.510  12.740 -0.0389 -0.4223  0.3469
 4978SOL    HW126393   3.747   2.581  12.690  0.3515 -1.2991 -1.2371
 4978SOL    HW226394   3.792   2.530  12.833 -1.4234  1.2582  0.0613
 4979SOL     OW26395   3.851   1.308   3.688  0.0142  0.3183 -0.2321
 4979SOL    HW126396   3.788   1.267   3.629 -0.1994 -2.6524  2.0409
 4979SOL    HW226397   3.889   1.371   3.628 -0.4351  1.5272  0.7508
 4980SOL     OW26398   2.940   0.984   6.588 -0.5856  0.3099 -0.0295
 4980SOL    HW126399   2.955   1.066   6.635 -2.6988 -0.0969  1.3589
 4980SOL    HW226400   3.016   0.934   6.617 -0.9090  0.7871  1.6715
 4981SOL     OW26401   4.144   2.745   2.994 -0.4184  0.4625  0.0062
 4981SOL    HW126402   4.182   2.797   2.923  0.6503  0.2563  0.4206
 4981SOL    HW226403   4.134   2.665   2.943  0.8867  0.5645 -0.4178
 4982SOL     OW26404   3.311   2.382   0.707 -0.1965 -0.5061 -0.5125
 4982SOL    HW126405   3.276   2.338   0.785  0.8174 -0.1768  0.1156
 4982SOL    HW226406   3.261   2.463   0.698 -0.9591 -1.1383 -2.1963
 4983SOL     OW26407   0.585   2.052   7.519  0.7114 -0.3152 -0.0600
 4983SOL    HW126408   0.643   2.010   7.582  2.2625 -2.2755 -2.7584
 4983SOL    HW226409   0.634   2.131   7.498 -1.8642  1.2019 -0.3207
 4984SOL     OW26410   3.129   0.818   6.756 -0.1891  0.1699 -0.6803
 4984SOL    HW126411   3.158   0.874   6.829  1.0896 -0.5646 -0.6179
 4984SOL    HW226412   3.163   0.735   6.789  0.1718  0.4869 -0.2596
 4985SOL     OW26413   3.997   0.377   5.079  0.1279  0.1510 -0.1340
 4985SOL    HW126414   3.920   0.429   5.103 -0.5877 -0.8138 -0.3340
 4985SOL    HW226415   3.946   0.300   5.052  1.7799 -0.6420 -1.0004
 4986SOL     OW26416   0.958   1.868   2.925 -0.1354 -0.0761  0.0284
 4986SOL    HW126417   0.866   1.879   2.901  0.0229  1.1743 -0.0062
 4986SOL    HW226418   0.966   1.776   2.948  0.7943  0.3604  1.4927
 4987SOL     OW26419   2.598   1.731   4.342  0.0063 -0.0771  0.1406
 4987SOL    HW126420   2.541   1.659   4.367 -1.1395 -0.3054 -3.2410
 4987SOL    HW226421   2.563   1.798   4.400 -0.9629  0.2118 -0.7770
 4988SOL     OW26422   1.393   0.093   4.010 -0.0883  0.0677  0.5297
 4988SOL    HW126423   1.409   0.177   4.053 -0.5823 -0.1015  1.0438
 4988SOL    HW226424   1.374   0.043   4.090  1.3329 -0.2047  0.6936
 4989SOL     OW26425   2.557   3.760   5.945 -0.5855 -0.1183  0.3145
 4989SOL    HW126426   2.563   3.803   5.860 -2.5642 -1.6642 -0.6011
 4989SOL    HW226427   2.639   3.786   5.988 -1.0090 -0.0816  1.0809
 4990SOL     OW26428   4.354   4.433  15.168 -0.4108  0.0233  0.0984
 4990SOL    HW126429   4.403   4.514  15.178 -1.5087  0.9501 -2.0543
 4990SOL    HW226430   4.417   4.378  15.214  1.1732  0.2370 -1.8258
 4991SOL     OW26431   0.621   1.202  12.767 -0.1996  0.0206 -0.1980
 4991SOL    HW126432   0.652   1.137  12.705 -0.4333  0.5375 -0.8479
 4991SOL    HW226433   0.704   1.231  12.804  0.5242 -0.6044 -1.3523
 4992SOL     OW26434   1.692   3.354   6.216 -0.0251  0.4101 -0.5776
 4992SOL    HW126435   1.627   3.310   6.271  0.4828  1.0600  0.5466
 4992SOL    HW226436   1.726   3.416   6.280  0.2403 -0.0749 -0.2421
 4993SOL     OW26437   3.597   1.094   7.420 -0.7117  0.2743 -0.3651
 4993SOL    HW126438   3.577   1.188   7.426  0.4881  0.4709  0.5360
 4993SOL    HW226439   3.601   1.083   7.325  0.6041  0.1770 -0.2996
 4994SOL     OW26440   4.244   3.016   3.562  0.5492  0.0351 -0.1676
 4994SOL    HW126441   4.187   3.061   3.624  0.4251  0.6135 -0.6990
 4994SOL    HW226442   4.284   2.953   3.622 -0.5798 -0.3182  0.2008
 4995SOL     OW26443   1.821   4.628   6.837 -0.4312  0.4166 -0.2156
 4995SOL    HW126444   1.750   4.582   6.793  0.9445 -0.4663 -1.4990
 4995SOL    HW226445   1.873   4.622   6.757 -0.4198  1.2616 -0.2731
 4996SOL     OW26446   2.240   2.057   6.237  0.1262 -0.1070 -0.3736
 4996SOL    HW126447   2.237   1.964   6.216  3.1985 -0.8155  2.3524
 4996SOL    HW226448   2.321   2.075   6.189 -1.0228 -0.3003 -2.3768
 4997SOL     OW26449   4.569   4.046   5.296  0.0559 -0.2278 -0.4266
 4997SOL    HW126450   4.657   4.033   5.333  0.9779  1.5270 -2.0420
 4997SOL    HW226451   4.524   3.971   5.337  1.2555 -1.4153 -1.2701
 4998SOL     OW26452   1.821   3.581  14.711 -0.0559 -0.1915 -0.1497
 4998SOL    HW126453   1.749   3.567  14.649 -0.8825  1.8900  0.3428
 4998SOL    HW226454   1.884   3.640  14.670 -0.3724  0.1444 -0.1523
 4999SOL     OW26455   1.935   1.761  10.670  0.0948  0.4926 -0.5028
 4999SOL    HW126456   1.869   1.786  10.605 -0.2549 -0.5808 -0.5680
 4999SOL    HW226457   1.943   1.845  10.715  0.2092  1.7352 -2.8665
 5000SOL     OW26458   0.326   2.037   6.253 -0.1194 -0.5012  0.2205
 5000SOL    HW126459   0.389   2.107   6.235 -0.8634 -0.3416 -1.7072
 5000SOL    HW226460   0.269   2.053   6.178 -1.4870 -0.1104  1.3371
 5001SOL     OW26461   0.569   2.748   3.638 -0.4992 -0.1167  0.0277
 5001SOL    HW126462   0.645   2.804   3.652 -0.0436 -0.7500  0.1124
 5001SOL    HW226463   0.576   2.726   3.545 -0.2564 -2.8672  0.6927
 5002SOL     OW26464   2.925   3.709   2.913 -0.2608  0.4980  0.4690
 5002SOL    HW126465   2.978   3.707   2.834 -3.5890 -1.5841 -1.7197
 5002SOL    HW226466   2.835   3.712   2.881 -0.1398 -0.5302  0.0243
 5003SOL     OW26467   2.532   3.537  13.079 -0.3194 -0.9315 -0.4230
 5003SOL    HW126468   2.459   3.547  13.017  0.7108  2.9052 -0.9804
 5003SOL    HW226469   2.606   3.513  13.024  0.5849  1.5118 -0.2767
 5004SOL     OW26470   3.635   3.589   3.107 -0.1821 -0.0250  0.5080
 5004SOL    HW126471   3.603   3.517   3.053 -0.4106  0.4134  0.0593
 5004SOL    HW226472   3.569   3.609   3.174 -0.8205  0.1341 -0.1744
 5005SOL     OW26473   1.576   1.078  16.356 -0.5307 -0.0848  0.0446
 5005SOL    HW126474   1.579   1.016  16.429 -1.4456  0.5018  0.5971
 5005SOL    HW226475   1.545   1.155  16.405  3.3790 -0.3189  2.8901
 5006SOL     OW26476   4.539   0.425   1.028  0.3202 -0.0932 -0.3179
 5006SOL    HW126477   4.628   0.456   1.016  0.3520  1.2363  3.3150
 5006SOL    HW226478   4.544   0.340   0.984  0.4659 -0.1117 -0.2648
 5007SOL     OW26479   0.042   2.912  15.821  0.1974 -0.5393 -0.3787
 5007SOL    HW126480   0.025   3.000  15.853  0.8468 -0.3509 -0.5509
 5007SOL    HW226481   4.677   2.865  15.827 -1.7195  2.6098 -3.0129
 5008SOL     OW26482   4.112   0.223   5.465  0.2069  0.9734  0.2474
 5008SOL    HW126483   4.089   0.175   5.385 -0.1434 -0.8623  1.4344
 5008SOL    HW226484   4.184   0.272   5.426  1.8644 -2.1332 -0.5859
 5009SOL     OW26485   1.939   0.767   3.240 -0.2222 -0.2233 -0.0913
 5009SOL    HW126486   1.933   0.800   3.150  0.2690  1.8068  0.6324
 5009SOL    HW226487   1.883   0.689   3.239  0.2756 -0.5824 -0.4260
 5010SOL     OW26488   0.723   3.143  14.406  0.4701 -0.4367  0.1371
 5010SOL    HW126489   0.650   3.188  14.365  1.2722 -0.9568 -1.8572
 5010SOL    HW226490   0.759   3.098  14.330  2.8096  0.4616  0.7062
 5011SOL     OW26491   3.980   1.455   5.820  0.6944  0.5161  0.4287
 5011SOL    HW126492   4.039   1.402   5.768 -0.3046 -1.7735  1.6209
 5011SOL    HW226493   3.905   1.395   5.828  0.4355  0.8750  0.7447
 5012SOL     OW26494   1.033   1.812  12.675 -0.4207 -0.4560  0.8592
 5012SOL    HW126495   1.126   1.833  12.680 -0.6871  0.0381  3.7392
 5012SOL    HW226496   1.008   1.803  12.767 -3.7063 -0.3510 -0.0276
 5013SOL     OW26497   1.373   0.907  15.418  0.1374  0.0333 -0.4270
 5013SOL    HW126498   1.382   0.994  15.456  1.7569  0.0783 -0.9297
 5013SOL    HW226499   1.459   0.895  15.377  0.0945  1.1320 -0.8286
 5014SOL     OW26500   0.890   0.943   3.750  0.3182  0.0538 -0.1681
 5014SOL    HW126501   0.940   0.881   3.803 -0.3963  0.0607  0.5035
 5014SOL    HW226502   0.875   0.894   3.669 -0.8382  0.4071 -0.1695
 5015SOL     OW26503   1.575   1.180   1.285 -0.3991  0.4402 -0.1469
 5015SOL    HW126504   1.599   1.099   1.240  0.4189 -0.7764  2.4986
 5015SOL    HW226505   1.594   1.249   1.222  1.4720 -0.3656 -0.4748
 5016SOL     OW26506   0.852   0.977   1.313 -0.3939 -0.0741  0.1815
 5016SOL    HW126507   0.799   0.915   1.363  2.0749 -1.5152  1.0183
 5016SOL    HW226508   0.824   1.060   1.351 -2.2005 -0.7900  0.4544
 5017SOL     OW26509   3.254   3.216  15.036  0.2651 -0.4878  0.5456
 5017SOL    HW126510   3.160   3.225  15.048  0.0942 -2.3280  0.5869
 5017SOL    HW226511   3.282   3.301  15.071  0.3862 -0.1665 -0.3404
 5018SOL     OW26512   2.588   3.908   2.583  0.1027 -0.1407 -0.0557
 5018SOL    HW126513   2.575   3.854   2.505  2.2647  1.4134 -1.4772
 5018SOL    HW226514   2.619   3.838   2.641 -0.6792 -0.9501 -0.6131
 5019SOL     OW26515   0.514   2.575   8.852 -0.5558 -0.4882 -0.1041
 5019SOL    HW126516   0.607   2.561   8.835 -0.4890 -0.2242  0.0403
 5019SOL    HW226517   0.529   2.633   8.927  0.6828 -1.0878  0.1069
 5020SOL     OW26518   0.309   3.947   5.912 -0.3492 -0.7745 -0.4632
 5020SOL    HW126519   0.259   3.865   5.922  1.3330 -2.0874 -3.0128
 5020SOL    HW226520   0.243   4.003   5.872  1.0537  2.1924  1.4266
 5021SOL     OW26521   1.509   4.361   0.028 -0.7700 -0.1187  0.2474
 5021SOL    HW126522   1.421   4.397   0.022 -0.4623  0.3772 -1.1071
 5021SOL    HW226523   1.526   4.306  17.630  0.1790  1.2276 -0.4879
 5022SOL     OW26524   1.735   4.301   7.395  0.2459  0.1141  0.0360
 5022SOL    HW126525   1.656   4.261   7.360  0.6346  0.8733 -1.7013
 5022SOL    HW226526   1.693   4.377   7.433 -1.4557  0.0365 -1.7096
 5023SOL     OW26527   0.701   1.070   3.059  0.2825 -0.2388  0.1297
 5023SOL    HW126528   0.760   1.013   3.009  1.3243  0.5097  0.5027
 5023SOL    HW226529   0.749   1.074   3.142  1.7029 -0.2882 -0.6838
 5024SOL     OW26530   0.912   3.793   3.778  0.5343 -0.4769 -0.0264
 5024SOL    HW126531   0.880   3.733   3.710 -3.2031  0.0715  1.2496
 5024SOL    HW226532   0.991   3.749   3.810  0.1164  0.2127  1.9537
 5025SOL     OW26533   2.261   3.824   4.980  0.2417 -0.2266  0.3092
 5025SOL    HW126534   2.216   3.855   4.901  0.4219 -1.6138 -0.3513
 5025SOL    HW226535   2.276   3.905   5.028  0.3860  1.3704 -2.3885
 5026SOL     OW26536   1.509   0.609   4.622  0.5000 -0.1035 -0.2182
 5026SOL    HW126537   1.503   0.689   4.569  0.1573  1.5601  2.3362
 5026SOL    HW226538   1.569   0.648   4.686 -0.2341  1.0623 -0.2385
 5027SOL     OW26539   1.376   3.885   5.715  0.0583  0.2476 -0.3593
 5027SOL    HW126540   1.426   3.950   5.764  0.8340  0.5399 -1.5443
 5027SOL    HW226541   1.322   3.854   5.788 -0.0753  2.7037  0.5689
 5028SOL     OW26542   1.525   4.563  14.334 -0.1813  0.2085 -0.5558
 5028SOL    HW126543   1.500   4.553  14.242  2.5465 -0.1125 -1.2604
 5028SOL    HW226544   1.445   4.588  14.380  1.0739  2.5542  0.3187
 5029SOL     OW26545   2.995   3.679   7.830 -0.6412 -0.2697  0.1176
 5029SOL    HW126546   2.986   3.774   7.820  3.1781  0.2923  2.1198
 5029SOL    HW226547   3.031   3.669   7.918  1.6139 -0.0333 -0.7747
 5030SOL     OW26548   4.501   3.847  13.008  0.0520 -0.7136  0.0427
 5030SOL    HW126549   4.420   3.895  12.988 -0.6969 -2.0223 -0.0802
 5030SOL    HW226550   4.569   3.889  12.955  0.3088 -0.5974  0.4669
 5031SOL     OW26551   3.129   2.263  11.901 -0.6717  0.2303 -0.2447
 5031SOL    HW126552   3.167   2.239  11.986  1.3285  1.1899 -0.8628
 5031SOL    HW226553   3.204   2.272  11.842 -2.0100 -1.5023 -2.2340
 5032SOL     OW26554   0.582   1.437   4.568  0.2998 -0.0765  0.3197
 5032SOL    HW126555   0.627   1.516   4.539 -1.0999  0.0805 -1.4469
 5032SOL    HW226556   0.496   1.450   4.527  2.7361  2.9328 -3.7718
 5033SOL     OW26557   2.999   4.274  12.697 -0.5483  0.1463  0.0885
 5033SOL    HW126558   2.908   4.269  12.668 -0.2047  0.6543 -1.0675
 5033SOL    HW226559   3.045   4.313  12.623 -1.2828  0.1673 -0.3535
 5034SOL     OW26560   2.179   4.559   0.053  0.1828 -0.0343 -0.5346
 5034SOL    HW126561   2.223   4.624  17.677  0.6316 -0.0670 -0.2147
 5034SOL    HW226562   2.234   4.559   0.132 -0.6303 -0.8991  0.0328
 5035SOL     OW26563   0.446   3.732   7.992 -0.5362  0.4625  0.0956
 5035SOL    HW126564   0.428   3.694   8.078 -1.7277 -2.4774 -1.4582
 5035SOL    HW226565   0.356   3.763   7.979 -0.8499 -0.4458  0.1003
 5036SOL     OW26566   0.800   4.387  13.597  0.4553  0.0480  0.4919
 5036SOL    HW126567   0.814   4.362  13.688 -0.6873 -2.1571  0.0795
 5036SOL    HW226568   0.712   4.350  13.589  0.0658  1.0628  0.0627
 5037SOL     OW26569   0.809   3.719  13.545  0.0938 -0.4322  0.1046
 5037SOL    HW126570   0.778   3.735  13.455  2.2059 -2.1808 -0.9384
 5037SOL    HW226571   0.896   3.681  13.529 -0.3513 -0.5557 -2.1009
 5038SOL     OW26572   1.851   1.707  10.351 -0.5073 -0.0676 -1.1398
 5038SOL    HW126573   1.910   1.702  10.276  1.0317  0.1029  0.0494
 5038SOL    HW226574   1.896   1.671  10.428 -0.7697  1.3302 -0.3329
 5039SOL     OW26575   2.568   3.854  16.482  0.2082  0.1387  0.6493
 5039SOL    HW126576   2.562   3.934  16.430  0.3760 -0.1826  0.1428
 5039SOL    HW226577   2.595   3.791  16.415 -1.8450 -1.6405  1.4987
 5040SOL     OW26578   3.290   1.536   4.125 -0.4054  0.5627  0.1887
 5040SOL    HW126579   3.333   1.453   4.148  0.8178  1.1432 -0.0070
 5040SOL    HW226580   3.305   1.578   4.209  2.1168  1.0313 -0.4878
 5041SOL     OW26581   2.133   4.202   4.900  0.5065  0.2647  0.6093
 5041SOL    HW126582   2.188   4.144   4.848 -0.3364 -1.4592  1.6374
 5041SOL    HW226583   2.043   4.202   4.868  0.3363  1.1538  1.0786
 5042SOL     OW26584   1.778   2.521   3.509 -0.1378  0.1599 -0.0696
 5042SOL    HW126585   1.738   2.606   3.524  1.0301  0.6510  0.2405
 5042SOL    HW226586   1.846   2.564   3.458  2.3815 -2.3133  1.2054
 5043SOL     OW26587   1.120   0.124  16.816 -0.2263  0.4492 -0.1392
 5043SOL    HW126588   1.151   0.207  16.852 -0.4503  0.3362  0.3238
 5043SOL    HW226589   1.130   0.141  16.723  1.3408  1.7568  0.2554
 5044SOL     OW26590   3.486   1.372   9.888 -0.0676 -0.3838  0.2446
 5044SOL    HW126591   3.441   1.288   9.898 -1.7865  0.5869  0.6922
 5044SOL    HW226592   3.526   1.371   9.975 -0.9315  0.3072  0.6434
 5045SOL     OW26593   0.683   1.279  15.490 -0.2461  1.0901  0.2404
 5045SOL    HW126594   0.748   1.340  15.456  0.5425  0.4247  0.5489
 5045SOL    HW226595   0.699   1.270  15.584  1.5487  1.3144 -0.0410
 5046SOL     OW26596   2.313   1.955   3.760 -0.0579 -0.0673  0.1299
 5046SOL    HW126597   2.258   2.031   3.781 -2.3082 -1.5007 -0.4826
 5046SOL    HW226598   2.404   1.982   3.769 -0.1806  0.2179  0.5011
 5047SOL     OW26599   4.670   1.664   1.737 -0.1010  0.0822 -0.4392
 5047SOL    HW126600   0.022   1.620   1.783 -0.1294  0.9843  0.4853
 5047SOL    HW226601   4.716   1.715   1.671 -1.5568 -1.2942 -2.4902
 5048SOL     OW26602   2.608   3.571   0.850 -0.1025 -0.2677  0.2132
 5048SOL    HW126603   2.520   3.601   0.873  0.1405  1.8255 -1.6074
 5048SOL    HW226604   2.631   3.517   0.925 -0.3941 -1.7473 -0.7527
 5049SOL     OW26605   3.478   1.674  14.131  0.2056  0.3638  0.7917
 5049SOL    HW126606   3.536   1.624  14.188  0.4065  2.9869  2.8654
 5049SOL    HW226607   3.552   1.711  14.081  1.3814 -2.3279  0.5163
 5050SOL     OW26608   2.112   4.183  15.778  0.0036 -0.1571 -0.1221
 5050SOL    HW126609   2.178   4.241  15.816 -0.5175  1.3100 -1.4646
 5050SOL    HW226610   2.145   4.180  15.688 -0.8760  0.4764 -0.4612
 5051SOL     OW26611   4.529   0.117   5.501  0.4765  0.6071 -0.0884
 5051SOL    HW126612   4.589   0.046   5.527  1.4636  1.3133 -0.4164
 5051SOL    HW226613   4.532   0.081   5.412  3.2412  0.9287 -0.1298
 5052SOL     OW26614   2.433   3.613   6.987 -0.4786  0.6567 -0.7312
 5052SOL    HW126615   2.461   3.687   7.041  1.5220  1.6068 -3.0539
 5052SOL    HW226616   2.460   3.641   6.899  2.1172 -0.4772 -0.2993
 5053SOL     OW26617   4.083   3.961   7.513 -0.4365 -0.2907  0.5963
 5053SOL    HW126618   3.998   3.997   7.537 -0.9193 -0.1607 -1.2655
 5053SOL    HW226619   4.088   3.885   7.571 -1.3227  1.0422  2.4191
 5054SOL     OW26620   3.542   4.268  13.235 -0.0539 -0.3160 -0.4330
 5054SOL    HW126621   3.502   4.218  13.306  1.3033  0.3500  0.7896
 5054SOL    HW226622   3.471   4.265  13.170  1.2568  2.0220 -1.9536
 5055SOL     OW26623   0.773   2.003   5.902 -0.2978  0.3219  0.0967
 5055SOL    HW126624   0.728   1.922   5.928 -1.0333  0.0843 -1.9101
 5055SOL    HW226625   0.842   2.006   5.968 -0.1519  1.3872 -0.1005
 5056SOL     OW26626   2.562   4.048  17.105  0.6888  0.0653 -0.1794
 5056SOL    HW126627   2.605   3.970  17.141 -0.8243 -1.0703 -0.8544
 5056SOL    HW226628   2.508   4.011  17.035  0.0543  1.3916 -0.3702
 5057SOL     OW26629   2.727   3.806   7.554  0.1662 -0.3465  0.2046
 5057SOL    HW126630   2.717   3.851   7.470 -2.7994  0.0204  0.7549
 5057SOL    HW226631   2.799   3.858   7.590  0.6665 -1.3919  0.7367
 5058SOL     OW26632   3.780   1.321  14.392 -0.1768 -0.1994 -0.5074
 5058SOL    HW126633   3.852   1.312  14.331 -0.1950  1.2749 -0.7354
 5058SOL    HW226634   3.803   1.400  14.441  2.7997 -0.2984 -1.7626
 5059SOL     OW26635   3.884   0.686  16.262  0.1998  0.3243 -0.3650
 5059SOL    HW126636   3.860   0.698  16.170 -0.9940 -0.2392 -0.1296
 5059SOL    HW226637   3.851   0.596  16.260  1.4590 -0.1367 -0.2825
 5060SOL     OW26638   4.655   0.524   0.681 -0.4781  0.1747 -0.0672
 5060SOL    HW126639   4.683   0.434   0.701 -0.0209  0.6836  1.5863
 5060SOL    HW226640   0.003   0.582   0.717 -0.8323 -0.0393  0.9290
 5061SOL     OW26641   0.037   0.834   5.543  0.0489  0.0894  0.7018
 5061SOL    HW126642   0.021   0.812   5.635 -2.4024 -3.1672 -0.5148
 5061SOL    HW226643   4.672   0.867   5.510  0.7765  0.1856 -1.0220
 5062SOL     OW26644   4.009   4.258  12.730  0.1651  0.1282 -0.3443
 5062SOL    HW126645   3.952   4.182  12.716  1.2203 -0.8657  0.7449
 5062SOL    HW226646   4.015   4.288  12.639  1.5788  2.3593  0.4990
 5063SOL     OW26647   0.280   2.075  13.224 -0.2254 -0.0200 -0.1514
 5063SOL    HW126648   0.302   2.030  13.142  1.8756 -0.9581  0.9166
 5063SOL    HW226649   0.230   2.148  13.189  1.1226 -0.1290 -2.3478
 5064SOL     OW26650   0.055   2.223   5.117 -0.4198  0.4981 -0.5606
 5064SOL    HW126651   0.079   2.172   5.039  1.7564  0.7265 -0.0417
 5064SOL    HW226652   0.012   2.165   5.180  0.7199  1.3206  0.9904
 5065SOL     OW26653   0.630   0.728   5.371  0.0346  0.1549  0.7578
 5065SOL    HW126654   0.674   0.721   5.287  0.1660  0.6877  0.7862
 5065SOL    HW226655   0.541   0.757   5.351  0.4877  1.7531  1.0817
 5066SOL     OW26656   2.290   3.353   4.764  0.3989 -0.0416 -0.4904
 5066SOL    HW126657   2.327   3.313   4.843 -0.4793  2.9917  1.4392
 5066SOL    HW226658   2.313   3.443   4.784  1.2104 -0.6211  1.1853
 5067SOL     OW26659   4.598   3.820   3.899  0.4082  0.3271  0.5483
 5067SOL    HW126660   4.524   3.795   3.955 -0.9632 -0.8122 -1.7694
 5067SOL    HW226661   4.599   3.742   3.844 -1.2965  0.9517 -0.3757
 5068SOL     OW26662   1.132   3.817   5.596  0.2400  0.0929 -0.6602
 5068SOL    HW126663   1.204   3.850   5.650  2.0040 -1.1125 -2.3119
 5068SOL    HW226664   1.168   3.730   5.581  0.1756  0.1171 -0.9461
 5069SOL     OW26665   0.518   1.520   7.103 -0.0450  0.1017  0.0433
 5069SOL    HW126666   0.530   1.516   7.008  0.6309 -1.3371  0.1789
 5069SOL    HW226667   0.544   1.429   7.118  0.5861  0.2027 -0.4183
 5070SOL     OW26668   0.461   3.737  13.497 -0.0514  0.6310 -0.2075
 5070SOL    HW126669   0.510   3.661  13.527  0.1391  0.2729 -1.4097
 5070SOL    HW226670   0.525   3.806  13.517  2.9556 -2.4610  0.8008
 5071SOL     OW26671   1.409   1.321   1.493 -0.1339 -1.0296  0.2927
 5071SOL    HW126672   1.440   1.271   1.418  0.0051  0.5348 -0.6990
 5071SOL    HW226673   1.492   1.331   1.541  0.6476 -0.4669 -1.1951
 5072SOL     OW26674   1.336   0.629   8.557 -0.6333 -0.5294  0.4095
 5072SOL    HW126675   1.405   0.696   8.560 -1.2382  0.0402  1.5347
 5072SOL    HW226676   1.314   0.619   8.464  2.0273  0.3093 -0.3249
 5073SOL     OW26677   0.213   3.543   4.467 -0.7227  0.3544  0.1310
 5073SOL    HW126678   0.164   3.597   4.405 -1.4364  2.9201  2.8752
 5073SOL    HW226679   0.299   3.585   4.475 -0.5862  0.1960 -0.5845
 5074SOL     OW26680   1.097   1.810  11.044  0.0191  0.1185 -0.3973
 5074SOL    HW126681   1.150   1.836  10.969  1.1579 -1.0642  0.0101
 5074SOL    HW226682   1.167   1.800  11.108  0.2270  1.3461 -0.4311
 5075SOL     OW26683   2.194   1.036  15.968  0.4087 -0.0950  0.1975
 5075SOL    HW126684   2.192   0.957  16.021 -2.0217  0.2253  0.5605
 5075SOL    HW226685   2.207   1.008  15.877  2.8127  2.5123 -0.2770
 5076SOL     OW26686   0.143   0.895  17.562  0.2137 -0.5832  0.9860
 5076SOL    HW126687   0.227   0.917  17.603  0.9379  2.1885 -1.9185
 5076SOL    HW226688   0.169   0.833  17.494  1.8615 -1.1282  2.0930
 5077SOL     OW26689   0.856   4.174  13.371  0.0641 -0.2424  0.5545
 5077SOL    HW126690   0.835   4.260  13.409 -0.9110  0.4487 -1.5573
 5077SOL    HW226691   0.860   4.122  13.452 -1.1295 -0.6407  0.3648
 5078SOL     OW26692   2.754   2.580  17.549 -0.0951  0.0595  0.0167
 5078SOL    HW126693   2.706   2.506  17.585 -1.1441  0.6758 -0.1247
 5078SOL    HW226694   2.680   2.640  17.544  0.4690  0.5820 -2.2227
 5079SOL     OW26695   1.329   0.059   0.872  0.1695  0.1783 -1.3470
 5079SOL    HW126696   1.350   4.707   0.933  1.6315  2.4419  0.8075
 5079SOL    HW226697   1.234   0.073   0.879 -0.1301 -2.1616 -0.4807
 5080SOL     OW26698   4.290   0.106   8.603  0.1494  0.2886 -0.3064
 5080SOL    HW126699   4.289   0.167   8.677  0.6357 -1.1287  0.8879
 5080SOL    HW226700   4.383   0.102   8.578 -0.0356  0.7083 -1.0287
 5081SOL     OW26701   3.472   2.781   3.114  0.9418  0.4448  0.2698
 5081SOL    HW126702   3.437   2.809   3.030  3.3348 -0.4170 -1.0143
 5081SOL    HW226703   3.390   2.770   3.163  0.1824  1.0280 -0.8651
 5082SOL     OW26704   4.680   2.728   3.666 -0.5409 -0.1155 -0.1456
 5082SOL    HW126705   4.678   2.667   3.593  1.3208  0.8017 -0.9657
 5082SOL    HW226706   0.048   2.702   3.697 -1.3166 -1.3435  0.9908
 5083SOL     OW26707   3.385   0.143   7.574  0.0288  0.3476  0.1215
 5083SOL    HW126708   3.303   0.188   7.594  0.3551 -0.0824  2.4972
 5083SOL    HW226709   3.422   0.214   7.522  0.4871 -1.7092 -2.3382
 5084SOL     OW26710   3.642   2.337  15.421 -0.5808  0.6589 -0.1563
 5084SOL    HW126711   3.646   2.428  15.394  1.6634  0.9170  0.9945
 5084SOL    HW226712   3.644   2.357  15.514 -2.7913  1.1258 -0.2296
 5085SOL     OW26713   2.349   0.746   7.143 -0.0496  0.0103 -0.4494
 5085SOL    HW126714   2.311   0.755   7.231 -0.0600  3.5019 -0.8030
 5085SOL    HW226715   2.277   0.787   7.096  0.4448 -0.4048 -1.5549
 5086SOL     OW26716   3.817   1.806   0.447 -0.0932 -0.2099 -0.0630
 5086SOL    HW126717   3.727   1.775   0.459 -1.0174  2.1102 -1.0524
 5086SOL    HW226718   3.816   1.849   0.362 -0.7914 -0.4763 -0.1890
 5087SOL     OW26719   2.276   3.348   6.426  0.2033  0.1564 -0.5268
 5087SOL    HW126720   2.258   3.266   6.473  0.0134 -1.5723 -3.6436
 5087SOL    HW226721   2.327   3.313   6.353  0.2561  0.1852 -0.5033
 5088SOL     OW26722   2.519   0.793   9.526  0.0507 -0.0222 -0.2738
 5088SOL    HW126723   2.454   0.808   9.594 -2.3173  0.2638 -2.5652
 5088SOL    HW226724   2.462   0.803   9.449  0.7101 -0.6047 -0.8508
 5089SOL     OW26725   1.696   3.734   8.405 -0.6929  0.1560  0.4003
 5089SOL    HW126726   1.741   3.818   8.403 -0.8529  0.2755  1.9713
 5089SOL    HW226727   1.769   3.672   8.403 -0.1925  0.8108 -1.7843
 5090SOL     OW26728   3.541   0.319   5.003 -0.2669  0.1919  0.5562
 5090SOL    HW126729   3.475   0.389   5.004 -1.8656 -1.3017 -3.3574
 5090SOL    HW226730   3.571   0.326   5.094  0.0253  1.7378  0.3526
 5091SOL     OW26731   4.001   3.717   0.854  0.0024 -0.3920 -0.5638
 5091SOL    HW126732   3.966   3.785   0.797  1.5298  0.4900 -0.4680
 5091SOL    HW226733   4.049   3.667   0.788  1.6358 -0.1806  0.4610
 5092SOL     OW26734   2.431   1.071   1.063  0.2192 -0.1956  0.3874
 5092SOL    HW126735   2.510   1.027   1.033 -0.3551 -1.7331  1.1519
 5092SOL    HW226736   2.391   1.005   1.120 -1.0223  0.5014  0.3175
 5093SOL     OW26737   3.898   4.274   5.926 -0.1052  0.0498 -0.2293
 5093SOL    HW126738   3.834   4.203   5.924 -0.7240  0.5738  0.9866
 5093SOL    HW226739   3.862   4.329   5.995  0.7242 -1.2752  1.2857
 5094SOL     OW26740   1.322   1.102   2.372 -0.4149 -0.2041 -0.1679
 5094SOL    HW126741   1.268   1.172   2.335 -1.3925 -1.3074 -0.8353
 5094SOL    HW226742   1.257   1.051   2.421 -1.8333  0.1230 -1.7070
 5095SOL     OW26743   3.394   1.381   7.749  0.1990 -0.6877 -0.7298
 5095SOL    HW126744   3.327   1.446   7.732 -1.0321 -1.6974  0.2347
 5095SOL    HW226745   3.385   1.321   7.675  2.8892 -0.8107 -0.9751
 5096SOL     OW26746   3.869   3.897  10.741 -0.0966 -0.3647 -0.3677
 5096SOL    HW126747   3.801   3.955  10.707  1.5837  1.0279 -1.3124
 5096SOL    HW226748   3.841   3.812  10.707 -0.0653 -1.0032  1.1659
 5097SOL     OW26749   0.288   0.498   8.397 -1.0537 -0.9117  0.0711
 5097SOL    HW126750   0.273   0.591   8.418  1.2981 -0.3489 -0.7402
 5097SOL    HW226751   0.335   0.510   8.314 -0.5145 -0.6708  0.4097
 5098SOL     OW26752   4.448   3.187   3.182 -0.2735  0.4691 -0.1304
 5098SOL    HW126753   4.372   3.177   3.124  0.6856 -0.1888 -1.2695
 5098SOL    HW226754   4.488   3.252   3.124  0.3974 -0.2548 -0.4816
 5099SOL     OW26755   4.351   1.851  10.722 -0.1091  0.1186  0.1942
 5099SOL    HW126756   4.297   1.802  10.785  0.3749 -0.0129  0.5082
 5099SOL    HW226757   4.304   1.828  10.642  3.5503 -0.3834 -1.7840
 5100SOL     OW26758   0.084   0.151   2.419 -0.2126  0.6819 -0.1478
 5100SOL    HW126759   0.136   0.097   2.478  0.2862  0.0804 -1.1654
 5100SOL    HW226760   0.007   0.182   2.467  0.0383 -0.1878  0.8174
 5101SOL     OW26761   4.694   1.931   6.039  0.3332 -0.7247 -0.4586
 5101SOL    HW126762   0.061   1.965   6.065 -0.1012  0.5431 -0.6937
 5101SOL    HW226763   4.658   1.989   5.972  3.1844  0.5771 -0.8655
 5102SOL     OW26764   3.902   3.744  16.690 -0.3035  0.1942 -0.3817
 5102SOL    HW126765   3.865   3.741  16.779  0.4660 -1.9642 -0.1322
 5102SOL    HW226766   3.902   3.652  16.664  1.2394 -0.3224  1.4645
 5103SOL     OW26767   0.123   0.739   0.721  0.2027 -0.0772 -0.5386
 5103SOL    HW126768   0.086   0.821   0.688 -2.1283 -0.0585  2.1431
 5103SOL    HW226769   0.213   0.765   0.741  0.8921 -1.6394 -1.6149
 5104SOL     OW26770   4.163   4.391  10.996 -0.0528  0.6129 -0.2975
 5104SOL    HW126771   4.203   4.409  11.081 -0.7587 -0.8225  0.3358
 5104SOL    HW226772   4.241   4.361  10.949 -0.2374 -0.0778 -0.1586
 5105SOL     OW26773   2.920   2.833  11.588  0.1635 -0.2955  0.2131
 5105SOL    HW126774   2.967   2.776  11.650  0.8614 -0.4148 -0.4313
 5105SOL    HW226775   2.994   2.889  11.568 -1.6045  1.8370 -0.2494
 5106SOL     OW26776   2.713   1.770   6.755  1.0736 -0.2989 -0.0335
 5106SOL    HW126777   2.618   1.765   6.761  1.2823  1.0448  4.1730
 5106SOL    HW226778   2.734   1.780   6.847  2.3221  0.4194 -0.4000
 5107SOL     OW26779   0.289   1.611   2.084 -0.1554  0.0491 -0.3884
 5107SOL    HW126780   0.321   1.551   2.151 -2.9504 -1.1418 -0.1132
 5107SOL    HW226781   0.209   1.636   2.131 -0.8834  0.3387 -1.7886
 5108SOL     OW26782   2.995   4.191   9.188  0.1843 -0.4402 -0.9331
 5108SOL    HW126783   3.004   4.226   9.099 -1.8318  2.0556 -0.1586
 5108SOL    HW226784   3.088   4.197   9.208  0.2417 -3.2661 -0.3193
 5109SOL     OW26785   3.807   1.305  11.782 -0.6825  0.1106 -0.4975
 5109SOL    HW126786   3.862   1.244  11.732  0.8831  0.0516  1.3268
 5109SOL    HW226787   3.722   1.262  11.772 -0.3641 -0.5852 -0.2451
 5110SOL     OW26788   0.086   0.873   1.107  0.0220  0.4721 -0.0731
 5110SOL    HW126789   0.069   0.927   1.030  1.5117 -0.2947 -0.9571
 5110SOL    HW226790   0.180   0.887   1.119  0.2691 -0.7019 -0.6094
 5111SOL     OW26791   1.640   0.049   9.590 -0.1402 -0.2656 -0.0421
 5111SOL    HW126792   1.708   4.710   9.625  0.0662 -0.9909 -1.6829
 5111SOL    HW226793   1.562   0.012   9.632  0.9745 -2.0688  0.4251
 5112SOL     OW26794   0.523   0.449   1.123 -0.3137  0.1630  0.4626
 5112SOL    HW126795   0.519   0.357   1.149 -1.5181  0.3559  0.9754
 5112SOL    HW226796   0.433   0.465   1.096 -0.1914  0.2538  0.1168
 5113SOL     OW26797   3.561   0.352   5.268  0.4399  0.3469 -0.3402
 5113SOL    HW126798   3.631   0.412   5.294  0.5248 -1.1856  3.0481
 5113SOL    HW226799   3.564   0.296   5.346 -0.2894 -0.1221 -0.6467
 5114SOL     OW26800   0.705   4.398   2.941  0.2630  0.6358 -0.2732
 5114SOL    HW126801   0.666   4.429   3.023  0.1703  1.4313 -0.6172
 5114SOL    HW226802   0.783   4.453   2.940  0.3252  0.5600  0.1469
 5115SOL     OW26803   3.380   1.118   3.301 -0.2143 -0.4289 -0.0719
 5115SOL    HW126804   3.445   1.187   3.290 -0.6248 -0.2786 -1.5877
 5115SOL    HW226805   3.320   1.161   3.362  1.7461 -1.1568  2.3734
 5116SOL     OW26806   3.910   3.369   5.532 -0.5126  0.2628 -0.3921
 5116SOL    HW126807   3.983   3.308   5.542 -0.2169  0.5138 -1.0346
 5116SOL    HW226808   3.935   3.424   5.457 -0.1947  1.4593  0.5772
 5117SOL     OW26809   0.124   3.834   1.417 -0.3655  0.0400 -0.1736
 5117SOL    HW126810   0.079   3.900   1.469 -1.4250  0.7212 -1.9309
 5117SOL    HW226811   0.197   3.880   1.375  0.7748 -1.7721 -0.1861
 5118SOL     OW26812   2.950   4.477  13.075 -0.2872 -0.6922  0.4181
 5118SOL    HW126813   2.870   4.467  13.127 -1.3811  2.6257 -0.6344
 5118SOL    HW226814   2.996   4.397  13.099 -0.4160 -1.5645 -2.1719
 5119SOL     OW26815   1.057   3.091   4.760  0.3844  0.3561 -0.2844
 5119SOL    HW126816   1.081   3.077   4.669  0.4576  0.4961 -0.2873
 5119SOL    HW226817   1.097   3.174   4.788  2.5549 -1.0953  0.8631
 5120SOL     OW26818   3.718   4.203   3.229  0.4433  0.5012 -0.1168
 5120SOL    HW126819   3.649   4.165   3.284  1.3122 -1.3919 -0.3386
 5120SOL    HW226820   3.695   4.295   3.231 -4.7154 -0.8048  0.5506
 5121SOL     OW26821   3.207   0.965  14.733  0.2106 -0.1779  0.1175
 5121SOL    HW126822   3.152   0.930  14.803 -1.0612 -1.5822 -1.5880
 5121SOL    HW226823   3.290   0.948  14.778  0.2895 -0.6449 -0.2093
 5122SOL     OW26824   3.012   2.705   1.365 -0.0442 -0.2649  0.4543
 5122SOL    HW126825   2.949   2.653   1.315 -0.0052  0.6440 -0.5520
 5122SOL    HW226826   2.994   2.784   1.313  1.2436 -0.3752 -0.1544
 5123SOL     OW26827   3.099   1.748   5.488  0.3250  0.6338  0.3606
 5123SOL    HW126828   3.134   1.741   5.400  0.0857 -1.4017  0.4267
 5123SOL    HW226829   3.030   1.811   5.464  1.5616  1.1253 -1.8508
 5124SOL     OW26830   0.188   3.665   5.465  0.9606 -0.0687 -0.1359
 5124SOL    HW126831   0.257   3.637   5.405  1.7656  1.4907  0.0676
 5124SOL    HW226832   0.190   3.609   5.543 -2.2237 -0.5979 -0.4189
 5125SOL     OW26833   2.124   0.165   6.453 -0.2325 -0.4384  0.2349
 5125SOL    HW126834   2.193   0.230   6.459 -1.7379  1.0224  1.7287
 5125SOL    HW226835   2.051   0.198   6.506 -0.6726 -0.3284 -0.4414
 5126SOL     OW26836   2.876   3.998   2.530  0.0510 -0.2207 -0.0716
 5126SOL    HW126837   2.952   3.961   2.576 -0.7235  1.0305  2.1950
 5126SOL    HW226838   2.822   3.920   2.513  0.2206  0.0335 -1.7524
 5127SOL     OW26839   3.488   1.317   2.547  0.2550  0.0676  1.1884
 5127SOL    HW126840   3.433   1.329   2.469  3.0018  3.4244 -0.1886
 5127SOL    HW226841   3.485   1.405   2.584 -2.0575 -0.0251  1.2398
 5128SOL     OW26842   2.286   4.704   3.140  0.3148  0.0181 -0.1182
 5128SOL    HW126843   2.193   4.695   3.120 -0.2428 -0.6130  2.7403
 5128SOL    HW226844   2.310   4.611   3.138 -0.9640 -0.2859 -1.0696
 5129SOL     OW26845   1.668   0.433  15.991  0.0120  0.5407  0.1487
 5129SOL    HW126846   1.633   0.512  15.949  1.8326 -0.0255 -2.4177
 5129SOL    HW226847   1.687   0.371  15.920 -1.7422 -1.2779  1.2594
 5130SOL     OW26848   3.126   0.385   0.024 -0.3156 -0.4241  0.4396
 5130SOL    HW126849   3.122   0.302   0.071 -0.8815 -0.2780  0.6486
 5130SOL    HW226850   3.043   0.428   0.043 -0.6355 -0.0654 -1.7149
 5131SOL     OW26851   4.621   1.737  10.706 -0.3353  0.5450  0.0917
 5131SOL    HW126852   4.671   1.784  10.773  1.1092 -3.0041  1.4787
 5131SOL    HW226853   4.532   1.759  10.732 -0.6012  1.3949 -1.5033
 5132SOL     OW26854   3.842   2.603  13.789 -0.3686  0.0961  0.3910
 5132SOL    HW126855   3.801   2.686  13.812 -0.5514  0.4808 -1.3253
 5132SOL    HW226856   3.930   2.628  13.760  0.3686 -1.9787  0.8246
 5133SOL     OW26857   4.373   0.168   6.399  0.6251 -0.1929 -0.3334
 5133SOL    HW126858   4.466   0.166   6.376  1.1473  0.3235  1.7349
 5133SOL    HW226859   4.338   0.233   6.340  1.7260  3.3091  2.8581
 5134SOL     OW26860   0.683   3.327   2.343  0.1727 -0.0141 -0.0321
 5134SOL    HW126861   0.638   3.411   2.329  1.9313  1.0435  0.6876
 5134SOL    HW226862   0.739   3.314   2.266 -0.1394  2.3947 -0.6631
 5135SOL     OW26863   4.074   2.690  15.487 -0.1873 -0.4451 -0.2106
 5135SOL    HW126864   4.029   2.605  15.493 -0.6230 -0.2541 -0.7009
 5135SOL    HW226865   4.146   2.676  15.549 -1.9154 -0.8944  1.6971
 5136SOL     OW26866   2.044   4.430   3.268 -0.1416  0.2728  0.0439
 5136SOL    HW126867   2.130   4.456   3.236  0.6638  0.1758  2.0984
 5136SOL    HW226868   1.994   4.398   3.193  0.7387 -1.0189  0.0128
 5137SOL     OW26869   1.978   1.341   6.046 -0.1605 -0.2900  0.9458
 5137SOL    HW126870   1.959   1.262   6.096  0.6192 -2.1340 -1.6957
 5137SOL    HW226871   1.948   1.319   5.958  1.6342 -0.2782  0.3428
 5138SOL     OW26872   4.288   0.211   0.978  0.6603  0.3737 -0.5470
 5138SOL    HW126873   4.223   0.192   1.047  1.4284 -0.2630  0.0015
 5138SOL    HW226874   4.317   0.120   0.969 -0.4571  0.3008 -3.3174
 5139SOL     OW26875   3.029   1.487   5.614 -0.5257 -0.9205 -0.2120
 5139SOL    HW126876   3.016   1.497   5.709 -1.3300 -1.3515 -0.2850
 5139SOL    HW226877   3.079   1.565   5.591 -1.3181  0.0240  1.2800
 5140SOL     OW26878   3.728   1.951   8.618 -0.2927 -0.5096  0.6469
 5140SOL    HW126879   3.748   1.914   8.704 -0.4341 -1.0857  0.4340
 5140SOL    HW226880   3.811   1.989   8.591 -2.6818  3.3787 -1.2621
 5141SOL     OW26881   4.564   0.315   1.646  0.0785  0.1872  0.1084
 5141SOL    HW126882   4.554   0.368   1.567  1.3186 -0.9749 -0.8141
 5141SOL    HW226883   4.545   0.379   1.715  1.1220  0.0027  0.5617
 5142SOL     OW26884   4.330   2.497   3.241  0.1583  0.2768  0.3770
 5142SOL    HW126885   4.241   2.525   3.220  1.2887  0.4597 -4.1924
 5142SOL    HW226886   4.317   2.414   3.286 -2.4289 -0.4004 -1.6562
 5143SOL     OW26887   0.389   2.568   7.134  0.1464 -0.0302 -0.2131
 5143SOL    HW126888   0.437   2.612   7.064  0.3537  0.6129  0.3304
 5143SOL    HW226889   0.393   2.631   7.206 -1.1315  0.3988 -0.5199
 5144SOL     OW26890   4.542   3.524  16.008  0.2957  0.6088 -0.4067
 5144SOL    HW126891   4.459   3.554  15.970 -1.7596 -2.1020  1.9656
 5144SOL    HW226892   4.543   3.594  16.073  1.9503  1.9772 -1.8905
 5145SOL     OW26893   3.155   0.001   2.439 -0.3770  0.1641 -0.5531
 5145SOL    HW126894   3.203   4.663   2.379  0.9961 -0.7921  1.4433
 5145SOL    HW226895   3.130   4.659   2.508 -0.1022  0.7671  0.0730
 5146SOL     OW26896   1.108   4.106   7.697  0.5286  0.4675  0.4132
 5146SOL    HW126897   1.166   4.169   7.740  1.8542 -1.4733  1.5044
 5146SOL    HW226898   1.038   4.103   7.762 -0.3024 -1.8057 -0.5942
 5147SOL     OW26899   2.533   3.122   5.506 -0.8880  0.3071 -0.0981
 5147SOL    HW126900   2.603   3.186   5.499 -0.1359 -0.7926 -2.6884
 5147SOL    HW226901   2.458   3.180   5.494 -0.0654  1.4193  0.1386
 5148SOL     OW26902   0.830   3.602   3.262 -0.0968  0.2561 -0.4348
 5148SOL    HW126903   0.799   3.512   3.276 -0.0870  0.3998  0.5281
 5148SOL    HW226904   0.759   3.630   3.204 -0.9496 -0.3038  0.3205
 5149SOL     OW26905   3.769   4.385  10.624  0.9775  0.7375  0.4761
 5149SOL    HW126906   3.742   4.362  10.713  3.2242  0.6458  1.1225
 5149SOL    HW226907   3.850   4.335  10.617  0.4852  0.1555 -1.1910
 5150SOL     OW26908   4.535   3.507   8.783 -0.4053  0.0674 -0.2394
 5150SOL    HW126909   4.516   3.547   8.868  2.3116  0.5685  0.1165
 5150SOL    HW226910   4.445   3.481   8.762 -0.1866 -2.6131  2.1403
 5151SOL     OW26911   1.832   0.996   0.956  0.1831  0.6156  0.2364
 5151SOL    HW126912   1.768   1.023   0.890  0.2212 -0.1646 -0.1167
 5151SOL    HW226913   1.825   0.902   0.939 -1.5919  0.7326  0.3494
 5152SOL     OW26914   4.282   2.143   7.215  0.4708  0.2437  0.5533
 5152SOL    HW126915   4.283   2.234   7.188 -0.7504 -1.0104 -3.6350
 5152SOL    HW226916   4.276   2.155   7.310 -0.6461 -1.7449  0.7522
 5153SOL     OW26917   1.903   1.483   7.489  0.2656 -0.1651 -0.0433
 5153SOL    HW126918   1.878   1.449   7.574 -0.8121 -0.7538 -0.5985
 5153SOL    HW226919   1.948   1.564   7.514  0.6613 -0.3726 -0.0888
 5154SOL     OW26920   2.477   1.633  14.346 -0.9461 -0.0426  0.0545
 5154SOL    HW126921   2.514   1.618  14.433  1.5390  2.6601 -0.5275
 5154SOL    HW226922   2.559   1.642  14.297 -1.7260  0.3160 -1.1866
 5155SOL     OW26923   2.759   3.595   2.130  0.3046  0.5393 -0.4777
 5155SOL    HW126924   2.841   3.548   2.144  0.3856  1.0878  0.8762
 5155SOL    HW226925   2.790   3.686   2.135  0.4376  0.4023  0.9857
 5156SOL     OW26926   3.372   1.929   1.352  0.7557 -0.2993 -0.1724
 5156SOL    HW126927   3.457   1.887   1.358  1.1797  0.8490  2.0739
 5156SOL    HW226928   3.403   2.017   1.373 -0.8720 -0.2941  2.2915
 5157SOL     OW26929   2.541   0.172  12.792  0.1496 -0.8507 -0.4276
 5157SOL    HW126930   2.512   0.200  12.879  0.8966 -0.1683 -0.3981
 5157SOL    HW226931   2.580   0.253  12.759  2.7195 -2.4248 -1.2129
 5158SOL     OW26932   0.005   0.838   6.765 -0.5468  0.3953 -0.2072
 5158SOL    HW126933   4.642   0.865   6.721 -0.1420  1.5394 -0.2665
 5158SOL    HW226934   4.692   0.802   6.848 -0.6975  2.5788  0.6911
 5159SOL     OW26935   2.458   1.328  13.655  0.5374  0.2901  0.2917
 5159SOL    HW126936   2.401   1.267  13.608  1.0802  0.1473 -0.1772
 5159SOL    HW226937   2.399   1.404  13.652  0.5805  0.3320  0.5102
 5160SOL     OW26938   0.494   0.544   6.354  0.6457  0.2391 -0.0232
 5160SOL    HW126939   0.480   0.558   6.261  0.8196 -0.7464 -0.2017
 5160SOL    HW226940   0.550   0.466   6.353  2.8676  1.8297  0.1247
 5161SOL     OW26941   1.757   0.233  15.827 -0.3595  0.4019  0.0810
 5161SOL    HW126942   1.702   0.240  15.749  0.9496  1.9585 -0.6893
 5161SOL    HW226943   1.743   0.139  15.839  1.9784  0.2004  1.1780
 5162SOL     OW26944   0.099   3.133   2.536 -0.0886  0.5580 -0.4124
 5162SOL    HW126945   0.031   3.093   2.482 -1.6277  1.2099  1.0651
 5162SOL    HW226946   0.073   3.223   2.554 -0.3423  0.2978  0.5304
 5163SOL     OW26947   2.978   2.428  15.735 -0.1724 -0.6099 -0.0697
 5163SOL    HW126948   2.896   2.417  15.782 -0.4793  0.6425 -0.3057
 5163SOL    HW226949   3.034   2.445  15.811 -1.7182  1.8771  0.5252
 5164SOL     OW26950   2.258   2.489   4.113 -0.3690 -0.3167  0.0592
 5164SOL    HW126951   2.310   2.439   4.050 -0.7308 -0.4328 -0.1457
 5164SOL    HW226952   2.185   2.434   4.141 -0.4464 -1.4066 -2.3317
 5165SOL     OW26953   0.544   4.002   2.084 -0.0831 -0.3144  0.7689
 5165SOL    HW126954   0.494   3.960   2.153  0.8499 -0.3693  1.4151
 5165SOL    HW226955   0.538   4.092   2.115 -1.1457 -0.7594  1.8035
 5166SOL     OW26956   4.326   2.981  13.085 -0.0238 -0.1373  0.2966
 5166SOL    HW126957   4.365   2.933  13.013 -1.9365 -0.5378 -0.4758
 5166SOL    HW226958   4.390   2.955  13.151  1.5094 -0.5928 -1.3643
 5167SOL     OW26959   1.792   0.538   3.200  0.2573  0.9632 -0.5097
 5167SOL    HW126960   1.731   0.519   3.129 -1.1071 -4.0549  1.9904
 5167SOL    HW226961   1.746   0.500   3.275 -0.1387 -0.8657 -1.6950
 5168SOL     OW26962   0.604   2.849   6.340  0.3087 -0.2637  0.0690
 5168SOL    HW126963   0.616   2.842   6.434 -0.0091  3.0590  0.3577
 5168SOL    HW226964   0.568   2.938   6.336  0.1488 -0.3674 -0.8536
 5169SOL     OW26965   3.637   1.965   5.180  0.5457 -0.0416  0.0067
 5169SOL    HW126966   3.643   1.878   5.220  0.2122 -0.8349 -1.6660
 5169SOL    HW226967   3.729   1.990   5.168  1.1837 -2.0673  0.6099
 5170SOL     OW26968   0.066   2.191   6.420  0.0035  0.2000  0.1632
 5170SOL    HW126969   0.140   2.221   6.366  1.0484  0.8577  1.9707
 5170SOL    HW226970   0.075   2.097   6.402  1.5464  0.5619 -1.0475
 5171SOL     OW26971   2.048   2.164   7.444  0.2860  0.3597 -0.2165
 5171SOL    HW126972   2.046   2.222   7.368 -1.8208 -1.1179 -1.2734
 5171SOL    HW226973   2.071   2.227   7.513 -2.5990  1.0396  0.0903
 5172SOL     OW26974   0.319   1.997   8.963  0.1068 -0.0070 -0.2105
 5172SOL    HW126975   0.342   1.995   9.056 -0.6873  0.4237 -0.0032
 5172SOL    HW226976   0.386   2.059   8.936 -0.9263  1.2059 -0.0151
 5173SOL     OW26977   2.147   2.199   3.100 -0.0793  0.2571  0.3113
 5173SOL    HW126978   2.060   2.217   3.135  0.4928 -0.1559  1.9430
 5173SOL    HW226979   2.134   2.198   3.005  1.1546 -0.8546  0.1541
 5174SOL     OW26980   4.349   1.236   5.514  0.8905 -0.1198 -0.3000
 5174SOL    HW126981   4.333   1.145   5.491 -0.7054  0.1421 -0.2435
 5174SOL    HW226982   4.363   1.271   5.426  1.1282  1.0576  0.1967
 5175SOL     OW26983   2.786   2.113  10.980 -0.1438 -0.2244  0.3716
 5175SOL    HW126984   2.798   2.204  10.955 -0.2921 -0.0452  0.9489
 5175SOL    HW226985   2.864   2.097  11.034  0.5865 -1.7572 -1.1330
 5176SOL     OW26986   3.394   4.707   6.084 -0.1214  0.3082 -0.7346
 5176SOL    HW126987   3.467   4.653   6.054  0.5035  0.5906  0.2761
 5176SOL    HW226988   3.360   4.647   6.151  3.4365 -1.1767 -0.2609
 5177SOL     OW26989   3.543   0.070   4.236 -0.1468  0.1809 -0.5988
 5177SOL    HW126990   3.529   0.142   4.298  1.7669 -0.9729  1.1385
 5177SOL    HW226991   3.618   0.092   4.181  0.5997 -1.6658 -0.3271
 5178SOL     OW26992   4.641   1.742  17.100  0.5474 -0.8638 -0.2973
 5178SOL    HW126993   4.604   1.823  17.135 -0.8993 -1.0856 -1.3069
 5178SOL    HW226994   4.616   1.750  17.008 -1.5578  1.5204  0.4884
 5179SOL     OW26995   0.234   4.364   6.424 -0.0322 -0.5468  0.1380
 5179SOL    HW126996   0.280   4.388   6.505  1.5856  0.4419 -1.0623
 5179SOL    HW226997   0.144   4.354   6.455 -0.5234  1.5571 -0.6378
 5180SOL     OW26998   1.816   3.070   3.590  0.7941  0.5519 -0.0471
 5180SOL    HW126999   1.898   3.057   3.543  0.6280 -0.1627 -0.1384
 5180SOL    HW227000   1.779   3.144   3.540  0.2926  1.3634  1.5275
 5181SOL     OW27001   4.182   3.669   5.612 -0.1934 -0.0446  0.5699
 5181SOL    HW127002   4.276   3.678   5.625 -0.3540 -0.8607  2.2653
 5181SOL    HW227003   4.159   3.612   5.685 -0.1875 -1.2381 -0.3555
 5182SOL     OW27004   1.837   0.612   8.016 -0.2850  0.3471 -0.2535
 5182SOL    HW127005   1.864   0.560   8.092  1.4915  3.3042  1.1371
 5182SOL    HW227006   1.913   0.669   8.002  0.3744  0.0999  2.2630
 5183SOL     OW27007   2.066   3.863   1.886 -0.0496 -0.4133  0.3782
 5183SOL    HW127008   1.978   3.859   1.922  0.1349  0.9843  0.9702
 5183SOL    HW227009   2.114   3.826   1.961  1.5494  1.6469  0.3801
 5184SOL     OW27010   2.073   2.063   4.556 -0.5496  0.3950  0.4445
 5184SOL    HW127011   2.031   2.149   4.553 -0.7665  0.3181  1.2153
 5184SOL    HW227012   2.112   2.056   4.469 -0.3944  1.9805  0.3871
 5185SOL     OW27013   2.976   1.461  16.712  0.0547 -0.7561 -0.0148
 5185SOL    HW127014   2.965   1.387  16.773 -0.0417 -1.1329 -0.4899
 5185SOL    HW227015   3.034   1.427  16.644  2.2876  0.9930  1.0024
 5186SOL     OW27016   3.485   2.153   0.283  0.0635  0.5666  0.5290
 5186SOL    HW127017   3.572   2.160   0.322 -0.6104 -0.0642  2.1319
 5186SOL    HW227018   3.431   2.145   0.361 -0.0633 -2.6101  0.1331
 5187SOL     OW27019   1.087   3.947  16.649  0.0691  0.2598 -0.2690
 5187SOL    HW127020   0.994   3.967  16.656  0.1378 -0.1529  1.8985
 5187SOL    HW227021   1.091   3.857  16.680 -0.9212 -0.4834 -2.3273
 5188SOL     OW27022   1.444   1.934  14.117  0.3386  0.4650 -0.4372
 5188SOL    HW127023   1.460   2.028  14.117 -0.5944  0.6161  1.7937
 5188SOL    HW227024   1.518   1.900  14.067  1.5247  0.4586  1.3391
 5189SOL     OW27025   1.049   1.070  14.900  0.4998 -0.5629  0.0229
 5189SOL    HW127026   0.959   1.057  14.930  0.8311  0.7003  1.5452
 5189SOL    HW227027   1.098   1.011  14.957  1.2424 -0.4113 -0.4637
 5190SOL     OW27028   0.345   2.280   5.022  0.4460  0.8205  0.2034
 5190SOL    HW127029   0.308   2.266   5.109  0.1462 -1.2497 -0.2733
 5190SOL    HW227030   0.308   2.362   4.990 -0.9376  0.7097  1.4938
 5191SOL     OW27031   4.585   1.646   3.907  0.6177 -0.5597  0.0929
 5191SOL    HW127032   4.520   1.622   3.841  0.4453 -1.7763  0.6989
 5191SOL    HW227033   4.626   1.723   3.868  1.0857 -1.2191 -0.7014
 5192SOL     OW27034   0.307   0.990  14.777  0.5176 -0.1947 -0.5736
 5192SOL    HW127035   0.246   1.048  14.823  0.7784 -0.2649 -0.1494
 5192SOL    HW227036   0.280   0.906  14.815 -2.0675 -0.0685 -2.1123
 5193SOL     OW27037   1.949   1.973   5.458  0.1811  0.1521 -0.1550
 5193SOL    HW127038   2.036   1.997   5.487  1.0738 -0.8383 -2.0267
 5193SOL    HW227039   1.973   1.924   5.380 -0.6690  1.5526 -1.3002
 5194SOL     OW27040   1.213   1.497   7.421 -0.0792 -0.2223 -0.1545
 5194SOL    HW127041   1.168   1.582   7.419 -0.7055 -0.5970 -2.2582
 5194SOL    HW227042   1.144   1.433   7.437  0.7628 -1.6743 -2.4015
 5195SOL     OW27043   1.943   3.753   3.755  0.3716  0.1026 -0.7358
 5195SOL    HW127044   1.986   3.683   3.804 -0.0149  2.2893  2.7178
 5195SOL    HW227045   1.974   3.828   3.806  1.7613 -0.2250 -1.0978
 5196SOL     OW27046   0.599   1.096  17.106  0.0942 -0.1413  0.2322
 5196SOL    HW127047   0.566   1.135  17.187  1.6367 -2.9364  2.2376
 5196SOL    HW227048   0.686   1.135  17.100 -0.0658  0.3846  1.3278
 5197SOL     OW27049   1.905   0.303   2.980  1.1491 -0.4359 -0.0298
 5197SOL    HW127050   1.830   0.306   2.921  2.0744  0.7997 -1.1388
 5197SOL    HW227051   1.863   0.256   3.052  0.2750  0.1855 -0.1315
 5198SOL     OW27052   1.656   1.282   8.225 -0.2215 -0.2000  0.3123
 5198SOL    HW127053   1.746   1.308   8.245 -0.5034  0.2902  0.9338
 5198SOL    HW227054   1.605   1.331   8.290 -1.0094  0.7077 -1.0060
 5199SOL     OW27055   4.007   1.944   2.288 -0.0420 -0.4543  0.4381
 5199SOL    HW127056   3.983   1.972   2.376 -1.8057 -1.1549  0.1775
 5199SOL    HW227057   4.005   1.849   2.293  4.3092 -0.5258  0.8904
 5200SOL     OW27058   1.513   3.772  14.821  0.4693  0.0941 -0.4989
 5200SOL    HW127059   1.541   3.681  14.807 -2.0456 -0.7397 -0.1132
 5200SOL    HW227060   1.590   3.825  14.838 -1.1338  1.9919  0.8752
 5201SOL     OW27061   0.524   3.699   9.579  0.0166  0.1041  0.2641
 5201SOL    HW127062   0.584   3.725   9.509 -0.8688  0.2068 -0.4469
 5201SOL    HW227063   0.438   3.727   9.549  0.3649 -0.1803 -0.9773
 5202SOL     OW27064   3.239   1.021   6.929 -0.2499 -0.7440  0.0793
 5202SOL    HW127065   3.317   1.017   6.873 -2.2969 -0.4911 -2.7945
 5202SOL    HW227066   3.287   0.979   7.000  1.1362  1.8039  0.6824
 5203SOL     OW27067   2.164   1.741  14.212 -0.8022 -0.2846  0.2789
 5203SOL    HW127068   2.241   1.796  14.206 -0.0744 -1.4899 -1.5194
 5203SOL    HW227069   2.165   1.709  14.122  0.7780 -0.2836  0.3056
 5204SOL     OW27070   0.206   3.004  17.569  0.2531  0.0740 -0.2555
 5204SOL    HW127071   0.208   3.100  17.574  0.9823  0.0497 -0.0667
 5204SOL    HW227072   0.277   2.981  17.630  0.5323  0.9894 -0.2320
 5205SOL     OW27073   4.464   3.303   8.337 -0.4466  0.6823  0.5013
 5205SOL    HW127074   4.461   3.341   8.249  0.9349 -0.8316 -0.1950
 5205SOL    HW227075   4.480   3.212   8.311 -1.5732  0.7637 -0.4670
 5206SOL     OW27076   3.346   2.917   3.557  0.3203 -0.7188 -0.0253
 5206SOL    HW127077   3.440   2.907   3.569  0.1811 -1.1205  0.7474
 5206SOL    HW227078   3.328   2.991   3.616  0.6219 -0.2318 -0.5480
 5207SOL     OW27079   3.800   2.258   2.501 -0.5090  0.2511 -0.0466
 5207SOL    HW127080   3.851   2.179   2.484  3.4613  2.5909  0.9948
 5207SOL    HW227081   3.867   2.326   2.511 -1.1959  0.6141  2.2321
 5208SOL     OW27082   4.664   0.198  12.141  0.0649 -0.3304  0.6134
 5208SOL    HW127083   4.613   0.160  12.212  0.7665 -0.4159  1.0688
 5208SOL    HW227084   0.008   0.256  12.183 -1.9386  1.2074  1.4880
 5209SOL     OW27085   3.166   3.998   0.221  0.2244  0.3751  0.6234
 5209SOL    HW127086   3.258   3.974   0.233  0.2143  0.5701  1.0960
 5209SOL    HW227087   3.124   3.941   0.286 -0.0102  0.9781  0.9950
 5210SOL     OW27088   2.006   0.196  10.120  0.5379  0.3668  0.6318
 5210SOL    HW127089   2.054   0.114  10.139  0.0677  0.3420  1.7435
 5210SOL    HW227090   2.073   0.260  10.143  0.2671  0.3629  1.4387
 5211SOL     OW27091   2.025   3.857   6.078 -0.0426 -0.0959  0.2950
 5211SOL    HW127092   1.951   3.802   6.103  0.1207 -0.7640 -0.6734
 5211SOL    HW227093   2.081   3.797   6.028 -0.3044 -1.7991  2.0355
 5212SOL     OW27094   0.854   4.436   3.310 -0.5664 -0.5781  0.6578
 5212SOL    HW127095   0.894   4.405   3.391 -2.3709 -1.1755  1.3121
 5212SOL    HW227096   0.766   4.400   3.317 -0.6289 -0.5690 -0.0802
 5213SOL     OW27097   2.232   0.090   7.011 -0.8386  0.5098  0.3077
 5213SOL    HW127098   2.139   0.090   7.036 -0.5013 -2.1408  1.5643
 5213SOL    HW227099   2.270   0.044   7.087 -0.2517 -1.9166 -1.4492
 5214SOL     OW27100   3.000   1.979   4.038  0.2220 -0.0091 -0.1013
 5214SOL    HW127101   2.996   1.884   4.051  2.5324  0.0930  1.3485
 5214SOL    HW227102   3.090   2.008   4.053 -0.2556  2.8890 -3.0570
 5215SOL     OW27103   0.809   4.054  13.073 -0.0494  0.1607  0.0116
 5215SOL    HW127104   0.764   4.090  13.150 -1.2330 -0.6545 -0.3018
 5215SOL    HW227105   0.762   3.976  13.044  1.0045 -0.0714 -1.0435
 5216SOL     OW27106   2.863   2.690  10.836 -0.5129 -0.2703 -0.5797
 5216SOL    HW127107   2.914   2.766  10.863 -1.2265  0.2505 -0.6879
 5216SOL    HW227108   2.785   2.711  10.887 -0.7365 -0.1187 -0.9901
 5217SOL     OW27109   0.255   1.697   5.265  0.6341 -0.1241 -0.0589
 5217SOL    HW127110   0.264   1.760   5.194  2.1244 -0.0890  0.1509
 5217SOL    HW227111   0.185   1.738   5.316  1.2203  0.7206  0.0585
 5218SOL     OW27112   3.265   2.054   0.121 -0.1652  0.5306  0.4346
 5218SOL    HW127113   3.327   2.099   0.178  0.0579 -0.2224  0.7858
 5218SOL    HW227114   3.308   2.064   0.036  1.6706 -2.7619  0.9836
 5219SOL     OW27115   1.234   0.306   3.334 -0.0044  0.1996  0.0390
 5219SOL    HW127116   1.162   0.264   3.286 -1.6098  0.8385  1.9042
 5219SOL    HW227117   1.245   0.242   3.404 -2.8310  1.6332  1.7858
 5220SOL     OW27118   0.349   4.034  16.398 -0.5241 -0.1921 -0.5079
 5220SOL    HW127119   0.285   4.071  16.459 -1.6047  1.1220 -2.4467
 5220SOL    HW227120   0.382   3.973  16.464  0.3006 -1.5047 -2.1257
 5221SOL     OW27121   0.838   1.487   3.895  0.0103  0.0135 -0.5454
 5221SOL    HW127122   0.874   1.530   3.817  1.6054 -2.4148 -1.1372
 5221SOL    HW227123   0.850   1.552   3.964 -0.6509 -0.0330 -0.3861
 5222SOL     OW27124   2.472   1.517   4.400 -0.0775 -0.1338 -0.5771
 5222SOL    HW127125   2.482   1.501   4.494 -1.0684 -0.9256 -0.6052
 5222SOL    HW227126   2.417   1.442   4.375  1.2289 -1.5763  0.9007
 5223SOL     OW27127   0.201   2.243   3.909  0.4942 -0.2277 -0.6889
 5223SOL    HW127128   0.245   2.187   3.973  0.8840  1.4679  0.5538
 5223SOL    HW227129   0.160   2.305   3.970 -2.1492 -2.2200 -0.4566
 5224SOL     OW27130   3.221   2.690   1.121 -0.1245  0.6716 -0.5892
 5224SOL    HW127131   3.165   2.725   1.052  0.4000 -0.9861 -1.8680
 5224SOL    HW227132   3.278   2.639   1.064  2.0554  2.2349  0.1902
 5225SOL     OW27133   3.497   3.682   4.843  0.6068  0.0990 -0.6134
 5225SOL    HW127134   3.482   3.737   4.766 -0.9803  0.4253 -0.0683
 5225SOL    HW227135   3.429   3.713   4.903 -0.0396 -0.8361 -0.8598
 5226SOL     OW27136   3.287   1.778   5.277  0.1137 -0.2580  0.6095
 5226SOL    HW127137   3.356   1.721   5.242 -1.6927 -1.0348 -1.6587
 5226SOL    HW227138   3.305   1.865   5.243 -1.3538 -0.6662 -1.2052
 5227SOL     OW27139   0.952   4.139   5.055  0.9881  0.2528 -0.4203
 5227SOL    HW127140   0.988   4.080   4.989  0.5089  0.1138 -0.5553
 5227SOL    HW227141   0.864   4.102   5.058  0.5198  1.4570  0.8745
 5228SOL     OW27142   1.421   2.812   7.571  0.5950 -0.2857 -0.4840
 5228SOL    HW127143   1.507   2.853   7.561  0.3821  0.6487  1.4698
 5228SOL    HW227144   1.430   2.736   7.514  1.5206 -1.2468  0.9766
 5229SOL     OW27145   4.513   3.708  13.273  0.0845  0.6068 -0.2829
 5229SOL    HW127146   4.592   3.761  13.284  1.3701 -1.6785  1.4999
 5229SOL    HW227147   4.474   3.753  13.198  0.3930 -2.8928 -2.5302
 5230SOL     OW27148   2.575   0.978   5.626 -0.9113 -0.0995 -0.1198
 5230SOL    HW127149   2.593   1.040   5.556 -1.1428  1.2749  1.0516
 5230SOL    HW227150   2.596   1.035   5.700  0.4619  1.4403 -1.6913
 5231SOL     OW27151   2.334   4.240   3.821 -0.0765  0.1942 -0.1882
 5231SOL    HW127152   2.387   4.204   3.750  0.0750  0.8524 -0.4159
 5231SOL    HW227153   2.317   4.165   3.877  1.3018  0.2422  0.2954
 5232SOL     OW27154   2.696   3.342   8.819 -0.3273 -0.1738  0.3934
 5232SOL    HW127155   2.763   3.327   8.886 -0.1372 -0.7554  0.0763
 5232SOL    HW227156   2.703   3.436   8.804  1.2022 -0.5957 -1.3934
 5233SOL     OW27157   0.787   1.559   3.172  0.1172  0.1717  0.3642
 5233SOL    HW127158   0.743   1.513   3.101 -2.4149  1.3487  1.1664
 5233SOL    HW227159   0.749   1.646   3.162 -1.4375 -0.6925 -1.2600
 5234SOL     OW27160   2.931   3.942   7.683  0.6628 -0.1161 -0.1584
 5234SOL    HW127161   2.927   4.006   7.754  0.5919  1.2557 -1.3935
 5234SOL    HW227162   3.008   3.982   7.642  1.1966 -2.3944 -1.3799
 5235SOL     OW27163   2.468   1.384   3.686 -0.5298 -0.1629 -0.1665
 5235SOL    HW127164   2.418   1.433   3.751 -0.3768  1.8836 -1.6103
 5235SOL    HW227165   2.554   1.422   3.700 -0.5481 -0.4082  0.6314
 5236SOL     OW27166   4.300   4.617  10.557  0.0193  0.5474  0.0458
 5236SOL    HW127167   4.211   4.582  10.551  0.1157  0.0699  1.3641
 5236SOL    HW227168   4.324   4.637  10.467 -0.0834  1.3214  0.1884
 5237SOL     OW27169   2.590   3.811  10.329 -0.5038  0.0872  0.1180
 5237SOL    HW127170   2.673   3.805  10.282 -1.1245 -1.0615 -0.8126
 5237SOL    HW227171   2.610   3.885  10.387 -0.6312  0.4355 -0.2871
 5238SOL     OW27172   0.999   2.216   2.732  0.0938  0.2174  0.5954
 5238SOL    HW127173   1.082   2.171   2.742  0.4198  1.0958  1.9101
 5238SOL    HW227174   1.016   2.283   2.798 -1.4494 -0.8422  2.0811
 5239SOL     OW27175   3.982   1.678   2.311 -0.0726 -0.1864  0.3630
 5239SOL    HW127176   3.916   1.614   2.336 -0.0892 -0.1812  0.3330
 5239SOL    HW227177   4.047   1.635   2.256  0.6837  1.4219 -0.0064
 5240SOL     OW27178   0.027   3.479  13.227  0.6605 -0.1450 -0.3360
 5240SOL    HW127179   4.669   3.493  13.172  0.3019 -1.1495 -0.1081
 5240SOL    HW227180   0.064   3.566  13.238  0.2970 -0.1607  1.0104
 5241SOL     OW27181   0.978   4.029   3.811  0.1912 -0.1796  0.3837
 5241SOL    HW127182   0.964   3.936   3.797 -1.1220 -0.2028  1.8792
 5241SOL    HW227183   1.008   4.065   3.728  2.5889  1.8295  2.0731
 5242SOL     OW27184   3.605   2.690  12.074 -0.2237 -0.1539  0.5823
 5242SOL    HW127185   3.534   2.738  12.031 -0.3061  0.3754  1.3205
 5242SOL    HW227186   3.550   2.613  12.091  0.8796 -1.3446 -1.2027
 5243SOL     OW27187   2.712   2.772   8.379 -0.6747  0.4271 -0.1420
 5243SOL    HW127188   2.755   2.705   8.431 -1.7735  0.2397  0.5325
 5243SOL    HW227189   2.776   2.785   8.309 -0.0054  0.2012  0.4350
 5244SOL     OW27190   1.508   1.368   9.334  0.2657 -0.4029 -0.2103
 5244SOL    HW127191   1.521   1.443   9.275  4.2220 -1.6101 -0.8503
 5244SOL    HW227192   1.520   1.301   9.267 -0.3425  1.4721 -2.2073
 5245SOL     OW27193   1.354   2.242   4.159  0.4676 -0.4293  0.4784
 5245SOL    HW127194   1.318   2.204   4.240  1.5056 -1.8675  0.2770
 5245SOL    HW227195   1.327   2.171   4.101 -1.6520  1.3327 -0.6807
 5246SOL     OW27196   1.183   3.450   4.213  0.2083 -0.3145 -0.5065
 5246SOL    HW127197   1.221   3.533   4.185 -3.1796  1.5639  0.5165
 5246SOL    HW227198   1.235   3.416   4.286  1.2271 -0.6590 -1.3810
 5247SOL     OW27199   4.289   3.002  12.306  0.6962  0.3624 -0.1525
 5247SOL    HW127200   4.248   3.071  12.253  2.4716  1.2942 -0.2930
 5247SOL    HW227201   4.379   2.988  12.278  0.7732  0.4310  0.0649
 5248SOL     OW27202   2.014   4.397   0.292 -0.7239  0.3683 -0.4663
 5248SOL    HW127203   2.106   4.410   0.316 -0.7467  1.3626 -0.9052
 5248SOL    HW227204   2.020   4.360   0.204  1.4380  2.2669 -1.1201
 5249SOL     OW27205   2.131   1.229  16.878  0.2476  0.4423  0.0306
 5249SOL    HW127206   2.198   1.197  16.818  2.0081  1.0873  1.6420
 5249SOL    HW227207   2.193   1.263  16.943  0.9125  2.1879 -1.4939
 5250SOL     OW27208   2.664   1.578  13.161  0.1188 -0.0701 -0.2379
 5250SOL    HW127209   2.658   1.516  13.088 -1.6472 -1.6255  1.2392
 5250SOL    HW227210   2.613   1.648  13.122  0.6010 -0.3790 -1.4343
 5251SOL     OW27211   2.033   4.540   1.484  0.0298  0.1543  0.5102
 5251SOL    HW127212   1.981   4.461   1.467  0.2993  0.0132  0.3393
 5251SOL    HW227213   2.108   4.487   1.510  1.1371  0.8172 -1.3685
 5252SOL     OW27214   2.891   4.095   5.724 -0.0225  0.5020  0.2763
 5252SOL    HW127215   2.955   4.162   5.698 -0.4724  0.5104 -0.8159
 5252SOL    HW227216   2.956   4.025   5.718 -0.8677 -0.1044 -1.8141
 5253SOL     OW27217   0.270   4.621   9.874 -0.2542  0.9768  0.1461
 5253SOL    HW127218   0.274   4.538   9.827 -0.5510  0.5341  0.9051
 5253SOL    HW227219   0.316   4.585   9.949 -1.1498 -3.9107 -1.6671
 5254SOL     OW27220   0.145   2.136   3.510  0.2355 -0.4596 -0.3471
 5254SOL    HW127221   0.108   2.090   3.586  0.7837 -1.2153 -0.5364
 5254SOL    HW227222   0.215   2.191   3.545 -1.0134 -0.1918  1.7419
 5255SOL     OW27223   1.134   0.516   6.687 -0.4924  0.1367  0.6389
 5255SOL    HW127224   1.116   0.605   6.657 -0.7672 -0.7952 -1.9935
 5255SOL    HW227225   1.075   0.499   6.760 -0.7544 -0.7780  0.2050
 5256SOL     OW27226   4.158   2.969   0.539  0.0408  0.0969 -0.3873
 5256SOL    HW127227   4.199   3.028   0.602  0.6915 -0.8348  0.0555
 5256SOL    HW227228   4.189   2.882   0.565  3.6534  2.1204  2.1813
 5257SOL     OW27229   0.588   4.426   9.047  0.3797 -0.1881  0.3568
 5257SOL    HW127230   0.525   4.479   9.000  1.0662 -0.0144 -0.3671
 5257SOL    HW227231   0.541   4.389   9.122 -1.2475 -1.5533 -1.3419
 5258SOL     OW27232   3.714   0.536   3.978 -0.4938 -0.0114 -0.3169
 5258SOL    HW127233   3.709   0.469   3.910 -1.3938 -0.3681  0.1000
 5258SOL    HW227234   3.800   0.570   3.954 -1.6418  1.0901 -2.8592
 5259SOL     OW27235   3.379   1.513   6.587  0.8416  0.2156 -0.0900
 5259SOL    HW127236   3.393   1.451   6.659  0.3424  0.0007 -0.1750
 5259SOL    HW227237   3.464   1.514   6.544 -0.2787  0.5617 -2.2956
 5260SOL     OW27238   1.453   0.826   4.442 -0.3305 -0.0645  0.3876
 5260SOL    HW127239   1.378   0.817   4.383  0.2441  0.3688 -0.3993
 5260SOL    HW227240   1.421   0.901   4.492 -3.2237 -2.8797  2.8248
 5261SOL     OW27241   3.968   2.750   3.611  0.1741 -0.8888  0.5076
 5261SOL    HW127242   4.046   2.727   3.561  1.6634  1.4551  1.7141
 5261SOL    HW227243   3.944   2.832   3.568 -1.4425 -2.0673 -0.8296
 5262SOL     OW27244   0.461   3.475   3.985 -0.2885 -0.1060 -0.0753
 5262SOL    HW127245   0.535   3.415   3.969 -0.3427  0.0579 -0.9672
 5262SOL    HW227246   0.389   3.412   3.988  0.4055 -0.9072 -0.2448
 5263SOL     OW27247   3.208   2.968  10.326 -0.0555 -0.0734 -0.2656
 5263SOL    HW127248   3.226   2.887  10.278  0.3197  1.0590 -2.0492
 5263SOL    HW227249   3.246   3.025  10.259 -0.1894 -0.6178 -0.8112
 5264SOL     OW27250   2.628   4.258   6.601 -0.3105  0.2186  0.3412
 5264SOL    HW127251   2.710   4.210   6.611  0.6337  1.8945  0.5809
 5264SOL    HW227252   2.569   4.190   6.567 -0.5678  0.6790 -0.1524
 5265SOL     OW27253   3.395   0.612   6.180  0.4000  0.2947 -0.0751
 5265SOL    HW127254   3.480   0.582   6.149 -0.1616 -1.7518  0.3830
 5265SOL    HW227255   3.390   0.708   6.173 -0.0045  0.2244 -0.8233
 5266SOL     OW27256   0.227   1.207   8.433  0.3368 -0.3728 -0.1886
 5266SOL    HW127257   0.151   1.260   8.458  1.0868  1.4851 -1.7760
 5266SOL    HW227258   0.205   1.171   8.347  0.1485  0.0270 -0.3085
 5267SOL     OW27259   2.378   3.201   6.976  0.4100  0.1408  0.0837
 5267SOL    HW127260   2.365   3.271   7.041 -1.7592 -0.3800  0.2073
 5267SOL    HW227261   2.463   3.159   6.987  0.6328  0.2873 -1.1673
 5268SOL     OW27262   1.109   1.780   1.058  0.0275  0.0855  0.2979
 5268SOL    HW127263   1.134   1.833   0.982 -0.2804  0.7651  0.6664
 5268SOL    HW227264   1.065   1.700   1.030  0.8816 -0.3832  0.2920
 5269SOL     OW27265   3.291   1.525  13.963  0.5164  0.3748 -0.2494
 5269SOL    HW127266   3.346   1.500  14.038  0.6620  0.7907 -0.2156
 5269SOL    HW227267   3.356   1.563  13.904  1.2624  2.0431  1.6217
 5270SOL     OW27268   4.331   1.330   1.736 -0.5936  0.5283 -0.3881
 5270SOL    HW127269   4.270   1.387   1.784  0.1937 -0.5728  1.9460
 5270SOL    HW227270   4.408   1.386   1.749 -0.5303  0.7520 -1.7249
 5271SOL     OW27271   0.144   4.081   8.155 -0.2736 -0.5384  0.2055
 5271SOL    HW127272   0.150   4.009   8.092 -2.4405  0.5919 -1.3134
 5271SOL    HW227273   0.129   4.022   8.229  0.3055  1.5949  2.0102
 5272SOL     OW27274   3.882   3.892   5.595  0.1588 -0.4664  0.0196
 5272SOL    HW127275   3.877   3.841   5.515 -0.7103 -0.5702  0.1395
 5272SOL    HW227276   3.821   3.847   5.654  2.3154 -4.2509 -0.7068
 5273SOL     OW27277   0.876   3.251   3.384 -0.9964 -0.0729  0.4307
 5273SOL    HW127278   0.871   3.197   3.463 -1.9519 -1.1794 -0.3771
 5273SOL    HW227279   0.942   3.198   3.341 -0.2562 -0.2227  1.7553
 5274SOL     OW27280   2.300   0.254   3.129 -0.1596  0.3785 -0.3875
 5274SOL    HW127281   2.295   0.167   3.169 -0.2702 -0.0662 -1.3592
 5274SOL    HW227282   2.310   0.225   3.038 -1.8611 -0.7001 -0.2334
 5275SOL     OW27283   3.546   0.113   0.725 -0.9719 -0.2119 -0.4117
 5275SOL    HW127284   3.557   0.199   0.765 -0.0466 -1.0073  1.0125
 5275SOL    HW227285   3.580   0.111   0.635 -0.9834 -3.1402 -0.3446
 5276SOL     OW27286   1.761   2.547   6.521 -0.6677 -0.2858 -0.4378
 5276SOL    HW127287   1.818   2.527   6.594  0.1523  0.6832 -0.8165
 5276SOL    HW227288   1.690   2.496   6.561 -2.0717  2.0680  0.1296
 5277SOL     OW27289   1.657   3.219   2.946  0.2054  0.3675 -0.5252
 5277SOL    HW127290   1.643   3.228   2.852 -0.2906  1.3667 -0.3475
 5277SOL    HW227291   1.618   3.135   2.971 -0.6138  0.3434 -1.9095
 5278SOL     OW27292   1.628   4.121   5.423  0.4166 -0.0671  0.3579
 5278SOL    HW127293   1.542   4.114   5.465 -1.4184 -1.4298 -3.6356
 5278SOL    HW227294   1.602   4.089   5.337  0.1680 -3.3936  1.6818
 5279SOL     OW27295   3.495   4.543   4.561  0.6445  0.4292 -0.1944
 5279SOL    HW127296   3.425   4.485   4.531  2.0627 -0.8818 -0.9691
 5279SOL    HW227297   3.573   4.487   4.558  0.1293 -0.3722  1.4216
 5280SOL     OW27298   2.235   0.603   2.250 -0.0518  0.0908  0.1930
 5280SOL    HW127299   2.182   0.619   2.172 -0.3867  1.2377  0.6640
 5280SOL    HW227300   2.259   0.510   2.245 -1.8170 -0.3947  0.7603
 5281SOL     OW27301   4.047   4.580   5.010  0.0347  0.1353  0.2924
 5281SOL    HW127302   3.963   4.591   4.965 -1.2079  0.0127  2.5647
 5281SOL    HW227303   4.034   4.509   5.073 -2.0240 -0.5824 -0.9430
 5282SOL     OW27304   2.675   0.454   7.281 -0.0865 -0.5644 -0.2271
 5282SOL    HW127305   2.667   0.525   7.216 -0.7835 -0.3459  0.1017
 5282SOL    HW227306   2.615   0.386   7.252 -1.2284  0.0237  0.7931
 5283SOL     OW27307   0.822   2.138   1.318  1.0013  0.0746 -0.0489
 5283SOL    HW127308   0.736   2.168   1.290  1.0267  0.1461 -0.0503
 5283SOL    HW227309   0.788   2.049   1.327  1.0773  0.0840  0.3238
 5284SOL     OW27310   1.744   3.038  12.566 -0.0696  0.0726  0.1294
 5284SOL    HW127311   1.772   2.983  12.640 -2.4298  1.7742  2.3111
 5284SOL    HW227312   1.809   3.107  12.573 -0.6508  0.6603 -0.3518
 5285SOL     OW27313   0.884   1.638   0.226 -0.3435 -0.5762  0.4273
 5285SOL    HW127314   0.845   1.720   0.256 -0.9929 -0.6885 -0.1000
 5285SOL    HW227315   0.853   1.631   0.136  1.4788  1.6765 -0.3548
 5286SOL     OW27316   0.679   3.392   8.913  0.4077  0.1808  0.1677
 5286SOL    HW127317   0.627   3.313   8.898  1.6318 -0.7363  0.7568
 5286SOL    HW227318   0.637   3.420   8.995 -0.1881 -2.3729  0.7396
 5287SOL     OW27319   0.573   0.594   1.393  0.5649  0.7089 -0.3025
 5287SOL    HW127320   0.536   0.541   1.323 -1.8051  2.9186 -0.7324
 5287SOL    HW227321   0.522   0.561   1.468 -3.4410 -0.4299 -3.5224
 5288SOL     OW27322   2.924   0.822  16.782 -0.2082  0.4759  0.2602
 5288SOL    HW127323   3.009   0.811  16.824 -0.8345 -1.8848  0.9233
 5288SOL    HW227324   2.860   0.791  16.847 -0.9014 -1.5079 -1.3547
 5289SOL     OW27325   1.656   1.783   2.868  0.2963  0.4445  0.1839
 5289SOL    HW127326   1.665   1.877   2.887 -1.0964  0.6971 -0.3842
 5289SOL    HW227327   1.670   1.770   2.774  2.1233 -0.0628  0.5258
 5290SOL     OW27328   4.391   1.675   6.609  0.5212  0.5884 -0.1661
 5290SOL    HW127329   4.411   1.738   6.679  1.2561  1.5928 -1.2895
 5290SOL    HW227330   4.465   1.615   6.603 -0.5103 -0.5610 -1.4113
 5291SOL     OW27331   4.639   1.427   4.702 -0.1464 -0.0504 -0.7346
 5291SOL    HW127332   4.585   1.504   4.690 -0.1383  0.2966  1.5110
 5291SOL    HW227333   4.575   1.369   4.743  0.4048 -0.6342 -0.6949
 5292SOL     OW27334   1.452   2.252   8.352 -0.4606  1.0814 -0.4217
 5292SOL    HW127335   1.539   2.271   8.315 -0.2731 -0.6677 -0.8804
 5292SOL    HW227336   1.466   2.233   8.445 -0.0956  0.0795 -0.6791
 5293SOL     OW27337   2.827   2.458   5.377  0.0890  0.3098 -0.1030
 5293SOL    HW127338   2.913   2.468   5.418 -0.7961  0.6244  1.6855
 5293SOL    HW227339   2.804   2.548   5.352  1.3416  1.2395  2.0936
 5294SOL     OW27340   3.536   4.679   8.026  0.3772 -0.1109 -0.3774
 5294SOL    HW127341   3.446   4.648   8.031 -0.1013  1.3934  0.3054
 5294SOL    HW227342   3.530   0.001   7.939 -0.1162 -1.1290 -0.8131
 5295SOL     OW27343   0.314   0.913   0.785 -0.2678  0.2195  0.4504
 5295SOL    HW127344   0.280   0.996   0.820  1.8315  0.4562  1.9362
 5295SOL    HW227345   0.383   0.890   0.848 -1.6263 -0.8407  1.5384
 5296SOL     OW27346   1.614   4.111   0.831 -0.2002  0.1386  0.0681
 5296SOL    HW127347   1.597   4.162   0.909 -1.1856 -0.2476  0.1012
 5296SOL    HW227348   1.559   4.033   0.843  0.1098 -0.0206  0.4601
 5297SOL     OW27349   0.690   4.172   4.806  0.4111  0.3256  0.3789
 5297SOL    HW127350   0.669   4.106   4.739  1.6527 -1.0393  1.3436
 5297SOL    HW227351   0.691   4.123   4.888 -0.2909 -1.6678 -0.7976
 5298SOL     OW27352   0.635   4.311   2.452  0.1098 -0.2505  0.5371
 5298SOL    HW127353   0.569   4.349   2.393  0.2640  1.2290  1.3195
 5298SOL    HW227354   0.584   4.245   2.500 -0.9089  1.0730  1.2877
 5299SOL     OW27355   0.285   0.192   5.444  0.2996 -0.0441 -0.0394
 5299SOL    HW127356   0.335   0.267   5.474 -1.0189  0.5561  0.6470
 5299SOL    HW227357   0.348   0.171   5.375 -0.5006 -0.9363 -0.5010
 5300SOL     OW27358   4.132   0.444  11.811  0.2741 -0.3824  0.1302
 5300SOL    HW127359   4.143   0.396  11.729 -0.0242 -0.0257 -0.1184
 5300SOL    HW227360   4.190   0.519  11.797 -1.6776  0.7230 -1.9812
 5301SOL     OW27361   1.745   1.244   0.790  0.1737 -0.6121 -0.4033
 5301SOL    HW127362   1.822   1.294   0.816 -0.1062  0.2842 -1.3188
 5301SOL    HW227363   1.766   1.223   0.699  2.5170  2.0027 -0.4434
 5302SOL     OW27364   1.014   2.213   5.179  0.0590  0.3839 -0.0822
 5302SOL    HW127365   0.967   2.216   5.262  0.5066  1.2172  0.1372
 5302SOL    HW227366   1.096   2.258   5.196 -0.1498  0.4600  0.7188
 5303SOL     OW27367   1.822   2.275   3.593 -0.3939 -0.1061 -0.1498
 5303SOL    HW127368   1.793   2.365   3.577  1.3893  0.4560 -0.2227
 5303SOL    HW227369   1.799   2.235   3.509 -2.5155  0.6921  0.0436
 5304SOL     OW27370   3.386   0.341  16.037  0.4249 -0.6328  0.1327
 5304SOL    HW127371   3.467   0.329  15.988 -0.6914 -0.5531 -1.7471
 5304SOL    HW227372   3.332   0.270  16.001  1.3159 -0.5204 -1.4064
 5305SOL     OW27373   1.510   4.338  16.421  0.2501 -0.8697  0.7481
 5305SOL    HW127374   1.588   4.307  16.375 -0.7234 -2.1341 -0.0602
 5305SOL    HW227375   1.516   4.433  16.421  1.5713 -0.9438 -1.3277
 5306SOL     OW27376   2.581   2.304   5.116  0.1774 -0.5186 -0.1461
 5306SOL    HW127377   2.566   2.315   5.210 -1.9298 -0.9777 -0.4438
 5306SOL    HW227378   2.523   2.370   5.077  0.5292  0.8710  1.6541
 5307SOL     OW27379   0.140   1.520   1.847  0.2120  0.0772  0.1154
 5307SOL    HW127380   0.198   1.451   1.816 -0.5262 -1.4062  1.9970
 5307SOL    HW227381   0.167   1.520   1.939  1.5414 -0.3835 -0.2719
 5308SOL     OW27382   4.409   0.126   3.539  0.3078 -0.6144 -0.3055
 5308SOL    HW127383   4.316   0.146   3.553  0.3627  0.4876 -1.5098
 5308SOL    HW227384   4.446   0.144   3.625  0.0253  0.3021 -0.3730
 5309SOL     OW27385   4.208   2.997   8.594 -0.9317 -0.2154 -0.2982
 5309SOL    HW127386   4.214   3.086   8.558 -1.1536  0.3849  1.1211
 5309SOL    HW227387   4.207   2.948   8.513 -0.1115 -1.8828  0.7186
 5310SOL     OW27388   1.011   1.547  17.170 -0.0573  0.0147  0.3217
 5310SOL    HW127389   1.087   1.576  17.119  0.4065 -0.5008  0.7311
 5310SOL    HW227390   1.048   1.490  17.237 -2.3424  1.0666  2.4827
 5311SOL     OW27391   2.262   2.157  11.629  0.3934 -0.7924 -0.6974
 5311SOL    HW127392   2.200   2.186  11.696  0.0573 -2.0285 -0.4851
 5311SOL    HW227393   2.340   2.119  11.669 -0.8446 -3.6342 -1.0149
 5312SOL     OW27394   1.332   3.081   7.020 -0.5124  0.7952 -0.4376
 5312SOL    HW127395   1.427   3.080   7.035 -0.3759 -0.0351 -1.3846
 5312SOL    HW227396   1.295   3.060   7.106  0.0606  0.0278 -0.3825
 5313SOL     OW27397   0.103   0.066   1.364 -0.4533 -0.2312 -0.4321
 5313SOL    HW127398   0.113   0.053   1.459  0.6628 -1.4472 -0.7127
 5313SOL    HW227399   0.117   0.160   1.353  2.1418 -0.6261 -0.3126
 5314SOL     OW27400   0.652   0.731   3.166  0.3991  0.3517  0.2744
 5314SOL    HW127401   0.654   0.796   3.095 -0.1468 -0.1261 -0.1835
 5314SOL    HW227402   0.742   0.730   3.197  0.0368 -0.1438  1.3274
 5315SOL     OW27403   2.654   2.502  12.406 -0.2315 -0.1240  0.4256
 5315SOL    HW127404   2.598   2.489  12.483 -0.1311 -0.5678  0.4253
 5315SOL    HW227405   2.698   2.577  12.445  1.5352 -0.2121 -1.3539
 5316SOL     OW27406   4.124   2.270   4.218 -0.0666 -0.1637 -0.0340
 5316SOL    HW127407   4.207   2.293   4.260  0.0122  0.2140 -0.3975
 5316SOL    HW227408   4.153   2.291   4.129  0.6833 -1.2787 -0.0554
 5317SOL     OW27409   0.672   2.942  11.381  0.2722 -0.0904 -0.4137
 5317SOL    HW127410   0.644   2.949  11.289  1.9873  1.6435 -0.7960
 5317SOL    HW227411   0.626   3.016  11.420 -0.4020  0.4124 -2.1137
 5318SOL     OW27412   1.774   2.769  12.501  0.4801  0.3246 -0.3535
 5318SOL    HW127413   1.829   2.772  12.423 -1.3746  0.5939 -1.6695
 5318SOL    HW227414   1.753   2.862  12.501 -1.7360 -0.1559  0.3866
 5319SOL     OW27415   3.822   3.500  12.053 -0.3621  0.0906 -0.2793
 5319SOL    HW127416   3.892   3.557  12.022  1.0653 -1.3430  0.2739
 5319SOL    HW227417   3.792   3.475  11.966  0.6778 -0.8668 -0.3703
 5320SOL     OW27418   2.695   3.887  13.747 -0.3416 -0.3743 -0.1811
 5320SOL    HW127419   2.710   3.852  13.836  1.0846 -0.0893 -0.3019
 5320SOL    HW227420   2.707   3.980  13.764 -2.4020  0.0956 -1.3547
 5321SOL     OW27421   1.921   0.262   5.575 -0.2464 -0.2807 -0.2359
 5321SOL    HW127422   1.944   0.209   5.652  3.2278  1.0582 -0.3450
 5321SOL    HW227423   2.003   0.255   5.526  0.9471 -0.0228  1.7187
 5322SOL     OW27424   4.088   4.368   4.458 -0.6031  0.2398 -0.1145
 5322SOL    HW127425   4.137   4.294   4.423 -1.2399 -0.3309  0.1825
 5322SOL    HW227426   4.074   4.336   4.547 -1.4253 -0.0986 -0.3704
 5323SOL     OW27427   1.491   1.345   2.616  0.1356  1.0555  0.4790
 5323SOL    HW127428   1.488   1.398   2.536 -0.2351  2.6287  1.5448
 5323SOL    HW227429   1.509   1.255   2.587 -1.0135  0.7528  0.6849
 5324SOL     OW27430   3.845   4.525   1.098 -0.1362  0.4840  0.0419
 5324SOL    HW127431   3.799   4.608   1.083  0.0720  0.8553  1.5108
 5324SOL    HW227432   3.884   4.511   1.011  0.5521  0.5496  0.3419
 5325SOL     OW27433   4.322   2.061   4.998  0.6188  0.4893  0.0132
 5325SOL    HW127434   4.284   2.125   5.058 -1.6471 -0.0325 -0.8754
 5325SOL    HW227435   4.242   2.057   4.945  0.6420 -0.1632  0.0320
 5326SOL     OW27436   2.752   1.205   4.897 -0.1319  0.1350 -0.4109
 5326SOL    HW127437   2.754   1.266   4.971  0.6367  0.2575 -0.5332
 5326SOL    HW227438   2.657   1.197   4.882 -0.1847 -0.7274  0.4214
 5327SOL     OW27439   0.451   2.592  16.577  0.1177  0.0486  0.3299
 5327SOL    HW127440   0.439   2.508  16.621 -0.8845  1.3439  2.5040
 5327SOL    HW227441   0.540   2.609  16.609  0.1268  1.3222 -0.3793
 5328SOL     OW27442   1.714   3.827   8.090 -0.7692 -0.2068  0.0890
 5328SOL    HW127443   1.742   3.837   8.181 -1.0016 -0.7953  0.2212
 5328SOL    HW227444   1.790   3.779   8.059 -2.0480 -1.7200 -0.7116
 5329SOL     OW27445   2.319   4.359  15.888 -0.5880  0.2411  0.4810
 5329SOL    HW127446   2.376   4.377  15.812 -0.7687 -1.6806 -0.1216
 5329SOL    HW227447   2.381   4.323  15.951 -0.3677  0.1358  0.2080
 5330SOL     OW27448   0.389   0.624  11.253 -0.1578 -0.0603  0.1462
 5330SOL    HW127449   0.464   0.565  11.240 -0.2137  0.1575 -1.1101
 5330SOL    HW227450   0.344   0.571  11.319 -0.1530  2.1324  1.9252
 5331SOL     OW27451   2.702   3.101   3.324  0.1329  0.5144  0.1501
 5331SOL    HW127452   2.661   3.037   3.266  3.2696  0.3322 -1.8969
 5331SOL    HW227453   2.774   3.126   3.265  1.2706 -2.0215  0.4620
 5332SOL     OW27454   1.581   2.823   9.448 -0.6210 -0.0212 -0.2224
 5332SOL    HW127455   1.518   2.754   9.471 -0.9077  0.2082 -0.3128
 5332SOL    HW227456   1.606   2.842   9.538  0.1994  0.9596 -0.6641
 5333SOL     OW27457   3.368   3.592   6.537 -0.7444  0.1559 -0.5935
 5333SOL    HW127458   3.376   3.520   6.600  1.8419  0.2998 -0.7754
 5333SOL    HW227459   3.273   3.604   6.531 -0.5825  1.6839  0.0142
 5334SOL     OW27460   1.283   1.209   8.097  0.2211  0.1973 -0.0697
 5334SOL    HW127461   1.364   1.161   8.114  0.2206  0.9918  2.1727
 5334SOL    HW227462   1.211   1.149   8.079 -0.0374 -0.2348  2.5334
 5335SOL     OW27463   1.083   3.421   8.084 -0.2384  0.2305  0.1788
 5335SOL    HW127464   1.166   3.464   8.063  0.0200 -0.2304  0.2469
 5335SOL    HW227465   1.020   3.484   8.049  0.3117 -0.6159 -2.3957
 5336SOL     OW27466   4.687   4.085   6.076 -0.0482 -0.5556  0.1182
 5336SOL    HW127467   0.036   4.148   6.100  0.8913 -0.9906 -1.4007
 5336SOL    HW227468   4.688   4.030   6.154 -2.3643 -1.0793 -0.2271
 5337SOL     OW27469   3.827   1.242   4.487 -0.3668  0.2707  0.3821
 5337SOL    HW127470   3.795   1.295   4.559  0.4591  0.7685  0.3814
 5337SOL    HW227471   3.872   1.171   4.533  0.7173  0.6612 -0.0770
 5338SOL     OW27472   2.613   0.182   4.573  0.2517 -0.1784 -0.3479
 5338SOL    HW127473   2.560   0.227   4.507  0.6093 -0.5469 -0.8859
 5338SOL    HW227474   2.625   0.094   4.538  0.8822 -0.0392 -0.4943
 5339SOL     OW27475   2.145   0.072   8.106 -0.3940 -0.3243 -0.0913
 5339SOL    HW127476   2.133   0.033   8.019  1.2757 -0.8757 -0.0722
 5339SOL    HW227477   2.189   4.716   8.147 -0.6709 -0.0335  0.7234
 5340SOL     OW27478   2.698   2.524   1.837  0.5231 -1.2042 -0.4870
 5340SOL    HW127479   2.781   2.478   1.820  0.5689 -1.3834  0.2451
 5340SOL    HW227480   2.695   2.598   1.776 -4.0221 -1.2121 -0.2315
 5341SOL     OW27481   3.857   0.126   7.058 -0.7266 -0.3176 -0.3482
 5341SOL    HW127482   3.816   0.195   7.109 -0.4583  0.7879 -1.6233
 5341SOL    HW227483   3.950   0.148   7.066 -1.3099  1.7327  0.5566
 5342SOL     OW27484   2.395   3.646  10.216 -0.2150  0.8034 -0.1377
 5342SOL    HW127485   2.472   3.683  10.259  0.4334 -0.0771 -0.5374
 5342SOL    HW227486   2.410   3.551  10.223 -1.4514  0.6759  0.7266
 5343SOL     OW27487   1.213   1.639  16.171  0.7149 -0.4332 -0.3626
 5343SOL    HW127488   1.215   1.689  16.253 -2.5469 -0.7018 -0.0857
 5343SOL    HW227489   1.303   1.607  16.166 -0.3210 -3.3582 -0.2968
 5344SOL     OW27490   4.251   2.332   0.751  0.2486  0.6898 -0.4135
 5344SOL    HW127491   4.331   2.283   0.768 -0.0961  0.9577  1.9469
 5344SOL    HW227492   4.290   2.409   0.709 -0.3274  1.8373  1.1434
 5345SOL     OW27493   2.962   2.674   9.634 -0.1574  0.0441 -0.7662
 5345SOL    HW127494   2.968   2.691   9.728 -0.5284  1.5960 -1.0247
 5345SOL    HW227495   2.894   2.738   9.614 -1.0818 -0.8471 -0.4152
 5346SOL     OW27496   0.844   4.481   5.228  0.1760  0.2117  0.7389
 5346SOL    HW127497   0.842   4.502   5.134  0.3494 -0.5758  0.5586
 5346SOL    HW227498   0.889   4.397   5.232  0.0892  0.0733 -1.1240
 5347SOL     OW27499   1.740   2.031   8.627 -0.4069  0.4447  0.4010
 5347SOL    HW127500   1.736   1.995   8.716  1.1655 -0.8421 -0.0512
 5347SOL    HW227501   1.653   2.010   8.594  0.1831  0.0881 -0.9039
 5348SOL     OW27502   1.818   0.653   7.585  0.1171  0.3231  0.0740
 5348SOL    HW127503   1.851   0.673   7.497  2.4406 -0.7669  0.6977
 5348SOL    HW227504   1.890   0.690   7.636 -0.8757  1.1274  0.8856
 5349SOL     OW27505   1.279   4.278   7.833  0.1699  0.5292  0.7300
 5349SOL    HW127506   1.262   4.239   7.919  0.3911  1.0820  1.0274
 5349SOL    HW227507   1.369   4.310   7.841 -0.1864  1.7261  0.0437
 5350SOL     OW27508   3.106   4.707   5.391  0.1028  0.1359 -0.4492
 5350SOL    HW127509   3.184   0.022   5.435  1.0096 -2.0315 -0.3505
 5350SOL    HW227510   3.127   0.016   5.302  0.1202  2.9712  0.4458
 5351SOL     OW27511   1.405   1.436   0.602 -0.4192  0.0099 -0.5561
 5351SOL    HW127512   1.426   1.518   0.647 -1.4482 -0.6546  1.1238
 5351SOL    HW227513   1.405   1.457   0.509  1.2233 -0.0195 -0.5649
 5352SOL     OW27514   1.979   4.471   4.104  0.0437  0.3751 -0.0020
 5352SOL    HW127515   1.917   4.481   4.177  0.1524  0.1056  0.1286
 5352SOL    HW227516   2.012   4.382   4.118  0.7607  0.2700 -2.4467
 5353SOL     OW27517   0.227   0.303   4.747 -0.6473  0.0745 -0.5909
 5353SOL    HW127518   0.200   0.380   4.799  1.3366  0.5545 -0.2749
 5353SOL    HW227519   0.322   0.314   4.752 -0.6353  0.2858 -1.2758
 5354SOL     OW27520   1.802   2.764  15.133  0.5533  0.5832 -0.1507
 5354SOL    HW127521   1.724   2.792  15.180  0.0753  2.3134 -1.9457
 5354SOL    HW227522   1.776   2.788  15.044 -0.3219  0.6246  0.1238
 5355SOL     OW27523   3.043   3.333   6.427 -0.0177 -0.1271 -0.1754
 5355SOL    HW127524   3.092   3.345   6.346  1.5706 -1.4700  0.5919
 5355SOL    HW227525   3.080   3.247   6.447 -1.6399 -0.7134  0.2912
 5356SOL     OW27526   3.657   3.224   4.847 -0.2292  0.1381 -0.8025
 5356SOL    HW127527   3.594   3.289   4.815  1.5640  1.7872 -0.9702
 5356SOL    HW227528   3.733   3.258   4.800  0.5449 -1.6208 -0.8341
 5357SOL     OW27529   4.552   0.638  11.714  0.4285  0.1548 -0.0511
 5357SOL    HW127530   4.529   0.657  11.623  1.6945  1.0539 -0.1733
 5357SOL    HW227531   4.641   0.673  11.720 -0.4747  2.2868  0.6558
 5358SOL     OW27532   3.127   1.434   2.759 -0.4249  0.3714 -0.1074
 5358SOL    HW127533   3.157   1.376   2.689 -0.5874  1.8936 -1.4386
 5358SOL    HW227534   3.054   1.376   2.780  0.6148 -0.1970  1.9762
 5359SOL     OW27535   2.808   3.177   7.419  0.1315  0.3711  0.0935
 5359SOL    HW127536   2.816   3.258   7.470  0.1770  2.2558 -2.9508
 5359SOL    HW227537   2.712   3.171   7.416  0.2266 -0.1570 -1.6175
 5360SOL     OW27538   1.228   1.848   0.238 -0.2907 -0.5912  0.1426
 5360SOL    HW127539   1.246   1.756   0.222  0.9056 -0.5031  1.0249
 5360SOL    HW227540   1.149   1.845   0.291 -2.1106 -0.5164 -2.5253
 5361SOL     OW27541   0.564   4.663   8.688  0.7034 -0.2248 -0.0586
 5361SOL    HW127542   0.480   4.629   8.658 -0.6496  0.7917  2.5370
 5361SOL    HW227543   0.572   4.614   8.770 -3.0092  1.7454  1.4960
 5362SOL     OW27544   4.599   0.855   6.260  0.0595  0.4616  0.2531
 5362SOL    HW127545   4.664   0.809   6.312  1.0115  0.5105 -0.8952
 5362SOL    HW227546   4.571   0.926   6.318 -2.3456 -0.4686  0.2287
 5363SOL     OW27547   1.175   0.743   4.969  0.1451  0.1780  0.4876
 5363SOL    HW127548   1.123   0.670   5.003 -1.1312  1.4027  1.1849
 5363SOL    HW227549   1.211   0.699   4.892 -0.1683 -0.4629  0.6997
 5364SOL     OW27550   3.390   3.877   6.514  0.5581  0.0293  0.5841
 5364SOL    HW127551   3.383   3.784   6.535 -1.2672 -0.3006 -1.4473
 5364SOL    HW227552   3.421   3.907   6.600  1.1415  0.7908  0.1201
 5365SOL     OW27553   2.085   4.541  10.973  0.3096  0.9045  0.7830
 5365SOL    HW127554   2.011   4.520  11.029 -0.8718  1.9961 -0.3489
 5365SOL    HW227555   2.095   4.462  10.920  1.1898  0.0653  2.2095
 5366SOL     OW27556   0.553   0.908   3.394  1.0760  0.2359 -0.1250
 5366SOL    HW127557   0.630   0.963   3.383  1.4703 -0.4774 -0.9718
 5366SOL    HW227558   0.561   0.849   3.318 -1.7652  0.0562 -0.2989
 5367SOL     OW27559   3.735   2.015   3.709 -0.5957  0.1311 -0.7126
 5367SOL    HW127560   3.777   1.977   3.786 -1.4431  0.2281 -0.1967
 5367SOL    HW227561   3.811   2.006   3.652  1.7074  0.2928  2.3668
 5368SOL     OW27562   1.974   1.897  17.250 -0.3603 -0.3731  0.4102
 5368SOL    HW127563   2.001   1.807  17.233  1.8531  0.4261 -0.3548
 5368SOL    HW227564   2.041   1.938  17.195  0.9242 -3.4643 -0.3329
 5369SOL     OW27565   0.412   1.034   0.561  0.3737 -0.5717  0.5236
 5369SOL    HW127566   0.333   1.070   0.522  1.2486  0.4059 -0.3331
 5369SOL    HW227567   0.375   0.959   0.609  1.9645 -1.5574  0.2103
 5370SOL     OW27568   2.982   0.973   3.933  0.3687  0.0878  0.0976
 5370SOL    HW127569   2.929   1.040   3.891 -1.4676  0.2006  2.6180
 5370SOL    HW227570   2.952   0.893   3.890 -1.1873  0.7644 -0.0430
 5371SOL     OW27571   4.445   2.734  14.354 -0.3697 -0.2676 -0.4609
 5371SOL    HW127572   4.454   2.691  14.269  2.6019 -0.3620 -0.1006
 5371SOL    HW227573   4.425   2.825  14.335  3.5055  1.3491  3.1201
 5372SOL     OW27574   4.281   4.525   0.790  0.1620  0.4786  0.4030
 5372SOL    HW127575   4.260   4.615   0.765  1.8596  0.5694 -0.6816
 5372SOL    HW227576   4.308   4.546   0.879  1.6274  1.8381 -0.3830
 5373SOL     OW27577   3.518   0.595   8.056 -0.1374 -0.1883  0.3794
 5373SOL    HW127578   3.475   0.647   8.124 -2.1093  0.3447 -1.2699
 5373SOL    HW227579   3.612   0.602   8.072 -0.1374 -0.6465  0.6125
 5374SOL     OW27580   4.176   2.188  12.602  0.1852  0.3286  0.3082
 5374SOL    HW127581   4.144   2.270  12.641  0.2278  0.0568  0.9064
 5374SOL    HW227582   4.145   2.120  12.661 -1.5118 -0.6144 -1.6554
 5375SOL     OW27583   0.769   2.525   5.232  0.2587 -0.5546  0.0828
 5375SOL    HW127584   0.720   2.443   5.223  0.2300 -0.5025 -0.2490
 5375SOL    HW227585   0.714   2.571   5.295  2.6054  0.6523  1.2475
 5376SOL     OW27586   0.360   0.732   5.357 -0.1303  0.0722  0.3090
 5376SOL    HW127587   0.308   0.807   5.328  0.0418  0.1312  0.1551
 5376SOL    HW227588   0.351   0.673   5.282  0.0676 -2.1295  2.0107
 5377SOL     OW27589   0.961   4.328   5.752 -0.3145 -0.0091  0.1690
 5377SOL    HW127590   0.972   4.423   5.749  0.6196 -0.1347 -0.5097
 5377SOL    HW227591   0.888   4.300   5.696 -0.3230  1.2616 -0.4579
 5378SOL     OW27592   3.794   2.681   8.069  0.0519 -0.1139 -0.0281
 5378SOL    HW127593   3.721   2.719   8.118  0.0766  0.2922 -0.3067
 5378SOL    HW227594   3.757   2.599   8.036  0.7620 -1.0179  1.3877
 5379SOL     OW27595   4.134   4.655   8.463 -0.2834 -0.0120 -0.3640
 5379SOL    HW127596   4.188   4.685   8.537 -0.3013 -0.3606 -0.2060
 5379SOL    HW227597   4.191   4.615   8.397 -0.8576 -0.2838 -0.6908
 5380SOL     OW27598   0.261   3.048   8.442  0.1520  0.1182  0.7711
 5380SOL    HW127599   0.204   2.971   8.438  0.3369 -0.0111  0.5958
 5380SOL    HW227600   0.317   3.037   8.364  0.1149  1.9869  0.4820
 5381SOL     OW27601   2.914   1.587   0.481  0.1264  0.0901  0.1833
 5381SOL    HW127602   2.951   1.633   0.557 -0.3694  0.2986  0.2981
 5381SOL    HW227603   2.999   1.573   0.440 -0.1060 -0.3036 -0.1586
 5382SOL     OW27604   0.224   2.195   9.484  0.1870  0.1740 -0.0378
 5382SOL    HW127605   0.232   2.102   9.462  1.9732  0.8875 -2.3156
 5382SOL    HW227606   0.154   2.197   9.549 -0.6521 -1.8114 -0.8667
 5383SOL     OW27607   3.038   2.425  15.286  0.3397 -0.3933  0.4569
 5383SOL    HW127608   3.027   2.466  15.372 -2.2147 -0.0644 -0.0351
 5383SOL    HW227609   3.111   2.367  15.309 -0.0677 -0.9527  0.3366
 5384SOL     OW27610   0.683   2.756   7.440 -0.4548 -0.2608  0.2406
 5384SOL    HW127611   0.721   2.844   7.446 -0.1648 -0.0849 -3.7270
 5384SOL    HW227612   0.751   2.723   7.381 -1.1335 -0.7876 -0.2442
 5385SOL     OW27613   1.861   0.736   6.330 -0.6231  0.2990 -0.7172
 5385SOL    HW127614   1.850   0.745   6.424 -1.7266  0.4710 -0.8703
 5385SOL    HW227615   1.899   0.649   6.318  1.3035  1.4734 -3.2264
 5386SOL     OW27616   0.423   3.678   4.174 -0.4423 -0.7511 -0.1282
 5386SOL    HW127617   0.493   3.743   4.172 -0.5202 -0.7044 -2.0545
 5386SOL    HW227618   0.445   3.615   4.105 -0.5255  0.3058 -1.1358
 5387SOL     OW27619   4.433   0.542   4.546 -0.2129 -0.5418 -0.3023
 5387SOL    HW127620   4.496   0.474   4.569 -1.5304 -0.8012  2.4095
 5387SOL    HW227621   4.397   0.556   4.633 -2.3536  0.9640 -1.4211
 5388SOL     OW27622   0.912   0.112   5.704  0.4890 -0.5142 -0.3043
 5388SOL    HW127623   0.816   0.109   5.714  0.5079 -0.9914 -0.2322
 5388SOL    HW227624   0.924   0.035   5.648 -2.1904  0.0243 -1.6182
 5389SOL     OW27625   2.978   3.617   5.890  0.6765 -0.2841 -0.1253
 5389SOL    HW127626   3.017   3.677   5.827 -3.2455  1.9103 -0.4382
 5389SOL    HW227627   2.921   3.674   5.943  0.0594  0.5378 -1.6870
 5390SOL     OW27628   1.547   0.590   1.675 -0.1766 -0.3076  0.0305
 5390SOL    HW127629   1.631   0.634   1.669  0.5027 -1.6334 -0.1529
 5390SOL    HW227630   1.512   0.596   1.586 -0.5969  1.3456  0.3025
 5391SOL     OW27631   2.069   0.211   7.690  0.0276  0.0401 -0.0882
 5391SOL    HW127632   2.151   0.174   7.722 -1.1214 -1.8708  0.6328
 5391SOL    HW227633   2.056   0.132   7.637  2.8033 -0.8795  0.5800
 5392SOL     OW27634   4.523   2.110  15.727 -0.8102  0.5297 -0.5271
 5392SOL    HW127635   4.429   2.093  15.727 -1.0143  1.6683 -1.6044
 5392SOL    HW227636   4.540   2.044  15.659  2.0860  0.5488  0.1780
 5393SOL     OW27637   0.742   0.829  12.867 -0.1721 -0.3240 -0.1213
 5393SOL    HW127638   0.672   0.887  12.898 -1.6370 -0.8661 -2.4329
 5393SOL    HW227639   0.722   0.800  12.778  0.4421  0.8675 -0.6458
 5394SOL     OW27640   3.682   0.070   2.135  0.2405  0.1540 -0.4666
 5394SOL    HW127641   3.589   0.052   2.120  0.1015  0.7136 -0.2621
 5394SOL    HW227642   3.725   0.048   2.052  0.3310  0.7253 -0.5650
 5395SOL     OW27643   3.176   2.397   2.664 -0.2711 -0.4140  0.0760
 5395SOL    HW127644   3.230   2.431   2.593 -2.6974  3.0267 -0.0580
 5395SOL    HW227645   3.098   2.452   2.660  0.1577  0.1926  0.0024
 5396SOL     OW27646   3.637   2.527   9.153 -0.5210  0.3276 -0.1345
 5396SOL    HW127647   3.610   2.488   9.236  1.4129 -1.3754 -0.3275
 5396SOL    HW227648   3.619   2.459   9.088 -0.1123 -0.5022  0.6217
 5397SOL     OW27649   4.674   1.332   6.345  0.1336  0.0821  0.1354
 5397SOL    HW127650   4.678   1.324   6.249  1.6401 -3.5115  0.5175
 5397SOL    HW227651   0.050   1.331   6.362  0.1270  2.4451  0.3339
 5398SOL     OW27652   4.554   4.543   7.125 -0.1130  0.1743  0.6031
 5398SOL    HW127653   4.522   4.625   7.164 -0.6605  0.4393 -0.3783
 5398SOL    HW227654   4.492   4.545   7.051  0.7554  2.4050 -0.0768
 5399SOL     OW27655   1.591   0.657   7.036 -0.1185 -0.5992 -0.2181
 5399SOL    HW127656   1.642   0.609   7.101  1.2580 -1.5639 -2.0076
 5399SOL    HW227657   1.648   0.732   7.023  0.1232 -1.0538 -1.7735
 5400SOL     OW27658   1.386   1.533  11.622  0.6436  0.0813 -0.3771
 5400SOL    HW127659   1.477   1.560  11.607  0.4088  1.0625 -0.0458
 5400SOL    HW227660   1.387   1.444  11.586 -2.9142 -0.3828  0.6746
 5401SOL     OW27661   1.291   2.958   3.040  0.4745  0.2243 -0.0343
 5401SOL    HW127662   1.346   2.983   3.115 -1.0389  1.6171  0.6030
 5401SOL    HW227663   1.219   2.926   3.094 -1.3462 -0.5934 -2.9916
 5402SOL     OW27664   2.102   0.394   3.415 -0.0984  0.0314 -0.0477
 5402SOL    HW127665   2.058   0.455   3.475  2.8000  0.2627  1.8458
 5402SOL    HW227666   2.093   0.435   3.329 -1.4668 -1.1543 -0.4678
 5403SOL     OW27667   4.192   1.820   0.753  0.5352 -0.0046 -0.1299
 5403SOL    HW127668   4.142   1.742   0.730  2.0812 -1.4225  1.3272
 5403SOL    HW227669   4.272   1.785   0.791  0.5852 -0.6821 -0.8596
 5404SOL     OW27670   2.715   3.928   6.836  0.1420 -0.0132 -0.3942
 5404SOL    HW127671   2.657   4.001   6.861 -2.8436 -2.3451 -0.5275
 5404SOL    HW227672   2.802   3.968   6.838  0.4172 -0.6356 -0.1403
 5405SOL     OW27673   2.402   2.013   5.658 -0.1864 -0.1291  0.3347
 5405SOL    HW127674   2.392   1.951   5.730  1.9184  0.9069  1.5089
 5405SOL    HW227675   2.483   2.057   5.684  0.3605 -0.1234 -1.3427
 5406SOL     OW27676   2.247   1.805  16.961 -0.4824 -0.4099  0.1221
 5406SOL    HW127677   2.302   1.836  17.033  0.5917  1.9813 -1.7516
 5406SOL    HW227678   2.193   1.884  16.955  0.2216 -0.0133 -0.9198
 5407SOL     OW27679   4.603   1.894  13.457 -0.6725 -0.3336 -0.0567
 5407SOL    HW127680   4.515   1.907  13.422 -0.7294 -0.5881 -0.0079
 5407SOL    HW227681   4.578   1.844  13.534  1.2731 -0.6929  0.3335
 5408SOL     OW27682   2.058   0.727  17.551  0.3758 -0.1132 -0.3161
 5408SOL    HW127683   2.089   0.690  17.468 -0.7268 -0.6123 -0.5128
 5408SOL    HW227684   1.981   0.670  17.551 -1.5604  2.5039 -0.1832
 5409SOL     OW27685   4.536   0.173   8.539  0.2862  0.6241 -0.1789
 5409SOL    HW127686   4.558   0.124   8.460  1.2722 -0.1147  0.5532
 5409SOL    HW227687   4.520   0.258   8.498 -0.0630  1.8758  2.5251
 5410SOL     OW27688   0.277   1.541   0.395  0.1089  0.2778 -0.4869
 5410SOL    HW127689   0.207   1.605   0.385  0.5186  0.2726 -3.6850
 5410SOL    HW227690   0.242   1.465   0.348  0.2640 -0.2429  0.2377
 5411SOL     OW27691   0.500   3.077   8.257  0.7878 -0.0323 -0.3831
 5411SOL    HW127692   0.545   2.997   8.284 -0.3134  0.0747  1.8225
 5411SOL    HW227693   0.443   3.052   8.184 -0.4932 -1.0790  0.9656
 5412SOL     OW27694   1.405   3.109   8.787 -0.5436 -0.0698 -0.8308
 5412SOL    HW127695   1.482   3.166   8.791 -0.8319  0.2023  0.8227
 5412SOL    HW227696   1.419   3.083   8.696  2.2568 -0.2544 -0.3480
 5413SOL     OW27697   1.734   0.411  12.082 -0.1925 -0.8245 -0.0816
 5413SOL    HW127698   1.787   0.485  12.053  0.1939 -0.2602  2.0702
 5413SOL    HW227699   1.701   0.459  12.158 -0.1244 -0.3665 -0.3439
 5414SOL     OW27700   3.768   0.879  16.451  0.0180  0.8125 -0.5336
 5414SOL    HW127701   3.843   0.936  16.437  0.5812 -0.0981 -1.2556
 5414SOL    HW227702   3.785   0.817  16.379 -1.6096 -0.2796  0.0230
 5415SOL     OW27703   3.411   3.601   7.349  0.2292  0.8597 -0.0643
 5415SOL    HW127704   3.338   3.663   7.351 -1.4291 -1.0288 -1.0920
 5415SOL    HW227705   3.486   3.651   7.319  0.2077  1.0628  0.2123
 5416SOL     OW27706   1.321   4.009   0.080 -0.5816 -0.5592 -0.4068
 5416SOL    HW127707   1.331   4.081   0.018  2.3449 -0.6688 -0.0397
 5416SOL    HW227708   1.415   3.998   0.087 -0.6304  0.6550  1.8384
 5417SOL     OW27709   2.041   4.618   1.746 -0.1156  0.6090 -0.0705
 5417SOL    HW127710   2.082   4.537   1.778  0.3831  0.7774 -0.2853
 5417SOL    HW227711   2.030   4.608   1.652  1.3824 -1.0417 -0.0653
 5418SOL     OW27712   0.751   0.342  15.641 -0.5618 -0.3805  0.0411
 5418SOL    HW127713   0.714   0.270  15.590 -3.0702  0.1686  1.1173
 5418SOL    HW227714   0.841   0.348  15.608 -0.9156 -1.4007 -1.1092
 5419SOL     OW27715   3.490   4.318  16.284  0.0527 -0.2111  0.2222
 5419SOL    HW127716   3.470   4.361  16.367  0.2534 -2.7359  1.5850
 5419SOL    HW227717   3.585   4.328  16.278  0.1040 -1.4659 -1.0074
 5420SOL     OW27718   2.271   0.834   3.529  0.2549 -0.2725 -0.3538
 5420SOL    HW127719   2.332   0.795   3.591 -0.4604  0.6196  0.9143
 5420SOL    HW227720   2.335   0.887   3.481  2.1522 -0.6590  1.7961
 5421SOL     OW27721   0.537   0.329   3.019  0.7945 -1.0114 -0.0480
 5421SOL    HW127722   0.506   0.352   3.107 -1.4492  0.3969 -1.2132
 5421SOL    HW227723   0.507   0.403   2.966 -0.4278 -2.8130 -1.8726
 5422SOL     OW27724   0.820   3.652   8.445 -0.1233  0.3309  0.2627
 5422SOL    HW127725   0.778   3.639   8.360 -1.0451  0.4886  0.6967
 5422SOL    HW227726   0.884   3.582   8.429 -1.3232 -0.9557  1.0256
 5423SOL     OW27727   1.471   4.413  10.328  0.2799  0.3631 -0.4147
 5423SOL    HW127728   1.557   4.457  10.321  0.3493  0.2646 -0.1754
 5423SOL    HW227729   1.428   4.464  10.396  2.7392 -1.0783  2.2157
 5424SOL     OW27730   3.796   0.402   2.489 -0.0356  0.5928  0.2575
 5424SOL    HW127731   3.768   0.312   2.507  1.5601 -0.3509 -1.9421
 5424SOL    HW227732   3.723   0.441   2.536 -1.8637 -1.4687 -0.8561
 5425SOL     OW27733   1.086   1.905   5.324  0.2010  0.6100  0.0779
 5425SOL    HW127734   1.136   1.983   5.301  2.0091 -0.5092  0.2645
 5425SOL    HW227735   1.020   1.906   5.254 -1.1327 -0.8677  1.2940
 5426SOL     OW27736   0.870   4.444   6.612  0.8577  0.0452 -0.3750
 5426SOL    HW127737   0.920   4.410   6.539 -1.5415 -2.0559 -1.0522
 5426SOL    HW227738   0.908   4.396   6.686 -0.1248 -0.2693 -0.0636
 5427SOL     OW27739   2.823   2.802   7.212 -0.2406 -0.9584 -0.3566
 5427SOL    HW127740   2.885   2.738   7.176 -0.8560 -0.5317 -2.1727
 5427SOL    HW227741   2.738   2.767   7.188 -0.7562 -0.8612  1.3379
 5428SOL     OW27742   1.993   1.862   7.206 -0.4136 -0.0768 -1.0314
 5428SOL    HW127743   2.058   1.914   7.160  0.6787 -0.2954  0.2740
 5428SOL    HW227744   1.915   1.872   7.151 -2.8181 -0.3729  2.3400
 5429SOL     OW27745   1.901   3.276  12.602 -0.1447  0.1107  0.0370
 5429SOL    HW127746   1.911   3.336  12.676  0.3240  0.4266 -0.2793
 5429SOL    HW227747   1.877   3.339  12.534  1.1854 -0.5357 -1.0453
 5430SOL     OW27748   0.143   1.689   6.513 -0.3263 -0.0076  0.5788
 5430SOL    HW127749   0.211   1.757   6.507 -0.8550  0.6218  1.7946
 5430SOL    HW227750   0.149   1.645   6.428  0.0746 -1.8321  1.5657
 5431SOL     OW27751   1.844   0.358   4.174  0.4482  0.3007 -0.0365
 5431SOL    HW127752   1.874   0.348   4.084  0.6861 -0.5244  0.1349
 5431SOL    HW227753   1.928   0.349   4.219  1.5161 -1.2682 -2.3903
 5432SOL     OW27754   0.887   1.553  15.678  0.3013 -0.0856 -0.3765
 5432SOL    HW127755   0.925   1.473  15.713 -1.7891 -1.2489 -0.7835
 5432SOL    HW227756   0.886   1.537  15.584 -0.3832  2.4647 -0.8117
 5433SOL     OW27757   0.754   1.061   5.596 -0.3773 -0.0565 -0.4999
 5433SOL    HW127758   0.705   1.143   5.605 -1.0111 -0.7327  2.1632
 5433SOL    HW227759   0.826   1.087   5.538 -0.3517  1.5351  0.2440
 5434SOL     OW27760   1.294   3.528  11.415 -0.1146  0.4931  0.5095
 5434SOL    HW127761   1.315   3.516  11.508 -0.8537  0.4045  0.6649
 5434SOL    HW227762   1.226   3.594  11.424 -0.5848  0.2298 -1.0897
 5435SOL     OW27763   2.685   2.477   4.263 -0.2223  0.2332  0.6407
 5435SOL    HW127764   2.605   2.526   4.242  0.1851  0.9346  0.7353
 5435SOL    HW227765   2.651   2.418   4.330 -0.0064 -0.9298 -0.2783
 5436SOL     OW27766   4.384   2.487   5.252 -0.0029  0.2754 -0.1004
 5436SOL    HW127767   4.336   2.486   5.334 -0.5124  0.2905 -0.3977
 5436SOL    HW227768   4.460   2.541   5.275 -0.6994  0.9765  0.5580
 5437SOL     OW27769   3.454   1.003  10.527  0.4509 -0.3236  1.1745
 5437SOL    HW127770   3.518   0.945  10.569  1.1879 -1.8150 -2.0293
 5437SOL    HW227771   3.391   1.015  10.599 -2.1339 -2.0115 -0.8152
 5438SOL     OW27772   0.859   0.021   4.643 -0.3758  0.2395  0.3007
 5438SOL    HW127773   0.906   4.664   4.678 -2.6245  0.0501  2.9476
 5438SOL    HW227774   0.791   4.691   4.598  0.9950 -3.0426  1.7963
 5439SOL     OW27775   2.907   3.181   5.770  0.1758 -0.1109 -0.3702
 5439SOL    HW127776   2.962   3.241   5.820  1.0322 -0.8673 -0.4179
 5439SOL    HW227777   2.945   3.191   5.683 -0.4847  1.5007 -0.4770
 5440SOL     OW27778   0.301   1.770   1.834  0.8903 -0.2247 -0.2012
 5440SOL    HW127779   0.323   1.735   1.921 -2.4258  1.0609  1.1279
 5440SOL    HW227780   0.226   1.825   1.854  0.8351  0.2599 -1.7336
 5441SOL     OW27781   0.938   1.025   7.368  0.4018 -0.2109 -0.2356
 5441SOL    HW127782   0.996   1.004   7.442 -0.2423  2.6762  1.0989
 5441SOL    HW227783   0.945   1.120   7.364  3.7103 -0.3935  0.5687
 5442SOL     OW27784   1.933   1.385   0.961  0.4151  0.0370  0.0476
 5442SOL    HW127785   2.007   1.335   0.996 -0.7614 -0.0982  2.3732
 5442SOL    HW227786   1.967   1.430   0.884  2.3793 -2.2100 -0.3840
 5443SOL     OW27787   1.521   1.068  15.188 -0.1214  0.3052 -0.0398
 5443SOL    HW127788   1.427   1.048  15.191 -0.1776  0.6000  0.1193
 5443SOL    HW227789   1.519   1.163  15.178  0.6895  0.2497 -0.7084
 5444SOL     OW27790   3.833   1.112  14.555 -0.0284  0.0021 -0.0226
 5444SOL    HW127791   3.755   1.160  14.526 -0.5658 -0.7809  0.1438
 5444SOL    HW227792   3.893   1.133  14.484 -0.3184  1.6825  0.2223
 5445SOL     OW27793   3.323   0.509   4.404  0.6763  0.0879 -0.7396
 5445SOL    HW127794   3.273   0.500   4.323 -2.8613 -0.1037  1.4806
 5445SOL    HW227795   3.303   0.418   4.423  0.1408 -0.0824 -2.1406
 5446SOL     OW27796   0.824   4.446  11.764  0.4034  0.4654  0.5633
 5446SOL    HW127797   0.831   4.520  11.824 -0.3360  0.0392  1.1710
 5446SOL    HW227798   0.763   4.478  11.698 -0.4263  0.3616  1.2714
 5447SOL     OW27799   1.916   2.595   6.807  0.1293 -0.7974 -0.3831
 5447SOL    HW127800   1.860   2.672   6.824 -2.4168 -2.4089 -1.4140
 5447SOL    HW227801   1.857   2.533   6.850 -0.5038 -0.3694 -0.6221
 5448SOL     OW27802   0.926   3.656   4.473 -0.1894 -0.0621 -0.5818
 5448SOL    HW127803   0.938   3.561   4.467 -0.3828 -0.2263  1.5204
 5448SOL    HW227804   0.971   3.679   4.391  0.1501 -1.2688 -0.7359
 5449SOL     OW27805   4.300   0.776   8.310 -0.2321  0.3757  0.3376
 5449SOL    HW127806   4.300   0.870   8.327  0.4713  0.4720 -0.2107
 5449SOL    HW227807   4.389   0.747   8.327 -0.3607  0.2152  0.7576
 5450SOL     OW27808   0.960   4.659   5.073  0.1547 -0.1039  0.2608
 5450SOL    HW127809   1.026   4.647   5.142  0.3043  0.4558  0.2183
 5450SOL    HW227810   1.001   4.620   4.996  1.4758  1.5832  0.1242
 5451SOL     OW27811   2.481   3.939   2.120 -0.2943 -0.0400  0.3914
 5451SOL    HW127812   2.472   4.013   2.060  0.0093  0.1521  0.5810
 5451SOL    HW227813   2.497   3.983   2.203 -0.2381  0.1226  0.2941
 5452SOL     OW27814   2.277   0.323  13.730  0.4458 -0.2304 -0.1126
 5452SOL    HW127815   2.218   0.391  13.763 -1.2579 -1.5383 -0.5030
 5452SOL    HW227816   2.364   0.363  13.733  1.5201 -2.6571  0.3529
 5453SOL     OW27817   0.125   4.688   2.669  0.6466 -0.2144  0.0761
 5453SOL    HW127818   0.180   0.027   2.721 -0.4270  0.1397  0.8210
 5453SOL    HW227819   0.049   4.698   2.727  1.6311 -0.2747  1.3762
 5454SOL     OW27820   3.688   1.015   3.896  0.1055 -0.3741 -0.5747
 5454SOL    HW127821   3.678   1.105   3.928  0.6427 -1.3040  2.2052
 5454SOL    HW227822   3.601   0.976   3.888 -0.1211  0.1087 -0.4626
 5455SOL     OW27823   1.799   0.927   7.127 -0.2612 -0.1449  0.5339
 5455SOL    HW127824   1.855   1.002   7.105  0.2433 -0.4333  0.8430
 5455SOL    HW227825   1.828   0.918   7.218 -0.9038 -1.5027  0.5915
 5456SOL     OW27826   0.620   0.915   5.795  0.2550  0.2367  0.2930
 5456SOL    HW127827   0.528   0.896   5.775  0.3907 -2.3349  2.1816
 5456SOL    HW227828   0.647   0.949   5.709 -2.0233  0.7821 -0.2081
 5457SOL     OW27829   2.068   1.821   6.818 -0.1733  0.2719  0.0533
 5457SOL    HW127830   2.149   1.790   6.860  0.0371  1.8318  0.8110
 5457SOL    HW227831   2.048   1.746   6.762 -2.4789  1.3752 -0.5970
 5458SOL     OW27832   1.036   0.814  16.411 -0.3532  0.2428 -0.7511
 5458SOL    HW127833   1.057   0.887  16.468  3.4336 -1.2219 -0.2698
 5458SOL    HW227834   1.123   0.791  16.377  0.3856 -2.6608  2.9908
 5459SOL     OW27835   3.842   3.207   5.780  0.0611 -0.0779  0.1956
 5459SOL    HW127836   3.768   3.241   5.829 -0.3502 -2.8419  1.5170
 5459SOL    HW227837   3.895   3.181   5.856  0.4915  0.3921  0.0597
 5460SOL     OW27838   4.329   3.707   2.427  0.0734  0.0054 -0.0323
 5460SOL    HW127839   4.259   3.773   2.424  0.5782  0.4126 -3.2689
 5460SOL    HW227840   4.328   3.673   2.337  0.7213 -0.1131  0.0084
 5461SOL     OW27841   0.992   2.160   3.476  0.2024 -0.2207 -0.2023
 5461SOL    HW127842   0.977   2.071   3.508  1.5155 -2.1903 -5.0639
 5461SOL    HW227843   1.024   2.144   3.388 -1.0850  2.3390 -1.1151
 5462SOL     OW27844   3.428   3.472   6.221 -0.2340  0.1110  0.3014
 5462SOL    HW127845   3.495   3.535   6.248  1.1886 -1.6845  0.9905
 5462SOL    HW227846   3.489   3.399   6.210  0.8921  1.1881 -0.8280
 5463SOL     OW27847   1.167   3.877  15.343 -0.2422 -0.4582 -0.4242
 5463SOL    HW127848   1.241   3.925  15.382  0.1841  1.3163 -3.4469
 5463SOL    HW227849   1.182   3.789  15.378 -2.3031 -0.6652 -0.0460
 5464SOL     OW27850   2.998   1.791   2.393  0.3669  0.5055 -0.3289
 5464SOL    HW127851   3.045   1.799   2.475  0.8342  0.9573 -0.6449
 5464SOL    HW227852   3.042   1.724   2.341  0.2272  0.3500 -0.2467
 5465SOL     OW27853   3.221   2.206   4.844  0.1069  0.3472  0.2430
 5465SOL    HW127854   3.302   2.252   4.823 -0.2063  0.9545  0.3638
 5465SOL    HW227855   3.193   2.192   4.754  0.5499  0.0652  0.1509
 5466SOL     OW27856   2.221   2.398   1.574  0.1196 -0.5271  0.2817
 5466SOL    HW127857   2.134   2.396   1.535  0.0556  2.5646  0.2547
 5466SOL    HW227858   2.206   2.401   1.669 -0.6620  2.5746  0.0700
 5467SOL     OW27859   2.783   0.210   4.255 -0.2958 -0.3206  0.8754
 5467SOL    HW127860   2.707   0.156   4.235  0.9648 -0.7000 -2.7674
 5467SOL    HW227861   2.743   0.284   4.302 -1.0123  0.2180 -0.6019
 5468SOL     OW27862   1.428   1.332   4.705  0.2038 -0.0439  0.4737
 5468SOL    HW127863   1.391   1.303   4.621 -0.2262  1.3028  0.2026
 5468SOL    HW227864   1.513   1.288   4.706  0.7024  0.8777 -0.8585
 5469SOL     OW27865   3.862   3.069   8.055 -0.3494  0.5078 -0.2501
 5469SOL    HW127866   3.829   2.984   8.028 -0.4948 -0.0256  1.5732
 5469SOL    HW227867   3.955   3.049   8.067 -0.4577 -0.0382 -0.3465
 5470SOL     OW27868   1.138   3.418  16.546  0.1196 -0.1597 -0.6215
 5470SOL    HW127869   1.155   3.324  16.533  0.6068 -0.4097  1.9040
 5470SOL    HW227870   1.094   3.438  16.463  1.0501  1.9537 -0.5932
 5471SOL     OW27871   2.716   0.439   7.886  0.3076  0.0985  0.1710
 5471SOL    HW127872   2.802   0.447   7.846  0.6267 -0.1408  0.8011
 5471SOL    HW227873   2.721   0.351   7.923  1.6160 -0.1985 -0.7381
 5472SOL     OW27874   3.505   3.942  13.065 -0.0523  0.2325  0.3435
 5472SOL    HW127875   3.494   3.978  13.153  1.1164 -1.4087  1.1531
 5472SOL    HW227876   3.440   3.872  13.071  0.6137 -0.3548  0.6630
 5473SOL     OW27877   1.404   0.169  15.845  0.0630 -0.3856 -0.0321
 5473SOL    HW127878   1.432   0.094  15.897 -0.8202  0.4967  1.7386
 5473SOL    HW227879   1.318   0.185  15.885  0.4630 -0.0624  0.6965
 5474SOL     OW27880   0.317   0.932  16.726  0.1304 -0.0639 -0.1925
 5474SOL    HW127881   0.341   0.846  16.689  0.2914  0.1124 -0.5037
 5474SOL    HW227882   0.368   0.938  16.806  1.3546  0.2046 -0.9801
 5475SOL     OW27883   2.441   1.376   7.431 -0.3454  0.0433  0.3413
 5475SOL    HW127884   2.390   1.456   7.418 -0.6212 -0.4645 -1.8342
 5475SOL    HW227885   2.426   1.359   7.523 -0.5812  1.6898  0.5959
 5476SOL     OW27886   2.803   2.287  12.581 -0.0549  0.3266 -0.3436
 5476SOL    HW127887   2.749   2.297  12.659 -0.0229 -0.4984 -0.2161
 5476SOL    HW227888   2.749   2.230  12.526 -3.3602  2.3360  0.8005
 5477SOL     OW27889   2.590   4.087  10.418  0.3792 -0.2191 -0.0959
 5477SOL    HW127890   2.516   4.146  10.434  1.8044  1.7889 -0.9390
 5477SOL    HW227891   2.641   4.124  10.346  0.4470  0.4780  0.3112
 5478SOL     OW27892   4.122   1.329   3.400  0.3241 -0.5914  0.5196
 5478SOL    HW127893   4.157   1.244   3.373 -1.4310 -0.8830 -0.8033
 5478SOL    HW227894   4.091   1.367   3.318  2.7244  1.9379  0.8019
 5479SOL     OW27895   3.681   1.408  14.782 -0.4126  0.4265  0.2756
 5479SOL    HW127896   3.757   1.461  14.756 -1.4260  2.4826  1.5360
 5479SOL    HW227897   3.655   1.380  14.694  2.5368  0.4199 -0.6053
 5480SOL     OW27898   0.069   1.789   2.727 -0.1207 -0.4335  0.5723
 5480SOL    HW127899   0.047   1.877   2.696 -1.9498 -0.5904  1.4732
 5480SOL    HW227900   4.704   1.761   2.761 -1.6387  2.2112 -0.9633
 5481SOL     OW27901   1.596   0.120   3.551  0.1316 -0.2314  0.6054
 5481SOL    HW127902   1.541   0.082   3.619 -0.3007 -0.4666  0.1294
 5481SOL    HW227903   1.686   0.120   3.583  1.1508  0.0403 -2.2468
 5482SOL     OW27904   0.680   2.263  16.115 -0.2857  0.5000 -0.4401
 5482SOL    HW127905   0.610   2.241  16.177  1.6878 -1.0011  1.2514
 5482SOL    HW227906   0.628   2.312  16.051 -0.1426  0.3732 -0.6538
 5483SOL     OW27907   4.092   3.101   9.995  0.2648  0.0009 -0.7026
 5483SOL    HW127908   4.129   3.087   9.908 -0.3772  1.2688 -1.1826
 5483SOL    HW227909   4.174   3.108  10.044  0.2003  0.6331 -0.6804
 5484SOL     OW27910   4.509   0.127  12.365  0.3991  1.4230  0.0108
 5484SOL    HW127911   4.453   0.153  12.438  1.4526 -0.4334  1.4724
 5484SOL    HW227912   4.583   0.086  12.410 -2.1821 -0.3749  2.5935
 5485SOL     OW27913   2.827   2.751   2.831 -0.0874  0.2004  0.2951
 5485SOL    HW127914   2.913   2.724   2.864  0.3325 -0.2867 -1.1798
 5485SOL    HW227915   2.858   2.784   2.747 -0.0735  1.2432  0.7142
 5486SOL     OW27916   1.270   3.706   3.070 -0.0478  0.4653  0.5061
 5486SOL    HW127917   1.264   3.716   2.976 -0.1127 -0.1083  0.4485
 5486SOL    HW227918   1.302   3.616   3.070  0.0990  0.5148  0.8559
 5487SOL     OW27919   3.144   0.079  14.758 -0.5891  0.5950 -0.2345
 5487SOL    HW127920   3.069   0.107  14.810  0.5029  1.4340  0.9069
 5487SOL    HW227921   3.207   0.151  14.767  0.0994 -0.1353  0.7033
 5488SOL     OW27922   3.563   0.531   7.575 -0.0086 -0.3511 -0.1596
 5488SOL    HW127923   3.648   0.520   7.617  1.0586 -1.3609 -2.5623
 5488SOL    HW227924   3.505   0.575   7.637  1.3185 -0.6750  1.3012
 5489SOL     OW27925   1.837   2.063   3.291  0.0169 -0.4268  0.2290
 5489SOL    HW127926   1.809   2.088   3.203  0.5382  4.9612  1.5924
 5489SOL    HW227927   1.907   2.128   3.299 -0.9609  0.8765 -1.9316
 5490SOL     OW27928   2.076   4.376   5.338  0.2532  0.4105 -0.1768
 5490SOL    HW127929   2.081   4.398   5.245 -0.3882  0.4732 -0.1968
 5490SOL    HW227930   2.054   4.457   5.384 -0.3571  0.5940 -0.7985
 5491SOL     OW27931   1.818   1.688   4.242  0.2126  0.4171 -0.9056
 5491SOL    HW127932   1.846   1.605   4.280  1.4757  0.8838 -0.8046
 5491SOL    HW227933   1.790   1.738   4.319 -0.3950  0.4650 -1.1577
 5492SOL     OW27934   3.577   1.066   5.460  0.2909 -0.0990  0.2454
 5492SOL    HW127935   3.611   1.079   5.549  0.0038  0.2310  0.3056
 5492SOL    HW227936   3.632   1.134   5.421  0.0132 -0.1473 -0.2224
 5493SOL     OW27937   0.634   2.393   3.165 -0.0188 -0.0500 -0.7994
 5493SOL    HW127938   0.550   2.350   3.177  0.3181 -0.3313  0.5018
 5493SOL    HW227939   0.618   2.456   3.095  0.8310  1.6173  0.5127
 5494SOL     OW27940   2.813   1.306  17.676  0.0486 -0.7087 -0.8270
 5494SOL    HW127941   2.744   1.360   0.037  0.0083 -1.1235 -0.3246
 5494SOL    HW227942   2.864   1.367  17.623  0.0595  0.1114  0.1246
 5495SOL     OW27943   1.955   2.450   5.348 -0.2338 -0.4539  0.0190
 5495SOL    HW127944   1.908   2.410   5.275  0.1922 -2.7090  0.9662
 5495SOL    HW227945   2.016   2.379   5.370 -1.0107 -1.1058  0.0727
 5496SOL     OW27946   4.593   0.379  10.899  0.3959  0.3195 -0.1924
 5496SOL    HW127947   4.579   0.474  10.905  1.5339  0.3040  2.8083
 5496SOL    HW227948   4.686   0.371  10.923 -0.2038 -0.4720  1.8551
 5497SOL     OW27949   1.884   4.380   8.039  0.5029  0.4135 -0.2727
 5497SOL    HW127950   1.802   4.335   8.018  2.4281 -2.8422 -0.7281
 5497SOL    HW227951   1.880   4.419   8.127 -2.1440  0.4396 -0.4101
 5498SOL     OW27952   4.542   0.544   9.979 -0.1949  0.0981 -0.1404
 5498SOL    HW127953   4.541   0.546  10.075 -0.2775  1.1327 -0.1520
 5498SOL    HW227954   4.452   0.576   9.966 -0.7474 -1.4710 -0.1813
 5499SOL     OW27955   2.683   4.427   3.603 -0.5362  0.6561 -0.1562
 5499SOL    HW127956   2.627   4.350   3.599  0.8502 -0.5351  3.2739
 5499SOL    HW227957   2.665   4.440   3.696 -2.3503 -0.1334 -0.4143
 5500SOL     OW27958   1.590   0.136   0.822  0.2930  0.6518 -0.1840
 5500SOL    HW127959   1.629   0.080   0.754  1.9738 -1.1422  2.2229
 5500SOL    HW227960   1.497   0.121   0.805  0.1778  1.6258 -0.3871
 5501SOL     OW27961   0.968   0.304   6.039 -0.0846  0.8073  1.0589
 5501SOL    HW127962   0.925   0.317   6.123  0.6058  2.3449  1.1879
 5501SOL    HW227963   1.049   0.261   6.066 -1.4579 -2.0312  0.5878
 5502SOL     OW27964   2.252   4.334   1.499  0.2077 -0.0914 -0.8171
 5502SOL    HW127965   2.211   4.269   1.556 -0.1811 -0.9216 -2.0419
 5502SOL    HW227966   2.227   4.319   1.408  2.0737 -2.3875 -0.9557
 5503SOL     OW27967   0.633   1.895  11.960 -0.5787 -0.1433 -0.5133
 5503SOL    HW127968   0.697   1.848  11.907  0.3654  1.4331 -0.7590
 5503SOL    HW227969   0.554   1.843  11.944 -0.4256 -0.6156  0.2236
 5504SOL     OW27970   1.950   1.393  14.192 -0.5288 -0.5131 -0.0632
 5504SOL    HW127971   1.888   1.458  14.159 -1.5013 -1.8352 -0.8586
 5504SOL    HW227972   1.916   1.360  14.275  0.6222  2.5235  1.5829
 5505SOL     OW27973   4.349   1.567   3.734 -0.3607 -0.2307  0.5860
 5505SOL    HW127974   4.261   1.588   3.766 -1.2897  0.5976 -2.5229
 5505SOL    HW227975   4.339   1.538   3.643  2.2581  1.4581 -0.2506
 5506SOL     OW27976   0.358   2.760   4.006  0.1498  0.2664  0.2706
 5506SOL    HW127977   0.407   2.792   4.081 -0.2384 -2.1816  1.5630
 5506SOL    HW227978   0.349   2.667   4.028  1.1516  0.1158  0.0534
 5507SOL     OW27979   1.498   1.629   2.683  0.0513  0.3662  0.6948
 5507SOL    HW127980   1.418   1.674   2.656  0.7797  1.3182  0.1239
 5507SOL    HW227981   1.561   1.682   2.634 -1.2051  1.3442  0.1320
 5508SOL     OW27982   3.958   2.063   3.588 -0.3828  0.1392  0.0762
 5508SOL    HW127983   4.021   2.008   3.543  0.0611 -0.4724  1.4589
 5508SOL    HW227984   3.972   2.148   3.546 -1.8322  0.9863  1.3033
 5509SOL     OW27985   3.413   3.678   4.220  0.2982 -0.0592  0.3226
 5509SOL    HW127986   3.407   3.603   4.160 -0.5717  0.8146 -0.6819
 5509SOL    HW227987   3.363   3.645   4.294  0.8703 -2.1394 -0.2189
 5510SOL     OW27988   2.798   2.343   3.249 -0.0105  0.2639  0.0345
 5510SOL    HW127989   2.798   2.257   3.291 -3.8175  0.2808  0.0754
 5510SOL    HW227990   2.737   2.384   3.310 -2.5771 -3.6586  0.0430
 5511SOL     OW27991   0.195   4.221   9.484 -0.1347 -0.3714 -0.0020
 5511SOL    HW127992   0.113   4.172   9.478  0.2352 -0.9219 -0.5772
 5511SOL    HW227993   0.256   4.167   9.433 -1.3797 -1.0027 -0.8286
 5512SOL     OW27994   1.408   0.535   3.383  0.5875 -0.0511  0.0384
 5512SOL    HW127995   1.465   0.461   3.404 -0.3725 -0.8924 -0.3310
 5512SOL    HW227996   1.342   0.508   3.319  0.1765 -0.2167  0.5253
 5513SOL     OW27997   2.597   2.167   0.112 -0.1786  0.0626  0.5979
 5513SOL    HW127998   2.527   2.122   0.160  0.3373  1.1843  2.4121
 5513SOL    HW227999   2.655   2.091   0.118 -0.9194 -0.5861 -0.5678
 5514SOL     OW28000   3.984   2.053   2.593 -0.2897 -0.1041  0.3880
 5514SOL    HW128001   4.067   2.005   2.591 -0.1202  0.1820  0.6646
 5514SOL    HW228002   4.004   2.116   2.662 -1.0363 -1.7859  2.1489
 5515SOL     OW28003   0.003   0.940   7.317 -0.1338  0.1432  0.2815
 5515SOL    HW128004   4.699   1.022   7.360  0.8132  0.5478 -0.0069
 5515SOL    HW228005   4.637   0.894   7.317 -0.1841  0.2325  0.9852
 5516SOL     OW28006   4.666   2.727   1.944  0.2623 -0.3113  0.0814
 5516SOL    HW128007   4.638   2.780   1.869  1.7691 -1.8572 -1.5585
 5516SOL    HW228008   0.025   2.676   1.924 -0.4694 -0.5549 -2.2215
 5517SOL     OW28009   1.808   4.012  13.053  0.3648 -0.2035  0.2482
 5517SOL    HW128010   1.853   4.042  13.133  0.4508  1.1146 -0.2949
 5517SOL    HW228011   1.743   4.082  13.052  0.8808  0.2930  0.8691
 5518SOL     OW28012   0.643   0.504   7.237  0.1249 -0.2938  0.7999
 5518SOL    HW128013   0.626   0.413   7.210 -1.3410 -0.0689  0.9519
 5518SOL    HW228014   0.674   0.542   7.154 -0.3664 -4.0040 -1.0979
 5519SOL     OW28015   2.553   3.456  15.862  0.0468  0.1076  0.3252
 5519SOL    HW128016   2.547   3.507  15.781  0.4331  0.8367  0.7527
 5519SOL    HW228017   2.601   3.377  15.836  0.4550  1.2598 -2.4562
 5520SOL     OW28018   0.354   4.384   9.728 -0.1853  0.2473  0.4461
 5520SOL    HW128019   0.343   4.404   9.635  0.7165 -1.1008  0.0544
 5520SOL    HW228020   0.438   4.337   9.730  0.1469  0.8878  1.3533
 5521SOL     OW28021   3.159   3.664  12.507 -0.0576 -0.5862  0.4662
 5521SOL    HW128022   3.142   3.696  12.418 -1.4872  1.6065  1.5321
 5521SOL    HW228023   3.231   3.719  12.537 -1.9980  1.5883  1.1562
 5522SOL     OW28024   0.166   3.486   5.658 -0.2266  0.3217 -0.1588
 5522SOL    HW128025   0.097   3.450   5.712 -0.1457  0.5488  0.0963
 5522SOL    HW228026   0.191   3.415   5.599  0.1616 -0.8534  1.4554
 5523SOL     OW28027   2.582   3.635   3.402  0.0835 -0.7094  0.3991
 5523SOL    HW128028   2.568   3.707   3.464 -1.1177 -2.4918  2.1593
 5523SOL    HW228029   2.492   3.631   3.370 -0.0361 -0.4049  0.6888
 5524SOL     OW28030   0.562   1.205   2.361  0.0788 -0.0011  0.1101
 5524SOL    HW128031   0.619   1.131   2.380  0.0655  0.6953  2.8171
 5524SOL    HW228032   0.607   1.264   2.421 -0.7813  0.1775  0.5810
 5525SOL     OW28033   2.522   4.604   4.121  0.4455 -0.5071 -0.9520
 5525SOL    HW128034   2.512   4.555   4.202  1.2535  0.4080 -0.3003
 5525SOL    HW228035   2.439   4.591   4.075  0.4734 -1.6820 -0.6650
 5526SOL     OW28036   2.330   3.491   4.393 -0.3598 -0.0518  0.0216
 5526SOL    HW128037   2.414   3.507   4.436  0.2694 -0.3944 -1.0789
 5526SOL    HW228038   2.315   3.397   4.386  0.1020 -0.1167 -0.1015
 5527SOL     OW28039   0.776   1.312   2.951  0.1281 -0.3566 -0.4538
 5527SOL    HW128040   0.762   1.270   3.035  2.8418  1.9194  1.1404
 5527SOL    HW228041   0.720   1.259   2.894 -0.9989 -1.2715  1.5104
 5528SOL     OW28042   3.729   0.944   5.705 -0.0813  0.2795  0.2494
 5528SOL    HW128043   3.720   0.856   5.668  0.7262 -0.6462  2.2601
 5528SOL    HW228044   3.810   0.969   5.660 -0.3813  1.2898  0.2746
 5529SOL     OW28045   1.712   4.212   4.330 -0.4904 -0.0288  0.4384
 5529SOL    HW128046   1.657   4.146   4.289 -0.6643 -0.6549  1.7107
 5529SOL    HW228047   1.649   4.283   4.319 -0.3880 -0.1739 -1.1371
 5530SOL     OW28048   2.849   2.348   4.100 -0.0649 -0.3125  0.3834
 5530SOL    HW128049   2.878   2.270   4.148  0.8448  0.2181  0.6903
 5530SOL    HW228050   2.783   2.375   4.165  1.3358  2.5346  0.6129
 5531SOL     OW28051   0.647   4.481   5.824  0.4174  0.1034  0.5017
 5531SOL    HW128052   0.586   4.424   5.776  0.7280  1.5027 -1.5585
 5531SOL    HW228053   0.695   4.526   5.754  0.7318  1.3990  1.5686
 5532SOL     OW28054   0.100   3.731   6.982  0.6121 -0.2959  0.4918
 5532SOL    HW128055   0.174   3.766   6.932  0.7762 -1.5407 -0.1345
 5532SOL    HW228056   0.065   3.688   6.904  1.6050  2.0799 -1.2450
 5533SOL     OW28057   3.059   1.455   5.256 -0.9495  0.2088  0.3206
 5533SOL    HW128058   3.008   1.532   5.279 -0.6440  0.2993  0.7091
 5533SOL    HW228059   3.115   1.492   5.187 -2.4992  0.6962 -0.6708
 5534SOL     OW28060   1.913   1.192  16.031 -0.1053  0.2236  0.3687
 5534SOL    HW128061   1.892   1.264  16.091  0.3363  1.3769 -0.8578
 5534SOL    HW228062   1.829   1.149  16.014 -0.3378  0.8024  0.0621
 5535SOL     OW28063   3.346   1.543   6.251 -0.0734 -0.3745  0.1287
 5535SOL    HW128064   3.413   1.491   6.205  2.1664 -0.6208  3.6045
 5535SOL    HW228065   3.404   1.589   6.312 -1.2642  1.5401 -0.2113
 5536SOL     OW28066   0.565   1.809   4.561 -0.0880  0.5240 -0.2013
 5536SOL    HW128067   0.632   1.764   4.509  1.1813  0.6985  1.2739
 5536SOL    HW228068   0.495   1.807   4.496 -0.0845 -0.8670 -0.1675
 5537SOL     OW28069   2.235   0.489   3.892  1.0006 -1.1937  0.2824
 5537SOL    HW128070   2.198   0.407   3.860 -1.6705  0.3018 -0.4877
 5537SOL    HW228071   2.171   0.512   3.960 -0.5554  1.0761 -1.9359
 5538SOL     OW28072   4.266   3.353   7.173 -0.0116 -0.1394 -0.5528
 5538SOL    HW128073   4.194   3.388   7.121  0.3805  2.4200  0.6099
 5538SOL    HW228074   4.273   3.417   7.244  1.5171  0.0996 -0.9070
 5539SOL     OW28075   0.369   3.854   2.236  0.0021 -0.4518 -0.2472
 5539SOL    HW128076   0.329   3.773   2.203  0.9533 -0.3998 -1.5392
 5539SOL    HW228077   0.381   3.832   2.328  1.0158 -1.0394 -0.5231
 5540SOL     OW28078   0.203   4.592   2.412  0.0554  0.2316 -0.1378
 5540SOL    HW128079   0.151   4.525   2.366  0.5727 -0.4657  0.3133
 5540SOL    HW228080   0.147   4.624   2.482  0.4687  0.9956 -0.1571
 5541SOL     OW28081   1.809   4.334   6.652 -0.0374  0.8771  0.5421
 5541SOL    HW128082   1.754   4.256   6.641 -2.5392  3.1532 -2.9730
 5541SOL    HW228083   1.745   4.385   6.603 -0.9852  0.8775  1.8107
 5542SOL     OW28084   1.399   1.662   8.669 -0.1953  0.4242 -0.0235
 5542SOL    HW128085   1.428   1.571   8.666 -2.0416 -0.1536 -0.3477
 5542SOL    HW228086   1.305   1.648   8.652  0.0772 -0.1116 -1.1120
 5543SOL     OW28087   0.713   1.028  17.642 -0.3974  0.3004  0.0145
 5543SOL    HW128088   0.653   1.089   0.007 -1.5811 -0.4883 -0.5288
 5543SOL    HW228089   0.758   0.983   0.035  0.8297  0.8197 -0.4301
 5544SOL     OW28090   4.216   3.226  12.162 -0.2353 -0.7014 -0.2657
 5544SOL    HW128091   4.228   3.305  12.214  0.4136 -1.5969  0.9378
 5544SOL    HW228092   4.120   3.222  12.161 -0.2295 -0.6886 -0.9413
 5545SOL     OW28093   3.712   4.471  10.897 -0.5869  0.0491 -0.4158
 5545SOL    HW128094   3.746   4.499  10.982 -3.5077 -0.1520  0.8102
 5545SOL    HW228095   3.726   4.377  10.901 -2.7153 -0.3144 -1.4614
 5546SOL     OW28096   0.480   1.925   7.309 -0.7132  0.3305  0.2270
 5546SOL    HW128097   0.495   1.982   7.384 -0.4214  2.7497 -1.6605
 5546SOL    HW228098   0.501   1.834   7.331 -0.5291  0.1807 -0.5484
 5547SOL     OW28099   3.953   0.337   5.681  0.2508 -0.1038  0.3537
 5547SOL    HW128100   4.039   0.362   5.716  0.6740 -1.3341  0.2149
 5547SOL    HW228101   3.991   0.265   5.630 -3.3170 -1.4551 -0.3554
 5548SOL     OW28102   1.475   4.616  10.073  0.2569 -0.0653 -1.0052
 5548SOL    HW128103   1.441   4.531  10.045  0.5926 -0.8435  0.9041
 5548SOL    HW228104   1.535   4.583  10.140 -4.3154 -0.4974  2.8827
 5549SOL     OW28105   2.146   3.166   4.385  0.4098  0.1685  0.6291
 5549SOL    HW128106   2.157   3.181   4.479 -3.5663  1.5314  0.8722
 5549SOL    HW228107   2.210   3.097   4.369  0.7359  0.3304  1.2071
 5550SOL     OW28108   4.359   2.610   4.265  0.2846  0.4730 -0.3187
 5550SOL    HW128109   4.333   2.598   4.174  0.1027  1.0471 -0.3418
 5550SOL    HW228110   4.397   2.697   4.266  0.6212  0.3359 -1.3338
 5551SOL     OW28111   0.333   2.595  12.287  0.4015  0.3951 -0.4985
 5551SOL    HW128112   0.371   2.613  12.201  0.1992  2.1811 -0.2244
 5551SOL    HW228113   0.324   2.500  12.288 -0.9095  0.5163 -0.7593
 5552SOL     OW28114   0.366   4.707   6.731  0.3205 -0.1247 -0.1037
 5552SOL    HW128115   0.387   4.685   6.821 -0.1501  1.2499  0.3482
 5552SOL    HW228116   0.384   4.632   6.675  1.4384  0.8111 -1.0003
 5553SOL     OW28117   2.533   3.257   4.555 -0.0339  0.7627 -0.1215
 5553SOL    HW128118   2.500   3.206   4.481  0.5397 -0.7521  0.6590
 5553SOL    HW228119   2.502   3.202   4.628  2.2595  0.0671  0.3390
 5554SOL     OW28120   3.554   4.663   1.114  0.0139 -0.2504  0.1221
 5554SOL    HW128121   3.524   4.713   1.038 -2.2275 -1.3541  0.2686
 5554SOL    HW228122   3.516   4.576   1.104 -2.7411  0.8623  0.8069
 5555SOL     OW28123   3.094   1.758   9.090 -0.6649 -0.2123 -0.5439
 5555SOL    HW128124   3.061   1.846   9.074 -1.9691 -0.0481  3.0862
 5555SOL    HW228125   3.185   1.772   9.064 -0.2062 -2.0551  0.0125
 5556SOL     OW28126   1.763   0.699   3.850 -0.4550  0.2225  1.1176
 5556SOL    HW128127   1.740   0.649   3.929  0.4706  0.2682  1.4134
 5556SOL    HW228128   1.822   0.766   3.885  0.7709  1.1610 -2.7696
 5557SOL     OW28129   3.002   4.682   1.836 -0.0117  0.2102 -0.4317
 5557SOL    HW128130   2.952   4.711   1.912 -0.5231 -1.3834 -0.1704
 5557SOL    HW228131   2.948   4.615   1.794  1.2486 -2.4173  2.1135
 5558SOL     OW28132   3.070   0.385   9.502 -0.4467  0.0199 -0.0235
 5558SOL    HW128133   3.134   0.383   9.574 -2.8434 -1.1115  2.1039
 5558SOL    HW228134   3.073   0.473   9.465 -0.6135 -0.3639 -0.9443
 5559SOL     OW28135   2.383   1.528  10.268  0.5383  0.0370 -0.2160
 5559SOL    HW128136   2.382   1.620  10.292 -0.0770  0.0209 -0.1920
 5559SOL    HW228137   2.479   1.522  10.266  0.5557  0.0794  0.3930
 5560SOL     OW28138   2.661   2.770  12.895 -0.8960  0.0265  0.0010
 5560SOL    HW128139   2.693   2.858  12.910  2.0279 -0.8311 -1.2037
 5560SOL    HW228140   2.571   2.787  12.866 -0.8438  0.9877  0.4337
 5561SOL     OW28141   3.203   0.421   4.153 -1.0232  0.3502 -0.7140
 5561SOL    HW128142   3.221   0.328   4.137  2.3930  0.9035 -0.1340
 5561SOL    HW228143   3.234   0.457   4.069  0.2280 -0.5731 -0.6491
 5562SOL     OW28144   4.331   3.101   2.525 -0.6542  0.2117 -0.0618
 5562SOL    HW128145   4.339   3.137   2.437 -0.1130  1.1026  0.3530
 5562SOL    HW228146   4.240   3.122   2.547 -0.4446  1.1276 -0.0700
 5563SOL     OW28147   1.680   1.083  12.169  0.3404  0.3435  0.1495
 5563SOL    HW128148   1.598   1.099  12.215  0.1111  1.4559 -0.6349
 5563SOL    HW228149   1.724   1.168  12.164  0.0436  0.4175 -1.1482
 5564SOL     OW28150   1.178   3.381   6.619 -0.4507  0.3937 -0.1134
 5564SOL    HW128151   1.238   3.312   6.592 -3.0210 -1.1466 -1.8602
 5564SOL    HW228152   1.163   3.365   6.712 -1.6916  0.3934 -0.3136
 5565SOL     OW28153   4.355   1.046   8.361 -0.4074  0.3709  0.0639
 5565SOL    HW128154   4.433   1.094   8.335 -0.3978  1.2543  1.7227
 5565SOL    HW228155   4.284   1.107   8.382  0.9457  1.1695  2.2905
 5566SOL     OW28156   3.690   3.475  15.334 -0.0266  0.1185  0.1330
 5566SOL    HW128157   3.771   3.525  15.345 -0.2627  0.8697 -1.5886
 5566SOL    HW228158   3.647   3.527  15.267 -1.2542 -2.3031 -0.9751
 5567SOL     OW28159   3.498   3.021   2.149 -0.5640  0.1973 -0.4953
 5567SOL    HW128160   3.441   2.948   2.125  3.5209 -3.5235  1.1396
 5567SOL    HW228161   3.450   3.071   2.216  1.2003  1.0023  0.1709
 5568SOL     OW28162   1.662   3.666  16.795 -0.0050 -0.3831  0.0367
 5568SOL    HW128163   1.749   3.659  16.755  0.5072 -0.2624  1.1322
 5568SOL    HW228164   1.693   3.688  16.883 -3.3037 -1.1314  1.3798
 5569SOL     OW28165   1.371   1.429   1.010  0.1612 -0.7206  0.2486
 5569SOL    HW128166   1.278   1.421   1.031 -0.0705 -2.3011 -1.4358
 5569SOL    HW228167   1.375   1.453   0.918  0.6867  0.0401  0.4644
 5570SOL     OW28168   3.514   2.949   2.798 -0.0519 -0.4504  0.0856
 5570SOL    HW128169   3.491   3.031   2.754  0.9353 -1.4123 -2.2221
 5570SOL    HW228170   3.478   2.965   2.885 -0.1414  0.8857 -0.1990
 5571SOL     OW28171   1.583   2.717   5.221 -0.2431  0.0775  0.0164
 5571SOL    HW128172   1.640   2.793   5.207  1.2784 -0.8995  0.9747
 5571SOL    HW228173   1.550   2.714   5.131  0.6071  0.3393 -0.2995
 5572SOL     OW28174   1.918   0.297   0.141  0.3525 -0.2353  0.5354
 5572SOL    HW128175   1.901   0.206   0.165 -1.0841 -0.5440 -1.5890
 5572SOL    HW228176   1.909   0.309   0.046  0.5570 -0.8973  0.4295
 5573SOL     OW28177   0.204   0.048   8.425 -0.2002  0.3809 -0.2342
 5573SOL    HW128178   0.257   0.108   8.373 -0.1295  0.7400  0.2565
 5573SOL    HW228179   0.117   0.062   8.388 -0.5033  0.1856  0.4003
 5574SOL     OW28180   4.565   0.904   0.850  0.2689  0.6323  0.2074
 5574SOL    HW128181   4.472   0.894   0.831  0.8408  0.1163 -2.2991
 5574SOL    HW228182   4.593   0.981   0.800  0.1274 -0.2575 -1.2419
 5575SOL     OW28183   2.720   1.638   3.627 -0.1645 -0.2078  0.2221
 5575SOL    HW128184   2.742   1.718   3.676 -1.5439  1.0050 -1.1224
 5575SOL    HW228185   2.673   1.683   3.556  1.3121  0.3427 -0.4063
 5576SOL     OW28186   3.340   3.559   8.467  0.0343 -0.0931 -0.1773
 5576SOL    HW128187   3.342   3.541   8.373 -0.1904  0.4720 -0.2892
 5576SOL    HW228188   3.384   3.488   8.514  0.8150  0.0719 -0.6559
 5577SOL     OW28189   3.699   0.609   6.863 -0.6602 -0.2008  0.3769
 5577SOL    HW128190   3.783   0.572   6.888  0.9308  1.7447 -2.0181
 5577SOL    HW228191   3.653   0.539   6.816  2.2108 -0.8910 -1.3492
 5578SOL     OW28192   2.015   4.708   2.353  0.6764  0.0294  0.2027
 5578SOL    HW128193   1.942   0.008   2.294 -1.3391 -1.2664  2.2646
 5578SOL    HW228194   1.991   0.027   2.437 -1.8660 -1.8973  0.3539
 5579SOL     OW28195   1.729   3.677  14.381 -0.3651 -0.0135  0.2338
 5579SOL    HW128196   1.693   3.598  14.422  1.1397 -0.9493 -0.2603
 5579SOL    HW228197   1.794   3.640  14.321 -2.4692  0.2430 -2.2071
 5580SOL     OW28198   3.172   2.260  11.084  0.4244  0.0570  0.2285
 5580SOL    HW128199   3.215   2.220  11.009  0.3697 -0.3075  0.3912
 5580SOL    HW228200   3.253   2.287  11.126  0.4053 -3.3196  2.4453
 5581SOL     OW28201   0.534   1.055  14.629 -0.1005 -0.0166  0.6949
 5581SOL    HW128202   0.473   0.998  14.676  0.4590 -0.8961  0.3677
 5581SOL    HW228203   0.543   1.132  14.686  2.1429  1.8855 -2.2358
 5582SOL     OW28204   4.104   0.785  14.352  0.0827  0.0021  0.5680
 5582SOL    HW128205   4.091   0.851  14.284  0.1921 -0.0965  0.4502
 5582SOL    HW228206   4.025   0.782  14.407 -0.5589 -0.9196 -0.3975
 5583SOL     OW28207   3.480   4.408   1.026 -0.7265  0.2340  0.1831
 5583SOL    HW128208   3.445   4.370   0.946 -0.4594  0.2406  0.0636
 5583SOL    HW228209   3.483   4.329   1.079  0.8608 -0.3397 -0.7777
 5584SOL     OW28210   0.910   4.622   8.161  0.3216  0.2336 -0.4564
 5584SOL    HW128211   0.855   4.700   8.161  0.2425  0.1818  0.2013
 5584SOL    HW228212   0.925   4.623   8.256 -0.6689  4.6976 -0.3761
 5585SOL     OW28213   0.864   1.265  17.017  0.5927  0.1876  0.2999
 5585SOL    HW128214   0.831   1.354  17.005 -0.5218 -0.2895 -0.1208
 5585SOL    HW228215   0.863   1.235  16.926 -1.7371  1.3862 -0.0546
 5586SOL     OW28216   0.391   2.014  14.085  0.2858 -0.3310  0.2519
 5586SOL    HW128217   0.373   1.926  14.053 -0.6656 -0.5717  1.4383
 5586SOL    HW228218   0.303   2.052  14.075 -0.3897 -2.2806 -1.2876
 5587SOL     OW28219   3.748   0.703  10.400  0.2434 -0.2051  0.0261
 5587SOL    HW128220   3.734   0.760  10.476 -2.4307 -0.6635 -0.1301
 5587SOL    HW228221   3.755   0.772  10.334  0.8407  0.2384  0.5506
 5588SOL     OW28222   2.444   4.045  11.783 -0.2382  0.0799 -0.2795
 5588SOL    HW128223   2.499   4.119  11.807 -1.4274  1.3500 -1.4455
 5588SOL    HW228224   2.513   3.997  11.737  0.2988  0.3477  0.2447
 5589SOL     OW28225   2.361   0.827   1.196  0.2451  0.1625  0.0276
 5589SOL    HW128226   2.429   0.793   1.138  0.3386  3.2462 -1.7191
 5589SOL    HW228227   2.326   0.745   1.229 -1.7703  0.7869 -0.4906
 5590SOL     OW28228   3.622   0.254   8.613 -0.1397  0.4470 -0.1290
 5590SOL    HW128229   3.666   0.328   8.572  0.4485  0.5976  0.7796
 5590SOL    HW228230   3.637   0.185   8.548 -0.5267 -0.8548  1.1704
 5591SOL     OW28231   2.255   1.833   3.054 -0.0466  0.2832 -0.2796
 5591SOL    HW128232   2.201   1.755   3.042 -0.7668  1.2600 -3.3217
 5591SOL    HW228233   2.282   1.844   2.963 -1.2383 -0.6557 -0.7453
 5592SOL     OW28234   0.608   3.958  13.395 -0.1973  0.3207 -0.3003
 5592SOL    HW128235   0.666   3.995  13.462 -0.2853  2.0303 -1.1660
 5592SOL    HW228236   0.557   4.034  13.368 -2.0984 -0.1208  2.0554
 5593SOL     OW28237   0.218   3.195   2.816  0.4329  0.3901 -0.0361
 5593SOL    HW128238   0.213   3.144   2.735 -3.4338  0.2000  0.3134
 5593SOL    HW228239   0.126   3.214   2.833  0.2246  0.2104 -0.9442
 5594SOL     OW28240   0.313   0.303   9.374 -0.3582 -0.0608 -0.5830
 5594SOL    HW128241   0.265   0.237   9.423  0.1689  1.1221  1.5341
 5594SOL    HW228242   0.237   0.347   9.334 -1.4995 -0.2244  1.4320
 5595SOL     OW28243   0.915   2.507   3.231 -0.3636 -0.2400  0.1097
 5595SOL    HW128244   0.849   2.470   3.289  0.2455  0.7395  1.4476
 5595SOL    HW228245   0.954   2.430   3.190 -1.8120  0.3453 -2.4006
 5596SOL     OW28246   4.579   0.221  10.178  0.3487 -0.6148 -0.3288
 5596SOL    HW128247   4.530   0.202  10.097  0.3543 -0.3418 -0.3957
 5596SOL    HW228248   4.657   0.167  10.164  0.6319  0.0599 -1.4407
 5597SOL     OW28249   2.574   3.580   3.838  0.0018 -0.4205 -0.3639
 5597SOL    HW128250   2.620   3.541   3.763 -1.7005 -0.9544 -1.1255
 5597SOL    HW228251   2.572   3.671   3.807  1.3063 -0.0014  0.7737
 5598SOL     OW28252   2.168   1.147   2.760  0.2961  0.4946 -0.1044
 5598SOL    HW128253   2.198   1.231   2.793 -1.2961  1.5933 -1.4537
 5598SOL    HW228254   2.258   1.113   2.761  1.0011  2.3932  0.1605
 5599SOL     OW28255   3.180   0.252   6.646  0.7190  0.0335 -0.0436
 5599SOL    HW128256   3.157   0.313   6.716 -1.0284 -2.2628  1.3954
 5599SOL    HW228257   3.262   0.213   6.677  0.4153 -0.3307  0.2990
 5600SOL     OW28258   4.278   3.175   2.973  0.4628 -0.7289  0.0442
 5600SOL    HW128259   4.331   3.101   2.942  2.3214  1.3251 -1.6222
 5600SOL    HW228260   4.197   3.141   2.935  0.3980 -0.2349 -0.2527
 5601SOL     OW28261   2.256   0.900   6.246  0.2813  0.4004 -0.1380
 5601SOL    HW128262   2.303   0.983   6.237 -0.0728  0.7538  1.1876
 5601SOL    HW228263   2.296   0.854   6.172 -0.5751  0.2418 -0.5054
 5602SOL     OW28264   3.893   4.228   0.716 -0.2055 -0.4667  0.6432
 5602SOL    HW128265   3.876   4.284   0.792 -0.6873  0.1060  0.1099
 5602SOL    HW228266   3.809   4.235   0.671  0.2438  1.2656  0.0521
 5603SOL     OW28267   2.788   1.399  13.436  0.1932  0.0735  0.4360
 5603SOL    HW128268   2.769   1.358  13.520  0.2093 -0.9749 -0.0696
 5603SOL    HW228269   2.834   1.330  13.389  1.1667  0.8359  0.2634
 5604SOL     OW28270   2.033   1.634  17.279  0.6648 -0.6795 -0.3208
 5604SOL    HW128271   2.110   1.637  17.336 -0.7261  1.4006  1.4618
 5604SOL    HW228272   2.046   1.562  17.218 -0.9739  1.6516 -3.4375
 5605SOL     OW28273   0.241   4.645   0.399 -0.0311 -0.9002  0.0538
 5605SOL    HW128274   0.280   4.617   0.482 -0.8175  0.1573  0.7812
 5605SOL    HW228275   0.264   4.572   0.342 -1.4463  0.8752 -2.7971
 5606SOL     OW28276   1.013   4.380   0.869  0.2165  0.8404  0.2600
 5606SOL    HW128277   0.977   4.459   0.909  0.6958  0.8705  0.6338
 5606SOL    HW228278   0.967   4.324   0.932  2.2675  0.4019  1.3965
 5607SOL     OW28279   3.414   1.915  13.953 -0.0418  0.1305 -0.0220
 5607SOL    HW128280   3.372   1.849  14.009 -4.1834  0.3629 -2.8415
 5607SOL    HW228281   3.507   1.895  13.954  0.0394  0.5258  0.2006
 5608SOL     OW28282   3.344   0.737  14.184  0.0523  0.3130  0.4801
 5608SOL    HW128283   3.432   0.743  14.220 -0.4194  1.7534  1.4197
 5608SOL    HW228284   3.317   0.653  14.222 -0.0610  1.7809  3.6876
 5609SOL     OW28285   1.677   3.017   8.473 -0.0498  0.0386 -0.0497
 5609SOL    HW128286   1.662   3.077   8.546  0.5510 -1.9196  1.7043
 5609SOL    HW228287   1.586   2.994   8.451 -0.2246  1.5133 -0.8837
 5610SOL     OW28288   4.666   4.065   3.281 -0.2505  0.4817 -0.2215
 5610SOL    HW128289   4.661   4.080   3.375  0.9139 -0.9869  0.0823
 5610SOL    HW228290   4.606   4.136   3.258  1.0660  1.9115  0.7679
 5611SOL     OW28291   3.613   2.861   3.645 -0.3009  0.2096 -0.2318
 5611SOL    HW128292   3.704   2.879   3.665 -1.2638  2.8064  1.8049
 5611SOL    HW228293   3.613   2.765   3.644 -0.0735  0.2047  0.7475
 5612SOL     OW28294   1.927   2.559  11.265  0.4857  0.4118 -0.4526
 5612SOL    HW128295   1.978   2.565  11.346  0.0110  1.1355 -0.2099
 5612SOL    HW228296   1.847   2.608  11.287 -0.0061 -0.8260  0.5355
 5613SOL     OW28297   0.877   1.875  10.875 -0.1669  0.0117  0.4819
 5613SOL    HW128298   0.862   1.813  10.804 -0.4849  3.7713 -2.6888
 5613SOL    HW228299   0.947   1.830  10.922 -1.2275 -0.2073  1.8670
 5614SOL     OW28300   2.296   2.721   5.323 -0.3595 -0.1724 -0.3002
 5614SOL    HW128301   2.239   2.717   5.400  2.4494 -2.3862  1.6618
 5614SOL    HW228302   2.365   2.782   5.352 -2.1075  0.6758  2.0420
 5615SOL     OW28303   2.833   4.287   2.711 -0.4166 -0.6690  0.0942
 5615SOL    HW128304   2.880   4.318   2.633 -2.6382 -0.5284 -1.1781
 5615SOL    HW228305   2.753   4.256   2.668 -0.1986  1.2184 -1.7007
 5616SOL     OW28306   2.383   0.963  13.531  0.1080  0.0865  0.6091
 5616SOL    HW128307   2.313   1.010  13.577 -0.4768  0.9453 -1.1769
 5616SOL    HW228308   2.387   1.016  13.452  0.5145  0.6327  0.9923
 5617SOL     OW28309   1.170   3.971   1.188 -0.4766 -0.2786 -0.4884
 5617SOL    HW128310   1.117   4.000   1.261 -0.8220  0.3477 -0.9941
 5617SOL    HW228311   1.254   3.973   1.235  0.0739  4.1481 -1.7071
 5618SOL     OW28312   3.397   1.185   3.815  0.2693 -0.8392  0.5279
 5618SOL    HW128313   3.489   1.207   3.831  0.2666  1.3847 -2.4776
 5618SOL    HW228314   3.367   1.267   3.776  1.6110 -1.1295 -1.1053
 5619SOL     OW28315   4.712   2.853   2.340  0.3758 -0.0493  0.0142
 5619SOL    HW128316   0.010   2.825   2.250  1.8162 -1.0070  0.5920
 5619SOL    HW228317   4.670   2.939   2.330 -0.0925 -0.3691 -0.7894
 5620SOL     OW28318   1.196   0.802   5.538 -1.3154  0.8306  0.4830
 5620SOL    HW128319   1.286   0.791   5.509 -1.9933  0.1210 -1.3810
 5620SOL    HW228320   1.201   0.843   5.624 -0.1429  0.3280  0.6489
 5621SOL     OW28321   1.195   4.451   6.986  0.0836  0.1050 -0.0690
 5621SOL    HW128322   1.290   4.453   6.993  0.0804  1.4633 -0.3357
 5621SOL    HW228323   1.167   4.474   7.075 -1.6975  0.0988 -0.6140
 5622SOL     OW28324   1.268   3.670  15.483 -0.4507  0.0928  0.3583
 5622SOL    HW128325   1.357   3.664  15.447 -1.6168 -0.1420 -2.4668
 5622SOL    HW228326   1.240   3.580  15.466 -1.5199  0.0512  2.2686
 5623SOL     OW28327   3.624   2.252   3.848  0.0868 -0.0356  0.5312
 5623SOL    HW128328   3.693   2.217   3.792  1.0297  1.0093  1.0477
 5623SOL    HW228329   3.559   2.182   3.857  1.1503 -0.6789  3.0302
 5624SOL     OW28330   3.116   0.827  17.043  0.7179  0.5050  0.2243
 5624SOL    HW128331   3.107   0.732  17.052 -1.1836  0.6497 -0.0539
 5624SOL    HW228332   3.173   0.844  17.118  2.0967 -0.7230 -0.5407
 5625SOL     OW28333   2.291   3.249   5.063 -0.0450 -0.1306  0.8236
 5625SOL    HW128334   2.286   3.324   5.121  3.1451  0.0873  0.8027
 5625SOL    HW228335   2.206   3.208   5.079 -0.7392  1.8930  2.2180
 5626SOL     OW28336   1.076   1.426   1.604 -0.4342 -0.2038  0.1449
 5626SOL    HW128337   1.071   1.521   1.593  2.8669  0.3828  3.5437
 5626SOL    HW228338   0.998   1.413   1.657 -1.7168  3.0601 -0.9389
 5627SOL     OW28339   3.092   4.255   5.641  0.5306  0.4115  0.2113
 5627SOL    HW128340   3.074   4.323   5.706 -0.3447  2.3957 -2.0904
 5627SOL    HW228341   3.124   4.311   5.571 -0.3361  0.0854 -0.4450
 5628SOL     OW28342   2.035   1.157  15.742 -0.2856  0.2496  0.0154
 5628SOL    HW128343   2.059   1.065  15.745 -1.6781 -0.0024  3.2200
 5628SOL    HW228344   1.939   1.158  15.740 -0.2765 -0.9595 -0.8928
 5629SOL     OW28345   2.930   1.549   4.943  0.1875 -0.1838  0.0376
 5629SOL    HW128346   3.012   1.505   4.920 -0.3332 -0.7632 -0.7458
 5629SOL    HW228347   2.966   1.622   4.994  2.5114 -0.8110 -0.6736
 5630SOL     OW28348   1.703   4.176  13.834 -0.2750  0.0827  1.1714
 5630SOL    HW128349   1.752   4.115  13.779  0.2045  1.5220 -0.0231
 5630SOL    HW228350   1.772   4.211  13.890  0.7742 -0.7879  0.4275
 5631SOL     OW28351   3.590   0.375   1.304  0.0275  0.0469 -0.0059
 5631SOL    HW128352   3.611   0.461   1.341 -0.5077 -0.0136  0.4423
 5631SOL    HW228353   3.554   0.328   1.379 -0.5723  0.0054 -0.3176
 5632SOL     OW28354   4.401   0.697   6.370  0.4849 -0.3373 -0.3874
 5632SOL    HW128355   4.366   0.784   6.386  0.4938 -0.2317 -0.9614
 5632SOL    HW228356   4.474   0.729   6.317 -0.4359 -1.6845 -2.4472
 5633SOL     OW28357   1.338   0.673   3.645  0.6468  0.3279 -0.0318
 5633SOL    HW128358   1.402   0.717   3.701  1.0254 -0.8406  0.4672
 5633SOL    HW228359   1.397   0.637   3.578 -0.4648 -1.3062 -0.1372
 5634SOL     OW28360   2.391   3.963   4.456 -0.0343 -0.1730 -0.3332
 5634SOL    HW128361   2.340   4.042   4.438 -1.4529 -1.2404 -0.9206
 5634SOL    HW228362   2.333   3.902   4.411  0.1334 -0.3456 -0.3160
 5635SOL     OW28363   3.866   0.803   0.641 -0.8995  0.5316  0.0505
 5635SOL    HW128364   3.953   0.784   0.677 -0.1360  1.1678 -1.4612
 5635SOL    HW228365   3.878   0.778   0.550 -1.8399 -2.4081  0.7527
 5636SOL     OW28366   2.899   2.577   7.981 -0.0584  0.0632  0.4547
 5636SOL    HW128367   2.902   2.628   7.901  2.0671 -2.7583 -1.2558
 5636SOL    HW228368   2.848   2.503   7.947 -0.0735  0.9517 -1.4395
 5637SOL     OW28369   2.798   3.878   2.162 -0.3486 -0.5343  0.8036
 5637SOL    HW128370   2.889   3.896   2.137 -0.3622 -0.2083  0.9820
 5637SOL    HW228371   2.762   3.964   2.141 -0.6958 -0.6215  1.0458
 5638SOL     OW28372   2.084   1.338  16.420  0.2390 -0.0176 -0.2255
 5638SOL    HW128373   2.007   1.303  16.464  1.4741 -2.6210 -0.1392
 5638SOL    HW228374   2.117   1.390  16.493 -2.5042  0.3008  0.7988
 5639SOL     OW28375   0.764   1.889  10.371  0.3124  0.4850  0.6332
 5639SOL    HW128376   0.684   1.844  10.343  1.4943 -0.7399 -0.7677
 5639SOL    HW228377   0.830   1.836  10.327 -0.3621 -0.4753  0.7684
 5640SOL     OW28378   4.340   2.851   6.301  0.0494 -0.2037  0.2449
 5640SOL    HW128379   4.415   2.792   6.310 -0.4089 -0.5859  1.4950
 5640SOL    HW228380   4.269   2.793   6.327  0.1799  0.1264  1.3104
 5641SOL     OW28381   3.496   2.937  11.784  0.1313  0.1011  0.2970
 5641SOL    HW128382   3.463   2.902  11.867 -0.0675  3.9556  1.8158
 5641SOL    HW228383   3.439   2.898  11.718 -0.2828 -0.6316  1.0875
 5642SOL     OW28384   3.662   0.676  11.330  0.2852  0.4394 -1.0181
 5642SOL    HW128385   3.651   0.771  11.325 -0.9745  0.2624 -1.5028
 5642SOL    HW228386   3.750   0.659  11.296 -0.4443 -5.1515 -0.1683
 5643SOL     OW28387   2.748   0.424   8.723  0.1050  0.2122 -0.0366
 5643SOL    HW128388   2.721   0.333   8.734 -1.4085  0.7169  0.3312
 5643SOL    HW228389   2.819   0.432   8.787 -0.3279 -2.1129  0.7415
 5644SOL     OW28390   0.150   4.104   5.757  0.2090 -0.3154 -0.8605
 5644SOL    HW128391   0.059   4.109   5.786  0.8843  1.1227  1.0024
 5644SOL    HW228392   0.145   4.147   5.672  1.6178  1.6265  0.0439
 5645SOL     OW28393   3.900   1.776  14.708 -0.3782 -0.4964 -0.1488
 5645SOL    HW128394   3.926   1.819  14.790  0.7973 -4.1717  1.4131
 5645SOL    HW228395   3.956   1.815  14.641  0.1603  1.2143  1.2853
 5646SOL     OW28396   0.125   3.946   5.396 -0.4783  0.0519  0.0731
 5646SOL    HW128397   0.160   3.959   5.308  0.3303 -0.5300  0.3018
 5646SOL    HW228398   0.145   3.855   5.417 -0.9990 -0.4064 -1.4505
 5647SOL     OW28399   4.372   2.864  14.848 -0.0605 -0.7264 -0.2330
 5647SOL    HW128400   4.405   2.932  14.790  0.3840 -1.0881 -0.4079
 5647SOL    HW228401   4.282   2.856  14.817 -0.8685  0.1471  1.8917
 5648SOL     OW28402   2.807   4.667  10.239  0.2968 -0.1126 -0.2939
 5648SOL    HW128403   2.841   4.591  10.286 -0.3828  0.8347  1.7110
 5648SOL    HW228404   2.864   4.673  10.162  1.4458  0.4456  0.6070
 5649SOL     OW28405   0.118   0.402  13.234  1.3897 -0.4942 -0.3068
 5649SOL    HW128406   0.116   0.324  13.290  0.1933  0.2726  0.6975
 5649SOL    HW228407   0.154   0.470  13.291  1.1125 -0.9431  0.4080
 5650SOL     OW28408   4.345   3.032   4.947 -0.4392 -0.4503 -0.1873
 5650SOL    HW128409   4.407   3.103   4.933  0.7877 -1.7424 -1.2967
 5650SOL    HW228410   4.357   3.007   5.038 -1.2361 -1.5758 -0.3834
 5651SOL     OW28411   1.180   3.398  12.686 -0.2259 -0.1753  0.3608
 5651SOL    HW128412   1.271   3.388  12.715 -0.1005 -0.4133 -0.1272
 5651SOL    HW228413   1.157   3.315  12.645 -0.8554  0.3223 -0.2991
 5652SOL     OW28414   0.380   3.681   0.919 -0.4488 -0.0092  0.7667
 5652SOL    HW128415   0.311   3.663   0.855  2.3732  0.6966 -2.4732
 5652SOL    HW228416   0.371   3.775   0.902  1.5629 -0.0662 -0.5995
 5653SOL     OW28417   0.891   4.630  11.961 -0.2009 -0.3508 -0.8090
 5653SOL    HW128418   0.918   4.620  12.052  0.4324  0.1306 -0.9438
 5653SOL    HW228419   0.977   4.633  11.918 -0.4842  3.7115 -1.1050
 5654SOL     OW28420   4.391   2.981   6.879 -0.1356 -0.9872 -0.1699
 5654SOL    HW128421   4.432   3.066   6.894 -2.3250  0.5578 -3.1306
 5654SOL    HW228422   4.302   3.010   6.898  0.3554  0.8233 -0.6658
 5655SOL     OW28423   4.296   2.227  14.196  0.3015  0.1074  0.9209
 5655SOL    HW128424   4.335   2.311  14.217  1.2633 -0.4904  1.5072
 5655SOL    HW228425   4.353   2.169  14.246 -0.5524 -0.9002  0.7429
 5656SOL     OW28426   0.979   1.229   5.411  0.1758 -0.0827  0.0857
 5656SOL    HW128427   0.963   1.257   5.321 -0.8729  0.3643  0.4118
 5656SOL    HW228428   1.053   1.171   5.393 -0.7965 -1.2849 -0.0349
 5657SOL     OW28429   1.814   4.321   3.377 -0.4054 -0.0071  0.1051
 5657SOL    HW128430   1.906   4.345   3.367 -0.2292 -0.2432  1.2809
 5657SOL    HW228431   1.792   4.357   3.463  1.1478  0.5393  0.2771
 5658SOL     OW28432   0.224   0.376  12.962  0.7906  0.1039 -0.3259
 5658SOL    HW128433   0.187   0.351  13.046  1.0161 -0.1331 -0.2986
 5658SOL    HW228434   0.257   0.462  12.990 -1.7559 -0.0459  3.0869
 5659SOL     OW28435   0.503   2.342   1.013 -0.1423 -0.0733  0.0960
 5659SOL    HW128436   0.435   2.394   0.971 -0.5405 -0.6864 -0.0233
 5659SOL    HW228437   0.570   2.350   0.945 -0.3381  1.0473  0.0460
 5660SOL     OW28438   0.551   0.041  11.775 -0.0127  0.2639  0.4142
 5660SOL    HW128439   0.567   4.683  11.719  0.0029  0.3477  0.3032
 5660SOL    HW228440   0.574   0.107  11.710 -1.8914  0.3351 -0.1794
 5661SOL     OW28441   1.920   3.853   3.143 -0.2695 -0.1767  0.5114
 5661SOL    HW128442   2.009   3.859   3.108 -0.2284 -3.0570  0.0974
 5661SOL    HW228443   1.946   3.806   3.223 -1.3164  0.8503  1.4541
 5662SOL     OW28444   1.902   0.924  13.278 -0.5801  0.6211 -0.0230
 5662SOL    HW128445   1.948   0.867  13.216  1.8146  1.4242  1.0020
 5662SOL    HW228446   1.896   0.876  13.361 -1.6089  0.1574 -0.3678
 5663SOL     OW28447   3.784   3.468   6.661 -0.1602  0.3834  0.2797
 5663SOL    HW128448   3.726   3.392   6.648 -0.2059  0.4983 -0.1862
 5663SOL    HW228449   3.804   3.444   6.752 -0.9340 -1.6587 -0.0890
 5664SOL     OW28450   0.049   0.552   2.235  0.2036 -0.0652 -0.1842
 5664SOL    HW128451   0.081   0.617   2.173  2.3147 -0.5032  0.4477
 5664SOL    HW228452   4.673   0.548   2.223  0.1612 -0.1866  0.1820
 5665SOL     OW28453   1.615   1.889   5.163 -0.5790  0.3178 -0.6820
 5665SOL    HW128454   1.535   1.918   5.208  1.2316  1.6105  1.7116
 5665SOL    HW228455   1.632   1.957   5.099  1.3611  0.5701  0.0959
 5666SOL     OW28456   2.131   0.366  15.115 -0.6910 -0.1936  0.0969
 5666SOL    HW128457   2.082   0.421  15.177  1.8904  1.0404  1.0545
 5666SOL    HW228458   2.093   0.278  15.113 -0.9511 -0.1344  2.0963
 5667SOL     OW28459   4.434   3.452  13.687 -0.3394  0.2143  0.0817
 5667SOL    HW128460   4.447   3.386  13.754 -1.5566 -1.4763 -1.3655
 5667SOL    HW228461   4.513   3.440  13.634 -1.3729 -0.3730 -1.3274
 5668SOL     OW28462   4.360   1.742   6.348 -0.1984 -0.1163  0.1920
 5668SOL    HW128463   4.365   1.726   6.443 -0.9818 -1.5732 -0.0084
 5668SOL    HW228464   4.448   1.776   6.331  0.1111  0.6845  3.3977
 5669SOL     OW28465   3.128   1.517   8.901  0.2218 -0.3635 -0.0081
 5669SOL    HW128466   3.101   1.576   8.971 -2.2009 -0.6032 -0.7322
 5669SOL    HW228467   3.046   1.485   8.864  0.5375  0.1705 -1.1705
 5670SOL     OW28468   0.534   1.167   1.955 -0.2607  0.3812 -0.7164
 5670SOL    HW128469   0.465   1.132   1.899 -1.1219 -0.6957  1.0211
 5670SOL    HW228470   0.546   1.098   2.020  1.7889  0.8518 -0.5878
 5671SOL     OW28471   1.576   3.665   4.348  0.3499  0.3678  0.2168
 5671SOL    HW128472   1.620   3.618   4.418 -3.2535  0.3922  2.5228
 5671SOL    HW228473   1.644   3.651   4.283 -1.9217  0.6589 -2.2365
 5672SOL     OW28474   1.407   4.255  12.069  0.8523  0.0343 -0.3036
 5672SOL    HW128475   1.487   4.301  12.093 -1.0808  2.2430  1.9679
 5672SOL    HW228476   1.435   4.165  12.085  0.0204 -0.2417 -0.3918
 5673SOL     OW28477   3.393   3.457   9.483 -0.3733  0.3548  0.0130
 5673SOL    HW128478   3.394   3.379   9.428 -2.5807 -0.6743  1.3769
 5673SOL    HW228479   3.332   3.520   9.444  0.3413  1.3537  0.5189
 5674SOL     OW28480   1.019   1.648   5.705 -0.6249 -0.1443  0.4919
 5674SOL    HW128481   1.010   1.555   5.683 -2.5452  1.1293 -3.9936
 5674SOL    HW228482   1.025   1.675   5.613 -0.3289 -1.6093  0.0740
 5675SOL     OW28483   2.262   0.655  11.006  0.0824  0.2094 -0.4398
 5675SOL    HW128484   2.321   0.695  10.942  1.7956 -0.0604  0.9753
 5675SOL    HW228485   2.175   0.687  10.984 -0.0536  1.3586  1.8534
 5676SOL     OW28486   2.531   4.247   3.133  0.6801 -0.2333 -0.2000
 5676SOL    HW128487   2.619   4.247   3.170 -0.4111  0.2666  2.3351
 5676SOL    HW228488   2.550   4.295   3.052  0.2716 -0.3495 -0.3637
 5677SOL     OW28489   0.678   3.073  15.350 -0.1177  0.3812 -0.0777
 5677SOL    HW128490   0.659   3.164  15.329  0.2047  0.2997 -0.7372
 5677SOL    HW228491   0.587   3.045  15.356  0.2601 -0.2152  2.5734
 5678SOL     OW28492   3.693   0.383   4.230  0.1422  0.3466 -0.1064
 5678SOL    HW128493   3.729   0.422   4.151  0.6679  0.1251  0.0264
 5678SOL    HW228494   3.607   0.424   4.216  0.2962  0.8373  0.3835
 5679SOL     OW28495   4.356   0.589   5.650  0.0377 -0.0214 -0.1820
 5679SOL    HW128496   4.403   0.623   5.726 -0.6608  2.0123 -0.6477
 5679SOL    HW228497   4.411   0.515   5.625  1.4281  0.1736  2.3480
 5680SOL     OW28498   1.321   4.687   6.834  0.1909  0.3335 -0.1885
 5680SOL    HW128499   1.244   0.016   6.803 -0.3833 -0.3294  0.2177
 5680SOL    HW228500   1.270   4.610   6.860  0.1185 -0.7723 -3.6189
 5681SOL     OW28501   2.750   3.364   1.335 -0.3831 -0.3839 -0.0087
 5681SOL    HW128502   2.696   3.410   1.271 -2.1963  1.1261  2.5771
 5681SOL    HW228503   2.819   3.335   1.276 -0.6937  0.9107 -1.0181
 5682SOL     OW28504   4.532   0.843   0.313  0.1174  0.3849 -0.0621
 5682SOL    HW128505   4.502   0.872   0.399 -0.4019 -1.8893  0.5202
 5682SOL    HW228506   4.572   0.924   0.283  2.4436 -0.6504  0.2408
 5683SOL     OW28507   1.494   3.555   8.923  0.1867  0.0232  0.8853
 5683SOL    HW128508   1.400   3.571   8.923  0.2729  0.5088 -0.4111
 5683SOL    HW228509   1.526   3.610   8.852  1.9706  0.9799  2.4336
 5684SOL     OW28510   2.352   1.008   3.169 -0.3138  0.1453  0.0782
 5684SOL    HW128511   2.302   1.090   3.173 -0.7272 -0.0392 -1.2207
 5684SOL    HW228512   2.273   0.957   3.152  1.4120 -2.2522 -0.6541
 5685SOL     OW28513   0.026   0.141   5.310  0.5929 -0.4506  0.2705
 5685SOL    HW128514   0.054   0.201   5.379 -0.0679  1.8006 -1.4127
 5685SOL    HW228515   4.706   0.203   5.248  1.4059 -0.4966 -0.2777
 5686SOL     OW28516   3.879   0.834  14.516 -0.0782  0.2610 -0.0037
 5686SOL    HW128517   3.800   0.783  14.534 -0.6212  0.4541 -1.8334
 5686SOL    HW228518   3.844   0.919  14.543 -2.5128 -1.4777  2.3637
 5687SOL     OW28519   1.916   2.844  12.301 -0.1629  0.1771  0.5639
 5687SOL    HW128520   2.001   2.869  12.265 -0.3496  0.6831  0.4742
 5687SOL    HW228521   1.855   2.904  12.258  0.8708 -0.4981 -1.8235
 5688SOL     OW28522   4.526   0.729   6.032 -0.6655 -0.4668  0.2390
 5688SOL    HW128523   4.594   0.663   6.022  0.9960  1.2079  0.5394
 5688SOL    HW228524   4.560   0.772   6.110 -0.1874 -1.3082  0.4937
 5689SOL     OW28525   2.949   2.751  13.442 -0.1455  0.3128 -0.2880
 5689SOL    HW128526   2.917   2.791  13.522  0.4139  2.0993 -0.9722
 5689SOL    HW228527   2.871   2.718  13.398  1.2866  0.1887 -2.7665
 5690SOL     OW28528   2.492   4.716   6.641  0.4826  0.2753 -0.5450
 5690SOL    HW128529   2.556   4.666   6.590 -0.2030 -0.6736 -0.4795
 5690SOL    HW228530   2.413   4.688   6.595 -0.2851 -0.0933  1.0188
 5691SOL     OW28531   1.078   2.446  15.778  0.3704 -0.1943 -0.1890
 5691SOL    HW128532   1.127   2.387  15.836  0.7838  0.4298  0.0977
 5691SOL    HW228533   0.987   2.418  15.779  0.4264 -0.2891  1.7481
 5692SOL     OW28534   2.126   1.179   1.559  0.0945 -0.0813  0.8390
 5692SOL    HW128535   2.090   1.186   1.648 -2.1406  0.3231 -0.0803
 5692SOL    HW228536   2.196   1.117   1.576  0.3146 -0.4627 -1.4707
 5693SOL     OW28537   2.266   4.620  13.639 -0.1908 -0.2121 -0.4272
 5693SOL    HW128538   2.209   4.555  13.597 -0.3938 -1.7080  2.1235
 5693SOL    HW228539   2.234   4.618  13.729  0.3148 -0.0567 -0.2460
 5694SOL     OW28540   0.905   2.874   6.359 -0.2379  0.3657  0.0926
 5694SOL    HW128541   0.896   2.838   6.271 -1.6251 -0.3686  0.5326
 5694SOL    HW228542   0.812   2.881   6.382 -0.8901 -1.0940 -2.1160
 5695SOL     OW28543   1.276   2.166   6.331  0.3858 -0.4198  0.2389
 5695SOL    HW128544   1.270   2.216   6.250  0.0495 -1.3220 -0.2877
 5695SOL    HW228545   1.255   2.079   6.296 -0.4891 -1.5335  3.4710
 5696SOL     OW28546   3.684   0.616  12.372  0.2696 -0.0882 -0.8924
 5696SOL    HW128547   3.675   0.521  12.386 -0.9991  0.2276  0.3727
 5696SOL    HW228548   3.780   0.618  12.378  0.2918 -1.3542 -0.6437
 5697SOL     OW28549   3.862   2.983   4.337  0.3602  0.5488  0.1020
 5697SOL    HW128550   3.783   3.028   4.307  1.3810  2.5609  0.4440
 5697SOL    HW228551   3.880   3.040   4.411 -0.3532 -1.2243  1.6296
 5698SOL     OW28552   1.948   1.661   2.801 -0.2671 -0.2668 -0.2005
 5698SOL    HW128553   1.905   1.585   2.762  0.6363  0.4420 -2.6233
 5698SOL    HW228554   1.934   1.726   2.731 -0.2274  1.4159  1.3509
 5699SOL     OW28555   0.187   3.670   0.699 -0.1426  0.4011  0.9162
 5699SOL    HW128556   0.134   3.709   0.768 -0.0743 -2.7737  2.7447
 5699SOL    HW228557   0.145   3.684   0.614 -2.2027 -4.6405  1.1595
 5700SOL     OW28558   0.095   0.071   7.470  0.2328  0.6478 -0.5403
 5700SOL    HW128559   0.060   0.065   7.382 -0.4104 -0.7626 -0.1843
 5700SOL    HW228560   0.016   0.096   7.518  0.0508 -0.5670 -0.2194
 5701SOL     OW28561   4.675   2.864   6.397 -0.2990 -0.4153 -0.2506
 5701SOL    HW128562   0.014   2.810   6.344  0.8990 -0.4240  1.0562
 5701SOL    HW228563   4.622   2.788   6.423  0.2336 -1.1130 -1.2063
 5702SOL     OW28564   0.415   2.502   4.098 -0.5654  0.2096 -0.0291
 5702SOL    HW128565   0.489   2.513   4.158 -1.1806  1.9235  0.4084
 5702SOL    HW228566   0.463   2.499   4.015 -1.4017 -1.4101 -0.4474
 5703SOL     OW28567   1.636   3.636  10.715  0.6749  0.2504  0.1813
 5703SOL    HW128568   1.652   3.596  10.629 -2.3746 -2.0451  0.7014
 5703SOL    HW228569   1.717   3.615  10.762  0.3671  0.4723  0.7959
 5704SOL     OW28570   2.318   1.990   6.800 -0.6718 -0.4204 -0.7303
 5704SOL    HW128571   2.383   1.925   6.773  0.8685  0.4536  0.8872
 5704SOL    HW228572   2.291   2.012   6.711  0.3414  1.9675 -0.4500
 5705SOL     OW28573   1.590   4.197  12.832  0.3335 -0.2693 -0.3464
 5705SOL    HW128574   1.573   4.104  12.816 -1.9656 -0.3598  2.5957
 5705SOL    HW228575   1.683   4.199  12.812 -0.0306  0.2991 -2.0038
 5706SOL     OW28576   3.592   1.569   7.792 -0.2429 -0.1365 -0.0583
 5706SOL    HW128577   3.523   1.503   7.784  0.6982 -1.2920  1.2824
 5706SOL    HW228578   3.669   1.520   7.761  0.4300  1.0481 -0.2389
 5707SOL     OW28579   0.689   3.985   5.601 -0.1073  0.5001 -0.2199
 5707SOL    HW128580   0.619   3.958   5.660 -1.0258  1.5389 -0.8412
 5707SOL    HW228581   0.629   4.033   5.544 -0.2281  1.0884  0.4172
 5708SOL     OW28582   1.295   2.039  10.094  0.2229  0.6526 -0.6256
 5708SOL    HW128583   1.371   2.085  10.058  1.8312 -1.0013  0.6600
 5708SOL    HW228584   1.341   1.957  10.107  3.0435  2.1760 -0.9828
 5709SOL     OW28585   4.591   2.722  15.284  0.5550  0.1526  0.5597
 5709SOL    HW128586   4.593   2.660  15.211  0.7844  0.2736  0.4620
 5709SOL    HW228587   4.683   2.741  15.300  0.2564  0.7544  1.5699
 5710SOL     OW28588   4.544   4.364   4.272 -0.4147  0.8701 -0.3332
 5710SOL    HW128589   4.507   4.278   4.252  0.1690  0.7236 -0.7675
 5710SOL    HW228590   4.532   4.366   4.367  0.8034  1.3748 -0.1891
 5711SOL     OW28591   1.742   2.176   5.493  0.3702  0.2288  0.3072
 5711SOL    HW128592   1.797   2.098   5.491 -1.1531 -0.8510  0.3205
 5711SOL    HW228593   1.756   2.204   5.402  1.3220 -1.9492 -0.2015
 5712SOL     OW28594   0.892   2.501   4.469 -0.7475  0.0254 -0.1542
 5712SOL    HW128595   0.810   2.459   4.494 -0.8458 -1.3519 -2.7425
 5712SOL    HW228596   0.928   2.509   4.557 -0.6449  0.0857 -0.2010
 5713SOL     OW28597   1.283   4.323   6.480 -0.5287 -0.1517  0.9011
 5713SOL    HW128598   1.219   4.283   6.540  0.3059 -1.7928  0.6789
 5713SOL    HW228599   1.273   4.282   6.394  1.6716  1.3615 -0.0616
 5714SOL     OW28600   3.302   3.092   6.259  0.6251 -0.0721 -0.5030
 5714SOL    HW128601   3.264   3.179   6.246 -2.3406 -1.0249  1.6884
 5714SOL    HW228602   3.350   3.079   6.177 -0.4400  0.0396 -1.1466
 5715SOL     OW28603   2.373   3.486   1.777  0.3268 -0.0772  0.3216
 5715SOL    HW128604   2.407   3.397   1.769  1.1559  0.4171 -1.7314
 5715SOL    HW228605   2.286   3.481   1.738  0.0971 -1.3293  0.9833
 5716SOL     OW28606   2.181   1.439  11.005  0.5027  0.0949 -0.3485
 5716SOL    HW128607   2.124   1.505  10.967  0.5564  0.1024 -0.4165
 5716SOL    HW228608   2.263   1.485  11.019  0.6599 -0.3878  0.3279
 5717SOL     OW28609   1.476   2.110  14.636 -0.2654 -0.0803  0.0299
 5717SOL    HW128610   1.418   2.180  14.666 -0.6344 -0.0809 -0.6838
 5717SOL    HW228611   1.425   2.038  14.671  1.4846 -0.9516  0.7851
 5718SOL     OW28612   4.587   0.692   2.560  0.1106  0.3539 -0.0942
 5718SOL    HW128613   4.516   0.654   2.612 -1.8843  2.7166 -1.1246
 5718SOL    HW228614   4.539   0.759   2.511  1.2381  2.4764  1.7054
 5719SOL     OW28615   2.752   2.876  15.726 -0.1201 -0.5441 -0.7845
 5719SOL    HW128616   2.704   2.946  15.682  0.2178  0.4059  0.3888
 5719SOL    HW228617   2.687   2.805  15.724 -1.2530  0.4693 -0.0449
 5720SOL     OW28618   2.278   2.606   4.521 -0.3853  0.0487  0.3107
 5720SOL    HW128619   2.210   2.603   4.454  0.0496  0.0430 -0.1290
 5720SOL    HW228620   2.247   2.534   4.575 -0.4199 -0.7141 -0.7217
 5721SOL     OW28621   4.038   0.281   4.379  0.2892  0.5780 -0.3078
 5721SOL    HW128622   4.037   0.304   4.471 -1.4811  1.4086 -0.5319
 5721SOL    HW228623   4.100   0.350   4.355 -1.1487  2.3177  0.9583
 5722SOL     OW28624   0.595   4.267   6.137  0.5797  0.2527 -0.9075
 5722SOL    HW128625   0.505   4.249   6.165  0.9072 -2.7828 -1.8840
 5722SOL    HW228626   0.637   4.205   6.196 -3.3463 -0.1445  1.4520
 5723SOL     OW28627   4.066   1.175  14.426  0.4436  0.1193 -0.4961
 5723SOL    HW128628   4.126   1.143  14.493 -1.6857 -0.9289  0.8979
 5723SOL    HW228629   4.084   1.122  14.349  0.3045  0.8942 -1.0631
 5724SOL     OW28630   1.108   2.371  15.119 -0.1710 -0.1243 -0.1528
 5724SOL    HW128631   1.111   2.297  15.179  1.0291  1.1365  1.3554
 5724SOL    HW228632   1.066   2.341  15.038  0.1170  0.2566 -0.4444
 5725SOL     OW28633   3.409   0.436   3.394  0.2491  0.1363 -0.2657
 5725SOL    HW128634   3.358   0.515   3.410  1.3565  0.8720 -0.3581
 5725SOL    HW228635   3.340   0.399   3.339 -1.3952  0.4415  1.5848
 5726SOL     OW28636   3.506   0.561   4.139  0.6221 -0.1908 -0.1586
 5726SOL    HW128637   3.585   0.583   4.090  1.4640  0.5915  1.5494
 5726SOL    HW228638   3.451   0.516   4.075 -2.3998  0.2364  2.0991
 5727SOL     OW28639   1.779   1.130  14.218 -0.0167 -0.0848  0.2937
 5727SOL    HW128640   1.707   1.190  14.237  0.4263 -0.1068  2.0791
 5727SOL    HW228641   1.739   1.072  14.154 -1.1032 -0.0455  0.9216
 5728SOL     OW28642   2.010   1.608   8.348 -0.1542 -0.3029  0.6580
 5728SOL    HW128643   2.101   1.625   8.324 -0.1820 -2.8312 -1.3558
 5728SOL    HW228644   1.970   1.679   8.299  0.0213 -1.8623 -1.7679
 5729SOL     OW28645   1.143   1.537   4.108 -0.0202 -0.6437 -0.7084
 5729SOL    HW128646   1.084   1.471   4.144  2.2155  0.1100  4.3861
 5729SOL    HW228647   1.140   1.517   4.014 -0.4755  0.2321 -0.8757
 5730SOL     OW28648   1.092   1.359   1.060  0.0269  0.7355 -0.4257
 5730SOL    HW128649   1.052   1.274   1.041  0.3392  0.8342 -1.4806
 5730SOL    HW228650   1.044   1.416   1.000 -1.6042  0.8133  0.9243
 5731SOL     OW28651   2.956   3.587  13.626  0.0407  0.7553 -0.3607
 5731SOL    HW128652   2.927   3.511  13.676  0.0533 -0.4400 -2.1245
 5731SOL    HW228653   2.930   3.558  13.538  1.5778 -1.0319 -0.2272
 5732SOL     OW28654   1.970   3.288   2.973 -0.2627  0.3019  0.3668
 5732SOL    HW128655   1.900   3.255   2.916  1.3537 -0.4028 -1.2023
 5732SOL    HW228656   2.020   3.208   2.991  0.8078  0.9143  0.0936
 5733SOL     OW28657   0.791   1.936   6.235  0.2764 -0.1874 -0.7803
 5733SOL    HW128658   0.799   1.989   6.314  0.7553 -1.3310 -0.0559
 5733SOL    HW228659   0.864   1.977   6.188  1.0903  1.6956  2.1052
 5734SOL     OW28660   3.883   3.802   5.004 -0.4356  0.2129 -0.4471
 5734SOL    HW128661   3.909   3.863   5.073 -0.4883  2.9232 -2.8367
 5734SOL    HW228662   3.821   3.746   5.051  1.4099  0.8328  2.7211
 5735SOL     OW28663   0.664   4.411   7.836  0.1227  0.2446  0.0593
 5735SOL    HW128664   0.719   4.386   7.910 -1.0376 -0.4079  0.7071
 5735SOL    HW228665   0.585   4.360   7.858  0.8633 -1.2047 -0.6207
 5736SOL     OW28666   0.493   0.384   5.519 -0.0490  0.0770 -0.8342
 5736SOL    HW128667   0.518   0.453   5.459  1.0685  0.4141  0.0078
 5736SOL    HW228668   0.550   0.396   5.595 -0.8108  0.7489 -0.3658
 5737SOL     OW28669   0.335   4.417  17.238  0.1283  0.3834  0.7685
 5737SOL    HW128670   0.384   4.470  17.176 -0.5989  1.6793  1.2965
 5737SOL    HW228671   0.371   4.331  17.217 -0.7827 -0.0461  0.9299
 5738SOL     OW28672   0.072   2.859   6.742 -0.3831 -0.2042  0.2739
 5738SOL    HW128673   0.031   2.944   6.759  0.3913 -0.0946  1.6220
 5738SOL    HW228674   0.161   2.867   6.776 -0.7735  1.2455  0.9589
 5739SOL     OW28675   1.486   1.356   5.997 -0.1205  0.1049  0.4859
 5739SOL    HW128676   1.564   1.307   6.021  0.0088 -0.2723 -0.7315
 5739SOL    HW228677   1.443   1.357   6.083  0.3278 -0.0168  0.7095
 5740SOL     OW28678   3.471   2.688   2.660  0.0050 -0.2600 -0.1472
 5740SOL    HW128679   3.421   2.677   2.742 -0.0948 -0.1489 -0.1940
 5740SOL    HW228680   3.412   2.743   2.609  1.0366  0.8612 -0.1104
 5741SOL     OW28681   3.099   3.059   9.145 -0.1085 -0.1156  0.3406
 5741SOL    HW128682   3.089   2.965   9.132  0.8103 -0.6515  3.4097
 5741SOL    HW228683   3.069   3.076   9.234 -1.7311 -1.4089  0.0349
 5742SOL     OW28684   0.012   3.530   9.452  0.3310  0.4306  0.2615
 5742SOL    HW128685   0.023   3.504   9.543 -0.7798  0.8676  0.5248
 5742SOL    HW228686   4.667   3.467   9.417  1.8339 -0.3932 -0.9892
 5743SOL     OW28687   0.579   0.895   3.695 -0.5438  0.1837 -0.2595
 5743SOL    HW128688   0.651   0.832   3.689 -1.4758 -0.9076 -0.0413
 5743SOL    HW228689   0.549   0.905   3.605 -1.1020 -1.7709 -0.2806
 5744SOL     OW28690   1.562   1.765   6.880  0.1592  0.3715  0.2917
 5744SOL    HW128691   1.563   1.670   6.896  0.5143  0.2953 -0.1425
 5744SOL    HW228692   1.481   1.774   6.830 -1.3864  1.3679  3.0218
 5745SOL     OW28693   1.397   0.934  12.011  0.0711  0.4844 -0.0640
 5745SOL    HW128694   1.415   0.960  12.102 -0.6026  0.1855  0.1512
 5745SOL    HW228695   1.445   1.007  11.973  1.5169 -0.3201  0.2060
 5746SOL     OW28696   0.278   0.975   3.475  0.1704 -0.1768 -0.0810
 5746SOL    HW128697   0.353   0.948   3.422  0.1199  0.6430 -0.5713
 5746SOL    HW228698   0.214   0.937   3.414 -0.6572 -2.4424  2.2181
 5747SOL     OW28699   4.214   2.226   6.549  0.0415 -0.2082  0.5457
 5747SOL    HW128700   4.286   2.253   6.492 -2.2082  4.0489 -0.2855
 5747SOL    HW228701   4.265   2.232   6.629  0.0368 -1.9096  0.6802
 5748SOL     OW28702   4.547   2.711   2.531  0.1373  0.3356  0.4385
 5748SOL    HW128703   4.609   2.778   2.501 -1.5791  1.6482 -0.1979
 5748SOL    HW228704   4.536   2.656   2.453  1.4784  1.7867 -0.7995
 5749SOL     OW28705   1.540   4.544   7.077  0.1782 -0.0184 -0.2466
 5749SOL    HW128706   1.489   4.617   7.112  0.3983  0.9280 -1.9068
 5749SOL    HW228707   1.613   4.543   7.139  1.0882  0.5229 -1.3277
 5750SOL     OW28708   1.263   2.388   0.590  0.4239 -0.1704 -0.3124
 5750SOL    HW128709   1.215   2.306   0.600  2.2168 -1.0864  0.6458
 5750SOL    HW228710   1.209   2.438   0.528  0.7203 -0.4662 -0.8065
 5751SOL     OW28711   2.392   4.566   4.736 -0.8314  0.1600  0.1712
 5751SOL    HW128712   2.319   4.626   4.719 -1.2619  0.3324  2.6193
 5751SOL    HW228713   2.384   4.509   4.660 -0.3838  0.8829 -0.4180
 5752SOL     OW28714   0.725   1.381   0.311 -0.2988  0.5177  0.2562
 5752SOL    HW128715   0.805   1.433   0.317 -1.9452  3.0177  0.6341
 5752SOL    HW228716   0.657   1.446   0.329  0.1243  1.0190  0.0223
 5753SOL     OW28717   1.412   4.603   7.586  0.0078 -0.2880  0.0980
 5753SOL    HW128718   1.337   4.545   7.599 -2.1430  2.4202 -0.4504
 5753SOL    HW228719   1.425   4.632   7.676  0.8041  0.4999 -0.2764
 5754SOL     OW28720   2.870   2.029   8.978 -0.3402 -0.5461 -0.3736
 5754SOL    HW128721   2.819   2.075   9.045  1.3112 -0.1958  0.6344
 5754SOL    HW228722   2.816   1.951   8.994 -0.9347  0.3756  2.0786
 5755SOL     OW28723   3.636   0.601   7.275 -0.0498 -0.1273  0.3484
 5755SOL    HW128724   3.699   0.608   7.347  1.4757  2.4656 -1.2608
 5755SOL    HW228725   3.560   0.647   7.311 -0.9601 -1.2552 -0.1369
 5756SOL     OW28726   4.419   2.599   9.555  0.1914  0.0190 -0.3000
 5756SOL    HW128727   4.401   2.549   9.635 -1.4217 -1.7605 -1.7565
 5756SOL    HW228728   4.445   2.682   9.595  3.9307 -1.5734  0.4963
 5757SOL     OW28729   3.574   2.545   4.688 -0.1490 -0.3897  0.7259
 5757SOL    HW128730   3.612   2.621   4.731  2.2391 -0.0372 -2.0099
 5757SOL    HW228731   3.634   2.531   4.615 -0.1440  1.1684  0.4221
 5758SOL     OW28732   1.999   3.621   4.725 -0.6972  0.1714 -0.0521
 5758SOL    HW128733   2.031   3.601   4.637 -1.5840 -0.5054 -0.2195
 5758SOL    HW228734   1.918   3.569   4.722 -1.1319  0.8223  0.3554
 5759SOL     OW28735   1.024   0.728  14.610  0.0526 -0.4928 -0.1039
 5759SOL    HW128736   0.976   0.691  14.684  0.3871 -2.1924 -0.7245
 5759SOL    HW228737   0.998   0.820  14.612  1.0352 -0.1964 -0.8753
 5760SOL     OW28738   0.394   3.519   6.471 -0.3666 -0.0445 -0.1645
 5760SOL    HW128739   0.321   3.465   6.503 -0.0885  0.1709  0.8422
 5760SOL    HW228740   0.452   3.451   6.435  0.0224  0.6515 -0.8372
 5761SOL     OW28741   1.846   4.199   9.441  0.1228  0.4286  0.2032
 5761SOL    HW128742   1.784   4.166   9.377 -1.2804 -1.5038  2.6040
 5761SOL    HW228743   1.819   4.149   9.518  0.9321 -0.1042  0.1448
 5762SOL     OW28744   2.138   4.123   7.646 -0.3882 -0.5816  0.1676
 5762SOL    HW128745   2.112   4.071   7.570 -0.0115 -1.9772  0.9957
 5762SOL    HW228746   2.073   4.094   7.710 -1.8911  0.5857 -0.8320
 5763SOL     OW28747   3.143   2.178   6.108 -0.2382  0.2776  0.0829
 5763SOL    HW128748   3.086   2.159   6.182 -1.9192 -0.6933 -1.4630
 5763SOL    HW228749   3.081   2.198   6.038 -0.1021  1.8048  0.4092
 5764SOL     OW28750   3.540   3.857   6.281 -0.9639 -0.1396 -0.7551
 5764SOL    HW128751   3.479   3.866   6.354 -1.2348 -1.7354 -0.7881
 5764SOL    HW228752   3.487   3.897   6.212 -1.3249 -0.5742 -0.7264
 5765SOL     OW28753   0.229   1.077   6.315  0.3249  0.3121 -0.2115
 5765SOL    HW128754   0.198   1.076   6.406 -0.0454  2.1590 -0.3166
 5765SOL    HW228755   0.242   0.982   6.312 -0.8611  0.1956 -1.4088
 5766SOL     OW28756   3.246   0.486  16.209 -0.6205 -0.0093 -0.4207
 5766SOL    HW128757   3.283   0.423  16.147 -0.2360  0.0345 -0.2391
 5766SOL    HW228758   3.311   0.555  16.198  0.6416 -1.1343 -0.0806
 5767SOL     OW28759   1.433   4.112   3.719  0.2197 -0.5480 -0.0157
 5767SOL    HW128760   1.525   4.087   3.726 -0.1091 -2.1780 -1.4397
 5767SOL    HW228761   1.405   4.035   3.669 -0.3739  0.0133 -0.5532
 5768SOL     OW28762   1.797   3.826   7.220 -0.0750  0.6589 -0.6211
 5768SOL    HW128763   1.732   3.864   7.160  1.7047 -0.2503 -3.1552
 5768SOL    HW228764   1.758   3.843   7.305  1.3444 -5.2869  1.2570
 5769SOL     OW28765   3.522   4.697   0.272  0.7446 -0.4709  0.2076
 5769SOL    HW128766   3.485   0.014   0.191 -0.7370  2.9431  2.3822
 5769SOL    HW228767   3.470   4.617   0.280  0.0385  0.1752  2.3217
 5770SOL     OW28768   1.757   0.087   7.022  0.0242  0.1299 -0.5921
 5770SOL    HW128769   1.795   0.024   6.960  3.4740  1.7109 -0.1252
 5770SOL    HW228770   1.674   0.100   6.976  0.7777  1.7637 -1.5083
 5771SOL     OW28771   3.968   0.541   3.883 -0.0057 -0.7753  0.2486
 5771SOL    HW128772   3.972   0.525   3.789  1.5345 -0.0962  0.2074
 5771SOL    HW228773   4.060   0.531   3.906 -0.8301 -1.4006  3.2834
 5772SOL     OW28774   1.632   0.064   7.301 -0.0329  0.0170 -0.5507
 5772SOL    HW128775   1.659   0.057   7.210  1.3701  1.5768 -0.2612
 5772SOL    HW228776   1.599   0.154   7.313 -0.5577  0.0129 -1.9936
 5773SOL     OW28777   4.174   1.443   6.505  0.5951  0.2554 -0.2218
 5773SOL    HW128778   4.126   1.505   6.561 -0.0040  0.2040 -0.6753
 5773SOL    HW228779   4.111   1.431   6.434  0.6196  1.3366 -0.4281
 5774SOL     OW28780   1.254   3.379   0.452  0.2571 -0.2718  0.0494
 5774SOL    HW128781   1.280   3.383   0.544 -0.7404 -1.4407  0.3879
 5774SOL    HW228782   1.158   3.384   0.461  0.5067  0.1539  2.4668
 5775SOL     OW28783   4.199   1.614   6.162  0.7314  0.2536 -0.4075
 5775SOL    HW128784   4.251   1.539   6.191 -0.0189  0.1741  0.7053
 5775SOL    HW228785   4.243   1.683   6.212 -1.5742  1.2463  0.2116
 5776SOL     OW28786   2.246   0.822   5.942  0.4399 -0.4561 -0.4749
 5776SOL    HW128787   2.196   0.767   5.882 -0.3387 -0.8247  0.5139
 5776SOL    HW228788   2.243   0.901   5.887 -0.6119 -0.2398 -0.1145
 5777SOL     OW28789   4.468   1.718   9.195  0.2687  0.2747  0.1365
 5777SOL    HW128790   4.519   1.775   9.252 -0.1264 -1.3514  2.1277
 5777SOL    HW228791   4.473   1.630   9.232 -1.4409 -0.6197 -1.7550
 5778SOL     OW28792   1.077   0.040   7.702  0.3114 -0.0684 -0.6736
 5778SOL    HW128793   1.089   4.664   7.700  0.2582 -0.1404  2.8142
 5778SOL    HW228794   1.128   0.064   7.779 -1.0546  0.6511  0.0115
 5779SOL     OW28795   1.449   0.861   5.479  0.6210 -0.4588  0.0719
 5779SOL    HW128796   1.525   0.919   5.468  0.3941 -0.1261  0.2520
 5779SOL    HW228797   1.499   0.780   5.468  0.5374 -0.5935  0.6985
 5780SOL     OW28798   2.209   3.949   9.713  0.0966  0.1579  0.1432
 5780SOL    HW128799   2.156   4.021   9.676 -0.2690  0.4924  1.3201
 5780SOL    HW228800   2.275   3.993   9.767 -0.9126  1.4741  0.3204
 5781SOL     OW28801   2.050   2.634  11.527 -0.1106 -0.8110  0.4643
 5781SOL    HW128802   2.137   2.671  11.546  0.2551 -0.1649 -2.5516
 5781SOL    HW228803   2.065   2.540  11.538 -0.5763 -0.6007  2.9111
 5782SOL     OW28804   1.148   2.210  15.337  0.0995 -0.5417  1.0341
 5782SOL    HW128805   1.128   2.119  15.359  1.8759 -0.6088  2.4253
 5782SOL    HW228806   1.090   2.261  15.393  2.1013  1.2988  1.4421
 5783SOL     OW28807   0.448   1.347   5.895 -0.2160 -0.2400  0.1764
 5783SOL    HW128808   0.525   1.382   5.940 -2.1784  1.6694  2.0743
 5783SOL    HW228809   0.430   1.423   5.839  0.6941 -1.9132 -2.3985
 5784SOL     OW28810   0.251   1.913  11.632 -0.4846 -0.2443 -0.6999
 5784SOL    HW128811   0.248   1.823  11.600  2.4650 -0.5663 -0.0834
 5784SOL    HW228812   0.183   1.952  11.578  0.0414  1.1574 -0.3459
 5785SOL     OW28813   4.412   4.075   8.262 -0.5407 -0.4780 -0.2789
 5785SOL    HW128814   4.478   4.014   8.297 -0.9374  0.1335  1.5592
 5785SOL    HW228815   4.362   4.018   8.204 -3.6772  0.3287  1.6620
 5786SOL     OW28816   3.060   2.251  16.598 -0.2934 -0.0951 -0.2053
 5786SOL    HW128817   3.038   2.230  16.507 -1.5646 -0.0312  0.0930
 5786SOL    HW228818   2.975   2.264  16.640 -0.2682 -0.2325 -0.1098
 5787SOL     OW28819   1.916   4.475  10.387  0.0081  0.2179 -0.3488
 5787SOL    HW128820   2.010   4.465  10.369 -0.1186 -0.1621 -0.7997
 5787SOL    HW228821   1.909   4.523  10.469  0.8045  0.4711 -0.4261
 5788SOL     OW28822   2.004   4.355  10.750 -0.5541 -0.2982  0.9813
 5788SOL    HW128823   1.945   4.408  10.697  0.3961 -1.6606 -1.4414
 5788SOL    HW228824   2.090   4.391  10.729  0.0834 -2.6801 -0.5746
 5789SOL     OW28825   1.847   0.267   9.422  0.9141  0.4248 -0.3869
 5789SOL    HW128826   1.766   0.220   9.407  0.4919  1.4906 -1.4446
 5789SOL    HW228827   1.891   0.275   9.338  0.5505 -0.1709 -0.6310
 5790SOL     OW28828   2.650   1.693   6.367  0.0074  0.0052 -0.9000
 5790SOL    HW128829   2.683   1.610   6.403 -0.2069 -0.1649 -1.0939
 5790SOL    HW228830   2.730   1.744   6.378  0.0007  0.3094 -2.2840
 5791SOL     OW28831   4.653   2.763   0.080 -0.3549  0.4208  0.2117
 5791SOL    HW128832   4.677   2.736  17.670 -0.7391  0.0006  0.2374
 5791SOL    HW228833   4.644   2.678   0.123 -1.3509  0.7126  0.5821
 5792SOL     OW28834   0.573   0.918  13.065  0.1076 -0.1410 -0.2917
 5792SOL    HW128835   0.608   0.977  13.132 -1.6301 -0.5521  0.9828
 5792SOL    HW228836   0.483   0.948  13.057 -1.0197 -3.4920 -0.1338
 5793SOL     OW28837   2.932   0.228   6.540  0.0137  0.4938 -0.3069
 5793SOL    HW128838   3.017   0.261   6.569  0.8713 -0.9433 -1.1428
 5793SOL    HW228839   2.928   0.167   6.614 -1.3064  0.0651 -0.7265
 5794SOL     OW28840   3.491   0.401  10.016 -0.1148  0.8712 -0.0253
 5794SOL    HW128841   3.566   0.352   9.982 -0.3236  2.9950 -3.5752
 5794SOL    HW228842   3.496   0.480   9.962 -1.0913  1.1975  0.3600
 5795SOL     OW28843   2.982   1.737  14.087  0.3211  0.2527 -0.5240
 5795SOL    HW128844   2.992   1.790  14.008  2.3181 -1.5525 -1.4617
 5795SOL    HW228845   3.072   1.711  14.104 -0.8651 -2.7152  1.2928
 5796SOL     OW28846   2.911   0.108   8.794  0.4623 -0.1424  0.1884
 5796SOL    HW128847   2.825   0.145   8.816  0.7424 -0.0428  1.1003
 5796SOL    HW228848   2.957   0.135   8.873  0.2562  0.9209 -0.0594
 5797SOL     OW28849   1.621   4.115   8.865 -0.2684  0.0888 -0.1574
 5797SOL    HW128850   1.695   4.160   8.823  0.2463  0.5437  1.2530
 5797SOL    HW228851   1.604   4.176   8.937  0.2123  2.4180 -1.9975
 5798SOL     OW28852   3.191   2.530   8.125  0.4014  0.3106  0.1608
 5798SOL    HW128853   3.273   2.547   8.171  0.7661  1.3397 -0.8550
 5798SOL    HW228854   3.133   2.503   8.195 -0.3636  3.6425  0.7977
 5799SOL     OW28855   1.874   3.331   8.533  0.2009  0.2836 -0.0950
 5799SOL    HW128856   1.943   3.265   8.537  0.2375  0.3172 -0.1599
 5799SOL    HW228857   1.892   3.384   8.610 -1.0072 -1.9435  1.7059
 5800SOL     OW28858   4.103   2.249   6.079  0.4743 -0.3601  0.2268
 5800SOL    HW128859   4.086   2.239   6.173 -2.3512  0.0485 -0.2387
 5800SOL    HW228860   4.016   2.263   6.041  1.7292 -0.4953 -2.6592
 5801SOL     OW28861   3.063   1.678  12.307  0.4906  0.0936  0.3020
 5801SOL    HW128862   3.104   1.631  12.234 -2.5006 -0.8485 -0.7867
 5801SOL    HW228863   3.018   1.608  12.354  0.0830 -0.6103 -1.1308
 5802SOL     OW28864   3.877   2.578   3.928  0.0783 -0.0968 -0.2895
 5802SOL    HW128865   3.856   2.588   4.021  0.6235  1.3060 -0.3263
 5802SOL    HW228866   3.910   2.488   3.934 -1.3415 -0.6531 -0.7130
 5803SOL     OW28867   3.736   2.096   0.390 -0.4130 -0.5070 -0.0251
 5803SOL    HW128868   3.786   2.107   0.471 -0.0235  3.7794 -0.8622
 5803SOL    HW228869   3.790   2.031   0.345 -0.0490 -0.0943 -0.1793
 5804SOL     OW28870   2.551   0.431   5.463 -0.0430 -0.2656 -0.1009
 5804SOL    HW128871   2.508   0.513   5.489  0.3146 -0.3577  0.8033
 5804SOL    HW228872   2.630   0.445   5.516 -1.0624  0.8625  1.1432
 5805SOL     OW28873   0.741   0.632  16.898 -0.4789 -0.0629 -0.4925
 5805SOL    HW128874   0.651   0.627  16.929 -0.1826  0.3931  0.4678
 5805SOL    HW228875   0.746   0.725  16.876  0.1853  0.5514  2.2445
 5806SOL     OW28876   1.055   0.994   0.127 -0.3185  0.5557  0.2568
 5806SOL    HW128877   1.091   0.933   0.191  0.8375  0.4059 -0.5411
 5806SOL    HW228878   0.967   1.001   0.163 -0.3814 -1.1112  0.4438
 5807SOL     OW28879   1.328   4.236  11.724 -0.0793  0.9574 -0.8545
 5807SOL    HW128880   1.251   4.184  11.704  1.9298 -1.5922 -2.0381
 5807SOL    HW228881   1.391   4.180  11.677  1.0926 -0.0334  1.8673
 5808SOL     OW28882   0.798   3.699   3.542 -0.2832 -0.2546 -0.0346
 5808SOL    HW128883   0.818   3.666   3.454 -0.0738  1.0186 -0.4600
 5808SOL    HW228884   0.741   3.632   3.580 -0.4908  0.9517  1.8012
 5809SOL     OW28885   4.043   1.970   7.842  0.3597 -0.1374 -0.4686
 5809SOL    HW128886   4.098   2.033   7.797  1.3126 -2.6040 -2.7620
 5809SOL    HW228887   4.104   1.896   7.840 -0.9172 -1.2032 -1.1777
 5810SOL     OW28888   4.115   0.551   6.597  0.2515 -0.0213  0.0882
 5810SOL    HW128889   4.055   0.622   6.575  0.2830  0.2081  0.7447
 5810SOL    HW228890   4.150   0.530   6.510  0.4344  1.1920 -0.1262
 5811SOL     OW28891   1.919   4.208  13.231 -0.2783  0.2543 -0.7993
 5811SOL    HW128892   1.955   4.170  13.311 -0.6397 -0.2218 -0.8599
 5811SOL    HW228893   1.978   4.282  13.213 -0.3010 -0.0321 -1.9961
 5812SOL     OW28894   4.218   3.380   2.798  0.6809 -0.4663 -0.4475
 5812SOL    HW128895   4.261   3.313   2.852  1.1453  0.5482  0.4535
 5812SOL    HW228896   4.211   3.453   2.859  1.9688 -1.4873  0.9281
 5813SOL     OW28897   2.882   0.291   9.282 -0.0777 -0.8619 -0.5210
 5813SOL    HW128898   2.938   0.307   9.206  0.3844  2.7871  0.6054
 5813SOL    HW228899   2.941   0.319   9.352  1.2093 -1.8285 -1.2205
 5814SOL     OW28900   4.202   3.428   5.798 -0.2591  0.3500  0.4139
 5814SOL    HW128901   4.143   3.419   5.872 -1.2128  0.0355 -0.3803
 5814SOL    HW228902   4.285   3.404   5.837 -2.0073 -0.3979  3.6104
 5815SOL     OW28903   2.686   3.215   8.278  0.2121  0.6456  0.2718
 5815SOL    HW128904   2.641   3.296   8.252  3.0586  1.8180 -1.1246
 5815SOL    HW228905   2.713   3.227   8.369  3.0832 -0.5395 -0.4369
 5816SOL     OW28906   0.402   4.097   1.809  0.3264 -0.1832  0.2430
 5816SOL    HW128907   0.394   4.112   1.903  1.4508  0.8279  0.1616
 5816SOL    HW228908   0.492   4.124   1.795  1.0231 -1.9536  1.3446
 5817SOL     OW28909   1.450   1.856   7.514 -0.1408  0.1592  1.0668
 5817SOL    HW128910   1.542   1.874   7.536 -0.4522  0.6322  1.9557
 5817SOL    HW228911   1.426   1.946   7.493 -0.2522 -0.4185 -1.2689
 5818SOL     OW28912   1.985   2.399  12.808  0.4907  0.0858 -0.0410
 5818SOL    HW128913   1.944   2.443  12.882 -0.2028 -0.6491  0.0086
 5818SOL    HW228914   2.024   2.322  12.850 -0.1492  0.3754  1.0894
 5819SOL     OW28915   3.233   3.143  11.725 -0.0953 -0.2293  0.2999
 5819SOL    HW128916   3.239   3.156  11.820  0.2660  2.0905 -0.0403
 5819SOL    HW228917   3.171   3.211  11.701 -0.4681 -0.2243  1.2654
 5820SOL     OW28918   3.999   1.335   5.447  0.2083  0.3645  0.3467
 5820SOL    HW128919   4.028   1.295   5.529  0.2012  2.0787  1.1785
 5820SOL    HW228920   4.082   1.351   5.402  0.2240 -2.4231 -0.6514
 5821SOL     OW28921   0.863   3.805  13.268 -0.1189  0.3758 -0.5522
 5821SOL    HW128922   0.826   3.821  13.181 -2.4209 -0.4403  0.2706
 5821SOL    HW228923   0.822   3.870  13.325  1.4565  1.7484 -1.0079
 5822SOL     OW28924   1.111   3.776   7.032  0.2701 -0.1963  0.0113
 5822SOL    HW128925   1.018   3.787   7.053  0.3723  1.0477 -0.2023
 5822SOL    HW228926   1.101   3.719   6.956  2.6461 -0.5961 -0.0079
 5823SOL     OW28927   3.793   1.776   7.927  0.5545  0.3958 -0.4880
 5823SOL    HW128928   3.709   1.735   7.908  0.8685 -0.2924 -0.4387
 5823SOL    HW228929   3.791   1.846   7.862  0.3908 -0.4078 -1.3441
 5824SOL     OW28930   2.017   0.575   6.737 -0.1637 -0.2516 -0.0856
 5824SOL    HW128931   2.076   0.513   6.780 -1.7072 -1.3635  0.4292
 5824SOL    HW228932   1.959   0.596   6.810  0.3929 -1.5594  0.7269
 5825SOL     OW28933   1.019   2.431   7.574 -0.0750  0.2174 -0.2164
 5825SOL    HW128934   0.982   2.348   7.546  1.3925 -0.4492 -0.2005
 5825SOL    HW228935   0.947   2.458   7.632 -1.0531 -1.6863 -0.5460
 5826SOL     OW28936   4.050   2.615   3.232 -0.4579  0.4134 -0.6485
 5826SOL    HW128937   4.097   2.665   3.166  2.5368 -1.5560  0.0039
 5826SOL    HW228938   3.973   2.596   3.177 -1.8696  3.1131  0.4061
 5827SOL     OW28939   0.129   3.283   3.704 -0.4230 -0.2130 -0.8291
 5827SOL    HW128940   0.182   3.230   3.763 -1.3455 -0.5386 -0.2898
 5827SOL    HW228941   0.178   3.363   3.687 -0.2430 -0.3823 -1.1099
 5828SOL     OW28942   2.411   0.327   9.114  0.2412  0.0630 -0.1635
 5828SOL    HW128943   2.355   0.399   9.143  0.9943  0.4025  0.4660
 5828SOL    HW228944   2.413   0.353   9.022 -0.8225  0.2873 -0.1207
 5829SOL     OW28945   2.481   3.325   0.707 -0.2961 -0.0243 -0.0632
 5829SOL    HW128946   2.455   3.259   0.772  2.4161  0.8168  1.8789
 5829SOL    HW228947   2.558   3.366   0.748 -0.1470 -1.2821  0.9428
 5830SOL     OW28948   2.852   0.663  11.845  0.6530  0.2180  0.5424
 5830SOL    HW128949   2.829   0.746  11.804 -0.8433 -1.4703 -2.0065
 5830SOL    HW228950   2.818   0.663  11.934 -1.2285 -0.3675 -0.1805
 5831SOL     OW28951   2.416   0.578   6.909  0.6408  0.6791 -0.6296
 5831SOL    HW128952   2.506   0.559   6.884 -0.2332 -2.4498 -1.3765
 5831SOL    HW228953   2.422   0.629   6.990 -1.2594  1.5056 -1.0003
 5832SOL     OW28954   4.174   0.034   0.690 -0.2753 -0.4578  0.2368
 5832SOL    HW128955   4.079   0.034   0.682 -0.2343 -0.4434 -0.2333
 5832SOL    HW228956   4.196   0.124   0.668 -1.6877 -0.3019 -0.5251
 5833SOL     OW28957   1.621   3.482   4.745 -0.1313  0.1146  0.2316
 5833SOL    HW128958   1.661   3.407   4.788 -1.8432 -0.1838  1.3301
 5833SOL    HW228959   1.553   3.508   4.808  1.0845  1.6561  0.9185
 5834SOL     OW28960   1.700   4.670   3.829 -0.2377  0.4609 -0.6128
 5834SOL    HW128961   1.739   0.038   3.819  0.2307  0.3755  0.4240
 5834SOL    HW228962   1.734   4.629   3.750  0.6325  0.5402 -0.2873
 5835SOL     OW28963   4.439   2.938   2.967 -0.0003  0.3655  0.1582
 5835SOL    HW128964   4.441   2.898   2.880 -0.5707 -1.2842  0.8988
 5835SOL    HW228965   4.512   2.890   3.007  0.6418 -0.1013 -1.5680
 5836SOL     OW28966   0.982   1.737   1.882 -0.1526 -0.3861 -0.0503
 5836SOL    HW128967   0.889   1.757   1.887 -0.4009 -1.1591 -1.9277
 5836SOL    HW228968   0.983   1.643   1.868  0.5036 -0.1634 -1.5209
 5837SOL     OW28969   4.075   2.842   5.813 -0.2753 -0.3246  0.5823
 5837SOL    HW128970   4.130   2.805   5.883  0.1953 -0.2710  0.2385
 5837SOL    HW228971   4.051   2.931   5.839  0.9050  0.3927 -0.7999
 5838SOL     OW28972   3.715   1.615   2.463 -0.1382  0.1137  0.0902
 5838SOL    HW128973   3.723   1.678   2.534 -1.7722  0.4237 -0.0057
 5838SOL    HW228974   3.658   1.671   2.411 -1.0970  0.4032  1.4695
 5839SOL     OW28975   2.924   4.020  10.930  0.2908  0.1852  0.1746
 5839SOL    HW128976   2.844   4.070  10.914  0.0618  0.3029  1.6163
 5839SOL    HW228977   2.988   4.059  10.870 -0.7647  1.1563 -0.3129
 5840SOL     OW28978   0.589   3.067   7.203  0.0707  0.0903  0.6426
 5840SOL    HW128979   0.494   3.052   7.203 -0.3252  2.5591  0.6608
 5840SOL    HW228980   0.608   3.029   7.117  1.5595 -2.0042  1.9006
 5841SOL     OW28981   3.945   1.008   5.574 -0.4334  0.0862 -0.1957
 5841SOL    HW128982   4.014   0.952   5.610 -0.9494 -0.1749  0.3862
 5841SOL    HW228983   4.007   1.044   5.511  1.1859 -0.1121  1.2700
 5842SOL     OW28984   0.891   3.081   8.056 -0.3865  0.0639 -0.2901
 5842SOL    HW128985   0.847   3.064   7.973 -1.2034 -1.5600  0.4799
 5842SOL    HW228986   0.982   3.069   8.028  0.1603  1.8474  0.7430
 5843SOL     OW28987   1.177   3.865   4.531  0.5209  0.3212  0.5668
 5843SOL    HW128988   1.112   3.804   4.497 -1.2571  1.4083  2.0155
 5843SOL    HW228989   1.149   3.957   4.527 -0.2905  0.0229 -0.3535
 5844SOL     OW28990   3.010   1.794   7.683 -0.3280 -0.1291 -0.1832
 5844SOL    HW128991   2.963   1.823   7.761  0.6521  0.6333  0.1313
 5844SOL    HW228992   3.081   1.742   7.721  1.0404 -0.4225 -3.1431
 5845SOL     OW28993   3.801   1.113   6.881 -0.5658  0.0370 -0.1748
 5845SOL    HW128994   3.894   1.110   6.862 -0.3013  1.1309  0.9907
 5845SOL    HW228995   3.793   1.102   6.976 -1.1920 -0.1435 -0.2474
 5846SOL     OW28996   1.374   1.440   2.897 -0.4573  0.4264 -0.3891
 5846SOL    HW128997   1.297   1.472   2.850 -1.4296  0.1583  1.0142
 5846SOL    HW228998   1.347   1.446   2.989 -1.1075 -2.1742 -0.3994
 5847SOL     OW28999   3.848   1.208   5.805  0.2520 -0.1297 -0.4531
 5847SOL    HW129000   3.893   1.145   5.748  2.2682  0.3326  0.6543
 5847SOL    HW229001   3.818   1.143   5.868 -0.1824  1.9894  1.5093
 5848SOL     OW29002   2.358   0.160   5.991 -0.0677 -0.1268 -0.5510
 5848SOL    HW129003   2.376   0.117   5.908  2.0461 -0.9549  0.3284
 5848SOL    HW229004   2.450   0.170   6.017 -0.1945  1.7931 -0.7914
 5849SOL     OW29005   3.195   4.387  11.167  0.6912  0.3647 -0.0353
 5849SOL    HW129006   3.190   4.435  11.249  0.5473  2.4573 -1.2599
 5849SOL    HW229007   3.105   4.391  11.136  0.5850 -1.0051  0.0873
 5850SOL     OW29008   2.698   3.827   4.825  0.2718  0.8634  0.6581
 5850SOL    HW129009   2.693   3.754   4.764 -0.1939  0.7506  0.8249
 5850SOL    HW229010   2.670   3.799   4.913 -0.3146 -0.8908 -0.0983
 5851SOL     OW29011   1.135   4.372   4.057 -0.1178 -0.4465  0.0510
 5851SOL    HW129012   1.149   4.465   4.041  0.2647 -0.5894 -0.4182
 5851SOL    HW229013   1.192   4.342   3.987  0.2766 -2.2537  1.1280
 5852SOL     OW29014   0.574   3.203   7.944  0.6611 -0.4969  0.1501
 5852SOL    HW129015   0.622   3.242   7.870  1.8007  1.1648  1.7679
 5852SOL    HW229016   0.529   3.130   7.902  1.2795 -0.9100  0.2193
 5853SOL     OW29017   1.357   0.221   8.554  0.2707  0.8749 -0.1271
 5853SOL    HW129018   1.369   0.142   8.608  0.2127  1.7686  1.1924
 5853SOL    HW229019   1.309   0.265   8.624  1.2358  0.7946  0.5961
 5854SOL     OW29020   3.821   2.567   0.680  0.3516  0.1063  0.0490
 5854SOL    HW129021   3.811   2.475   0.704  2.5359 -0.6876 -2.1320
 5854SOL    HW229022   3.735   2.575   0.639  0.2810 -0.1559  0.1494
 5855SOL     OW29023   3.764   4.604   3.580 -0.3116 -0.0615 -0.1013
 5855SOL    HW129024   3.710   4.682   3.570 -0.3154 -0.1816 -0.9926
 5855SOL    HW229025   3.773   4.594   3.675  1.1278  0.7976 -0.1408
 5856SOL     OW29026   1.899   3.488  12.807 -0.0924 -0.2629  0.2519
 5856SOL    HW129027   1.968   3.551  12.829 -2.2856  2.2425 -0.0487
 5856SOL    HW229028   1.828   3.534  12.763  0.9377  0.4147 -0.6787
 5857SOL     OW29029   4.170   0.970   1.895 -0.1046  0.8551  0.3602
 5857SOL    HW129030   4.195   1.010   1.978 -1.4011 -1.4972  1.8873
 5857SOL    HW229031   4.075   0.961   1.898  0.0673 -1.2667 -0.7653
 5858SOL     OW29032   0.071   0.988   8.596 -0.3665 -0.4364  0.5941
 5858SOL    HW129033   0.164   0.972   8.614 -0.6201 -1.5947  0.8634
 5858SOL    HW229034   0.036   1.020   8.678  1.8776 -0.9918  1.7773
 5859SOL     OW29035   4.548   1.065   3.583 -0.3705  0.2170  0.0429
 5859SOL    HW129036   4.560   1.149   3.539 -1.0411 -0.7762 -2.0260
 5859SOL    HW229037   4.618   1.074   3.648  0.3361 -0.5072 -0.6205
 5860SOL     OW29038   2.832   2.127   9.760  0.0554 -0.4704  0.2019
 5860SOL    HW129039   2.845   2.034   9.777 -1.1328 -0.9772 -1.6547
 5860SOL    HW229040   2.921   2.152   9.785  0.8038 -1.0816 -1.7918
 5861SOL     OW29041   0.319   4.657  14.900  0.5146  0.3540 -0.2925
 5861SOL    HW129042   0.382   4.626  14.835  0.1187 -0.3881 -0.3250
 5861SOL    HW229043   0.374   4.667  14.977 -1.4053  0.0487  1.1344
 5862SOL     OW29044   2.551   4.197  14.118 -0.3831 -1.1274  0.6337
 5862SOL    HW129045   2.492   4.205  14.193 -1.6909 -0.2223 -0.5044
 5862SOL    HW229046   2.484   4.177  14.054  1.0554 -1.2919 -0.8229
 5863SOL     OW29047   0.393   4.207  12.180 -0.0456 -0.1872  0.6314
 5863SOL    HW129048   0.426   4.161  12.103 -0.0673  0.0228  0.4981
 5863SOL    HW229049   0.404   4.300  12.163  3.9857 -0.9253 -0.7998
 5864SOL     OW29050   4.384   0.543  13.218  0.2210  0.2485 -0.1186
 5864SOL    HW129051   4.302   0.509  13.183 -0.5561  1.8258  0.1847
 5864SOL    HW229052   4.366   0.617  13.276 -1.0484  0.7868 -1.2114
 5865SOL     OW29053   0.268   1.214   1.755 -0.5003 -0.6670 -0.2401
 5865SOL    HW129054   0.287   1.124   1.728 -2.6199 -0.4109 -2.5276
 5865SOL    HW229055   0.300   1.251   1.673 -0.1836 -0.8200 -0.1868
 5866SOL     OW29056   2.178   3.978   8.148  0.0590 -0.2187  0.3911
 5866SOL    HW129057   2.089   3.994   8.116  1.1110  0.5220 -2.1393
 5866SOL    HW229058   2.180   3.889   8.185  1.8919 -0.0750  0.6382
 5867SOL     OW29059   1.458   3.176  15.558  0.6317  0.0561  0.2629
 5867SOL    HW129060   1.545   3.215  15.563 -0.3298  2.0588  1.6853
 5867SOL    HW229061   1.432   3.198  15.469  0.4600  1.2640  0.6170
 5868SOL     OW29062   0.032   2.920  14.988  0.0668  0.3032  0.0109
 5868SOL    HW129063   0.010   2.828  15.001  3.5483 -0.4140  0.8146
 5868SOL    HW229064   4.672   2.963  14.954 -0.1664 -0.9645 -1.0496
 5869SOL     OW29065   0.652   1.371   0.745 -0.3211  0.5997 -0.1478
 5869SOL    HW129066   0.575   1.407   0.701 -0.4574  1.6998  0.9925
 5869SOL    HW229067   0.719   1.365   0.677  0.0268  2.1436  0.0650
 5870SOL     OW29068   3.048   1.213  11.448 -0.2519  0.3334 -1.0680
 5870SOL    HW129069   3.119   1.210  11.384  1.6341  3.1443  0.9141
 5870SOL    HW229070   3.062   1.306  11.468 -1.6274  0.5284 -0.9985
 5871SOL     OW29071   0.200   0.596   7.797  0.1942 -0.2363  0.1937
 5871SOL    HW129072   0.294   0.604   7.779  0.0152 -3.1115 -2.0353
 5871SOL    HW229073   0.160   0.608   7.711  0.7948  2.5434  0.3091
 5872SOL     OW29074   1.212   4.334   4.327 -0.7469  0.3463  0.2382
 5872SOL    HW129075   1.158   4.263   4.363  0.3734  0.0455  1.3195
 5872SOL    HW229076   1.178   4.339   4.237 -2.9585 -0.1272  1.0453
 5873SOL     OW29077   4.268   1.036   7.430  0.1522  0.3553  0.1398
 5873SOL    HW129078   4.221   1.099   7.375 -0.8676 -0.1896  0.3905
 5873SOL    HW229079   4.254   0.958   7.376  0.3573 -0.1385  0.8125
 5874SOL     OW29080   3.272   0.753   4.882 -0.0784 -0.1944  0.0846
 5874SOL    HW129081   3.253   0.755   4.788  1.0472  0.7782 -0.1275
 5874SOL    HW229082   3.269   0.847   4.902 -1.6370 -0.2039 -0.1067
 5875SOL     OW29083   3.281   4.453   6.575  0.2859  0.0475 -0.1784
 5875SOL    HW129084   3.299   4.367   6.615  0.4890 -0.2378 -0.8849
 5875SOL    HW229085   3.277   4.510   6.652 -0.8163 -1.9685  1.2585
 5876SOL     OW29086   1.481   3.349   4.345 -0.0477 -0.1128  0.0108
 5876SOL    HW129087   1.461   3.407   4.419 -0.8790  1.5399 -1.5251
 5876SOL    HW229088   1.563   3.372   4.302 -1.0386  3.7580  0.1840
 5877SOL     OW29089   3.964   1.691  17.524 -0.7127 -0.0762 -0.1830
 5877SOL    HW129090   4.011   1.738  17.594  2.2887  0.5845 -2.6699
 5877SOL    HW229091   3.992   1.601  17.537  2.1576  0.9961  1.2590
 5878SOL     OW29092   4.191   3.275   8.556  0.0316 -0.3644  0.1991
 5878SOL    HW129093   4.229   3.320   8.631 -4.2787  1.5397  1.2330
 5878SOL    HW229094   4.106   3.318   8.551  0.6772  1.0076  1.0948
 5879SOL     OW29095   1.629   0.498   2.977 -0.0191 -0.6451 -0.2041
 5879SOL    HW129096   1.648   0.424   2.920 -0.9337 -0.3482 -0.8846
 5879SOL    HW229097   1.650   0.567   2.914 -0.7785 -0.5080 -0.3098
 5880SOL     OW29098   0.514   3.430  17.157 -0.2252  0.9197  0.2052
 5880SOL    HW129099   0.439   3.488  17.172 -2.2600 -1.7154  0.1971
 5880SOL    HW229100   0.518   3.396  17.247 -1.4833 -1.9020 -0.8172
 5881SOL     OW29101   3.542   0.190  15.392 -0.4260  0.2487  0.0925
 5881SOL    HW129102   3.626   0.180  15.438 -1.8338 -1.2843  2.2867
 5881SOL    HW229103   3.573   0.233  15.312  1.2277  1.1021  1.1865
 5882SOL     OW29104   0.033   0.103   5.747 -0.5177  0.4641 -0.1432
 5882SOL    HW129105   0.039   0.182   5.693  3.1037  0.2258 -0.0632
 5882SOL    HW229106   0.038   0.034   5.681  1.1158  0.7148 -0.2646
 5883SOL     OW29107   1.098   0.986  13.968  0.1931 -0.1900  0.5687
 5883SOL    HW129108   1.073   0.926  14.038 -0.5013 -0.5111  0.0560
 5883SOL    HW229109   1.158   0.944  13.906 -0.8768  0.5731 -0.9983
 5884SOL     OW29110   3.526   0.762  12.062 -0.3961 -0.3924 -0.1850
 5884SOL    HW129111   3.447   0.733  12.108 -0.0180 -1.6007 -0.2822
 5884SOL    HW229112   3.599   0.711  12.096  1.6145  0.3194 -3.4901
 5885SOL     OW29113   2.601   4.531   6.203  0.1320  0.0122  0.0396
 5885SOL    HW129114   2.680   4.567   6.161 -0.5782  0.1538 -1.1698
 5885SOL    HW229115   2.609   4.437   6.187 -2.7814 -0.3609  0.7960
 5886SOL     OW29116   4.549   0.624  17.673  0.7823 -0.4538  0.3742
 5886SOL    HW129117   4.621   0.681   0.023  0.9182  0.0674 -1.0413
 5886SOL    HW229118   4.517   0.675  17.599  0.2742 -0.6704  0.4393
 5887SOL     OW29119   1.333   4.481   5.885  0.2278 -0.3790  0.1937
 5887SOL    HW129120   1.427   4.466   5.882  0.2799  0.4260 -2.0543
 5887SOL    HW229121   1.318   4.484   5.791 -2.0127  1.4477  0.6196
 5888SOL     OW29122   2.377   0.305  12.576  0.0929 -0.3825 -0.1215
 5888SOL    HW129123   2.414   0.391  12.596 -0.8628  0.1048 -0.4553
 5888SOL    HW229124   2.336   0.299  12.662  1.0391  0.4723  0.3971
 5889SOL     OW29125   2.862   1.033   4.232  0.3542 -0.2710  0.0244
 5889SOL    HW129126   2.949   1.063   4.256 -0.6019  2.3593  0.1222
 5889SOL    HW229127   2.893   0.982   4.157  1.3561  1.5310 -0.7826
 5890SOL     OW29128   0.376   4.259  10.443  0.1225 -0.1292 -0.2452
 5890SOL    HW129129   0.456   4.219  10.475  0.2992 -0.1263 -0.6882
 5890SOL    HW229130   0.398   4.263  10.350 -1.6402  0.3275 -0.6432
 5891SOL     OW29131   1.351   1.713   5.129  0.6511 -0.2886  0.1781
 5891SOL    HW129132   1.382   1.697   5.218  2.3038 -3.1310 -0.9045
 5891SOL    HW229133   1.396   1.643   5.081 -0.0807  0.1950 -1.1972
 5892SOL     OW29134   0.591   2.099  14.231 -0.0131  0.0447  0.0899
 5892SOL    HW129135   0.575   2.187  14.198  1.7458  1.0537  1.9430
 5892SOL    HW229136   0.526   2.053  14.178  1.6090 -1.9016 -0.2234
 5893SOL     OW29137   0.153   2.955  12.327  0.3208  0.1962  0.6105
 5893SOL    HW129138   0.083   3.012  12.358 -0.1275 -0.6837  1.2482
 5893SOL    HW229139   0.234   2.995  12.358  0.5503 -0.7888  1.3052
 5894SOL     OW29140   1.681   2.659   8.124 -0.3773  0.6918  0.8139
 5894SOL    HW129141   1.742   2.666   8.051  0.3184  2.6283  1.5810
 5894SOL    HW229142   1.728   2.606   8.189 -1.2984 -0.7953  0.2709
 5895SOL     OW29143   1.638   4.256  13.360  0.4102  0.2898  0.2247
 5895SOL    HW129144   1.719   4.291  13.396 -0.6866  1.5326  1.5028
 5895SOL    HW229145   1.592   4.249  13.444  0.7234  2.0337  0.5304
 5896SOL     OW29146   4.247   4.075   5.433  0.2563  0.7770 -0.4408
 5896SOL    HW129147   4.288   4.157   5.460 -0.5688  1.0190  0.0853
 5896SOL    HW229148   4.323   4.020   5.454 -1.7483 -1.5645  0.7668
 5897SOL     OW29149   1.494   2.945   2.354  0.1559  0.0886 -0.1641
 5897SOL    HW129150   1.478   3.035   2.327 -3.7600  0.1098  2.2277
 5897SOL    HW229151   1.410   2.928   2.397  0.7509  2.4088  1.8686
 5898SOL     OW29152   2.203   0.546  16.479  0.3117 -0.1502  0.5154
 5898SOL    HW129153   2.137   0.572  16.415  1.1180  1.5554  0.3680
 5898SOL    HW229154   2.147   0.490  16.534 -0.5529 -2.0296 -2.2920
 5899SOL     OW29155   1.560   3.728   7.665 -0.4226  0.0457 -0.2323
 5899SOL    HW129156   1.547   3.660   7.598 -1.4172  2.0678 -2.0785
 5899SOL    HW229157   1.656   3.729   7.662 -0.3546 -1.6040  1.1757
 5900SOL     OW29158   3.275   3.745   6.233 -0.1323 -0.0695 -0.2168
 5900SOL    HW129159   3.336   3.676   6.257  0.7872  0.5414 -0.8273
 5900SOL    HW229160   3.198   3.705   6.274  0.0856 -2.1227 -1.8576
 5901SOL     OW29161   1.444   1.100   6.445 -0.7677 -0.3299 -0.2371
 5901SOL    HW129162   1.496   1.041   6.390 -0.0969 -0.3007  0.3615
 5901SOL    HW229163   1.388   1.151   6.387 -0.0890 -1.2503 -1.6932
 5902SOL     OW29164   2.490   4.195   2.316 -0.0354  0.1348  0.3655
 5902SOL    HW129165   2.420   4.258   2.301  0.4225  0.3354 -0.8822
 5902SOL    HW229166   2.483   4.198   2.412 -0.0927  1.9613  0.2932
 5903SOL     OW29167   0.618   4.134   7.641 -0.4922 -0.2508 -0.2502
 5903SOL    HW129168   0.563   4.174   7.573 -0.5673 -0.2757 -0.2039
 5903SOL    HW229169   0.705   4.160   7.612  1.0146 -1.4258  3.2760
 5904SOL     OW29170   1.279   2.318  16.904 -0.2086  0.7085  0.4320
 5904SOL    HW129171   1.312   2.401  16.938  1.3269 -0.3409  1.4693
 5904SOL    HW229172   1.229   2.353  16.830 -1.5623 -0.9948  0.5429
 5905SOL     OW29173   3.659   4.027   2.002 -0.3690 -0.1365 -0.4829
 5905SOL    HW129174   3.621   3.939   2.001  0.2289 -0.4008  0.4206
 5905SOL    HW229175   3.717   4.015   1.927 -1.1427  1.4875 -1.3334
 5906SOL     OW29176   0.037   2.520  15.587  0.1026 -0.1653 -0.1737
 5906SOL    HW129177   0.112   2.527  15.646  0.0475  2.0815 -0.3492
 5906SOL    HW229178   4.689   2.474  15.637  0.4456  1.3941  1.7426
 5907SOL     OW29179   1.502   2.175   5.180  0.3175 -0.1560 -0.4077
 5907SOL    HW129180   1.537   2.169   5.091 -0.3931 -1.6347 -0.5917
 5907SOL    HW229181   1.574   2.220   5.224  0.0410  0.1354 -0.2613
 5908SOL     OW29182   2.358   4.268   0.503  0.5270  0.4632  0.0466
 5908SOL    HW129183   2.298   4.257   0.576  0.7952 -0.0503  0.1919
 5908SOL    HW229184   2.323   4.351   0.472 -0.6664 -0.7135 -1.7703
 5909SOL     OW29185   4.590   2.742   8.127 -0.2842  0.3494 -0.6042
 5909SOL    HW129186   4.553   2.703   8.207 -0.2889  1.3595 -0.1225
 5909SOL    HW229187   4.679   2.752   8.161 -0.7119  3.1654 -0.3779
 5910SOL     OW29188   4.061   1.453  10.691  0.0514  0.6292 -0.1138
 5910SOL    HW129189   4.054   1.398  10.613  0.6398 -1.8628  1.6117
 5910SOL    HW229190   4.112   1.398  10.750 -1.0874  1.7200  1.8834
 5911SOL     OW29191   4.207   2.981  10.934  0.5532  0.3287  0.3388
 5911SOL    HW129192   4.299   2.964  10.915  0.7902  2.9786 -0.9283
 5911SOL    HW229193   4.194   2.974  11.028 -4.7691  0.0859 -0.3940
 5912SOL     OW29194   2.083   1.679   1.808 -0.9206 -0.2659  0.1414
 5912SOL    HW129195   2.059   1.763   1.848  0.5995  0.1551  0.1647
 5912SOL    HW229196   2.051   1.684   1.718 -0.0757 -0.3665 -0.1662
 5913SOL     OW29197   1.936   2.885   1.140  0.1406  0.6355  0.3071
 5913SOL    HW129198   2.012   2.893   1.082 -0.8695  0.7354 -1.0039
 5913SOL    HW229199   1.957   2.948   1.208  1.4564  1.0784 -0.5096
 5914SOL     OW29200   4.015   0.371   0.748  0.1133  0.0449  0.4608
 5914SOL    HW129201   4.055   0.416   0.823  0.8534  0.1579 -0.0018
 5914SOL    HW229202   4.099   0.365   0.702  0.1801  1.2903  0.4222
 5915SOL     OW29203   0.849   1.161   1.993  0.0177  0.5763  0.0354
 5915SOL    HW129204   0.778   1.221   2.017  0.0113  0.9126 -0.8076
 5915SOL    HW229205   0.855   1.105   2.070 -2.0518  0.2914 -0.0184
 5916SOL     OW29206   3.047   0.286   8.483  0.4970 -0.4532  0.0573
 5916SOL    HW129207   3.122   0.245   8.526 -0.5196 -0.6120  1.7027
 5916SOL    HW229208   2.972   0.263   8.538  1.3758  2.2012  2.3578
 5917SOL     OW29209   3.319   4.668  17.392 -0.0885 -0.0568 -0.7560
 5917SOL    HW129210   3.267   4.606  17.340  0.4591 -0.3825 -0.9092
 5917SOL    HW229211   3.244   0.001  17.423 -0.0638 -0.5705  0.1555
 5918SOL     OW29212   4.449   4.683   0.987 -0.2309  0.0484 -0.3343
 5918SOL    HW129213   4.521   4.621   0.981 -0.0439  0.3027 -0.7481
 5918SOL    HW229214   4.400   4.646   1.060 -1.2548  2.0370  0.0060
 5919SOL     OW29215   0.616   4.179   0.486 -0.1978 -0.0871  0.1599
 5919SOL    HW129216   0.588   4.234   0.413  1.8651  0.5989 -0.1011
 5919SOL    HW229217   0.702   4.145   0.463  0.9447  1.6431  1.8939
 5920SOL     OW29218   3.988   1.669   8.285  0.7998 -0.4932 -0.1660
 5920SOL    HW129219   3.995   1.762   8.267  1.9226 -0.8921 -1.8219
 5920SOL    HW229220   4.019   1.666   8.376 -1.1818  3.4308  0.6211
 5921SOL     OW29221   0.482   2.842  12.816 -0.5149 -0.0044  0.0625
 5921SOL    HW129222   0.470   2.826  12.910  1.4144  0.3872  0.3775
 5921SOL    HW229223   0.391   2.833  12.786 -0.5326 -0.6965  0.3386
 5922SOL     OW29224   4.714   3.111   9.538  0.1985  0.1606 -0.2488
 5922SOL    HW129225   4.708   3.185   9.598  2.5286  0.0445  0.1291
 5922SOL    HW229226   4.622   3.090   9.522 -0.0310 -0.1539  1.5647
 5923SOL     OW29227   3.351   1.371   9.486 -0.2059 -0.2101  0.1575
 5923SOL    HW129228   3.300   1.397   9.410 -1.3082 -0.8897  0.6593
 5923SOL    HW229229   3.311   1.288   9.511  1.0847 -0.7783  0.3011
 5924SOL     OW29230   2.017   0.861   3.893  0.3443 -0.8309  0.8894
 5924SOL    HW129231   2.105   0.872   3.927  1.5336  0.3155 -2.6272
 5924SOL    HW229232   2.012   0.915   3.814  1.6603 -1.9976  0.0221
 5925SOL     OW29233   2.919   1.976  17.377  0.9890 -0.0777 -0.3749
 5925SOL    HW129234   2.918   2.017  17.464 -2.3026 -0.2006 -0.3440
 5925SOL    HW229235   2.858   2.032  17.330 -0.2543  0.3299  1.7000
 5926SOL     OW29236   2.776   3.544   7.488 -0.8263 -0.7318 -0.1187
 5926SOL    HW129237   2.833   3.583   7.421 -0.8192 -1.1584 -0.3598
 5926SOL    HW229238   2.747   3.628   7.525  0.8101 -0.5813  0.8475
 5927SOL     OW29239   3.088   1.451   8.231 -0.3239  0.3967  0.6819
 5927SOL    HW129240   3.067   1.375   8.176  5.0187 -1.8979  1.8021
 5927SOL    HW229241   3.093   1.406   8.316 -0.0684 -0.6787  0.0955
 5928SOL     OW29242   0.176   1.695   3.848  0.5566  0.3469 -0.4165
 5928SOL    HW129243   0.111   1.644   3.799  0.6195 -0.1198 -0.0121
 5928SOL    HW229244   0.243   1.629   3.865 -0.3874 -0.6163 -0.4215
 5929SOL     OW29245   1.345   0.729  17.556  0.5463  0.2668 -0.1870
 5929SOL    HW129246   1.345   0.823  17.571  0.2938  0.3067 -0.4329
 5929SOL    HW229247   1.409   0.698  17.620  1.4422 -0.2650 -1.3492
 5930SOL     OW29248   2.485   1.172   7.809  0.0462  0.3245 -0.0284
 5930SOL    HW129249   2.406   1.123   7.827 -0.8465  1.7044 -0.1711
 5930SOL    HW229250   2.450   1.253   7.772 -1.0569 -1.0281 -1.9324
 5931SOL     OW29251   3.549   2.449  16.856  0.3229 -0.2117  0.0915
 5931SOL    HW129252   3.633   2.473  16.816  0.0885  0.5105  0.0296
 5931SOL    HW229253   3.578   2.454  16.947 -0.5138  2.9556  0.1711
 5932SOL     OW29254   2.630   2.973  10.859  0.7809  0.1236  1.0216
 5932SOL    HW129255   2.725   2.971  10.870  1.0250 -1.4655 -1.4089
 5932SOL    HW229256   2.615   2.881  10.839  0.3373  0.2372  0.8288
 5933SOL     OW29257   1.919   2.122   8.433  0.5986 -0.5500 -0.3158
 5933SOL    HW129258   1.864   2.076   8.496 -0.7382 -0.6818 -1.5822
 5933SOL    HW229259   2.009   2.102   8.459  1.0612  1.0880 -0.6374
 5934SOL     OW29260   1.602   1.909   9.554 -0.3404  0.0780 -0.1275
 5934SOL    HW129261   1.690   1.925   9.520 -0.5310  0.0681 -0.6297
 5934SOL    HW229262   1.612   1.819   9.585  1.1103  0.9031  1.8125
 5935SOL     OW29263   4.374   0.257  15.962  0.2401  0.3844 -0.1073
 5935SOL    HW129264   4.420   0.330  15.920 -0.4288  0.2796 -1.0177
 5935SOL    HW229265   4.316   0.226  15.893  0.5005 -1.8720  0.6758
 5936SOL     OW29266   2.167   2.888   7.159 -0.4835 -0.1986 -0.7641
 5936SOL    HW129267   2.248   2.866   7.113 -0.7518  0.0038 -1.3276
 5936SOL    HW229268   2.117   2.813   7.129 -1.7543  1.1444 -1.9990
 5937SOL     OW29269   4.671   2.945  17.510  0.1787  0.0753 -0.2176
 5937SOL    HW129270   0.036   2.969  17.550 -1.4730  2.9090  1.5537
 5937SOL    HW229271   4.694   2.865  17.464  0.0102 -1.1765  1.8521
 5938SOL     OW29272   1.101   3.823   5.204 -0.9200 -0.7563 -0.2696
 5938SOL    HW129273   1.092   3.913   5.172  1.8108 -0.3912  0.0477
 5938SOL    HW229274   1.192   3.795   5.194 -0.3870  1.5341 -1.8224
 5939SOL     OW29275   4.083   2.070   4.840  0.2345 -0.3801 -0.3530
 5939SOL    HW129276   4.017   2.003   4.824 -0.0032  0.2550 -2.0239
 5939SOL    HW229277   4.105   2.098   4.751  3.2604 -0.8183  0.2653
 5940SOL     OW29278   3.033   4.602  11.795 -0.1687  0.3686 -0.0293
 5940SOL    HW129279   3.120   4.611  11.756  0.6205  0.1662  1.6582
 5940SOL    HW229280   2.976   4.581  11.721  0.2315 -1.3239  0.1358
 5941SOL     OW29281   1.294   3.338   7.691 -0.0696 -0.2261 -0.3012
 5941SOL    HW129282   1.217   3.375   7.734 -0.1751 -1.2092  0.3651
 5941SOL    HW229283   1.333   3.309   7.773 -1.4171 -1.9956 -0.2790
 5942SOL     OW29284   0.627   4.423   4.662  0.0526  0.3291  0.5282
 5942SOL    HW129285   0.660   4.354   4.719 -0.6294  0.0770  0.6177
 5942SOL    HW229286   0.656   4.379   4.582 -1.5121 -2.6230  1.5909
 5943SOL     OW29287   0.917   3.573   6.173  0.6653  0.2770 -0.0642
 5943SOL    HW129288   0.999   3.596   6.130 -0.0630 -0.5490 -1.8755
 5943SOL    HW229289   0.923   3.478   6.178 -1.3770  0.0750 -1.1669
 5944SOL     OW29290   4.705   2.042   0.661 -0.7546  0.0310 -0.6016
 5944SOL    HW129291   4.680   1.951   0.641  1.2743 -0.9179  1.1535
 5944SOL    HW229292   0.039   2.036   0.740  0.1993  1.6190 -1.1122
 5945SOL     OW29293   0.977   3.151   8.840  0.1749  0.1125  0.2224
 5945SOL    HW129294   0.891   3.141   8.881  0.5750 -2.1661  0.5064
 5945SOL    HW229295   0.973   3.102   8.758 -3.4982  0.1497  0.3682
 5946SOL     OW29296   2.495   1.964  12.027 -0.2565 -0.6851 -0.0005
 5946SOL    HW129297   2.552   1.903  12.074  0.6022  0.5424  0.5524
 5946SOL    HW229298   2.420   1.906  12.037 -1.0543  0.4739  0.8144
 5947SOL     OW29299   3.550   2.000   8.880 -0.6462  0.0244  0.1393
 5947SOL    HW129300   3.624   2.059   8.877  1.1769 -2.3558 -1.2795
 5947SOL    HW229301   3.571   1.967   8.968  0.7855 -1.0277 -0.6131
 5948SOL     OW29302   1.187   1.999  12.290  0.1065  0.7505  0.0238
 5948SOL    HW129303   1.229   2.073  12.335 -0.0244  0.7103  0.2137
 5948SOL    HW229304   1.131   2.039  12.225 -1.0317 -0.1176  0.4719
 5949SOL     OW29305   3.308   0.877   7.526  0.1673 -0.1685  0.1783
 5949SOL    HW129306   3.232   0.934   7.510  1.0860  0.7757 -0.8018
 5949SOL    HW229307   3.292   0.873   7.620  0.1734 -0.6381  0.1585
 5950SOL     OW29308   3.913   4.611   7.198 -0.7609 -0.0136 -0.0790
 5950SOL    HW129309   3.902   4.548   7.126 -0.1629 -1.3933  1.0300
 5950SOL    HW229310   3.890   4.696   7.162 -0.2810 -0.0104 -0.3759
 5951SOL     OW29311   3.318   0.624   0.117  1.1433 -0.2089  0.0839
 5951SOL    HW129312   3.304   0.535   0.148 -1.6226  0.3437  0.4312
 5951SOL    HW229313   3.364   0.668   0.189  0.6668  2.6991 -1.3756
 5952SOL     OW29314   0.587   0.952   6.263  0.1746 -0.1803 -0.5925
 5952SOL    HW129315   0.680   0.935   6.244  0.6326 -0.0352  1.5110
 5952SOL    HW229316   0.567   1.028   6.208  1.3207  0.3172 -0.3279
 5953SOL     OW29317   1.729   1.642   8.545 -0.0842  0.3850 -0.2140
 5953SOL    HW129318   1.754   1.607   8.631  1.3952  1.2356 -0.3076
 5953SOL    HW229319   1.801   1.690   8.504 -0.6651  1.3203 -0.1328
 5954SOL     OW29320   2.237   4.389  10.648 -0.4993 -0.1275 -0.0313
 5954SOL    HW129321   2.271   4.472  10.615 -1.1199 -0.2734 -1.0518
 5954SOL    HW229322   2.262   4.332  10.575 -0.2665  0.1400 -0.1610
 5955SOL     OW29323   4.709   1.854   3.468 -0.0087  0.3065 -0.1330
 5955SOL    HW129324   4.658   1.779   3.501  0.4667 -0.2317 -0.6315
 5955SOL    HW229325   0.011   1.896   3.551 -0.2822 -1.3767  0.7918
 5956SOL     OW29326   0.263   1.617   7.777  0.3670  0.0123  0.6000
 5956SOL    HW129327   0.303   1.558   7.842  1.0327 -0.9530 -0.6977
 5956SOL    HW229328   0.330   1.683   7.766  0.6917 -0.3981  0.1325
 5957SOL     OW29329   2.014   3.947   4.249 -0.0267  0.2901 -0.4857
 5957SOL    HW129330   2.047   3.857   4.255 -1.1844  0.0143  1.9000
 5957SOL    HW229331   1.946   3.934   4.316 -0.7849  1.0960 -1.0970
 5958SOL     OW29332   3.282   0.965   3.668 -0.0188  0.4790  0.2338
 5958SOL    HW129333   3.315   1.053   3.687 -1.0277  1.5089 -2.7991
 5958SOL    HW229334   3.190   0.985   3.655 -0.4416 -0.5576  1.7711
 5959SOL     OW29335   4.579   3.342  10.285 -0.6964  0.2784  0.0696
 5959SOL    HW129336   4.533   3.425  10.296 -0.2824  0.4346  0.6289
 5959SOL    HW229337   4.507   3.298  10.239  0.0348  0.6743 -1.4541
 5960SOL     OW29338   0.543   1.461  12.417 -0.1781 -0.6794 -0.4275
 5960SOL    HW129339   0.564   1.489  12.506  0.7057  2.0214 -1.4961
 5960SOL    HW229340   0.623   1.486  12.370 -0.0614  0.7406  0.5434
 5961SOL     OW29341   1.681   3.526   6.792  0.0682  0.3435 -0.3945
 5961SOL    HW129342   1.595   3.527   6.835  0.0955  0.4634 -0.3433
 5961SOL    HW229343   1.654   3.530   6.700  2.3642  0.2166 -1.0563
 5962SOL     OW29344   4.069   1.014   1.272 -0.0254  0.1299  0.1002
 5962SOL    HW129345   4.106   0.927   1.254 -2.6868 -0.7949 -0.9458
 5962SOL    HW229346   3.976   1.017   1.248 -0.5832 -1.6766  2.1267
 5963SOL     OW29347   0.632   4.636   7.496  0.0868 -0.1697  0.2405
 5963SOL    HW129348   0.700   4.598   7.552 -0.1300 -0.8453  0.0457
 5963SOL    HW229349   0.628   4.566   7.431 -1.2983  0.7282 -0.6325
 5964SOL     OW29350   2.667   0.609   3.644 -0.2102 -0.1942  0.2938
 5964SOL    HW129351   2.722   0.562   3.706  1.9153 -3.6042 -4.1299
 5964SOL    HW229352   2.717   0.600   3.563 -2.2013 -1.0956 -0.8579
 5965SOL     OW29353   2.835   4.635   5.262  0.2345 -0.4534 -0.0660
 5965SOL    HW129354   2.866   4.549   5.290  1.3258 -0.0000  0.1198
 5965SOL    HW229355   2.893   4.643   5.186 -0.0860  0.5169 -0.2016
 5966SOL     OW29356   3.998   3.464   7.650  0.1085  0.1408 -0.5617
 5966SOL    HW129357   3.943   3.532   7.688  1.4682  0.4480  0.8447
 5966SOL    HW229358   3.985   3.482   7.557 -0.3034 -0.7938 -0.6877
 5967SOL     OW29359   1.749   4.457  16.898 -0.0201  0.1557 -0.4971
 5967SOL    HW129360   1.807   4.492  16.966  0.6564 -1.6270 -0.1787
 5967SOL    HW229361   1.716   4.537  16.856  3.2927  1.7682 -0.0586
 5968SOL     OW29362   4.273   4.635   4.033  0.4227 -0.0323  0.5181
 5968SOL    HW129363   4.234   4.558   4.075 -0.6607  0.0962 -0.2488
 5968SOL    HW229364   4.335   4.659   4.102 -0.0780  1.5881  0.3935
 5969SOL     OW29365   2.492   2.644  14.511 -0.5313  0.0240  0.3328
 5969SOL    HW129366   2.574   2.594  14.511 -0.9311 -0.6452 -1.2076
 5969SOL    HW229367   2.435   2.577  14.474 -2.0492  0.7588  1.3486
 5970SOL     OW29368   3.039   0.848   7.340  0.3781  0.1892 -0.3256
 5970SOL    HW129369   3.017   0.823   7.250 -0.5368  3.1347 -0.9318
 5970SOL    HW229370   3.095   0.772   7.355  0.2975 -0.0516 -1.2248
 5971SOL     OW29371   1.611   3.498  14.527 -0.4558 -0.3871  0.0771
 5971SOL    HW129372   1.519   3.516  14.546 -0.1671  0.8603  0.2853
 5971SOL    HW229373   1.610   3.414  14.482 -1.3963 -0.5743  0.4465
 5972SOL     OW29374   2.945   1.619   1.429  0.7246  0.1463 -0.5943
 5972SOL    HW129375   2.977   1.574   1.508 -3.3614  1.4207  1.7813
 5972SOL    HW229376   3.027   1.640   1.384  1.5635  0.2193  0.9617
 5973SOL     OW29377   2.272   4.598   8.930  0.9007 -0.3096  0.3623
 5973SOL    HW129378   2.297   4.641   9.011 -1.5423  1.0678  0.3829
 5973SOL    HW229379   2.302   4.668   8.872  1.0916 -1.1241 -0.5251
 5974SOL     OW29380   4.184   1.023   5.394  0.1261 -0.4500  0.5055
 5974SOL    HW129381   4.200   0.929   5.392  0.4822 -0.3678 -0.6943
 5974SOL    HW229382   4.162   1.032   5.301  0.1512  0.9915  0.6346
 5975SOL     OW29383   3.146   2.461   8.384  0.1036  0.2737 -0.1394
 5975SOL    HW129384   3.090   2.525   8.428 -0.0674  1.1313 -1.6278
 5975SOL    HW229385   3.232   2.484   8.419 -0.2062 -0.4639  1.1056
 5976SOL     OW29386   3.413   4.594   6.401  0.3220 -0.0938 -0.4851
 5976SOL    HW129387   3.506   4.578   6.419  0.0730 -3.6481 -2.3700
 5976SOL    HW229388   3.369   4.537   6.463  1.8513  0.0824  0.7814
 5977SOL     OW29389   3.220   2.104   4.180 -0.1245  0.3358  0.3413
 5977SOL    HW129390   3.296   2.047   4.167  0.5457  1.3224 -0.0464
 5977SOL    HW229391   3.259   2.163   4.244 -0.0269  1.5847 -0.8776
 5978SOL     OW29392   1.676   2.210  16.888  0.1617 -0.5060  0.2844
 5978SOL    HW129393   1.663   2.245  16.800  0.2468 -0.3714  0.3249
 5978SOL    HW229394   1.746   2.146  16.872  1.8166  1.9847 -2.4762
 5979SOL     OW29395   3.169   2.312   0.215 -0.0880  0.0791 -0.2733
 5979SOL    HW129396   3.247   2.351   0.175 -0.5794 -0.3414 -1.6144
 5979SOL    HW229397   3.149   2.231   0.168  0.9969  0.3335 -1.1628
 5980SOL     OW29398   1.219   1.942  17.080  0.5067 -0.5098  0.1169
 5980SOL    HW129399   1.166   1.981  17.011  0.8005 -0.3453 -0.0122
 5980SOL    HW229400   1.297   1.997  17.070  1.0402 -1.1945  0.4910
 5981SOL     OW29401   3.433   1.077   6.734  0.1452 -0.3067  0.5860
 5981SOL    HW129402   3.402   1.106   6.648 -0.3738 -1.4187  0.4030
 5981SOL    HW229403   3.508   1.026   6.704  1.4027  0.9514  1.5483
 5982SOL     OW29404   3.917   0.977   3.758  0.0445  0.2057 -0.3361
 5982SOL    HW129405   3.828   0.985   3.722 -1.3734  2.9066  3.7953
 5982SOL    HW229406   3.912   1.055   3.813  1.9173 -0.8888  1.3925
 5983SOL     OW29407   1.108   1.231   3.040 -0.2705 -0.3089  0.0644
 5983SOL    HW129408   1.053   1.284   2.982  0.3454 -0.6652 -0.8527
 5983SOL    HW229409   1.063   1.250   3.122 -0.4720 -2.4311  0.4246
 5984SOL     OW29410   3.824   4.040   7.318  0.3746 -0.3509  0.0009
 5984SOL    HW129411   3.804   4.023   7.410 -1.5524 -2.5770 -0.8317
 5984SOL    HW229412   3.820   4.135   7.322 -0.6611 -0.3468 -1.0642
 5985SOL     OW29413   1.984   2.436   2.476 -0.0733 -0.1393  0.7295
 5985SOL    HW129414   1.960   2.379   2.549 -2.6186 -1.9080 -1.4657
 5985SOL    HW229415   2.049   2.378   2.438 -0.0680  0.0469  0.4530
 5986SOL     OW29416   2.608   0.479   0.232  0.2652 -0.6138  0.2462
 5986SOL    HW129417   2.692   0.508   0.268  0.1526 -1.5063  1.2281
 5986SOL    HW229418   2.542   0.505   0.296  0.3891  0.1385  0.0692
 5987SOL     OW29419   1.254   1.619  15.593  0.2318  0.3726  0.0349
 5987SOL    HW129420   1.271   1.530  15.623  0.1145  0.7284  1.1869
 5987SOL    HW229421   1.222   1.653  15.677 -0.8667  1.8302 -0.9568
 5988SOL     OW29422   4.565   2.380  14.680 -0.1254 -0.6203  0.1621
 5988SOL    HW129423   4.601   2.384  14.768 -0.5053 -1.9461  0.3710
 5988SOL    HW229424   4.570   2.286  14.664 -1.5027 -0.6141 -0.3083
 5989SOL     OW29425   2.128   2.937   8.801  0.3907 -0.0002 -0.1875
 5989SOL    HW129426   2.079   2.910   8.879  1.5159 -1.2786  0.0840
 5989SOL    HW229427   2.081   3.012   8.766  0.0666  0.0185  0.2796
 5990SOL     OW29428   1.538   1.473   8.413 -0.6278  0.0427 -0.5254
 5990SOL    HW129429   1.590   1.545   8.448 -0.4407 -0.7476  0.8106
 5990SOL    HW229430   1.550   1.405   8.479  0.0859 -0.4073 -1.1185
 5991SOL     OW29431   2.532   2.979   2.473  0.1061 -0.2397  0.2354
 5991SOL    HW129432   2.541   3.043   2.402 -0.6732 -0.6350 -0.2234
 5991SOL    HW229433   2.436   2.971   2.473  0.0688  0.1156 -1.5383
 5992SOL     OW29434   1.577   0.874   6.366 -0.1125  0.0703 -0.1103
 5992SOL    HW129435   1.580   0.815   6.291 -1.0007 -0.0125 -0.0825
 5992SOL    HW229436   1.578   0.802   6.430  0.3006 -1.0894 -1.4162
 5993SOL     OW29437   0.229   0.732   4.314  0.0661  0.3445 -0.4516
 5993SOL    HW129438   0.167   0.732   4.240  0.2883  1.8457 -0.6363
 5993SOL    HW229439   0.170   0.754   4.386 -0.5044 -2.3722 -0.0929
 5994SOL     OW29440   3.556   3.324  16.855 -0.1348  0.1316  0.3763
 5994SOL    HW129441   3.488   3.365  16.908  1.7754  1.9155  1.4765
 5994SOL    HW229442   3.620   3.332  16.926 -1.4833 -0.3387  1.6502
 5995SOL     OW29443   1.850   0.152   3.728  0.0910 -0.2137  0.2822
 5995SOL    HW129444   1.925   0.117   3.680 -0.3563  0.8517 -1.1982
 5995SOL    HW229445   1.887   0.224   3.779 -1.2898  1.7228 -1.4162
 5996SOL     OW29446   1.886   0.441   8.229 -0.2184 -0.1012  0.4019
 5996SOL    HW129447   1.924   0.378   8.168 -1.6162  1.2848 -1.9156
 5996SOL    HW229448   1.894   0.401   8.315  1.5256 -1.1604 -0.2410
 5997SOL     OW29449   1.239   0.488   5.845  0.1408 -0.3653  0.1655
 5997SOL    HW129450   1.169   0.551   5.827  0.0213 -0.4713  0.2583
 5997SOL    HW229451   1.187   0.408   5.844  0.1818 -0.3591 -2.6584
 5998SOL     OW29452   3.935   0.646  11.844  0.1352 -0.3737  0.7853
 5998SOL    HW129453   4.018   0.603  11.822  0.0722 -0.0591 -0.0751
 5998SOL    HW229454   3.915   0.610  11.931 -1.4547 -2.5919 -0.5021
 5999SOL     OW29455   0.375   0.901   1.157 -0.0670 -0.3538 -0.2046
 5999SOL    HW129456   0.378   0.926   1.249 -0.2327  2.6872 -1.0299
 5999SOL    HW229457   0.463   0.927   1.131 -0.7948  1.0652 -1.2628
 6000SOL     OW29458   0.032   0.498   2.719  0.0055 -0.1728 -0.7503
 6000SOL    HW129459   0.125   0.478   2.704 -0.2078 -1.3847 -0.4328
 6000SOL    HW229460   0.005   0.511   2.628  1.9010  0.6119 -1.2250
 6001SOL     OW29461   3.104   1.955   7.442  0.4308 -0.1616  0.0481
 6001SOL    HW129462   3.080   1.946   7.534  1.6332  0.0484  0.3822
 6001SOL    HW229463   3.014   1.951   7.409  0.5592  1.5800 -0.5214
 6002SOL     OW29464   2.124   2.591   4.313 -0.0231 -0.2585  0.1535
 6002SOL    HW129465   2.196   2.578   4.251  2.2599 -3.7587  3.4674
 6002SOL    HW229466   2.059   2.532   4.276  0.1471  1.8539 -3.5181
 6003SOL     OW29467   2.347   3.067   9.160  0.2213  0.1181  0.0124
 6003SOL    HW129468   2.401   3.028   9.092  0.8593  1.5385 -0.2865
 6003SOL    HW229469   2.296   2.989   9.183  0.2970 -0.3061 -1.2528
 6004SOL     OW29470   4.582   0.041   8.753  0.1004 -0.5763 -0.1544
 6004SOL    HW129471   4.583   0.101   8.678 -1.4287  0.9051  1.0239
 6004SOL    HW229472   4.572   0.104   8.824 -0.6879  1.2249 -1.8895
 6005SOL     OW29473   2.351   2.315   5.768  0.1312  0.0219  0.9138
 6005SOL    HW129474   2.298   2.257   5.714  3.0737 -1.8104 -0.0202
 6005SOL    HW229475   2.409   2.254   5.814  1.3691  1.5098  1.3263
 6006SOL     OW29476   1.069   0.968   6.958 -0.7892  0.5829 -0.2347
 6006SOL    HW129477   1.102   1.058   6.954  0.2353  0.2020 -0.3347
 6006SOL    HW229478   1.152   0.921   6.950 -1.5204 -1.1110  2.2623
 6007SOL     OW29479   3.809   4.607   7.622  0.5022 -0.3619  0.6759
 6007SOL    HW129480   3.745   4.589   7.691  2.6447  1.8429  3.1972
 6007SOL    HW229481   3.838   4.694   7.650  0.4740 -0.4202  0.8866
 6008SOL     OW29482   3.985   2.906   0.952  0.1476 -0.5877 -0.2723
 6008SOL    HW129483   4.007   2.841   0.886  1.5941  0.6307 -0.9922
 6008SOL    HW229484   4.065   2.906   1.004  0.4398 -3.1292 -0.7347
 6009SOL     OW29485   2.796   4.316   8.403  0.2750 -0.2978  0.1444
 6009SOL    HW129486   2.758   4.258   8.338  1.9754 -0.5826 -0.5961
 6009SOL    HW229487   2.886   4.283   8.415  1.3438  2.5960  0.0188
 6010SOL     OW29488   2.904   4.019   0.283  0.9966  0.1411 -0.2276
 6010SOL    HW129489   2.890   4.107   0.320 -0.9333 -0.3045  0.1102
 6010SOL    HW229490   2.975   4.041   0.222  2.4443 -2.4201  0.5466
 6011SOL     OW29491   3.515   0.691   4.431 -0.1642  0.2612  0.5900
 6011SOL    HW129492   3.444   0.628   4.422  0.5620  0.0783 -3.7601
 6011SOL    HW229493   3.510   0.726   4.342 -1.3727 -2.5000 -0.4363
 6012SOL     OW29494   0.059   2.304  11.188 -0.0458  0.3318  0.3057
 6012SOL    HW129495   0.083   2.396  11.197  2.0156 -0.2343  0.6715
 6012SOL    HW229496   0.129   2.260  11.237  0.9506  0.3161 -1.1441
 6013SOL     OW29497   0.721   3.091   7.448 -0.0729  0.3419  0.1448
 6013SOL    HW129498   0.688   3.064   7.362 -0.3678 -1.7719  0.9007
 6013SOL    HW229499   0.712   3.186   7.440 -0.1251  0.4607  1.5379
 6014SOL     OW29500   0.585   4.459   6.395  0.7646 -0.5866  0.5442
 6014SOL    HW129501   0.671   4.416   6.395  0.3891 -1.3466 -0.0830
 6014SOL    HW229502   0.538   4.402   6.456  0.2997 -1.7568 -0.9059
 6015SOL     OW29503   4.482   0.892   5.535 -0.1870 -0.0008 -0.0041
 6015SOL    HW129504   4.442   0.879   5.621  0.5871 -0.7237  0.2485
 6015SOL    HW229505   4.423   0.844   5.477  0.9019  1.4490 -2.2720
 6016SOL     OW29506   2.616   4.203   4.313 -0.5242 -0.4049  0.0379
 6016SOL    HW129507   2.544   4.151   4.349 -0.7887 -1.1995 -1.6680
 6016SOL    HW229508   2.679   4.193   4.385 -0.4437 -0.4758 -0.0416
 6017SOL     OW29509   3.313   0.908   5.633  0.3689  0.7373  0.2256
 6017SOL    HW129510   3.252   0.975   5.601  0.9392  0.8282 -0.6689
 6017SOL    HW229511   3.383   0.971   5.647 -0.2451  2.1441 -2.8085
 6018SOL     OW29512   3.354   0.217   3.590 -0.1647  0.0825 -0.2653
 6018SOL    HW129513   3.367   0.307   3.562  1.3658 -0.6937 -2.0023
 6018SOL    HW229514   3.273   0.192   3.546  0.0705 -1.1791  0.0284
 6019SOL     OW29515   4.493   0.774  17.436  0.0002 -0.0019  0.6835
 6019SOL    HW129516   4.560   0.715  17.401 -0.4557 -0.1763  0.1114
 6019SOL    HW229517   4.468   0.819  17.354  0.8799 -0.4612  0.1685
 6020SOL     OW29518   4.344   2.727   5.710  0.0035  0.0287 -0.1215
 6020SOL    HW129519   4.327   2.717   5.804  2.8707  0.9564  0.4915
 6020SOL    HW229520   4.259   2.746   5.671  1.1937  0.1332 -2.6883
 6021SOL     OW29521   2.695   2.228  14.425 -0.3335  0.4185  0.0127
 6021SOL    HW129522   2.730   2.316  14.420 -2.4789  1.2926  0.2252
 6021SOL    HW229523   2.633   2.238  14.497  0.8744 -1.2929  1.3038
 6022SOL     OW29524   1.468   0.905   2.727 -0.3209  0.1818 -0.3363
 6022SOL    HW129525   1.398   0.970   2.734  0.5495  0.8943  1.5846
 6022SOL    HW229526   1.521   0.951   2.662  3.7832 -1.6719  1.7659
 6023SOL     OW29527   0.785   1.543  16.945  0.4431 -0.6830  0.0816
 6023SOL    HW129528   0.802   1.561  17.037 -0.0676  1.2506 -0.2142
 6023SOL    HW229529   0.872   1.546  16.906  0.3690 -0.3954 -0.0596
 6024SOL     OW29530   2.635   4.344  11.629 -0.6378  0.6514 -0.4836
 6024SOL    HW129531   2.615   4.304  11.714  3.1728 -1.3830 -0.5353
 6024SOL    HW229532   2.548   4.340  11.590 -0.5417 -1.6030 -0.4556
 6025SOL     OW29533   3.404   1.808   3.525  0.1387 -0.5756 -0.3855
 6025SOL    HW129534   3.332   1.781   3.582  1.1502 -4.0979 -0.8230
 6025SOL    HW229535   3.477   1.748   3.538  0.6624  0.0802 -0.3038
 6026SOL     OW29536   1.604   3.447  13.724 -0.0199  0.1360  0.1103
 6026SOL    HW129537   1.691   3.488  13.715 -1.3681  3.3682  1.7606
 6026SOL    HW229538   1.624   3.390  13.798  0.9755  1.2261  0.6969
 6027SOL     OW29539   2.496   1.481   8.654 -0.6485  0.2372  0.2064
 6027SOL    HW129540   2.475   1.538   8.580  0.9558  0.1439 -0.3073
 6027SOL    HW229541   2.500   1.393   8.617 -1.1799 -0.6231  2.1977
 6028SOL     OW29542   2.564   4.456   3.879  0.1315  0.0032 -0.5190
 6028SOL    HW129543   2.499   4.527   3.881 -0.5639 -0.6089 -1.5785
 6028SOL    HW229544   2.511   4.376   3.886  0.0294  0.2350  1.5309
 6029SOL     OW29545   0.827   3.379   2.098  0.0120  0.0450 -0.4135
 6029SOL    HW129546   0.912   3.345   2.126 -0.5491 -0.1677  1.0460
 6029SOL    HW229547   0.850   3.380   2.005 -1.4269  1.3895 -0.7399
 6030SOL     OW29548   3.460   1.794   5.998  0.4941  0.3544 -0.0121
 6030SOL    HW129549   3.471   1.764   5.908  0.3891 -0.7231  0.3228
 6030SOL    HW229550   3.547   1.808   6.035 -0.3372 -0.0104  2.1202
 6031SOL     OW29551   2.724   1.729   0.341  0.3059 -0.2621  0.0413
 6031SOL    HW129552   2.795   1.689   0.392 -1.1122 -0.9363  1.4784
 6031SOL    HW229553   2.659   1.660   0.329  0.8068 -1.2564  2.9294
 6032SOL     OW29554   3.921   4.154   5.633 -0.5412 -1.0488  0.2516
 6032SOL    HW129555   3.899   4.064   5.609 -2.2420 -0.8711  1.1890
 6032SOL    HW229556   3.836   4.197   5.632  1.1524  2.2991 -0.5776
 6033SOL     OW29557   1.581   3.868   5.021  0.4131  0.1049  0.2658
 6033SOL    HW129558   1.568   3.956   5.056  2.2636  0.9061 -1.0294
 6033SOL    HW229559   1.676   3.863   5.024  0.4717 -0.1859 -1.7515
 6034SOL     OW29560   4.137   1.029   0.363  0.1527  0.4157 -0.3837
 6034SOL    HW129561   4.200   1.044   0.292 -0.0954  1.6308 -0.3598
 6034SOL    HW229562   4.058   0.990   0.326  2.2170 -3.6816 -0.4231
 6035SOL     OW29563   1.016   0.945  16.064 -0.3583 -0.0741 -0.2463
 6035SOL    HW129564   1.045   1.002  16.136  1.3243  0.8915 -1.6950
 6035SOL    HW229565   0.943   0.895  16.101 -0.4913  1.5867  1.7885
 6036SOL     OW29566   4.111   4.334   7.288 -0.1372  0.4801  0.1905
 6036SOL    HW129567   4.093   4.241   7.271 -0.4873  0.6200 -0.2094
 6036SOL    HW229568   4.041   4.381   7.243  1.2058  1.9653 -0.3521
 6037SOL     OW29569   2.094   4.118   3.112  0.0104  0.5111  0.5481
 6037SOL    HW129570   2.168   4.104   3.054 -0.0237  3.0671 -0.0923
 6037SOL    HW229571   2.134   4.107   3.198  2.2127  1.1675 -0.4123
 6038SOL     OW29572   4.249   3.002   5.230  0.0501 -0.2520 -0.1723
 6038SOL    HW129573   4.317   3.068   5.244 -1.4958  1.4843 -0.8060
 6038SOL    HW229574   4.299   2.925   5.204  1.2099 -0.1976  1.9252
 6039SOL     OW29575   2.565   1.391   6.237 -0.3172  0.2578 -0.0931
 6039SOL    HW129576   2.583   1.302   6.268  0.2387  0.8873  1.3819
 6039SOL    HW229577   2.625   1.384   6.163  1.9252  0.6312  1.6777
 6040SOL     OW29578   3.400   4.164   5.721  0.6914 -0.3198  0.5697
 6040SOL    HW129579   3.333   4.167   5.789  0.6968 -0.1701  0.5673
 6040SOL    HW229580   3.453   4.236   5.753 -0.7223  0.1685  1.7895
 6041SOL     OW29581   0.768   0.401   2.869 -0.1248 -0.2337  0.1022
 6041SOL    HW129582   0.717   0.435   2.795 -0.6298 -0.5675  0.3011
 6041SOL    HW229583   0.701   0.378   2.933 -0.2640 -2.1575 -0.7324
 6042SOL     OW29584   3.789   4.328   8.493  0.0407 -0.0896  0.4186
 6042SOL    HW129585   3.811   4.332   8.586 -1.1751 -0.0786  0.7028
 6042SOL    HW229586   3.832   4.408   8.463 -0.0558 -0.0819  0.3002
 6043SOL     OW29587   2.458   4.645  10.437  0.4613  0.2069 -0.1279
 6043SOL    HW129588   2.481   4.643  10.344  2.7239 -0.3320  0.4474
 6043SOL    HW229589   2.527   4.598  10.484 -1.5365 -2.7206 -0.1849
 6044SOL     OW29590   3.025   4.358  17.555 -0.1705  0.3623  0.0822
 6044SOL    HW129591   3.088   4.402  17.497 -1.7988  0.9548 -1.2172
 6044SOL    HW229592   3.075   4.306  17.618  0.4333 -0.5642 -1.1570
 6045SOL     OW29593   2.560   1.841   6.972  0.4781 -0.3773  0.1815
 6045SOL    HW129594   2.562   1.934   6.992 -1.0963  0.1390 -2.1137
 6045SOL    HW229595   2.562   1.794   7.056  1.6378 -2.6601 -1.1375
 6046SOL     OW29596   1.144   1.096  11.930 -0.4776  0.6442  0.5724
 6046SOL    HW129597   1.198   1.157  11.880 -1.2092  0.7599 -0.0755
 6046SOL    HW229598   1.211   1.035  11.960  0.0777 -0.0572 -2.0388
 6047SOL     OW29599   1.815   2.900   2.304 -0.0113 -0.1798 -0.0793
 6047SOL    HW129600   1.729   2.898   2.261 -0.1394  0.1270  0.1727
 6047SOL    HW229601   1.792   2.855   2.385 -2.2531 -0.4830 -0.8838
 6048SOL     OW29602   2.993   0.058   4.777  0.3038 -0.1168  0.6140
 6048SOL    HW129603   2.916   0.071   4.832 -0.2059  1.7959 -0.5255
 6048SOL    HW229604   3.017   0.148   4.755 -1.5161  0.3668  0.5698
 6049SOL     OW29605   3.998   1.599   7.987 -0.0676  0.0651  0.3652
 6049SOL    HW129606   3.930   1.663   7.968  0.6440  0.1539 -1.9846
 6049SOL    HW229607   4.048   1.644   8.055  1.7732  1.1082 -1.6420
 6050SOL     OW29608   0.722   1.691  11.404 -0.0508 -0.0375  0.0931
 6050SOL    HW129609   0.776   1.688  11.325  0.0797  2.5881  0.0673
 6050SOL    HW229610   0.634   1.677  11.371  1.4132 -0.4778 -3.5777
 6051SOL     OW29611   0.859   1.080  17.392 -0.0464 -0.7600  0.5443
 6051SOL    HW129612   0.790   1.025  17.354  1.2240 -1.0491 -1.2977
 6051SOL    HW229613   0.840   1.067  17.485  1.2507 -1.9782  0.6373
 6052SOL     OW29614   2.032   0.203   8.349  0.1590  0.6226 -0.4787
 6052SOL    HW129615   2.069   0.162   8.271  0.0385  0.7756 -0.6180
 6052SOL    HW229616   2.015   0.128   8.406  1.3230  0.0338 -0.9325
 6053SOL     OW29617   2.656   0.808  17.101 -0.1092 -0.5153  0.1440
 6053SOL    HW129618   2.725   0.742  17.100  1.6031  1.2883 -0.8360
 6053SOL    HW229619   2.582   0.762  17.061  0.0069 -0.3914 -0.2152
 6054SOL     OW29620   3.370   1.672   4.357  0.2772 -0.5000 -0.2639
 6054SOL    HW129621   3.401   1.762   4.343 -1.8737  0.5405  1.7234
 6054SOL    HW229622   3.390   1.651   4.448 -1.7007  1.1914  0.5644
 6055SOL     OW29623   1.130   1.609   0.153 -0.9051  0.2129  0.0864
 6055SOL    HW129624   1.120   1.516   0.170  2.8577 -0.5624 -1.9475
 6055SOL    HW229625   1.046   1.635   0.191  0.1656 -0.5708  2.8927
 6056SOL     OW29626   2.765   1.805  14.488  0.2364 -0.8698  0.6628
 6056SOL    HW129627   2.844   1.859  14.486 -1.6347  1.7815 -1.1753
 6056SOL    HW229628   2.716   1.855  14.553 -2.4016 -0.2241 -1.8139
 6057SOL     OW29629   2.041   3.527   3.898  0.2086 -0.0655  0.0474
 6057SOL    HW129630   2.024   3.549   3.989 -0.8908 -0.1737 -0.1370
 6057SOL    HW229631   2.008   3.439   3.881 -2.4552  1.1034 -0.8833
 6058SOL     OW29632   0.999   2.223   4.108  0.6072  0.0778  0.1441
 6058SOL    HW129633   0.994   2.245   4.015 -0.2365  0.4645  0.2811
 6058SOL    HW229634   0.990   2.312   4.143  0.2511 -0.2985  1.0210
 6059SOL     OW29635   2.651   2.997  16.814 -0.0249  0.1105  0.2591
 6059SOL    HW129636   2.562   2.982  16.784 -0.1968  2.5238 -0.4576
 6059SOL    HW229637   2.705   2.958  16.745 -1.2554  1.1873 -1.3078
 6060SOL     OW29638   0.301   2.603   3.471  0.2541 -0.6604  0.2651
 6060SOL    HW129639   0.387   2.569   3.496  1.7567  1.2117 -2.3216
 6060SOL    HW229640   0.268   2.619   3.559  1.2245  1.4293  0.2704
 6061SOL     OW29641   0.393   4.040   2.904 -0.4479  0.3831 -0.7840
 6061SOL    HW129642   0.388   4.127   2.943  1.5401  0.3841 -0.5362
 6061SOL    HW229643   0.332   3.993   2.962 -0.7252  2.0940  0.3014
 6062SOL     OW29644   0.476   4.582  10.086 -0.3600  0.0422  0.3617
 6062SOL    HW129645   0.531   4.594  10.163 -2.6882  1.2226  1.8360
 6062SOL    HW229646   0.504   4.492  10.068  0.4201  0.3547  0.0141
 6063SOL     OW29647   4.480   2.408   7.449 -0.0283  0.3582  0.2656
 6063SOL    HW129648   4.392   2.419   7.413 -0.0778  0.5990  0.4594
 6063SOL    HW229649   4.524   2.472   7.393 -0.0877  0.6494  0.5536
 6064SOL     OW29650   3.027   4.493  14.739  0.8745 -0.0630  0.2473
 6064SOL    HW129651   2.966   4.563  14.716  1.9156  0.1886 -1.6773
 6064SOL    HW229652   3.012   4.503  14.833  1.2968 -1.8880  0.5058
 6065SOL     OW29653   0.505   3.319  17.444  0.6357 -0.2180 -0.8836
 6065SOL    HW129654   0.444   3.348  17.512  1.6142 -2.5945  1.0212
 6065SOL    HW229655   0.593   3.352  17.460  0.3518 -1.6494  3.7191
 6066SOL     OW29656   1.270   1.726   3.554 -0.3554  0.8413 -0.0267
 6066SOL    HW129657   1.363   1.735   3.575 -0.5391 -1.8008  1.9448
 6066SOL    HW229658   1.265   1.631   3.540 -1.8054  0.8656  0.4134
 6067SOL     OW29659   0.216   2.448  16.004  0.1892  0.2230 -0.1425
 6067SOL    HW129660   0.206   2.529  15.955  2.3830  2.1809  2.6538
 6067SOL    HW229661   0.124   2.439  16.029  0.1109 -0.7644 -0.8212
 6068SOL     OW29662   4.027   4.395   5.198  0.1307  0.1196  0.9661
 6068SOL    HW129663   4.036   4.313   5.151 -0.7085  0.9206 -0.5817
 6068SOL    HW229664   4.025   4.360   5.287  1.0280  2.5175  1.9456
 6069SOL     OW29665   1.638   2.742   4.189  0.0881  0.3926 -0.5216
 6069SOL    HW129666   1.647   2.831   4.224  0.8297  0.1910 -0.2166
 6069SOL    HW229667   1.726   2.715   4.163  1.3873  1.6042  2.6613
 6070SOL     OW29668   4.022   0.086   3.906 -0.5385  0.0030  0.2015
 6070SOL    HW129669   4.067   0.039   3.977 -0.0143  0.5209  0.2140
 6070SOL    HW229670   3.962   0.020   3.872  2.7649 -1.9170 -1.9684
 6071SOL     OW29671   1.265   4.506   1.460 -0.0203  0.4253  0.4200
 6071SOL    HW129672   1.214   4.587   1.464 -1.5632 -0.4052 -1.9091
 6071SOL    HW229673   1.217   4.470   1.385  1.0363  0.5896 -0.3440
 6072SOL     OW29674   1.220   0.749   8.110  0.1024  0.8946 -0.5345
 6072SOL    HW129675   1.248   0.724   8.022  0.3187  0.9937 -0.4935
 6072SOL    HW229676   1.153   0.814   8.091 -1.6538 -0.2715  1.6527
 6073SOL     OW29677   2.951   2.456   1.831  0.0564  0.2771 -0.0004
 6073SOL    HW129678   3.012   2.398   1.875  0.6544  0.0169 -1.1734
 6073SOL    HW229679   3.003   2.464   1.751 -0.0514 -0.2503 -0.1201
 6074SOL     OW29680   3.482   2.687  14.688 -0.6336  0.3020 -0.7410
 6074SOL    HW129681   3.555   2.732  14.646 -0.8143  1.3900  0.1124
 6074SOL    HW229682   3.406   2.737  14.657  0.4721  1.2584 -1.8907
 6075SOL     OW29683   2.478   4.061   4.094  0.0018  0.2201 -0.0013
 6075SOL    HW129684   2.530   4.118   4.151 -2.9861  0.4461  2.5189
 6075SOL    HW229685   2.523   3.978   4.082 -1.3583 -0.1194 -2.6053
 6076SOL     OW29686   3.276   0.115  15.442  0.0706 -0.3334 -0.0653
 6076SOL    HW129687   3.258   0.075  15.356  0.6665 -0.5293 -0.1009
 6076SOL    HW229688   3.368   0.138  15.428  0.5502 -1.8654  0.5109
 6077SOL     OW29689   0.322   0.791   2.889 -0.1982  0.1894 -0.6603
 6077SOL    HW129690   0.325   0.879   2.927  0.8459 -0.9794  1.9584
 6077SOL    HW229691   0.240   0.802   2.841 -0.0433  2.0184 -0.5148
 6078SOL     OW29692   0.720   1.292  15.782 -0.1175  0.4487  0.3912
 6078SOL    HW129693   0.666   1.303  15.860  0.5596  1.2543  0.7446
 6078SOL    HW229694   0.815   1.296  15.789  0.0736 -2.8239 -0.2272
 6079SOL     OW29695   4.484   2.762   3.962 -1.0856  0.5163 -0.4733
 6079SOL    HW129696   4.393   2.766   3.989 -1.4298 -2.7019 -1.1861
 6079SOL    HW229697   4.464   2.782   3.871 -1.9643 -1.6685 -0.7543
 6080SOL     OW29698   1.622   1.887   0.748  0.2956 -0.2487  0.0418
 6080SOL    HW129699   1.555   1.900   0.681  0.9965  2.0647 -0.2392
 6080SOL    HW229700   1.704   1.890   0.700  0.4903 -0.7621  0.3454
 6081SOL     OW29701   1.950   4.564   4.870  0.0506  0.0243  0.0839
 6081SOL    HW129702   1.975   4.526   4.786 -1.6748  2.6105 -1.6170
 6081SOL    HW229703   1.965   4.658   4.859 -0.0399  0.4141  3.1934
 6082SOL     OW29704   3.274   3.480   7.160 -0.3586 -0.1501 -0.2137
 6082SOL    HW129705   3.307   3.479   7.250 -1.4559 -0.4581  0.1854
 6082SOL    HW229706   3.297   3.570   7.137  1.5597 -0.6828 -0.3218
 6083SOL     OW29707   3.582   2.821   7.669  0.2669 -0.2145  0.8032
 6083SOL    HW129708   3.525   2.753   7.704 -1.3868  0.7449 -0.0257
 6083SOL    HW229709   3.584   2.884   7.740  0.9127 -0.6938  1.2023
 6084SOL     OW29710   3.556   4.468   5.200 -0.0714 -0.4738 -0.1712
 6084SOL    HW129711   3.516   4.430   5.279  1.4299  0.3198  0.9683
 6084SOL    HW229712   3.644   4.488   5.231 -0.1336 -0.1959 -0.1691
 6085SOL     OW29713   1.998   3.656  10.556 -0.0241  0.1654 -0.2312
 6085SOL    HW129714   2.075   3.604  10.575  0.6915  1.1586 -0.4073
 6085SOL    HW229715   2.039   3.736  10.524  0.8762 -0.3145 -0.2756
 6086SOL     OW29716   0.882   1.678   6.557 -0.3343 -0.2602  0.1864
 6086SOL    HW129717   0.828   1.634   6.624 -1.2901  0.8957  0.1879
 6086SOL    HW229718   0.829   1.671   6.478  0.4422  0.9653 -0.4412
 6087SOL     OW29719   1.473   4.472  15.011 -0.2265  0.1572 -0.9625
 6087SOL    HW129720   1.456   4.555  14.966 -1.9578 -0.5717 -1.6199
 6087SOL    HW229721   1.442   4.394  14.965  4.2201 -1.2230 -1.6177
 6088SOL     OW29722   0.440   1.093   8.570  0.2096 -0.0609  0.5233
 6088SOL    HW129723   0.371   1.138   8.520  0.0411  0.7669  1.4891
 6088SOL    HW229724   0.395   1.015   8.601 -2.4909  0.9920 -0.7357
 6089SOL     OW29725   2.753   3.330  12.620 -0.3254 -0.4507  0.0562
 6089SOL    HW129726   2.792   3.274  12.687 -0.8494  1.4410  1.9634
 6089SOL    HW229727   2.712   3.262  12.566 -1.3985 -0.5691  1.0012
 6090SOL     OW29728   2.352   1.102   3.729  0.1820 -0.4840 -0.2078
 6090SOL    HW129729   2.432   1.057   3.704  1.2830  0.8334  0.9534
 6090SOL    HW229730   2.378   1.193   3.713  1.4358 -0.3692  2.5370
 6091SOL     OW29731   4.569   3.141   9.896  0.1791 -0.4103 -0.5837
 6091SOL    HW129732   4.475   3.123   9.889  0.2224 -1.3594  1.3870
 6091SOL    HW229733   4.608   3.054   9.883  0.5560 -0.3888  0.4434
 6092SOL     OW29734   3.261   3.379   5.797 -0.8545 -0.3744 -0.0247
 6092SOL    HW129735   3.349   3.387   5.835 -0.3422 -0.9283 -1.1097
 6092SOL    HW229736   3.300   3.405   5.714 -0.0035  0.7818  0.7313
 6093SOL     OW29737   1.931   0.162   6.233 -0.1597 -0.4848 -0.0641
 6093SOL    HW129738   1.975   0.183   6.151  0.1087 -0.6298  0.0433
 6093SOL    HW229739   2.000   0.175   6.298 -1.6452  0.2454  1.3697
 6094SOL     OW29740   1.768   2.082  11.487  0.4489  0.3341 -0.0882
 6094SOL    HW129741   1.676   2.112  11.489 -0.0903 -1.5065  2.2985
 6094SOL    HW229742   1.753   1.989  11.503 -1.0954  0.5317 -0.3326
 6095SOL     OW29743   1.416   3.815   5.437 -0.2291  0.5304  0.6445
 6095SOL    HW129744   1.331   3.834   5.478 -0.1801  1.8422  0.1457
 6095SOL    HW229745   1.465   3.827   5.518  0.3040 -0.8484  0.5212
 6096SOL     OW29746   3.563   3.003   3.341 -0.0256  0.2447  0.0555
 6096SOL    HW129747   3.575   2.914   3.373  0.0391 -0.2174 -1.2305
 6096SOL    HW229748   3.629   3.007   3.272 -0.1233  0.8332 -0.0039
 6097SOL     OW29749   0.198   2.718   4.447  0.1618  0.7282  0.2141
 6097SOL    HW129750   0.198   2.623   4.464  0.8326  0.9318  1.3511
 6097SOL    HW229751   0.143   2.719   4.369 -0.2258 -0.1665  0.4797
 6098SOL     OW29752   3.547   1.083   2.355  0.3290  0.2114 -0.4665
 6098SOL    HW129753   3.455   1.079   2.382  0.0548  3.1408 -0.9313
 6098SOL    HW229754   3.550   1.007   2.297 -1.9096 -1.6109  1.7862
 6099SOL     OW29755   4.447   3.828  14.622 -0.4660  0.2375  0.0930
 6099SOL    HW129756   4.362   3.859  14.653  0.4617  1.9889  0.8796
 6099SOL    HW229757   4.431   3.742  14.584  0.6320  1.4114 -3.0659
 6100SOL     OW29758   3.245   3.172   8.950  0.2274 -0.5910  0.2856
 6100SOL    HW129759   3.322   3.205   8.997 -0.1072 -0.4600  0.7389
 6100SOL    HW229760   3.211   3.102   9.005 -0.7881 -0.5893 -0.3286
 6101SOL     OW29761   0.929   0.185   2.962  0.5270 -0.4778 -0.0680
 6101SOL    HW129762   0.850   0.238   2.948  0.7090  0.4620  2.4976
 6101SOL    HW229763   0.995   0.252   2.980 -0.1538 -1.0803  4.7292
 6102SOL     OW29764   3.842   4.450   4.358  0.2196 -0.4215  0.4528
 6102SOL    HW129765   3.780   4.440   4.430 -0.2415 -1.3669 -0.0707
 6102SOL    HW229766   3.925   4.427   4.400  1.0438 -1.3104 -1.6352
 6103SOL     OW29767   1.348   0.089  10.851  0.3447  0.5178 -0.1916
 6103SOL    HW129768   1.284   0.137  10.798 -1.1614  0.8041  1.9234
 6103SOL    HW229769   1.314   0.108  10.938  0.5624  3.4152 -0.7516
 6104SOL     OW29770   1.284   0.873   6.240 -0.7775  0.2344 -0.3937
 6104SOL    HW129771   1.343   0.864   6.166  0.0855  3.5779 -0.1507
 6104SOL    HW229772   1.200   0.859   6.195 -0.3461  0.5196 -1.2852
 6105SOL     OW29773   2.835   0.931  14.294  0.9962 -0.4370 -0.3995
 6105SOL    HW129774   2.832   0.847  14.338  1.8295 -0.1466  0.2084
 6105SOL    HW229775   2.928   0.956  14.293  0.7095  0.8201  5.0905
 6106SOL     OW29776   0.685   2.738   3.402  0.6001  0.2483 -0.1127
 6106SOL    HW129777   0.713   2.648   3.387  0.7881  0.2080  0.4660
 6106SOL    HW229778   0.716   2.773   3.319 -1.3995 -1.3369 -1.5179
 6107SOL     OW29779   2.139   1.149  10.946  0.1774 -0.1583 -0.6167
 6107SOL    HW129780   2.177   1.172  10.861 -0.4228  1.3677 -0.4587
 6107SOL    HW229781   2.127   1.237  10.980 -1.9644 -0.3546 -0.8446
 6108SOL     OW29782   4.059   4.613  12.102  0.3624  0.0731  0.4669
 6108SOL    HW129783   4.119   4.686  12.093 -1.1108  1.0040 -1.6902
 6108SOL    HW229784   4.002   4.647  12.171  1.7895 -1.5252  2.4838
 6109SOL     OW29785   4.484   2.732  11.466  0.1421 -0.3607  0.1437
 6109SOL    HW129786   4.446   2.800  11.522 -0.6820 -1.2433  0.6556
 6109SOL    HW229787   4.452   2.756  11.379 -1.1787  0.7030  0.9227
 6110SOL     OW29788   2.769   1.732  10.876  0.3766 -0.3062 -0.0698
 6110SOL    HW129789   2.858   1.740  10.912  1.3227 -0.2126 -2.4573
 6110SOL    HW229790   2.731   1.666  10.933 -0.2369 -0.1542 -0.3087
 6111SOL     OW29791   0.946   3.854  14.865 -0.6572  0.1603 -0.4154
 6111SOL    HW129792   0.877   3.816  14.810  1.3815 -1.6148 -1.7641
 6111SOL    HW229793   1.029   3.817  14.834  0.2086  2.3568 -0.7168
 6112SOL     OW29794   3.449   2.597   8.328  0.2305 -0.1675  0.2956
 6112SOL    HW129795   3.505   2.615   8.402  1.2220  1.7540 -0.9086
 6112SOL    HW229796   3.500   2.537   8.274  0.7579  0.7220 -0.1941
 6113SOL     OW29797   2.977   1.973  14.439 -0.3365 -0.5764 -0.0173
 6113SOL    HW129798   3.068   1.987  14.413 -0.7685  0.7492 -0.8282
 6113SOL    HW229799   2.979   2.001  14.530 -0.3703  3.5322 -1.2624
 6114SOL     OW29800   1.893   3.538  13.575 -0.0512  0.9008 -0.8076
 6114SOL    HW129801   1.846   3.620  13.590  0.6413  1.4452 -1.6178
 6114SOL    HW229802   1.937   3.532  13.660 -0.8388  0.6004 -0.4243
 6115SOL     OW29803   0.455   2.893   6.636  1.2902 -0.4605  0.0824
 6115SOL    HW129804   0.414   2.959   6.692  0.7855 -0.0962 -0.7191
 6115SOL    HW229805   0.549   2.909   6.646  1.1421  0.5923 -0.1797
 6116SOL     OW29806   4.691   2.131   4.458 -0.0903 -0.2744  0.0091
 6116SOL    HW129807   4.691   2.059   4.396  1.5451 -0.3087  0.0385
 6116SOL    HW229808   0.017   2.202   4.411 -1.1863  0.9780  0.8619
 6117SOL     OW29809   1.677   2.562   8.455  0.1249 -0.0588 -0.5949
 6117SOL    HW129810   1.651   2.494   8.517  1.1951 -1.4735 -1.7052
 6117SOL    HW229811   1.664   2.639   8.510 -0.8629 -1.5359  1.2344
 6118SOL     OW29812   4.351   4.703   2.808 -0.1214 -0.1853  0.1744
 6118SOL    HW129813   4.264   0.024   2.811 -0.6855 -1.4965  1.1526
 6118SOL    HW229814   4.349   4.689   2.713 -0.2097 -0.8066  0.2669
 6119SOL     OW29815   3.999   0.562   7.594  0.3453  0.8002  0.0836
 6119SOL    HW129816   3.978   0.566   7.687 -1.8217  0.6933 -0.4003
 6119SOL    HW229817   3.921   0.602   7.557 -0.2597  1.0047  1.5735
 6120SOL     OW29818   1.196   3.692  16.539  0.3733 -0.2084  0.6417
 6120SOL    HW129819   1.264   3.668  16.602 -0.8185 -1.1059  1.5855
 6120SOL    HW229820   1.162   3.603  16.529  2.2401 -0.6286 -1.8397
 6121SOL     OW29821   1.264   1.923  10.864  0.3547  0.3314  0.2906
 6121SOL    HW129822   1.355   1.949  10.852  0.5509 -1.4384 -2.0450
 6121SOL    HW229823   1.233   2.014  10.870  0.4289  0.4815 -1.4083
 6122SOL     OW29824   3.998   0.267  13.099 -0.6166 -0.2883  0.2552
 6122SOL    HW129825   4.012   0.175  13.074 -2.7133 -0.4314 -0.3810
 6122SOL    HW229826   3.983   0.256  13.193  1.4076 -1.3163  0.4553
 6123SOL     OW29827   0.033   4.377   5.021 -0.4973 -0.1151 -0.3122
 6123SOL    HW129828   0.078   4.377   4.937  2.4068  4.1948  1.2615
 6123SOL    HW229829   0.108   4.330   5.058 -0.1447  0.5857 -0.1372
 6124SOL     OW29830   0.667   1.118   8.937  0.1023 -0.3737  0.1985
 6124SOL    HW129831   0.637   1.051   8.998  1.2252 -3.4202 -2.5990
 6124SOL    HW229832   0.759   1.101   8.919  0.0474  0.8881 -1.2834
 6125SOL     OW29833   1.801   1.558   0.500 -0.4283  0.0177  0.1757
 6125SOL    HW129834   1.850   1.617   0.558  1.3551 -0.7897 -0.5170
 6125SOL    HW229835   1.716   1.600   0.502  0.4995  1.7744  3.0176
 6126SOL     OW29836   4.241   4.517  13.134 -0.7440  0.1557  0.1210
 6126SOL    HW129837   4.302   4.569  13.081 -1.1646  0.1934 -0.3309
 6126SOL    HW229838   4.238   4.442  13.074 -1.8863  1.2391 -1.1838
 6127SOL     OW29839   1.729   1.525   7.140 -0.3595  0.1960  0.3076
 6127SOL    HW129840   1.646   1.519   7.093 -0.1513  0.1852 -0.0588
 6127SOL    HW229841   1.708   1.588   7.209  0.2021  3.5568 -2.5709
 6128SOL     OW29842   2.670   3.559   5.687  0.1622 -0.5301  0.0946
 6128SOL    HW129843   2.581   3.526   5.696  0.4932 -1.1764  0.9872
 6128SOL    HW229844   2.651   3.653   5.698  0.4822 -0.5802  1.0687
 6129SOL     OW29845   0.372   0.809  12.596 -0.7387  0.7364  0.3040
 6129SOL    HW129846   0.372   0.894  12.640  1.7182  2.4796 -3.0433
 6129SOL    HW229847   0.333   0.748  12.658  0.9703 -1.1775 -0.4888
 6130SOL     OW29848   1.691   4.482  12.418  0.6261  0.2375  0.0521
 6130SOL    HW129849   1.747   4.512  12.489 -0.4853  0.7217  0.7256
 6130SOL    HW229850   1.689   4.549  12.350 -2.3191  0.9706  0.8501
 6131SOL     OW29851   2.477   2.990   7.260  0.1370  0.3409 -0.7609
 6131SOL    HW129852   2.498   3.016   7.349 -1.8090 -1.1650  0.1333
 6131SOL    HW229853   2.381   2.989   7.263  0.1571 -1.3634 -0.3912
 6132SOL     OW29854   4.072   2.401   6.908 -0.3907 -0.2105  0.4999
 6132SOL    HW129855   3.988   2.359   6.925  0.3056 -2.6045 -1.9262
 6132SOL    HW229856   4.135   2.337   6.942  1.4238  2.4753  2.1721
 6133SOL     OW29857   0.530   4.110   4.121  0.2752  0.1799 -0.0386
 6133SOL    HW129858   0.599   4.050   4.092  0.7360  0.3969  0.5966
 6133SOL    HW229859   0.510   4.072   4.206 -0.2873 -0.7529 -0.5892
 6134SOL     OW29860   3.374   4.240  12.794  0.4645  0.8975 -0.3659
 6134SOL    HW129861   3.467   4.238  12.772  0.6253 -1.2607  0.4841
 6134SOL    HW229862   3.363   4.332  12.816  1.0665  0.1880  2.9225
 6135SOL     OW29863   1.975   1.800   5.214  0.6488 -0.5340 -0.2579
 6135SOL    HW129864   2.070   1.787   5.214  1.1077  2.9170  2.0084
 6135SOL    HW229865   1.964   1.876   5.158  1.6160  0.8343  1.4082
 6136SOL     OW29866   1.531   0.137   6.873 -0.0802  0.3037  0.1315
 6136SOL    HW129867   1.490   0.222   6.859 -0.4639 -0.1520 -1.5750
 6136SOL    HW229868   1.459   0.076   6.858 -0.6704  0.7041  1.4028
 6137SOL     OW29869   3.074   1.771   9.763 -0.3229  0.1971  0.0650
 6137SOL    HW129870   3.054   1.807   9.677 -3.1519  0.2228  0.7271
 6137SOL    HW229871   3.126   1.694   9.740 -0.6060  0.2759 -0.8406
 6138SOL     OW29872   4.345   4.066   7.101  0.2828  0.1382 -0.8184
 6138SOL    HW129873   4.407   4.106   7.162  1.5522 -2.0024 -0.7455
 6138SOL    HW229874   4.272   4.049   7.161  2.0411  1.8598  1.8279
 6139SOL     OW29875   0.487   0.387   4.702  0.0352 -0.0583 -0.1326
 6139SOL    HW129876   0.481   0.362   4.610  0.8991 -1.9049  0.3216
 6139SOL    HW229877   0.581   0.381   4.721 -0.2808 -2.1254  0.8628
 6140SOL     OW29878   1.700   0.769   4.349  0.2552 -0.0125  0.3597
 6140SOL    HW129879   1.609   0.779   4.380  0.5721  3.1359  0.2468
 6140SOL    HW229880   1.732   0.854   4.380 -1.6447  0.7546  0.2354
 6141SOL     OW29881   4.489   2.093  12.268 -0.7919  0.5504  0.3619
 6141SOL    HW129882   4.487   1.999  12.285 -0.0323  0.2129 -1.3911
 6141SOL    HW229883   4.396   2.112  12.261 -0.6088  0.3960 -2.4245
 6142SOL     OW29884   3.447   1.070  10.275  0.2693  0.1697 -0.3150
 6142SOL    HW129885   3.441   1.026  10.360 -0.0825  0.6380 -0.0962
 6142SOL    HW229886   3.352   1.080  10.272  0.0517 -2.4012 -2.0941
 6143SOL     OW29887   2.174   4.100  11.791 -0.5632 -1.0700  0.3379
 6143SOL    HW129888   2.264   4.074  11.807 -0.2849 -1.3656 -1.6799
 6143SOL    HW229889   2.178   4.103  11.695 -0.4806  0.2244  0.3782
 6144SOL     OW29890   3.816   2.664  17.101 -0.0866 -0.0630  0.5746
 6144SOL    HW129891   3.862   2.597  17.050 -0.0214 -0.2285  0.8478
 6144SOL    HW229892   3.773   2.626  17.178 -0.3918  0.9545  0.9011
 6145SOL     OW29893   2.347   0.599   2.610  0.0442  0.2193  0.6464
 6145SOL    HW129894   2.270   0.564   2.655 -1.2650  0.2796 -1.5478
 6145SOL    HW229895   2.350   0.683   2.657  2.1017 -0.3183  1.4620
 6146SOL     OW29896   0.067   4.128   2.910  0.2428  0.3537  0.0173
 6146SOL    HW129897   4.691   4.124   2.896  0.3360 -1.5432 -0.1554
 6146SOL    HW229898   0.085   4.216   2.878  0.0085 -0.1492 -1.5413
 6147SOL     OW29899   1.399   3.985   6.296 -0.0401  0.4517  0.7886
 6147SOL    HW129900   1.446   4.065   6.320 -0.3449  0.3821  1.6306
 6147SOL    HW229901   1.331   3.970   6.362 -1.9220 -2.5086 -1.8288
 6148SOL     OW29902   0.265   1.893   5.045  0.2549 -0.1296 -0.7849
 6148SOL    HW129903   0.204   1.949   4.998  0.7247  0.7430 -0.3479
 6148SOL    HW229904   0.262   1.822   4.980  1.0328 -2.0397  1.2412
 6149SOL     OW29905   2.031   0.900   2.392  0.5563  0.1176 -0.2171
 6149SOL    HW129906   2.106   0.937   2.345  2.7908 -0.8066  2.6384
 6149SOL    HW229907   2.022   0.947   2.475  0.2201 -1.2601  0.5190
 6150SOL     OW29908   4.437   4.129   4.188 -0.4590  0.5122 -0.0999
 6150SOL    HW129909   4.476   4.183   4.119 -1.0259  2.5930  1.2212
 6150SOL    HW229910   4.504   4.061   4.190 -1.7767 -0.7615  1.1140
 6151SOL     OW29911   1.117   4.554   7.213  0.3955  0.5152  0.1205
 6151SOL    HW129912   1.062   4.563   7.291  0.0797 -0.6112  0.0267
 6151SOL    HW229913   1.194   4.609   7.228 -0.8516  2.4895 -0.7674
 6152SOL     OW29914   3.066   1.735   6.396  0.0340 -0.2428  0.3830
 6152SOL    HW129915   3.003   1.749   6.467 -0.8140 -2.1893  0.0314
 6152SOL    HW229916   3.095   1.646   6.418 -2.0479 -1.5136 -1.9639
 6153SOL     OW29917   1.345   4.613   2.253  0.7083  0.9070  0.2841
 6153SOL    HW129918   1.265   4.664   2.256  0.2055  0.0222  1.7785
 6153SOL    HW229919   1.327   4.547   2.319  0.9929  0.0862 -0.4498
 6154SOL     OW29920   2.272   1.696   6.978  0.0997 -0.8882 -0.3319
 6154SOL    HW129921   2.319   1.760   7.031 -1.4783  1.2692 -1.5488
 6154SOL    HW229922   2.325   1.692   6.899 -1.6077  1.4612 -1.5764
 6155SOL     OW29923   3.551   3.564  12.142  0.5889  0.0450 -0.2044
 6155SOL    HW129924   3.647   3.561  12.134  0.6331  0.2174  0.2180
 6155SOL    HW229925   3.527   3.525  12.058  2.1779  1.6784 -1.4062
 6156SOL     OW29926   0.785   3.898   0.423  0.5828  0.3470  0.3247
 6156SOL    HW129927   0.711   3.893   0.484  1.8715  1.7916  1.9882
 6156SOL    HW229928   0.830   3.973   0.461  1.1645 -0.3253  0.9559
 6157SOL     OW29929   3.741   2.495   2.345  0.0712 -0.6383  0.5113
 6157SOL    HW129930   3.773   2.582   2.369  1.3675 -1.2567  1.0598
 6157SOL    HW229931   3.827   2.452   2.343  0.9659  1.1292  0.7383
 6158SOL     OW29932   1.346   2.650   9.748 -0.1847 -0.4055 -0.4175
 6158SOL    HW129933   1.423   2.653   9.690 -2.9323  0.4556 -4.0570
 6158SOL    HW229934   1.271   2.634   9.690  1.4314  1.4032 -3.0390
 6159SOL     OW29935   1.666   3.452   5.481 -0.3954 -0.3835 -0.3461
 6159SOL    HW129936   1.710   3.470   5.564 -1.7164 -1.2021  0.5334
 6159SOL    HW229937   1.669   3.534   5.433  0.1954  0.8795  1.8328
 6160SOL     OW29938   1.095   3.626   6.487 -0.3797  0.6239  0.0300
 6160SOL    HW129939   1.002   3.606   6.500 -0.4611  0.4367 -0.8755
 6160SOL    HW229940   1.140   3.563   6.544  0.4677  1.5360  0.3704
 6161SOL     OW29941   1.058   4.053  11.613 -0.3557 -0.0621  0.4815
 6161SOL    HW129942   0.970   4.048  11.575  0.0030  2.0386 -0.6101
 6161SOL    HW229943   1.117   4.049  11.538  1.2622 -2.5081  1.8850
 6162SOL     OW29944   1.313   4.542   0.711  0.2173 -1.2594  0.8212
 6162SOL    HW129945   1.342   4.632   0.720 -2.6855 -0.5006  2.7544
 6162SOL    HW229946   1.286   4.523   0.621  1.2852  1.2954 -0.0336
 6163SOL     OW29947   3.868   0.142  10.444 -0.0363  0.1040 -0.0023
 6163SOL    HW129948   3.926   0.155  10.519  1.0355  2.3315 -1.2062
 6163SOL    HW229949   3.929   0.091  10.391  1.4826 -0.1996  2.0400
 6164SOL     OW29950   1.177   0.088   6.061  0.2636  0.6359 -0.1921
 6164SOL    HW129951   1.082   0.081   6.069  0.4517 -0.7034  0.9060
 6164SOL    HW229952   1.206   0.031   6.132  0.3826 -2.7551 -2.9303
 6165SOL     OW29953   2.481   1.468   5.386  0.0948 -0.6939  0.0749
 6165SOL    HW129954   2.411   1.435   5.331  0.7167 -0.3593 -0.9079
 6165SOL    HW229955   2.533   1.517   5.322 -1.1592  2.1655  1.2198
 6166SOL     OW29956   2.713   3.337   6.370  0.3516 -0.0836 -0.4830
 6166SOL    HW129957   2.797   3.313   6.410  0.3486 -0.0642 -0.4647
 6166SOL    HW229958   2.674   3.249   6.377 -2.7857  1.3053 -0.3435
 6167SOL     OW29959   2.831   4.353   4.239  0.3088  0.0634  0.6743
 6167SOL    HW129960   2.870   4.321   4.157 -0.3746  1.7997 -0.3434
 6167SOL    HW229961   2.755   4.296   4.248  1.0890 -0.8731  1.3378
 6168SOL     OW29962   4.406   1.216   0.752  0.1327 -0.7268 -0.7431
 6168SOL    HW129963   4.378   1.130   0.784 -1.5822 -0.7055 -2.1465
 6168SOL    HW229964   4.333   1.277   0.766  1.2148  1.0100 -2.5909
 6169SOL     OW29965   3.627   0.639   4.960 -0.3445  0.1719 -0.6649
 6169SOL    HW129966   3.569   0.622   4.887  0.9564  3.3220 -2.4276
 6169SOL    HW229967   3.592   0.718   5.001 -0.1471  0.1256 -0.4054
 6170SOL     OW29968   1.388   4.597   5.366 -0.2833 -0.5076 -0.2851
 6170SOL    HW129969   1.456   4.655   5.399 -0.8962 -1.3325  2.3765
 6170SOL    HW229970   1.433   4.516   5.341 -1.1512 -0.1831 -2.8829
 6171SOL     OW29971   2.349   2.514  14.302  0.5700 -0.6573 -0.0702
 6171SOL    HW129972   2.309   2.545  14.221  1.3405  1.2194  0.2758
 6171SOL    HW229973   2.368   2.422  14.283  0.2581 -0.9896  1.1485
 6172SOL     OW29974   3.613   0.574   5.519  0.0962 -0.1795  0.2555
 6172SOL    HW129975   3.697   0.598   5.559 -1.3308  0.5342  2.8092
 6172SOL    HW229976   3.605   0.483   5.548 -0.4483 -0.7937 -1.8186
 6173SOL     OW29977   1.630   4.529   7.466  0.2749 -0.6582 -0.5717
 6173SOL    HW129978   1.639   4.613   7.423  0.3327 -0.7439 -0.7278
 6173SOL    HW229979   1.546   4.546   7.508 -0.6873  0.2735 -2.9399
 6174SOL     OW29980   3.892   1.556  11.759  0.2211  0.5449 -0.5684
 6174SOL    HW129981   3.975   1.542  11.714  1.2988  1.3550  1.1750
 6174SOL    HW229982   3.863   1.468  11.782  1.4029  1.1325  3.0989
 6175SOL     OW29983   1.253   0.647   1.750 -0.0698 -0.0072  0.0587
 6175SOL    HW129984   1.274   0.691   1.668  0.1955  1.2265  0.7987
 6175SOL    HW229985   1.314   0.697   1.805 -0.0489 -2.0855  1.9420
 6176SOL     OW29986   2.287   4.010   4.766 -0.1854  0.2601 -0.6411
 6176SOL    HW129987   2.215   3.948   4.755  0.8267 -1.1413  0.7311
 6176SOL    HW229988   2.331   3.991   4.683 -1.4149  2.5876 -1.8264
 6177SOL     OW29989   1.442   1.975   5.708  0.1168  0.0323 -0.1214
 6177SOL    HW129990   1.416   1.889   5.740  1.4051 -0.5972 -0.7378
 6177SOL    HW229991   1.530   1.975   5.746 -1.5230  0.9842  3.6682
 6178SOL     OW29992   4.150   2.029  12.845  0.6532  0.2941 -0.0927
 6178SOL    HW129993   4.184   1.940  12.833 -0.9530  0.0123 -2.5597
 6178SOL    HW229994   4.234   2.076  12.843  0.8073  0.0512  0.6859
 6179SOL     OW29995   1.423   2.745  17.614 -0.3331  0.3405  0.0728
 6179SOL    HW129996   1.377   2.703  17.542  0.2147  0.5349 -0.3852
 6179SOL    HW229997   1.405   2.838  17.604 -1.5117  0.2539  1.3822
 6180SOL     OW29998   0.181   3.107  13.601 -0.0252  0.0640  0.5978
 6180SOL    HW129999   0.151   3.106  13.692  0.1761 -0.8505  0.6578
 6180SOL    HW230000   0.099   3.128  13.557  0.3033  0.6860  0.2791
 6181SOL     OW30001   4.468   3.771   9.244 -0.2157  0.4609 -0.0298
 6181SOL    HW130002   4.410   3.843   9.270  0.3571  0.3690  1.4783
 6181SOL    HW230003   4.472   3.723   9.327  0.9022  0.5422 -0.0472
 6182SOL     OW30004   0.195   4.165   9.801  0.8334  0.3007 -0.5496
 6182SOL    HW130005   0.111   4.209   9.784  0.7361 -0.3165 -1.6772
 6182SOL    HW230006   0.253   4.234   9.769 -1.3187  2.3983  0.0173
 6183SOL     OW30007   3.745   0.923  10.901 -0.0935 -0.0009 -0.0406
 6183SOL    HW130008   3.665   0.924  10.953 -0.3168  2.6329 -0.4213
 6183SOL    HW230009   3.809   0.875  10.954 -0.1844  0.8736  0.8506
 6184SOL     OW30010   0.097   2.695   6.195 -0.0402 -0.1178  0.5783
 6184SOL    HW130011   0.039   2.630   6.155 -1.5476  0.9642  1.0134
 6184SOL    HW230012   0.158   2.644   6.248 -0.1201  0.6762  1.4323
 6185SOL     OW30013   1.853   0.832   2.987  0.3523  0.1092  0.2732
 6185SOL    HW130014   1.871   0.768   2.918  0.8420  0.0560  0.4456
 6185SOL    HW230015   1.758   0.831   2.982  0.4290 -1.4175 -1.1417
 6186SOL     OW30016   4.559   2.561   4.723  0.3093 -0.1924 -0.1684
 6186SOL    HW130017   4.503   2.488   4.696 -1.6084  1.7604 -1.5425
 6186SOL    HW230018   4.630   2.541   4.661  1.6467 -0.0089  1.3119
 6187SOL     OW30019   1.416   0.607   6.534 -0.1400  0.1433  0.1707
 6187SOL    HW130020   1.323   0.622   6.518 -0.3972  0.0893  1.6398
 6187SOL    HW230021   1.406   0.569   6.621  0.2086 -1.9194 -0.6893
 6188SOL     OW30022   1.315   2.358  14.647  0.2201 -0.3192  0.0053
 6188SOL    HW130023   1.380   2.426  14.666  1.9993 -2.2510  0.7993
 6188SOL    HW230024   1.249   2.368  14.716 -0.4134 -0.1033 -0.6278
 6189SOL     OW30025   2.870   1.309   5.394 -0.2456 -0.5013 -0.3681
 6189SOL    HW130026   2.888   1.367   5.468 -0.7411 -0.6607 -0.1276
 6189SOL    HW230027   2.909   1.366   5.327 -1.9054  2.1700  0.9414
 6190SOL     OW30028   0.391   2.806  14.091  0.0577 -0.4303  0.3634
 6190SOL    HW130029   0.472   2.858  14.089 -1.9044  2.6618  1.5206
 6190SOL    HW230030   0.433   2.723  14.068  3.3649  0.9082  1.5101
 6191SOL     OW30031   4.017   3.546   3.355  0.2079  0.1915  0.3319
 6191SOL    HW130032   3.938   3.562   3.304  1.0618 -0.3935 -1.1565
 6191SOL    HW230033   3.995   3.582   3.441  0.1177  0.4234  0.2123
 6192SOL     OW30034   2.309   2.086   2.427  0.0695  0.2639  0.0536
 6192SOL    HW130035   2.279   2.129   2.347  0.5140 -0.1233 -0.3156
 6192SOL    HW230036   2.226   2.091   2.476  0.3073  2.7012  0.2225
 6193SOL     OW30037   2.187   3.079   6.446  0.7357  0.0631 -0.1284
 6193SOL    HW130038   2.218   3.023   6.375  0.2624  2.4090 -2.1599
 6193SOL    HW230039   2.097   3.050   6.460  0.9625 -0.7252 -0.3040
 6194SOL     OW30040   1.255   3.670   2.786 -0.4246 -0.2562  0.2748
 6194SOL    HW130041   1.282   3.580   2.801  1.6153  0.5611  1.5581
 6194SOL    HW230042   1.239   3.681   2.692 -0.9593 -0.4191  0.3487
 6195SOL     OW30043   0.137   1.390   0.139  0.0894  0.1819  0.1160
 6195SOL    HW130044   0.103   1.310   0.099 -2.0137  0.8023  0.7087
 6195SOL    HW230045   0.060   1.440   0.165  0.0507  0.4331 -0.4705
 6196SOL     OW30046   3.537   3.020   9.277  0.0632 -0.3602  0.0238
 6196SOL    HW130047   3.476   2.956   9.314  0.1812  0.7180  2.0327
 6196SOL    HW230048   3.529   3.092   9.339 -0.2360 -0.6334  0.2999
 6197SOL     OW30049   2.152   1.366   6.972 -0.3958 -0.6476 -0.0273
 6197SOL    HW130050   2.150   1.353   6.877 -0.9653 -1.9323  0.1692
 6197SOL    HW230051   2.090   1.438   6.987  1.9913  1.2893  0.6024
 6198SOL     OW30052   4.285   2.340   2.201 -0.3494 -0.1991  0.3970
 6198SOL    HW130053   4.216   2.276   2.183 -1.0004 -0.3654  3.4758
 6198SOL    HW230054   4.300   2.380   2.115  0.1540  1.9428  1.4887
 6199SOL     OW30055   0.807   1.278   4.470  0.0302  0.3296 -0.1432
 6199SOL    HW130056   0.736   1.317   4.521 -0.1547 -2.2008  1.5479
 6199SOL    HW230057   0.871   1.251   4.536  1.3225 -0.1683 -1.6092
 6200SOL     OW30058   1.220   0.894  10.583 -0.4132 -0.6775  0.5578
 6200SOL    HW130059   1.242   0.804  10.561 -0.9395 -0.2343 -1.7839
 6200SOL    HW230060   1.294   0.935  10.628 -0.3193 -0.5741  0.3083
 6201SOL     OW30061   3.079   4.718  12.806 -0.0761  0.4179  0.0102
 6201SOL    HW130062   3.156   4.681  12.763 -0.0150  0.7175 -0.1446
 6201SOL    HW230063   3.117   0.013  12.893 -0.6193  0.6675  0.2057
 6202SOL     OW30064   2.327   3.263   9.385  0.3030 -0.8240  0.1123
 6202SOL    HW130065   2.248   3.282   9.435 -0.2233 -0.6808 -0.7764
 6202SOL    HW230066   2.315   3.171   9.364  0.5217 -0.2509 -2.6038
 6203SOL     OW30067   0.810   0.878   6.660  0.3583  0.2968 -0.1442
 6203SOL    HW130068   0.717   0.892   6.643  1.0474  2.6512 -1.9982
 6203SOL    HW230069   0.823   0.882   6.755 -1.7429 -1.2956  0.2102
 6204SOL     OW30070   4.569   2.011   1.486  0.3327  0.5520  0.0161
 6204SOL    HW130071   4.583   1.928   1.441  2.3813  0.6006  0.5835
 6204SOL    HW230072   4.494   1.986   1.540 -1.5314  2.7782 -1.5520
 6205SOL     OW30073   1.513   0.540   0.443  0.2973  0.3090 -0.0217
 6205SOL    HW130074   1.476   0.488   0.515  1.2376 -2.9133 -1.8701
 6205SOL    HW230075   1.586   0.489   0.407 -0.6234  0.1277 -1.6497
 6206SOL     OW30076   4.312   2.338   1.209  0.3418 -1.2737  0.4917
 6206SOL    HW130077   4.403   2.325   1.181  0.1225  1.3714 -1.3764
 6206SOL    HW230078   4.316   2.326   1.304  1.3286  1.8916  0.8617
 6207SOL     OW30079   0.193   1.031   4.006  0.7226 -0.3818 -0.5165
 6207SOL    HW130080   0.113   0.997   4.045  1.3057 -0.8973  0.2407
 6207SOL    HW230081   0.176   1.041   3.912 -0.0091  1.2308 -0.2185
 6208SOL     OW30082   2.364   2.276   3.554 -0.2053 -0.2856 -0.1613
 6208SOL    HW130083   2.455   2.297   3.535  0.7324 -2.0427  2.4093
 6208SOL    HW230084   2.323   2.301   3.471  0.7490 -0.4469 -0.6772
 6209SOL     OW30085   1.656   0.985   7.728 -0.1177 -0.1382  0.2711
 6209SOL    HW130086   1.605   1.065   7.734 -0.1871 -0.3029  1.9823
 6209SOL    HW230087   1.602   0.933   7.787  0.9868 -1.9377 -0.2853
 6210SOL     OW30088   1.781   1.510   2.668 -0.5073  0.1251  0.6405
 6210SOL    HW130089   1.761   1.603   2.658  2.1275  0.6863  0.5881
 6210SOL    HW230090   1.800   1.478   2.580  0.7597  0.6405  0.7149
 6211SOL     OW30091   3.202   1.675   6.065  0.1019 -0.8251  0.1081
 6211SOL    HW130092   3.270   1.727   6.021 -0.0507  0.2565  1.1504
 6211SOL    HW230093   3.246   1.623   6.132 -0.2632 -0.5553  0.5531
 6212SOL     OW30094   3.849   2.701   7.734 -0.2814  0.3518  0.2383
 6212SOL    HW130095   3.758   2.678   7.750 -1.0296  2.6431 -0.7018
 6212SOL    HW230096   3.894   2.629   7.778  0.0878  0.1929 -0.3937
 6213SOL     OW30097   2.633   2.593   1.456 -0.4119 -0.2207  0.0125
 6213SOL    HW130098   2.695   2.577   1.384 -1.8969 -0.0622 -1.2977
 6213SOL    HW230099   2.620   2.509   1.500  1.1639  0.5884  1.9902
 6214SOL     OW30100   2.160   1.026   9.247  0.0853 -0.3507  0.1664
 6214SOL    HW130101   2.206   1.060   9.171 -1.1891  0.0149 -0.4405
 6214SOL    HW230102   2.190   1.084   9.317 -2.2071 -1.3235  2.0089
 6215SOL     OW30103   3.233   3.292   5.308 -0.0166 -0.0295 -0.0032
 6215SOL    HW130104   3.199   3.322   5.392 -0.2879  1.1369 -0.5375
 6215SOL    HW230105   3.307   3.243   5.345  0.5641  1.2628  0.5487
 6216SOL     OW30106   1.154   1.627  11.463  0.5756 -0.4142  0.3786
 6216SOL    HW130107   1.187   1.662  11.380  1.6557  0.0848  1.0036
 6216SOL    HW230108   1.233   1.584  11.498  1.7994  0.9546 -0.6758
 6217SOL     OW30109   0.234   2.506   6.355 -0.4024 -0.0842  0.1317
 6217SOL    HW130110   0.278   2.542   6.432 -0.3172 -1.1639  0.5866
 6217SOL    HW230111   0.143   2.499   6.382 -0.3390 -2.1946 -0.1906
 6218SOL     OW30112   1.789   0.016   8.685  0.1396  0.1758 -0.0917
 6218SOL    HW130113   1.838   0.008   8.767 -0.2996  0.4296  0.1984
 6218SOL    HW230114   1.763   0.108   8.682  2.9165  1.0064  1.9298
 6219SOL     OW30115   0.274   3.236   9.800 -0.1769  0.0366 -0.0825
 6219SOL    HW130116   0.228   3.278   9.872 -0.0343 -1.7337  1.0421
 6219SOL    HW230117   0.267   3.143   9.823  1.3203 -0.0018  0.2161
 6220SOL     OW30118   0.771   3.788   6.610  0.3815  0.2989  0.0497
 6220SOL    HW130119   0.775   3.792   6.514 -2.7681 -1.7269 -0.1875
 6220SOL    HW230120   0.823   3.862   6.638 -1.3923  0.7015  2.2692
 6221SOL     OW30121   0.708   4.041   6.278 -0.0748 -0.1686 -0.5841
 6221SOL    HW130122   0.736   3.970   6.336  0.7578  0.3864 -0.3054
 6221SOL    HW230123   0.721   3.999   6.193 -0.5946  0.1914 -0.8375
 6222SOL     OW30124   0.455   0.085   7.339 -0.2643 -0.3531  0.0922
 6222SOL    HW130125   0.425   0.171   7.368 -0.2560 -0.1519 -0.5021
 6222SOL    HW230126   0.496   0.053   7.419  1.6241 -0.6605 -1.0094
 6223SOL     OW30127   1.654   1.652   9.623 -0.0078 -0.5534  0.6172
 6223SOL    HW130128   1.688   1.623   9.707  2.3121  0.4514  0.0227
 6223SOL    HW230129   1.644   1.566   9.583  0.3912 -0.0893 -0.4751
 6224SOL     OW30130   4.573   2.050   5.787  0.4681 -0.1340  0.2091
 6224SOL    HW130131   4.496   2.003   5.757  0.6229  0.3559 -0.9377
 6224SOL    HW230132   4.643   1.996   5.751  1.0217 -1.1584  2.8218
 6225SOL     OW30133   3.278   1.654   7.289 -0.6370  0.0573  0.4667
 6225SOL    HW130134   3.246   1.742   7.273  0.2619  0.1038 -1.0848
 6225SOL    HW230135   3.247   1.604   7.213 -1.3766  0.1640  0.6989
 6226SOL     OW30136   2.696   0.334  11.332 -0.3567 -0.0120 -0.1798
 6226SOL    HW130137   2.689   0.423  11.298  0.3143  0.2538  0.3702
 6226SOL    HW230138   2.775   0.303  11.288  0.3135  1.4869 -0.0474
 6227SOL     OW30139   3.752   0.069   2.922 -0.4306 -0.3988 -0.1063
 6227SOL    HW130140   3.826   0.082   2.863  0.2767  2.0711  1.3221
 6227SOL    HW230141   3.729   4.698   2.899  0.6361 -1.8342  4.4070
 6228SOL     OW30142   2.914   3.965  17.395 -0.9474 -0.0412 -0.3363
 6228SOL    HW130143   2.914   4.041  17.336  1.3035  0.8712  0.8274
 6228SOL    HW230144   3.005   3.944  17.416 -1.3987 -1.4761  0.1075
 6229SOL     OW30145   4.553   2.497   2.770  0.8084 -0.1019  0.2558
 6229SOL    HW130146   4.626   2.559   2.760 -0.0312  0.6462 -1.2406
 6229SOL    HW230147   4.545   2.508   2.865 -0.8081  1.6885 -0.1077
 6230SOL     OW30148   1.708   4.413  10.789 -0.6089 -0.2210  0.7228
 6230SOL    HW130149   1.735   4.438  10.878 -0.5815 -0.5567  0.8102
 6230SOL    HW230150   1.729   4.492  10.740 -0.2966 -0.6633  0.1471
 6231SOL     OW30151   2.601   1.098   2.546 -0.2312 -0.1114 -0.0061
 6231SOL    HW130152   2.627   1.026   2.488 -2.3013 -0.9107  0.0685
 6231SOL    HW230153   2.547   1.143   2.481  0.7956 -0.9733 -1.4571
 6232SOL     OW30154   1.367   2.965  15.718  0.5725  0.5202  0.3198
 6232SOL    HW130155   1.279   2.972  15.682  0.8454 -0.3142 -0.5009
 6232SOL    HW230156   1.411   3.037  15.674  0.5008 -0.0318 -0.6376
 6233SOL     OW30157   4.088   1.924   1.942  0.2858  0.4219  0.3423
 6233SOL    HW130158   4.009   1.875   1.964 -0.5641  2.0480  0.9494
 6233SOL    HW230159   4.058   1.976   1.867 -0.4104 -0.9239 -0.3137
 6234SOL     OW30160   3.894   4.594   9.141  0.1319 -0.3018  0.4999
 6234SOL    HW130161   3.806   4.574   9.110  0.3007  0.3726 -0.4271
 6234SOL    HW230162   3.936   4.523   9.094 -0.2081  0.6054 -1.1880
 6235SOL     OW30163   3.247   4.324  17.106  0.5372  0.0950 -0.4619
 6235SOL    HW130164   3.199   4.388  17.054 -2.6875 -2.5029 -0.7168
 6235SOL    HW230165   3.309   4.306  17.035 -1.1894  0.2564 -2.0157
 6236SOL     OW30166   4.090   0.538   2.744 -0.4212 -0.3978 -0.0825
 6236SOL    HW130167   4.045   0.553   2.661  0.8242  2.3554 -0.2627
 6236SOL    HW230168   4.038   0.603   2.793  0.1976 -0.0611  0.1207
 6237SOL     OW30169   1.179   0.554   3.847  0.6579 -0.3360  0.2238
 6237SOL    HW130170   1.088   0.582   3.835 -0.6233 -4.4360  0.4014
 6237SOL    HW230171   1.226   0.588   3.771 -3.7349 -0.3295 -2.4416
 6238SOL     OW30172   1.320   1.593  17.626  0.8297  0.3961  0.0486
 6238SOL    HW130173   1.393   1.640  17.666 -0.1470  1.2720  0.7894
 6238SOL    HW230174   1.243   1.630  17.669  0.5210  0.0442 -0.1987
 6239SOL     OW30175   3.801   0.599  12.736  0.3652  0.4632 -0.5887
 6239SOL    HW130176   3.727   0.650  12.769 -0.0952 -0.4433 -0.2124
 6239SOL    HW230177   3.759   0.539  12.674  0.0536 -0.5783  0.6269
 6240SOL     OW30178   2.855   3.172   6.127 -0.2898 -0.3238  0.2354
 6240SOL    HW130179   2.863   3.237   6.197  2.2997 -0.7665  0.3653
 6240SOL    HW230180   2.929   3.195   6.071 -0.0415  2.2885  1.6405
 6241SOL     OW30181   2.220   2.819   7.491  0.3674  0.1002  0.0912
 6241SOL    HW130182   2.286   2.857   7.549  0.5326 -0.5846  0.3560
 6241SOL    HW230183   2.270   2.745   7.458 -0.7483 -1.5239  2.0548
 6242SOL     OW30184   1.774   2.199   5.224  0.1379 -0.0147  0.0401
 6242SOL    HW130185   1.847   2.142   5.200  0.3063 -0.1760  0.9540
 6242SOL    HW230186   1.796   2.261   5.154  0.4776  0.6796  0.7664
 6243SOL     OW30187   4.591   2.444   5.858  0.6883 -0.1496  0.1320
 6243SOL    HW130188   4.656   2.384   5.896  0.4274 -0.4165  0.1629
 6243SOL    HW230189   4.515   2.390   5.881  0.9802  0.2557  2.0238
 6244SOL     OW30190   0.248   2.479   8.174  0.2554  0.3385 -0.2203
 6244SOL    HW130191   0.257   2.495   8.080  0.3044 -2.4686 -0.6709
 6244SOL    HW230192   0.167   2.430   8.179  0.3475  0.3323  1.0346
 6245SOL     OW30193   4.280   2.672   8.095 -0.4421  0.4930 -0.1431
 6245SOL    HW130194   4.364   2.704   8.129 -0.2752 -0.5897  0.4741
 6245SOL    HW230195   4.238   2.642   8.175 -0.5505  0.3116 -0.2668
 6246SOL     OW30196   0.035   4.444   6.961 -0.0788 -0.0137 -0.5806
 6246SOL    HW130197   4.705   4.500   7.022  2.0789  0.0828  1.0733
 6246SOL    HW230198   4.692   4.456   6.889  1.0424 -2.6675 -1.9438
 6247SOL     OW30199   4.656   3.704  15.425 -0.7459 -0.5322  0.4292
 6247SOL    HW130200   4.631   3.718  15.516  0.6857 -1.0815  0.9121
 6247SOL    HW230201   4.670   3.793  15.391 -2.5657 -0.2024  0.5361
 6248SOL     OW30202   0.050   0.925   1.389  0.5506  0.5789  0.0074
 6248SOL    HW130203   0.074   0.923   1.296  0.3269 -0.2302 -0.0348
 6248SOL    HW230204   4.695   0.986   1.384  1.3548  1.6417  1.0525
 6249SOL     OW30205   3.838   0.666   4.801 -0.3545 -0.2501  0.7728
 6249SOL    HW130206   3.800   0.718   4.730  2.2238  1.0217  0.3160
 6249SOL    HW230207   3.769   0.649   4.865  0.6329 -1.1673  1.6007
 6250SOL     OW30208   0.544   3.852   7.157  0.2457 -0.5839 -0.1407
 6250SOL    HW130209   0.480   3.912   7.120  0.3249 -0.8130 -0.6502
 6250SOL    HW230210   0.600   3.913   7.205  1.1810 -1.2171 -0.4148
 6251SOL     OW30211   2.266   3.614   3.753 -0.0743  0.4625  0.0723
 6251SOL    HW130212   2.188   3.576   3.791  0.7658 -1.0887  0.2467
 6251SOL    HW230213   2.256   3.582   3.664  3.1705 -1.3501  0.3545
 6252SOL     OW30214   4.639   2.475  12.089 -0.0825  0.3585  1.1652
 6252SOL    HW130215   4.556   2.441  12.123 -0.2664 -1.4510 -1.1813
 6252SOL    HW230216   4.624   2.569  12.101 -2.0917  0.2549 -0.6485
 6253SOL     OW30217   1.120   0.628   6.116  0.1651  0.2476 -0.3702
 6253SOL    HW130218   1.082   0.707   6.078 -0.6786  0.5887  1.1530
 6253SOL    HW230219   1.210   0.623   6.085  0.9678  2.2904  1.5496
 6254SOL     OW30220   2.268   1.958  11.426  0.3024  0.2779 -1.0048
 6254SOL    HW130221   2.268   2.016  11.502  1.3827 -1.7155  0.4867
 6254SOL    HW230222   2.358   1.926  11.424 -0.6076 -2.2163 -3.4411
 6255SOL     OW30223   0.749   2.839   5.119  0.1308  0.1399 -0.1802
 6255SOL    HW130224   0.817   2.847   5.052 -0.3253 -0.0082 -0.6668
 6255SOL    HW230225   0.762   2.749   5.149  1.4898  0.9096  1.5616
 6256SOL     OW30226   0.837   2.434   2.640  0.5733  0.5023  0.0502
 6256SOL    HW130227   0.881   2.351   2.654  0.5888  0.9135  2.4415
 6256SOL    HW230228   0.875   2.488   2.709  1.2595  0.3095 -0.1830
 6257SOL     OW30229   0.945   0.918   8.573  0.3865  0.1478 -0.1086
 6257SOL    HW130230   0.956   0.862   8.650 -0.8720  0.7910  0.5408
 6257SOL    HW230231   0.867   0.969   8.597 -0.0166 -1.2689  1.6035
 6258SOL     OW30232   3.992   0.584   8.721  0.2188  0.4771 -0.1734
 6258SOL    HW130233   3.980   0.675   8.692 -1.2497  0.7647  1.3436
 6258SOL    HW230234   3.997   0.542   8.636  1.8871  0.7506 -0.2220
 6259SOL     OW30235   2.018   1.105   7.079  0.1330  0.9469  0.5579
 6259SOL    HW130236   2.008   1.155   6.998 -0.8895 -0.6666 -0.3278
 6259SOL    HW230237   2.017   1.164   7.154  0.5054  1.4315  0.1762
 6260SOL     OW30238   4.068   2.403   2.489 -0.3938  0.2983  0.4239
 6260SOL    HW130239   4.146   2.452   2.516  0.8281 -1.7578  0.6529
 6260SOL    HW230240   4.049   2.444   2.404 -1.7305 -0.7086  0.2491
 6261SOL     OW30241   3.302   0.129   4.804  0.2514 -0.4266 -0.2327
 6261SOL    HW130242   3.232   0.175   4.850 -0.5917 -0.9997 -0.9290
 6261SOL    HW230243   3.320   0.185   4.729 -0.9214 -1.2551 -1.1379
 6262SOL     OW30244   0.362   3.237  10.136 -0.1295 -0.4659 -0.1172
 6262SOL    HW130245   0.307   3.289  10.077  0.5937  1.8900  1.3089
 6262SOL    HW230246   0.371   3.161  10.078  1.0804  1.4318 -2.3912
 6263SOL     OW30247   3.371   3.277   6.555 -0.1454 -0.5580 -0.6673
 6263SOL    HW130248   3.335   3.306   6.639 -0.2279  0.4415 -1.0482
 6263SOL    HW230249   3.301   3.225   6.514 -0.9191 -0.1420  0.1424
 6264SOL     OW30250   4.127   3.990   3.459 -0.2769  0.3679  0.1293
 6264SOL    HW130251   4.174   4.026   3.383 -0.1163  0.3742  0.2309
 6264SOL    HW230252   4.037   3.984   3.428  0.0143 -0.2316 -0.6121
 6265SOL     OW30253   1.852   0.729  15.343 -0.7967  0.3204 -0.2262
 6265SOL    HW130254   1.763   0.761  15.326 -0.6972  0.2068 -0.9397
 6265SOL    HW230255   1.872   0.751  15.434 -2.6550  0.1261  0.2426
 6266SOL     OW30256   2.323   1.244   9.090 -0.0094 -0.7579  0.0002
 6266SOL    HW130257   2.346   1.241   9.183  0.8319  1.8278 -0.1343
 6266SOL    HW230258   2.238   1.282   9.110  0.7221  0.9177 -0.0734
 6267SOL     OW30259   3.126   0.670   5.158 -0.4679 -0.0359 -0.5202
 6267SOL    HW130260   3.211   0.657   5.115 -0.5786  0.6626 -0.9603
 6267SOL    HW230261   3.137   0.756   5.199  2.4655 -0.6582  0.0150
 6268SOL     OW30262   2.925   0.863  12.954 -0.2970  0.3443  0.2575
 6268SOL    HW130263   2.847   0.911  12.925  1.5193  1.9096 -1.9867
 6268SOL    HW230264   2.986   0.906  12.894  0.7957  0.4473  1.4759
 6269SOL     OW30265   1.444   2.549   8.656  0.0817 -0.0823 -0.2111
 6269SOL    HW130266   1.407   2.465   8.682  1.0418  0.0510  1.5281
 6269SOL    HW230267   1.380   2.562   8.585 -2.4292  0.1841  2.0891
 6270SOL     OW30268   1.188   0.707   7.826  0.2820  0.3036  0.1883
 6270SOL    HW130269   1.186   0.759   7.746  0.3800  0.8556  0.5494
 6270SOL    HW230270   1.108   0.656   7.812  0.4245  0.6091 -1.7994
 6271SOL     OW30271   1.123   0.857   2.062  0.0855 -0.5859  0.2061
 6271SOL    HW130272   1.077   0.865   1.979  0.0757  1.3039  0.3915
 6271SOL    HW230273   1.147   0.765   2.064 -0.3542 -0.7502 -2.5420
 6272SOL     OW30274   1.887   0.633  12.004 -0.6826 -0.2425  0.5362
 6272SOL    HW130275   1.927   0.634  11.917 -0.2045  2.3224  0.7974
 6272SOL    HW230276   1.904   0.720  12.040 -2.5404  0.6775 -0.8299
 6273SOL     OW30277   0.552   1.229   5.643  0.4160 -0.0499  0.7896
 6273SOL    HW130278   0.489   1.251   5.712  1.3201  1.9859  0.9774
 6273SOL    HW230279   0.589   1.312   5.611 -0.0037 -0.0215  0.3875
 6274SOL     OW30280   4.708   4.565   4.674  0.0112 -0.5162 -0.1888
 6274SOL    HW130281   0.034   4.645   4.703  3.1639 -2.2476 -0.2962
 6274SOL    HW230282   4.619   4.583   4.704 -0.3875  2.7115 -3.3064
 6275SOL     OW30283   0.097   1.604  11.422  0.2085 -0.3579 -0.3264
 6275SOL    HW130284   0.103   1.686  11.372 -0.0186 -0.3040 -0.2637
 6275SOL    HW230285   0.183   1.613  11.464  1.6035 -2.0173 -2.8395
 6276SOL     OW30286   4.100   3.863   6.242 -0.7223  0.2254 -0.5258
 6276SOL    HW130287   4.044   3.862   6.319 -0.4325 -0.5112 -0.3214
 6276SOL    HW230288   4.031   3.862   6.176 -1.4759  1.1223  0.2544
 6277SOL     OW30289   3.594   0.418   6.390 -0.0632 -0.7033 -0.1123
 6277SOL    HW130290   3.511   0.454   6.358 -0.1902 -1.6422 -0.8282
 6277SOL    HW230291   3.564   0.347   6.445 -0.5639  2.6730  3.9409
 6278SOL     OW30292   1.188   4.642   1.168  0.7580 -0.1310 -0.5617
 6278SOL    HW130293   1.211   0.015   1.152 -1.6158  0.8624  1.7517
 6278SOL    HW230294   1.253   4.597   1.114  0.4774 -0.1937 -0.8468
 6279SOL     OW30295   1.621   1.582   5.926  0.4764 -0.3044 -0.0114
 6279SOL    HW130296   1.575   1.501   5.949  1.1082  0.1315  2.8091
 6279SOL    HW230297   1.600   1.592   5.833  0.8921  3.9174  0.3565
 6280SOL     OW30298   0.681   3.053  10.983  0.0467  0.0876 -0.0348
 6280SOL    HW130299   0.752   3.116  10.987 -0.2916  0.5666 -1.3702
 6280SOL    HW230300   0.609   3.116  10.991  0.3865  0.5782 -0.8504
 6281SOL     OW30301   0.245   4.081  15.969  0.0985  0.0257 -0.1762
 6281SOL    HW130302   0.243   3.986  15.979 -1.6472  0.3440  2.3950
 6281SOL    HW230303   0.224   4.106  16.058  1.9351  1.0579 -0.0321
 6282SOL     OW30304   3.793   0.661   9.310 -0.1542  0.4564  0.3852
 6282SOL    HW130305   3.799   0.731   9.374 -0.9211  3.3084 -2.6844
 6282SOL    HW230306   3.827   0.699   9.230  0.1906 -1.6136 -0.4512
 6283SOL     OW30307   3.146   2.013   7.926 -0.0027  0.1124  0.1845
 6283SOL    HW130308   3.152   2.101   7.962  1.6599  0.1094 -0.0892
 6283SOL    HW230309   3.053   1.997   7.909  0.3789  2.2544 -4.0145
 6284SOL     OW30310   1.901   4.005  13.629 -0.3664 -0.2866 -0.2627
 6284SOL    HW130311   1.907   4.029  13.537  0.2483 -3.2835 -0.9965
 6284SOL    HW230312   1.864   3.918  13.638  0.4808 -0.7302 -1.0598
 6285SOL     OW30313   2.737   1.705  14.224  0.3664  0.1771 -0.3215
 6285SOL    HW130314   2.822   1.728  14.187  1.1680 -0.6150  0.9788
 6285SOL    HW230315   2.742   1.746  14.311  0.1126 -1.8163  0.6403
 6286SOL     OW30316   3.985   0.981  14.907 -0.0874 -0.0250 -0.1328
 6286SOL    HW130317   4.008   1.027  14.988  1.4719  1.7894 -1.6064
 6286SOL    HW230318   3.915   1.041  14.881  1.4024  0.6602 -2.5461
 6287SOL     OW30319   0.727   4.555   9.562 -0.0976 -0.1318 -0.0006
 6287SOL    HW130320   0.781   4.483   9.530 -1.0549 -0.3490 -1.1063
 6287SOL    HW230321   0.641   4.521   9.542  0.9469 -2.1096 -1.0991
 6288SOL     OW30322   1.854   2.674  16.771 -1.2125 -0.4687 -0.1211
 6288SOL    HW130323   1.887   2.660  16.682  0.9823 -1.6262  0.8532
 6288SOL    HW230324   1.935   2.654  16.818 -1.1197  0.9895  0.3405
 6289SOL     OW30325   1.621   3.868  13.865  0.1940  0.0718 -0.4152
 6289SOL    HW130326   1.558   3.907  13.926 -2.6520 -1.5971 -2.2927
 6289SOL    HW230327   1.667   3.801  13.915  0.6086 -0.1818 -1.1545
 6290SOL     OW30328   0.465   0.740   6.117  0.4813  0.8107  0.3162
 6290SOL    HW130329   0.519   0.815   6.140 -1.3457  2.6785 -1.5273
 6290SOL    HW230330   0.506   0.705   6.037  0.8505  2.0404 -0.0220
 6291SOL     OW30331   1.032   1.953  15.358 -0.1753 -0.4762 -0.3654
 6291SOL    HW130332   1.080   1.873  15.337  1.1490  0.6794 -1.8138
 6291SOL    HW230333   1.012   1.931  15.449  2.8596  0.1727  0.4873
 6292SOL     OW30334   3.329   2.720   5.083  0.2053 -0.9861 -0.4556
 6292SOL    HW130335   3.265   2.649   5.080 -1.9396  0.8745  0.9038
 6292SOL    HW230336   3.266   2.791   5.075 -1.2330 -1.9324  2.5446
 6293SOL     OW30337   1.711   3.515  11.792 -0.3765  0.1051  0.1752
 6293SOL    HW130338   1.734   3.440  11.738 -0.1026  1.6511 -1.8373
 6293SOL    HW230339   1.718   3.590  11.734  2.2908  0.0839  0.4537
 6294SOL     OW30340   1.867   1.466   6.909 -0.0401 -0.3573 -0.3675
 6294SOL    HW130341   1.848   1.522   6.984  1.4111  2.1713 -1.8949
 6294SOL    HW230342   1.811   1.392   6.933  0.1650 -0.7027 -0.9288
 6295SOL     OW30343   2.229   1.973  15.446 -0.2121  0.1952  0.1487
 6295SOL    HW130344   2.208   2.059  15.412  0.4567  0.6509  0.8921
 6295SOL    HW230345   2.267   1.941  15.364  1.1212 -0.1644  0.9014
 6296SOL     OW30346   1.692   0.460   0.162 -0.2186 -0.3774  0.0977
 6296SOL    HW130347   1.772   0.410   0.151 -0.7369 -1.4802  1.3283
 6296SOL    HW230348   1.717   0.536   0.215 -0.4913 -0.1095 -0.1563
 6297SOL     OW30349   0.417   2.242   8.403 -0.1150 -0.0425  0.1965
 6297SOL    HW130350   0.431   2.209   8.314 -0.2678 -0.5258  0.3497
 6297SOL    HW230351   0.488   2.200   8.452 -0.1341 -1.5373 -1.0587
 6298SOL     OW30352   1.001   3.654   7.325  0.0008  0.2767  0.1056
 6298SOL    HW130353   0.956   3.588   7.272  2.7916 -0.1592 -1.7394
 6298SOL    HW230354   0.965   3.741   7.306  1.2069  0.9749  0.9936
 6299SOL     OW30355   0.966   1.576   0.917 -0.2419 -0.4481 -0.2519
 6299SOL    HW130356   0.879   1.536   0.914  0.3883 -1.6838 -1.9249
 6299SOL    HW230357   0.969   1.611   0.828 -1.9005 -2.1587 -0.9643
 6300SOL     OW30358   1.468   4.232  16.703  0.4894 -0.0760 -0.2518
 6300SOL    HW130359   1.377   4.215  16.728  0.6458 -0.3186  0.1691
 6300SOL    HW230360   1.461   4.311  16.650 -0.6977  1.2583  1.9160
 6301SOL     OW30361   1.038   3.100   3.224  0.5904 -0.6723  0.2820
 6301SOL    HW130362   1.014   3.055   3.143  1.1758 -1.7769  0.7310
 6301SOL    HW230363   1.095   3.172   3.197  0.2445 -0.8185 -0.8580
 6302SOL     OW30364   3.797   1.488   3.180  0.0764 -0.4404 -0.0111
 6302SOL    HW130365   3.813   1.576   3.146 -3.2782  0.0909 -0.2132
 6302SOL    HW230366   3.877   1.438   3.160 -0.3381 -0.5490 -1.3960
 6303SOL     OW30367   3.416   1.690   4.642  0.1798 -0.1529  0.4362
 6303SOL    HW130368   3.361   1.765   4.666  0.6914  0.7523 -1.2396
 6303SOL    HW230369   3.457   1.676   4.727  1.3824  0.5557 -0.0369
 6304SOL     OW30370   2.987   3.127   3.963 -0.2888  0.1766  0.4743
 6304SOL    HW130371   3.004   3.084   4.047 -0.1594 -0.6195  0.0448
 6304SOL    HW230372   2.996   3.046   3.911 -0.8075  0.9361 -0.8043
 6305SOL     OW30373   4.443   0.874   5.810 -0.0316  0.3647 -0.3456
 6305SOL    HW130374   4.528   0.845   5.843  0.4911  2.1542 -0.1381
 6305SOL    HW230375   4.406   0.921   5.886 -1.2372  1.0340 -1.3438
 6306SOL     OW30376   0.326   4.618   5.190  0.0599  0.1541  0.1841
 6306SOL    HW130377   0.361   4.692   5.240 -1.7269  0.7703  0.5133
 6306SOL    HW230378   0.377   4.612   5.109  0.7233 -2.4342  0.8078
 6307SOL     OW30379   1.530   2.231   5.640 -0.4375  0.5083  0.4487
 6307SOL    HW130380   1.610   2.213   5.589 -0.5415  0.7264  0.2121
 6307SOL    HW230381   1.496   2.143   5.657  1.2181  0.1620  1.9695
 6308SOL     OW30382   3.886   0.141  14.607  0.5627 -0.7966 -0.4408
 6308SOL    HW130383   3.978   0.136  14.580  0.4091 -1.1592 -0.9045
 6308SOL    HW230384   3.867   0.048  14.600 -2.2574  0.0406 -3.9769
 6309SOL     OW30385   3.923   2.227   9.008 -0.2710 -0.0836  0.3572
 6309SOL    HW130386   3.877   2.203   8.928  1.4957 -1.9416 -0.0896
 6309SOL    HW230387   3.862   2.190   9.072  0.1322 -0.1308  0.7125
 6310SOL     OW30388   1.960   1.831   8.591 -0.4118  0.2704 -0.1494
 6310SOL    HW130389   1.893   1.895   8.613  1.4334  2.5712 -1.1881
 6310SOL    HW230390   2.008   1.840   8.673  0.4659 -0.8457 -0.5343
 6311SOL     OW30391   1.138   3.265  10.725  0.6841  0.4147  0.4258
 6311SOL    HW130392   1.138   3.360  10.728  0.0060  0.4635 -1.0819
 6311SOL    HW230393   1.157   3.240  10.816  2.0083 -1.5541 -0.3762
 6312SOL     OW30394   4.692   4.436   1.868 -0.3704  0.2816  0.0091
 6312SOL    HW130395   0.062   4.471   1.868 -0.8430  1.4757  0.2763
 6312SOL    HW230396   4.713   4.343   1.882  1.3464  0.6365 -0.2237
 6313SOL     OW30397   3.419   4.253   4.918  0.5762  1.6036  0.0420
 6313SOL    HW130398   3.489   4.246   4.984  0.9789 -1.4205 -0.6665
 6313SOL    HW230399   3.378   4.167   4.911 -0.4129  2.0216  0.8459
 6314SOL     OW30400   3.539   3.330  14.580  0.2335  0.0295  0.5594
 6314SOL    HW130401   3.485   3.255  14.557  0.6428 -0.2126  0.3958
 6314SOL    HW230402   3.482   3.401  14.549 -0.3810  0.3923  2.5092
 6315SOL     OW30403   4.578   2.523   6.998  0.1439  0.2902  0.6745
 6315SOL    HW130404   4.552   2.604   6.954 -2.5413  0.2703  2.2304
 6315SOL    HW230405   4.672   2.541   6.993  0.0629  0.6350  0.3414
 6316SOL     OW30406   3.565   2.432   0.612 -0.6191 -0.1233 -0.1491
 6316SOL    HW130407   3.483   2.406   0.653  0.3953 -2.3460  0.4669
 6316SOL    HW230408   3.626   2.395   0.676 -0.2013  2.9903  1.2205
 6317SOL     OW30409   4.078   2.325   0.276 -0.3262  0.3287 -0.5012
 6317SOL    HW130410   4.123   2.373   0.345 -0.9366 -0.1964  0.2604
 6317SOL    HW230411   4.134   2.249   0.265 -0.6904  0.3812 -2.7488
 6318SOL     OW30412   4.580   3.682   2.988 -0.0732 -0.6294 -0.3128
 6318SOL    HW130413   4.644   3.624   2.947  0.1088  0.1072 -1.0592
 6318SOL    HW230414   4.533   3.726   2.918  0.8421 -0.7748 -1.0141
 6319SOL     OW30415   2.585   2.725   8.962  0.2935 -0.2525  0.2412
 6319SOL    HW130416   2.511   2.771   8.924  1.4946  2.1340  0.7907
 6319SOL    HW230417   2.548   2.666   9.028  0.9019  2.7960  3.2929
 6320SOL     OW30418   0.654   3.050   4.328 -0.2044 -0.1800 -0.0825
 6320SOL    HW130419   0.670   3.093   4.244 -0.4526  1.1281  0.5365
 6320SOL    HW230420   0.560   3.071   4.331 -0.2749 -0.4520 -0.4556
 6321SOL     OW30421   0.961   2.055   9.365  0.1214  0.3402 -0.6656
 6321SOL    HW130422   0.930   2.146   9.360 -0.3972  0.1475 -0.9877
 6321SOL    HW230423   0.877   2.014   9.386 -0.2021 -0.5227 -3.7352
 6322SOL     OW30424   0.914   3.416   4.310 -0.3761 -0.4512 -0.3682
 6322SOL    HW130425   0.991   3.417   4.254 -1.4791 -2.8575 -1.8977
 6322SOL    HW230426   0.918   3.333   4.358 -1.0134  0.2197  0.8501
 6323SOL     OW30427   1.701   3.843   6.809  0.2490 -0.1928 -0.4134
 6323SOL    HW130428   1.790   3.868   6.835  1.2432 -1.3495 -2.7420
 6323SOL    HW230429   1.721   3.750   6.798  0.6487 -0.0380 -0.9768
 6324SOL     OW30430   2.750   1.457   4.389 -0.2413  0.4902  0.6427
 6324SOL    HW130431   2.701   1.510   4.326  1.7044  4.7231  2.7295
 6324SOL    HW230432   2.685   1.394   4.421 -0.3863 -0.3072 -1.2202
 6325SOL     OW30433   2.750   1.549   7.630  1.0733  0.3321 -0.1965
 6325SOL    HW130434   2.777   1.460   7.605 -0.7520 -0.5093  0.8791
 6325SOL    HW230435   2.787   1.557   7.718  2.4561 -2.0121 -0.5554
 6326SOL     OW30436   3.946   0.849   4.999  0.6389 -0.5702  0.5130
 6326SOL    HW130437   3.984   0.763   4.981  0.9084 -0.7957  2.1178
 6326SOL    HW230438   3.908   0.861   4.912  0.8205 -0.6445  0.4233
 6327SOL     OW30439   0.491   4.068  13.924 -0.2168  0.3057  0.6337
 6327SOL    HW130440   0.419   4.109  13.973 -1.4210 -3.4938  2.0751
 6327SOL    HW230441   0.566   4.112  13.965 -0.7152 -0.0077  1.9061
 6328SOL     OW30442   2.975   1.519   5.926  0.0428  0.1263  0.0646
 6328SOL    HW130443   3.053   1.556   5.967  0.0822  0.4794 -0.3251
 6328SOL    HW230444   2.917   1.590   5.955 -1.3902 -0.4236 -1.4706
 6329SOL     OW30445   2.169   1.340  16.162 -0.2391 -0.0580 -0.0902
 6329SOL    HW130446   2.128   1.345  16.249 -1.2262  2.8726 -0.7157
 6329SOL    HW230447   2.178   1.435  16.152  0.4773 -0.1620 -0.4260
 6330SOL     OW30448   0.845   2.764   4.425  0.1756  0.1644 -0.0489
 6330SOL    HW130449   0.856   2.671   4.447  1.6714  0.1291 -0.9205
 6330SOL    HW230450   0.928   2.803   4.453  0.2083 -0.7398  1.1447
 6331SOL     OW30451   3.003   1.950   2.204  0.2240  0.7497  0.5188
 6331SOL    HW130452   3.020   1.910   2.289  0.9128  0.6198  0.3248
 6331SOL    HW230453   2.931   2.008   2.228 -1.6199 -0.5639 -1.8176
 6332SOL     OW30454   2.983   3.529   5.602  0.3081  0.3319 -0.1817
 6332SOL    HW130455   2.962   3.603   5.545  0.0252  1.9113  2.0007
 6332SOL    HW230456   2.937   3.549   5.684 -2.2008  2.5336 -2.1256
 6333SOL     OW30457   2.586   1.060   1.616 -0.3675 -0.2650 -0.7678
 6333SOL    HW130458   2.493   1.080   1.620 -0.0775  1.1120 -0.7575
 6333SOL    HW230459   2.586   0.991   1.549 -0.7484 -0.6461 -0.3772
 6334SOL     OW30460   3.207   3.988   5.566 -0.5463 -0.9318 -0.1557
 6334SOL    HW130461   3.162   4.072   5.564  2.2075  0.6263  3.5998
 6334SOL    HW230462   3.283   4.013   5.618 -1.5643  2.0176 -0.1333
 6335SOL     OW30463   0.390   4.426  16.956 -0.0410  0.2634  0.0328
 6335SOL    HW130464   0.309   4.406  17.004 -0.0004  0.7571  0.3150
 6335SOL    HW230465   0.369   4.414  16.864  0.5816  1.2158 -0.2291
 6336SOL     OW30466   4.659   2.856   8.684  0.1625  0.2590  0.2917
 6336SOL    HW130467   4.570   2.887   8.671 -0.2888 -0.6637  1.1644
 6336SOL    HW230468   4.667   2.826   8.775 -0.7130 -1.3521 -0.1627
 6337SOL     OW30469   0.385   2.925   5.794 -0.2463  0.5996  0.4362
 6337SOL    HW130470   0.340   2.994   5.746  1.0037 -0.1933 -1.9137
 6337SOL    HW230471   0.324   2.909   5.866  0.5710  1.6707  1.3652
 6338SOL     OW30472   2.685   3.326   2.863 -0.6026 -0.1639  0.4643
 6338SOL    HW130473   2.700   3.257   2.797  0.4644 -0.1946  0.7331
 6338SOL    HW230474   2.753   3.299   2.925 -1.0309  1.1627  1.4834
 6339SOL     OW30475   0.124   1.025   6.563 -0.0525 -0.3612  0.1522
 6339SOL    HW130476   0.102   0.965   6.634  2.4329  0.3829  1.5296
 6339SOL    HW230477   0.103   1.109   6.603 -0.5883  0.4565 -1.8097
 6340SOL     OW30478   4.627   1.892  14.519 -0.4680  0.7142 -0.2241
 6340SOL    HW130479   4.641   1.798  14.507 -0.8981  0.7091 -0.6619
 6340SOL    HW230480   0.000   1.911  14.501  0.0411  1.1125  2.6963
 6341SOL     OW30481   2.360   0.882   7.610 -0.5789  0.2741 -0.0901
 6341SOL    HW130482   2.372   0.957   7.551 -0.5718  0.9010  0.7079
 6341SOL    HW230483   2.321   0.934   7.680  2.3294  0.5848  1.2747
 6342SOL     OW30484   4.207   3.325   5.551  0.3960 -0.4529  0.0865
 6342SOL    HW130485   4.239   3.401   5.503 -1.9880  2.0818  2.4971
 6342SOL    HW230486   4.198   3.358   5.640  1.4748 -1.7375  0.6743
 6343SOL     OW30487   1.753   2.643  10.948 -0.6588  0.8966 -0.2269
 6343SOL    HW130488   1.808   2.690  11.010  0.2926  0.2137 -0.5520
 6343SOL    HW230489   1.820   2.586  10.911  0.8303  1.2996  1.8506
 6344SOL     OW30490   0.063   0.735   1.814  0.2778  0.0325  0.1403
 6344SOL    HW130491   0.017   0.819   1.809 -1.8395 -1.2607 -1.9134
 6344SOL    HW230492   0.113   0.747   1.733  2.3645 -0.9800  1.2812
 6345SOL     OW30493   3.092   4.246   7.820 -0.2275  0.1850  0.2164
 6345SOL    HW130494   3.130   4.223   7.735  0.7424  0.8993  0.4440
 6345SOL    HW230495   3.001   4.217   7.815 -0.5481  0.9507  1.6220
 6346SOL     OW30496   1.518   4.318   9.049  0.1745 -0.1952  0.7194
 6346SOL    HW130497   1.442   4.296   8.995 -0.4574  2.0830  0.6754
 6346SOL    HW230498   1.529   4.413   9.038  0.3368 -0.3203 -0.2322
 6347SOL     OW30499   2.870   1.487   8.727 -0.0997 -0.5243 -0.1380
 6347SOL    HW130500   2.829   1.431   8.661 -1.9733  2.6401 -1.6753
 6347SOL    HW230501   2.919   1.557   8.684  0.3262  0.8429  2.5683
 6348SOL     OW30502   3.570   1.150   1.111 -0.1343  1.1479 -0.2850
 6348SOL    HW130503   3.650   1.102   1.089 -1.1167 -1.2673  1.3545
 6348SOL    HW230504   3.599   1.179   1.197 -0.6464 -0.7442  0.5215
 6349SOL     OW30505   3.817   1.282  10.253  0.0711  0.1850  0.0153
 6349SOL    HW130506   3.847   1.191  10.261 -1.8376 -0.4888 -0.3815
 6349SOL    HW230507   3.799   1.312  10.342  0.2315  0.1473  0.0602
 6350SOL     OW30508   1.259   2.946   3.649 -0.6728  0.0299  0.5119
 6350SOL    HW130509   1.213   3.027   3.671  0.6225  0.8084  0.3484
 6350SOL    HW230510   1.319   2.940   3.723 -0.2646 -2.4895 -0.0277
 6351SOL     OW30511   0.009   3.966  12.885 -0.0259 -0.4937  0.4447
 6351SOL    HW130512   0.080   3.904  12.896  0.9318  0.4620 -0.3223
 6351SOL    HW230513   0.054   4.047  12.909 -0.8612  0.7423 -2.0824
 6352SOL     OW30514   3.501   0.461  16.597  0.3229  0.2010 -0.1967
 6352SOL    HW130515   3.417   0.475  16.553 -0.7933  0.7558  2.0770
 6352SOL    HW230516   3.548   0.544  16.591  1.1193 -0.2966 -0.8121
 6353SOL     OW30517   0.686   1.475   6.632  0.7165 -0.2588 -0.1504
 6353SOL    HW130518   0.681   1.399   6.573  0.1158 -1.4576  1.4434
 6353SOL    HW230519   0.649   1.439   6.712  0.8139 -1.1833 -0.5206
 6354SOL     OW30520   3.554   2.665   6.635  0.2435 -0.0504  0.3853
 6354SOL    HW130521   3.464   2.632   6.642  1.2156 -2.4615  1.5942
 6354SOL    HW230522   3.601   2.622   6.707  0.6766  0.7600  0.5923
 6355SOL     OW30523   1.125   2.405   6.405 -0.4790  0.2024 -0.8114
 6355SOL    HW130524   1.038   2.392   6.367 -1.7380 -1.3458  2.6266
 6355SOL    HW230525   1.177   2.324   6.406 -0.1644  0.4181  0.0059
 6356SOL     OW30526   3.867   3.246  11.828 -1.0246  0.7829 -0.1395
 6356SOL    HW130527   3.959   3.236  11.853 -1.6704 -1.6574  1.3486
 6356SOL    HW230528   3.845   3.156  11.805  1.3621 -0.3345  1.9660
 6357SOL     OW30529   2.711   2.577   2.120  0.2989  0.1231  0.0398
 6357SOL    HW130530   2.791   2.574   2.067  0.1370 -1.5285 -0.1414
 6357SOL    HW230531   2.657   2.635   2.067  0.3865  0.1420 -0.0303
 6358SOL     OW30532   1.986   2.183   6.925 -0.5112  0.0513  0.2648
 6358SOL    HW130533   1.939   2.138   6.855 -0.8069 -0.6434  0.9144
 6358SOL    HW230534   2.071   2.151   6.894 -0.9324 -2.3008  1.5587
 6359SOL     OW30535   3.449   3.295   4.549  0.0598  0.7233  0.1784
 6359SOL    HW130536   3.463   3.330   4.637 -1.7582 -0.9796  1.1400
 6359SOL    HW230537   3.535   3.312   4.510  0.7168 -3.5383 -0.1978
 6360SOL     OW30538   1.770   3.452   7.978  0.3361 -0.6094 -0.1820
 6360SOL    HW130539   1.808   3.431   7.892 -0.9674 -0.7247 -0.7338
 6360SOL    HW230540   1.689   3.402   7.990 -0.2925  0.8856  1.6976
 6361SOL     OW30541   1.395   0.669   3.093 -0.1898  0.2440  0.3195
 6361SOL    HW130542   1.464   0.652   3.157  0.5154  0.1685 -0.4700
 6361SOL    HW230543   1.407   0.597   3.031 -0.0150 -0.8780  1.6532
 6362SOL     OW30544   2.274   4.578   8.228 -0.1024 -0.0069  0.2341
 6362SOL    HW130545   2.229   4.556   8.309 -0.1459  0.1570  0.2552
 6362SOL    HW230546   2.359   4.538   8.248 -0.1952  0.2567  1.1387
 6363SOL     OW30547   2.898   4.038   8.940 -0.1138 -0.4667 -0.8399
 6363SOL    HW130548   2.946   3.990   9.008  0.4333  0.3280 -0.6634
 6363SOL    HW230549   2.849   4.107   8.985 -0.6007 -0.6446 -1.0928
 6364SOL     OW30550   0.141   3.064   6.201 -0.3287 -0.2314 -0.3868
 6364SOL    HW130551   0.113   3.055   6.292 -0.8613 -0.0336 -0.5329
 6364SOL    HW230552   0.113   3.153   6.177 -1.7915 -0.1408  1.6432
 6365SOL     OW30553   4.667   0.046   8.322 -0.8030 -0.9124  0.3498
 6365SOL    HW130554   4.638   4.674   8.314 -1.5127 -0.6813  0.2136
 6365SOL    HW230555   4.692   0.075   8.234 -0.5592 -1.7615  0.1412
 6366SOL     OW30556   0.249   1.970   5.448 -0.4526  0.2629  0.2682
 6366SOL    HW130557   0.165   1.925   5.440 -1.5195  2.4981 -0.9691
 6366SOL    HW230558   0.284   1.995   5.363  2.1399  0.5867  1.4203
 6367SOL     OW30559   3.515   0.262   4.446  0.8599  0.2589  0.5299
 6367SOL    HW130560   3.518   0.341   4.499  1.4186  1.1891 -0.8824
 6367SOL    HW230561   3.439   0.226   4.493 -0.0022 -0.5780 -1.4863
 6368SOL     OW30562   3.097   1.336  16.170 -0.1639 -0.2645  0.1067
 6368SOL    HW130563   3.169   1.399  16.173 -0.7672  0.5713 -4.1007
 6368SOL    HW230564   3.037   1.383  16.228  0.4450  0.8903 -0.1858
 6369SOL     OW30565   0.029   0.760   4.097 -0.2263 -0.5827  0.2524
 6369SOL    HW130566   4.677   0.700   4.123 -0.4252 -0.2056  0.5710
 6369SOL    HW230567   0.025   0.758   4.001 -0.5220  2.0237  0.2299
 6370SOL     OW30568   3.966   4.676  15.744 -0.5224 -0.2789 -0.1087
 6370SOL    HW130569   4.031   4.701  15.678  0.2283  1.9673  1.4933
 6370SOL    HW230570   3.971   4.580  15.742 -0.1691 -0.2485 -0.6058
 6371SOL     OW30571   4.574   0.709   5.014  0.1121 -0.0843 -0.2589
 6371SOL    HW130572   4.620   0.762   4.949 -0.4826  0.9226  0.1409
 6371SOL    HW230573   4.496   0.763   5.026  0.7503  0.8905 -0.5390
 6372SOL     OW30574   3.213   3.643   2.333 -0.2168  0.4472  0.5648
 6372SOL    HW130575   3.290   3.676   2.288 -1.1538  2.3162  0.3116
 6372SOL    HW230576   3.172   3.728   2.352  2.0000  1.0938  2.4829
 6373SOL     OW30577   1.492   1.479   2.379 -0.0265 -0.5098  0.3710
 6373SOL    HW130578   1.585   1.476   2.402  0.4215  1.6152 -1.1640
 6373SOL    HW230579   1.500   1.463   2.284  1.7511  0.7502  0.2991
 6374SOL     OW30580   3.800   4.548   5.255  0.1605  0.0341 -0.8250
 6374SOL    HW130581   3.852   4.471   5.231  2.1002  1.0781 -0.0562
 6374SOL    HW230582   3.846   4.564   5.337  0.0421  0.8553 -0.9190
 6375SOL     OW30583   2.135   0.295   4.529 -0.5130  0.4695  0.3192
 6375SOL    HW130584   2.146   0.208   4.567 -0.1524 -0.1611 -1.2322
 6375SOL    HW230585   2.128   0.278   4.435 -0.0460  1.0356  0.1848
 6376SOL     OW30586   2.516   3.771  15.240 -0.3006  0.3924 -0.3902
 6376SOL    HW130587   2.475   3.690  15.207  2.0908 -0.7052 -0.6410
 6376SOL    HW230588   2.469   3.792  15.321 -0.3034 -0.3789 -0.1876
 6377SOL     OW30589   3.936   1.210  13.277  0.4638  0.2225 -0.4313
 6377SOL    HW130590   3.892   1.134  13.239  1.2155 -0.7109  0.5400
 6377SOL    HW230591   3.908   1.283  13.222 -1.9207 -0.3272  0.0912
 6378SOL     OW30592   2.633   2.698  14.280  0.0193  0.1665 -0.5571
 6378SOL    HW130593   2.546   2.686  14.320  0.7280  0.1709  0.9855
 6378SOL    HW230594   2.612   2.759  14.210 -0.6044 -1.0622 -1.4347
 6379SOL     OW30595   1.254   4.518   8.084  0.0437 -0.0694 -0.2389
 6379SOL    HW130596   1.323   4.562   8.133 -0.8583 -1.6540  2.4461
 6379SOL    HW230597   1.232   4.579   8.014  1.1838 -0.1158 -0.6343
 6380SOL     OW30598   0.921   4.444  16.713  0.2203 -0.1611  0.0106
 6380SOL    HW130599   0.865   4.504  16.663  0.4848  0.5499  0.5711
 6380SOL    HW230600   0.978   4.422  16.639 -2.1023 -0.0644 -1.8269
 6381SOL     OW30601   1.445   0.295  16.129  0.4082  0.0752 -0.1716
 6381SOL    HW130602   1.412   0.378  16.094 -3.6763 -1.8758 -0.9546
 6381SOL    HW230603   1.514   0.276  16.066  1.0181  0.9501  0.2371
 6382SOL     OW30604   4.314   2.781  15.970  0.5406 -0.1414 -0.2743
 6382SOL    HW130605   4.324   2.691  15.998  1.7497  0.2408  0.5166
 6382SOL    HW230606   4.366   2.776  15.889 -0.5464 -0.3001 -0.9606
 6383SOL     OW30607   0.063   4.484   4.166  0.1621  0.2802 -0.0544
 6383SOL    HW130608   4.688   4.469   4.155 -0.2595  1.6659  1.6063
 6383SOL    HW230609   0.094   4.397   4.140  0.0703  1.0681 -2.7790
 6384SOL     OW30610   3.492   0.057   2.618 -0.0038  0.0998  0.7670
 6384SOL    HW130611   3.407   0.033   2.580 -0.0334  0.9228  0.2949
 6384SOL    HW230612   3.512   0.016   2.702 -3.4383 -1.7603  0.6634
 6385SOL     OW30613   2.786   2.295   7.073 -0.4074  0.4279  0.3464
 6385SOL    HW130614   2.839   2.370   7.046  0.6920 -0.5779 -0.3288
 6385SOL    HW230615   2.766   2.314   7.164  0.3752  1.5194  0.2932
 6386SOL     OW30616   0.154   4.355   2.747  0.4593  0.1507  0.0778
 6386SOL    HW130617   0.170   4.361   2.652  3.0488 -0.7201  0.4568
 6386SOL    HW230618   0.229   4.402   2.783  0.6523 -0.9995  1.1858
 6387SOL     OW30619   3.983   3.296  13.683 -0.7264  0.3300  0.8905
 6387SOL    HW130620   3.953   3.282  13.772  2.2516 -0.7054  1.7419
 6387SOL    HW230621   3.985   3.391  13.672  1.8228  0.1016 -0.8167
 6388SOL     OW30622   0.810   0.236   7.981 -0.3253  0.6585  0.3133
 6388SOL    HW130623   0.734   0.294   7.979 -0.4924  0.4120 -0.9781
 6388SOL    HW230624   0.804   0.199   8.069 -2.5869  0.0986 -0.0772
 6389SOL     OW30625   0.644   1.210   8.406 -0.3847 -0.3062 -0.3933
 6389SOL    HW130626   0.559   1.238   8.371  0.1105  0.0216 -1.3173
 6389SOL    HW230627   0.607   1.175   8.487 -0.8409 -1.1827 -0.9900
 6390SOL     OW30628   2.792   0.406   2.692  0.1356  0.0340 -0.0438
 6390SOL    HW130629   2.803   0.325   2.643  3.9006 -0.9919  2.5599
 6390SOL    HW230630   2.844   0.474   2.648  1.7307 -1.9670 -1.2489
 6391SOL     OW30631   1.562   3.211  14.826 -0.0288  0.1463 -0.3285
 6391SOL    HW130632   1.652   3.205  14.793  0.7268 -0.5247  1.9050
 6391SOL    HW230633   1.513   3.200  14.744  0.6445 -2.4018 -0.3850
 6392SOL     OW30634   1.888   1.204  16.567  0.1834 -0.0771 -1.2383
 6392SOL    HW130635   1.796   1.225  16.585 -0.3914 -2.1584 -1.7513
 6392SOL    HW230636   1.891   1.110  16.585 -2.1865  0.1904  0.4553
 6393SOL     OW30637   4.438   4.475  16.358 -0.0051 -0.3290  0.0900
 6393SOL    HW130638   4.419   4.536  16.430 -2.7137  0.7210 -1.5102
 6393SOL    HW230639   4.367   4.495  16.298  1.6518  2.0958 -1.0471
 6394SOL     OW30640   4.291   4.313   8.145 -0.3567  0.0832  0.2950
 6394SOL    HW130641   4.344   4.270   8.078  1.2503  0.1843  1.4863
 6394SOL    HW230642   4.303   4.242   8.208  0.7062 -1.9337 -2.1826
 6395SOL     OW30643   3.703   3.874   2.328  0.0359 -0.1276 -0.1729
 6395SOL    HW130644   3.762   3.855   2.254  0.0914  0.6512 -0.3287
 6395SOL    HW230645   3.725   3.967   2.327 -0.9926  0.1021 -1.8697
 6396SOL     OW30646   1.275   3.746  10.013 -0.1475 -0.5373  0.0336
 6396SOL    HW130647   1.197   3.748  10.068  0.8199  1.2929  1.3401
 6396SOL    HW230648   1.238   3.754   9.925  2.1941 -2.9699 -1.1725
 6397SOL     OW30649   1.302   0.329   8.038  0.5575 -0.7261  0.0245
 6397SOL    HW130650   1.257   0.389   8.097 -0.7878 -0.3305 -1.4256
 6397SOL    HW230651   1.390   0.343   8.074  0.3287  0.0049  0.3073
 6398SOL     OW30652   0.237   3.456   3.056  0.2314  0.3305 -0.1959
 6398SOL    HW130653   0.295   3.513   3.006  0.5394 -1.1902 -1.5537
 6398SOL    HW230654   0.152   3.462   3.012  0.8924  0.3784 -1.4441
 6399SOL     OW30655   0.615   0.673  11.428  0.0329 -0.5544  0.1057
 6399SOL    HW130656   0.613   0.736  11.356 -0.8254 -2.4611 -1.5340
 6399SOL    HW230657   0.535   0.620  11.434  0.3567 -0.9734  0.7908
 6400SOL     OW30658   2.056   0.730   0.145 -0.0582  0.4235  0.0168
 6400SOL    HW130659   2.048   0.710   0.051 -0.8844 -1.0059  0.3943
 6400SOL    HW230660   2.142   0.770   0.158 -0.9351  2.7128 -1.1094
 6401SOL     OW30661   0.869   2.237   3.121  0.2010 -0.3709 -0.1826
 6401SOL    HW130662   0.869   2.269   3.031 -0.7914  0.9381  0.2740
 6401SOL    HW230663   0.793   2.288   3.150  0.0130 -0.0984 -1.1505
 6402SOL     OW30664   0.452   1.495  15.546 -0.7677 -0.0922  0.2410
 6402SOL    HW130665   0.422   1.576  15.587  0.7128  1.7189 -2.2654
 6402SOL    HW230666   0.521   1.480  15.611  0.8211  0.2932 -1.3569
 6403SOL     OW30667   3.424   2.428   1.141 -0.3712  0.1705  0.1933
 6403SOL    HW130668   3.410   2.436   1.047 -0.1868  1.3703  0.2595
 6403SOL    HW230669   3.483   2.502   1.160  1.0806  0.2536 -4.8100
 6404SOL     OW30670   3.379   4.207   3.801 -0.2493  0.2988 -0.0453
 6404SOL    HW130671   3.363   4.252   3.885 -0.0684  0.0257  0.1350
 6404SOL    HW230672   3.287   4.201   3.774 -0.7477  0.2297  1.5976
 6405SOL     OW30673   2.416   0.088   2.043 -0.3853  0.3631 -0.3374
 6405SOL    HW130674   2.367   0.125   2.116 -1.3622 -1.0137 -0.2815
 6405SOL    HW230675   2.369   0.005   2.031  0.2078 -0.2712  1.7690
 6406SOL     OW30676   1.171   1.118  14.211 -0.5694 -0.0763  0.3553
 6406SOL    HW130677   1.148   1.081  14.125 -2.5579  0.8468  0.4875
 6406SOL    HW230678   1.175   1.038  14.262 -0.1641 -0.3133 -0.0468
 6407SOL     OW30679   2.951   4.431  11.061  0.1928 -0.0211  0.2096
 6407SOL    HW130680   2.970   4.466  10.974 -2.8113  0.6544 -0.1492
 6407SOL    HW230681   2.858   4.412  11.055  0.2155  0.6380 -2.2460
 6408SOL     OW30682   1.665   0.675   1.967 -0.2618 -0.7452  0.3759
 6408SOL    HW130683   1.728   0.624   2.018  1.5320 -0.3130 -1.4132
 6408SOL    HW230684   1.709   0.688   1.883  0.2930 -1.1222  0.5993
 6409SOL     OW30685   0.916   2.775   7.727  0.8910 -0.2109 -0.1149
 6409SOL    HW130686   0.879   2.692   7.756  0.7936 -0.4654 -0.9572
 6409SOL    HW230687   0.999   2.752   7.685  1.1797 -0.4874  0.6278
 6410SOL     OW30688   1.022   2.713  15.700  0.1483  0.0795 -0.3823
 6410SOL    HW130689   1.056   2.630  15.733  0.3108 -0.1224 -1.0504
 6410SOL    HW230690   1.002   2.701  15.607 -0.9720  0.2284 -0.1527
 6411SOL     OW30691   0.474   1.535   5.703 -0.5587  0.0198  0.2707
 6411SOL    HW130692   0.428   1.527   5.619  1.7224 -0.0638 -0.9746
 6411SOL    HW230693   0.496   1.628   5.690 -0.5236 -0.2015 -1.2825
 6412SOL     OW30694   2.949   1.462   6.764  0.4107  0.0589 -0.4467
 6412SOL    HW130695   2.854   1.468   6.759  0.2630 -1.9795  0.0376
 6412SOL    HW230696   2.976   1.547   6.800  3.1510 -1.1994  0.4277
 6413SOL     OW30697   0.875   0.772   8.347 -0.2130  0.1897 -0.4488
 6413SOL    HW130698   0.805   0.835   8.328  0.2133  0.5330 -0.8766
 6413SOL    HW230699   0.916   0.808   8.425  1.2542 -2.6245  0.0428
 6414SOL     OW30700   1.374   3.582   6.862  0.4869 -0.9747  0.8799
 6414SOL    HW130701   1.372   3.653   6.798 -0.9173 -1.8844 -0.0965
 6414SOL    HW230702   1.281   3.564   6.880  0.2575  0.5839  1.2557
 6415SOL     OW30703   1.197   0.279   8.767  0.0905  0.1535  0.4981
 6415SOL    HW130704   1.174   0.220   8.839  0.1939  1.0682  1.2760
 6415SOL    HW230705   1.214   0.359   8.816  1.5334 -1.5527  2.8413
 6416SOL     OW30706   0.265   0.774   6.649 -0.2768  0.0831  0.1202
 6416SOL    HW130707   0.255   0.811   6.561 -0.6775  0.1563  0.1981
 6416SOL    HW230708   0.199   0.815   6.704 -0.8705  0.4420 -0.8625
 6417SOL     OW30709   0.640   1.396   8.092 -0.2226 -0.0259 -0.2161
 6417SOL    HW130710   0.559   1.381   8.141 -0.2644  2.0818  0.3773
 6417SOL    HW230711   0.688   1.317   8.116  1.6876  0.8975 -1.0090
 6418SOL     OW30712   1.624   1.593   4.070  0.1647 -0.4763 -0.4783
 6418SOL    HW130713   1.572   1.600   4.149  0.0610  2.5072 -0.8091
 6418SOL    HW230714   1.708   1.618   4.108 -1.3739  0.4075  2.3189
 6419SOL     OW30715   4.464   2.225   7.640 -0.0356 -0.2659  0.1111
 6419SOL    HW130716   4.503   2.146   7.604 -2.4577 -1.3707 -0.1150
 6419SOL    HW230717   4.478   2.295   7.577 -1.0043  0.0615  0.2520
 6420SOL     OW30718   0.532   0.228   4.262 -0.5902 -0.1828  0.1894
 6420SOL    HW130719   0.528   0.186   4.348 -2.3302  1.8221  1.0930
 6420SOL    HW230720   0.508   0.319   4.274 -1.9451 -0.4439 -0.5297
 6421SOL     OW30721   0.443   2.001  11.129  0.3325  0.4454 -0.3816
 6421SOL    HW130722   0.394   1.927  11.165  1.1782  0.7637  1.3843
 6421SOL    HW230723   0.422   2.075  11.186 -1.1040  0.4952 -0.9711
 6422SOL     OW30724   2.935   1.036   5.230 -0.1897  0.1903  0.4961
 6422SOL    HW130725   2.885   1.074   5.158 -0.5630 -0.7406  0.2635
 6422SOL    HW230726   2.940   1.108   5.293 -1.5223  0.6540  0.0670
 6423SOL     OW30727   2.884   3.794   6.534  0.5214  0.0017 -0.8957
 6423SOL    HW130728   2.878   3.739   6.612 -1.4054 -0.3348 -1.2790
 6423SOL    HW230729   2.953   3.754   6.482  0.8434 -0.4644 -0.1122
 6424SOL     OW30730   1.530   1.243   4.262 -0.6068 -0.2376 -0.1917
 6424SOL    HW130731   1.620   1.212   4.265  0.2000  2.0211 -0.7267
 6424SOL    HW230732   1.515   1.264   4.170  0.7372 -0.1915 -0.3962
 6425SOL     OW30733   2.466   2.802   2.778  0.1428  0.9119  0.3206
 6425SOL    HW130734   2.549   2.841   2.807  1.7305 -3.0031  0.9775
 6425SOL    HW230735   2.498   2.751   2.703  1.5484  2.3564 -0.0692
 6426SOL     OW30736   3.912   0.282   1.932  0.0377  0.1779 -0.0323
 6426SOL    HW130737   3.856   0.205   1.924  1.8131 -0.6729 -4.2413
 6426SOL    HW230738   4.005   0.261   1.921 -1.0149 -2.8246 -2.8965
 6427SOL     OW30739   4.039   1.615   4.299  0.3616 -0.0185  0.9009
 6427SOL    HW130740   4.122   1.576   4.327  1.4672  0.9473 -1.0345
 6427SOL    HW230741   4.003   1.535   4.262 -0.1150  0.9236 -0.6471
 6428SOL     OW30742   2.735   2.476   6.356  0.9366  0.4483  0.1200
 6428SOL    HW130743   2.713   2.427   6.277 -0.2441 -1.6428  1.7171
 6428SOL    HW230744   2.738   2.566   6.323 -2.9295  0.6400  0.3227
 6429SOL     OW30745   1.500   0.453   8.729 -0.4989 -0.0296  0.1307
 6429SOL    HW130746   1.412   0.417   8.737 -0.8090  0.6082 -0.4103
 6429SOL    HW230747   1.496   0.494   8.642  0.5347 -0.9044 -0.3345
 6430SOL     OW30748   4.642   2.837   9.477  0.0866  0.3129  0.1375
 6430SOL    HW130749   4.616   2.833   9.568 -0.4569 -1.5005 -0.0903
 6430SOL    HW230750   4.703   2.911   9.474  2.3458 -1.4426  2.1254
 6431SOL     OW30751   3.427   2.939   7.113 -0.2569  0.2282  0.4943
 6431SOL    HW130752   3.451   2.936   7.206  1.6636  2.3669  0.0728
 6431SOL    HW230753   3.340   2.978   7.106 -0.5027 -0.5444 -0.7422
 6432SOL     OW30754   4.713   3.117   6.806 -0.3754 -1.0132  0.4081
 6432SOL    HW130755   4.625   3.149   6.785  0.5495  1.4156  0.2902
 6432SOL    HW230756   4.714   3.136   6.900  0.0585  1.4387 -0.0891
 6433SOL     OW30757   1.581   4.550  15.260  0.9174 -0.1025 -0.1004
 6433SOL    HW130758   1.630   4.468  15.264  1.1022 -0.1121 -2.4275
 6433SOL    HW230759   1.542   4.533  15.174  1.6242 -2.7324  0.0704
 6434SOL     OW30760   3.398   2.237   8.833 -0.2453  0.2933 -0.2542
 6434SOL    HW130761   3.372   2.254   8.923 -2.8237  1.4671 -1.2248
 6434SOL    HW230762   3.428   2.146   8.836 -0.4339  0.2495  0.2654
 6435SOL     OW30763   2.130   2.573   6.641  0.1849  0.0620  0.1000
 6435SOL    HW130764   2.157   2.497   6.590 -0.0713 -0.4042  0.6682
 6435SOL    HW230765   2.046   2.542   6.675 -0.7373  0.9501 -1.3692
 6436SOL     OW30766   0.164   0.473   3.927  0.3819  0.6157  0.4143
 6436SOL    HW130767   0.146   0.453   4.019  0.9833  0.0531  0.4056
 6436SOL    HW230768   0.191   0.387   3.894 -2.0573 -0.2864  0.8386
 6437SOL     OW30769   4.578   2.714   5.353 -0.0729 -0.5241  0.0021
 6437SOL    HW130770   4.658   2.763   5.333 -1.8154  1.7900 -1.3118
 6437SOL    HW230771   4.593   2.653   5.425  1.6065  1.8443  1.6432
 6438SOL     OW30772   3.342   4.329   8.035  0.0151  0.0243 -0.3461
 6438SOL    HW130773   3.328   4.421   8.053 -0.5220 -0.1829  0.3071
 6438SOL    HW230774   3.329   4.292   8.123 -1.7112  1.4405 -0.0017
 6439SOL     OW30775   2.952   2.373  12.382 -0.1176 -0.4999  0.4932
 6439SOL    HW130776   2.918   2.312  12.317  2.9020 -2.1472  0.4473
 6439SOL    HW230777   2.890   2.358  12.452 -0.8238 -1.2278 -0.2874
 6440SOL     OW30778   2.654   1.856   3.061 -0.1662  0.0626 -0.2873
 6440SOL    HW130779   2.729   1.901   3.021  0.2343 -0.9521 -0.7008
 6440SOL    HW230780   2.599   1.929   3.088  0.1494  0.4056 -0.5877
 6441SOL     OW30781   1.928   2.179  15.666  0.5449 -0.6109  0.1298
 6441SOL    HW130782   1.846   2.188  15.618  0.4939 -1.5581  0.0488
 6441SOL    HW230783   1.891   2.178  15.755  1.8995 -1.4951  0.6817
 6442SOL     OW30784   0.439   4.648   2.514  0.1369  0.2550 -0.0233
 6442SOL    HW130785   0.457   4.587   2.585 -0.7738  0.7249  0.6024
 6442SOL    HW230786   0.353   4.630   2.476 -0.5123 -1.6345  2.3548
 6443SOL     OW30787   3.461   3.321  17.255 -0.1687  0.5483  0.5987
 6443SOL    HW130788   3.555   3.338  17.258 -0.1250  0.5335 -0.4053
 6443SOL    HW230789   3.459   3.231  17.289  2.3442  1.6049  3.4630
 6444SOL     OW30790   2.839   0.123  13.950  0.0840  0.4263 -0.0503
 6444SOL    HW130791   2.836   0.045  13.895 -1.8780 -0.4103  1.2257
 6444SOL    HW230792   2.892   0.183  13.898  1.4923 -0.4831  0.3457
 6445SOL     OW30793   3.204   0.312   8.212  0.2123 -0.6497 -0.9167
 6445SOL    HW130794   3.296   0.310   8.236  0.4183  0.4746 -1.6065
 6445SOL    HW230795   3.162   0.283   8.293  2.3732  2.4144  1.3158
 6446SOL     OW30796   2.308   2.286   2.668  0.2304  0.1167 -0.1667
 6446SOL    HW130797   2.370   2.290   2.596  1.0823  0.2803  0.5787
 6446SOL    HW230798   2.352   2.316   2.748 -0.0142 -0.7772  0.3055
 6447SOL     OW30799   4.695   3.909   2.121  0.1800  0.5867  0.4020
 6447SOL    HW130800   4.632   3.878   2.055  0.1264  2.7990 -0.5671
 6447SOL    HW230801   0.055   3.909   2.068  0.1868 -2.0402  0.3746
 6448SOL     OW30802   0.782   2.546  15.996  0.2027 -0.5466  0.1836
 6448SOL    HW130803   0.791   2.475  15.932  1.6957  2.6136 -3.1245
 6448SOL    HW230804   0.761   2.491  16.071 -0.3452 -1.7717 -0.8573
 6449SOL     OW30805   2.400   0.089  11.941 -0.4831 -0.1404 -0.1584
 6449SOL    HW130806   2.396   0.101  11.846 -2.2239  2.9050  0.2807
 6449SOL    HW230807   2.457   0.013  11.950 -0.1628  0.2598  1.1074
 6450SOL     OW30808   3.036   0.476  11.801  0.5591 -0.6193  0.1512
 6450SOL    HW130809   3.003   0.509  11.884 -0.0024  0.1018 -0.3525
 6450SOL    HW230810   2.978   0.521  11.740 -1.9711 -1.2051  2.1358
 6451SOL     OW30811   3.696   4.612   6.416  0.0640 -0.2212  0.1412
 6451SOL    HW130812   3.681   4.645   6.328 -1.9693 -0.3369  0.4609
 6451SOL    HW230813   3.791   4.618   6.424  0.3016 -4.4987  0.9051
 6452SOL     OW30814   3.736   0.102   2.519  0.8832  0.5705 -0.1840
 6452SOL    HW130815   3.655   0.097   2.569  1.6174 -1.1531  0.8269
 6452SOL    HW230816   3.788   0.053   2.582  2.4487  1.5723 -0.6967
 6453SOL     OW30817   0.505   4.210  10.211  0.1213  0.0142 -0.2108
 6453SOL    HW130818   0.440   4.262  10.164 -1.2454 -2.4963 -1.0753
 6453SOL    HW230819   0.457   4.127  10.214 -0.0858  0.1528  0.3164
 6454SOL     OW30820   1.473   1.404   8.747  0.0474  0.4637 -0.5208
 6454SOL    HW130821   1.528   1.339   8.702 -0.2274 -1.4459  1.9117
 6454SOL    HW230822   1.399   1.355   8.781 -0.3688  2.0774  0.8622
 6455SOL     OW30823   2.229   4.384   6.363 -0.2765  0.1359  0.2632
 6455SOL    HW130824   2.167   4.407   6.294  0.0064 -1.0270 -0.3846
 6455SOL    HW230825   2.262   4.466   6.400 -1.7954  0.9225 -0.1168
 6456SOL     OW30826   3.311   2.877   2.505  0.3528  0.3920  0.0360
 6456SOL    HW130827   3.332   2.956   2.456 -0.3306  1.2067  1.0561
 6456SOL    HW230828   3.261   2.911   2.580 -0.8806  0.3596 -0.7697
 6457SOL     OW30829   3.253   0.173   4.547  0.6819  0.4878 -0.0958
 6457SOL    HW130830   3.164   0.159   4.515  0.8030  1.1565 -0.7175
 6457SOL    HW230831   3.279   0.082   4.559  1.9989  0.5396 -2.6669
 6458SOL     OW30832   3.266   4.108  17.274 -0.1928 -0.4955  0.1143
 6458SOL    HW130833   3.248   4.176  17.208  1.2367  1.0058  1.2946
 6458SOL    HW230834   3.180   4.067  17.261 -0.3180 -0.6304  1.4352
 6459SOL     OW30835   3.970   2.609  17.651 -0.1241 -0.5658 -0.1694
 6459SOL    HW130836   3.927   2.567   0.047  2.7850 -1.5806  0.9453
 6459SOL    HW230837   4.025   2.537  17.619  0.4853  0.3817 -1.2438
 6460SOL     OW30838   4.395   4.312   6.973  0.5613  0.6283  0.5812
 6460SOL    HW130839   4.458   4.334   7.043  1.9242 -0.5458 -0.2853
 6460SOL    HW230840   4.394   4.217   6.976 -0.4361  0.6137 -0.4359
 6461SOL     OW30841   1.217   0.209   2.438  0.0106 -0.0414 -0.5805
 6461SOL    HW130842   1.176   0.293   2.459 -0.8741 -0.6180  0.0231
 6461SOL    HW230843   1.301   0.244   2.409 -0.7215  1.2393 -1.1036
 6462SOL     OW30844   1.015   4.588   9.341 -0.5801  0.2457  0.4866
 6462SOL    HW130845   0.992   4.677   9.366  0.0643  1.2320 -2.5173
 6462SOL    HW230846   0.935   4.560   9.296 -1.9117  4.2284  0.3699
 6463SOL     OW30847   0.196   1.837   8.505 -0.0582 -0.5251  0.6152
 6463SOL    HW130848   0.188   1.858   8.598 -0.3539  2.9954 -0.1870
 6463SOL    HW230849   0.175   1.744   8.507  0.6450 -0.7528 -2.8028
 6464SOL     OW30850   3.769   2.728   4.158  0.5052  0.1498  0.0810
 6464SOL    HW130851   3.810   2.734   4.244  2.1867  0.6358 -0.7521
 6464SOL    HW230852   3.692   2.781   4.178  0.0393 -0.8880  1.0097
 6465SOL     OW30853   1.134   2.925   9.892  0.0450  0.5424  0.0178
 6465SOL    HW130854   1.217   2.935   9.845 -0.6243  1.0223 -1.0535
 6465SOL    HW230855   1.119   2.835   9.863 -2.1491  0.7557  0.5087
 6466SOL     OW30856   4.103   1.365   8.075 -0.2388  0.0501 -0.0440
 6466SOL    HW130857   4.030   1.303   8.072  0.5226 -0.8161 -1.1535
 6466SOL    HW230858   4.070   1.439   8.024 -0.1418  0.1382  0.0218
 6467SOL     OW30859   2.795   0.759   5.550  0.0440 -0.1474  0.1823
 6467SOL    HW130860   2.808   0.668   5.574 -1.2756 -0.6037 -0.8326
 6467SOL    HW230861   2.702   0.753   5.529  0.7006  2.5305 -3.3243
 6468SOL     OW30862   1.609   0.333  10.011  0.2722  0.0480  0.4083
 6468SOL    HW130863   1.595   0.383  10.091 -1.1859 -3.8300  2.5875
 6468SOL    HW230864   1.637   0.400   9.948  0.0112  0.7425  1.0269
 6469SOL     OW30865   0.238   3.384   7.148 -0.3463 -0.2302 -0.0800
 6469SOL    HW130866   0.267   3.466   7.187 -1.6046 -0.0599  0.4845
 6469SOL    HW230867   0.241   3.317   7.216 -0.2199  2.1585  2.2532
 6470SOL     OW30868   0.975   4.391  17.308 -0.5134 -0.2116  0.1199
 6470SOL    HW130869   0.943   4.324  17.369 -0.6799  0.8416  1.1841
 6470SOL    HW230870   0.941   4.364  17.222 -1.1916 -1.4640  0.7753
 6471SOL     OW30871   4.285   2.016   2.606  0.4593  0.1744 -0.0949
 6471SOL    HW130872   4.350   1.979   2.547  1.6593 -0.4007  1.6111
 6471SOL    HW230873   4.289   2.101   2.563 -1.7331  0.3883  0.0811
 6472SOL     OW30874   3.627   1.122   4.796  0.7223 -0.5776 -0.3716
 6472SOL    HW130875   3.623   1.191   4.863  2.1277  0.0883 -0.9694
 6472SOL    HW230876   3.541   1.142   4.759  1.1138  0.3174 -0.7923
 6473SOL     OW30877   1.134   0.335   1.802  0.2123 -0.2252  0.0139
 6473SOL    HW130878   1.054   0.383   1.822 -0.2134 -0.8654 -0.1430
 6473SOL    HW230879   1.142   0.268   1.871  0.0811 -0.0013  0.2488
 6474SOL     OW30880   3.604   0.155   6.548  0.0622 -0.1429 -0.2493
 6474SOL    HW130881   3.584   0.061   6.549  0.4583 -0.2496 -1.8487
 6474SOL    HW230882   3.688   0.170   6.504  0.0640 -0.1552 -0.2501
 6475SOL     OW30883   3.818   3.025   6.243 -0.3415 -0.2549  0.1569
 6475SOL    HW130884   3.795   3.097   6.302 -0.9424  0.4423 -0.9110
 6475SOL    HW230885   3.912   3.033   6.228 -0.6161  1.3759 -0.8234
 6476SOL     OW30886   2.010   3.999  15.939  0.8546  0.2147  0.0642
 6476SOL    HW130887   2.061   4.062  15.889  0.5163  0.5881  0.1904
 6476SOL    HW230888   2.070   3.924  15.942 -0.5691 -0.9249  0.1613
 6477SOL     OW30889   0.434   1.266  16.887  0.0858 -0.7816 -0.5217
 6477SOL    HW130890   0.496   1.292  16.819  0.6806 -1.2382 -0.1483
 6477SOL    HW230891   0.479   1.205  16.945  0.2552  0.7644  0.9661
 6478SOL     OW30892   1.571   4.287   3.216  0.4160 -0.0142  0.1800
 6478SOL    HW130893   1.610   4.243   3.141 -0.7792 -0.8151  0.0285
 6478SOL    HW230894   1.631   4.260   3.285  1.1947  0.9178 -0.1230
 6479SOL     OW30895   3.949   1.800   4.123 -0.2076  0.1650  0.6948
 6479SOL    HW130896   3.972   1.736   4.190 -3.3538 -0.1560  1.4677
 6479SOL    HW230897   4.012   1.869   4.145  0.6723 -0.1627 -0.8118
 6480SOL     OW30898   1.590   1.418  17.006  0.3998 -0.1619  0.2150
 6480SOL    HW130899   1.635   1.382  17.082  2.2781  0.4389 -0.6102
 6480SOL    HW230900   1.578   1.509  17.032 -1.7814  0.1880 -1.9896
 6481SOL     OW30901   1.366   0.007   7.150 -0.2865  0.4855 -0.0404
 6481SOL    HW130902   1.319   0.050   7.078 -1.4202 -0.4929  0.1108
 6481SOL    HW230903   1.358   0.081   7.211  0.2179  0.5688 -0.0751
 6482SOL     OW30904   1.326   1.305  17.646 -0.2465  0.1024  0.4414
 6482SOL    HW130905   1.376   1.275  17.571  0.3888  2.2766 -0.0071
 6482SOL    HW230906   1.322   1.400  17.629  1.8156 -0.1484 -1.3273
 6483SOL     OW30907   4.104   1.364   6.850  0.1970 -0.4555  0.2609
 6483SOL    HW130908   4.096   1.441   6.793  0.3581 -0.8087 -0.2421
 6483SOL    HW230909   4.111   1.407   6.935  0.8559  0.0722 -0.0597
 6484SOL     OW30910   1.900   2.616   4.538 -0.4100  0.1514 -0.0007
 6484SOL    HW130911   1.848   2.582   4.466 -0.7962 -1.0090  0.8328
 6484SOL    HW230912   1.822   2.625   4.592 -0.3998  4.0579 -0.5795
 6485SOL     OW30913   1.688   2.545   9.844  0.3994 -0.1373 -0.2504
 6485SOL    HW130914   1.611   2.493   9.820  2.1000 -2.0206 -1.6012
 6485SOL    HW230915   1.654   2.624   9.884  1.3709 -0.2740  0.8598
 6486SOL     OW30916   3.912   0.093   2.270  0.1271 -0.3694 -0.4419
 6486SOL    HW130917   3.843   0.100   2.203 -0.5938  0.5848  0.4028
 6486SOL    HW230918   3.856   0.091   2.348 -0.1017 -3.6632 -0.6886
 6487SOL     OW30919   1.192   4.209  16.734  0.1527  0.0972  0.0322
 6487SOL    HW130920   1.099   4.213  16.714  0.1538  1.2301  0.2301
 6487SOL    HW230921   1.194   4.162  16.817  0.2273  0.3349  0.1647
 6488SOL     OW30922   0.713   3.642  12.219  0.0094 -0.0621  0.0273
 6488SOL    HW130923   0.660   3.591  12.281 -1.3692  3.3655  1.6351
 6488SOL    HW230924   0.699   3.728  12.258 -0.3618  0.3702 -1.0566
 6489SOL     OW30925   4.088   4.066   6.680 -0.4751 -0.3444 -0.0539
 6489SOL    HW130926   4.159   4.001   6.686  0.1533  0.3565  0.0933
 6489SOL    HW230927   4.047   4.055   6.766 -2.3025 -4.2279 -1.4341
 6490SOL     OW30928   4.536   2.030   7.450 -0.6467  0.0391 -0.0543
 6490SOL    HW130929   4.629   2.015   7.438 -0.4056  0.7613  0.8790
 6490SOL    HW230930   4.514   2.052   7.360  2.0391  1.3373 -0.3926
 6491SOL     OW30931   4.346   0.556   2.686  0.3895 -0.2893 -0.1355
 6491SOL    HW130932   4.254   0.558   2.710  0.8028 -0.9007  1.5275
 6491SOL    HW230933   4.341   0.471   2.643 -0.0897  0.3623 -1.3539
 6492SOL     OW30934   3.099   2.680   2.208  0.2084 -0.2253  0.0292
 6492SOL    HW130935   3.026   2.644   2.257 -0.5419 -0.8185 -1.5308
 6492SOL    HW230936   3.044   2.707   2.135  0.3933 -1.3625 -0.5332
 6493SOL     OW30937   2.374   0.415  14.263  0.5579 -0.0725 -0.7263
 6493SOL    HW130938   2.398   0.504  14.290  0.7498 -0.8296  1.6263
 6493SOL    HW230939   2.329   0.435  14.181  0.0065 -0.1610 -0.4434
 6494SOL     OW30940   0.290   2.594   1.077  0.7503  0.2619  0.4285
 6494SOL    HW130941   0.378   2.599   1.114 -0.2057  0.4112  2.6654
 6494SOL    HW230942   0.312   2.552   0.994 -0.8491 -0.8779  0.5753
 6495SOL     OW30943   4.324   1.246  15.020  0.4977  0.1859 -0.5323
 6495SOL    HW130944   4.242   1.231  14.972  0.6850 -0.7948 -0.5580
 6495SOL    HW230945   4.306   1.324  15.071 -1.8785 -1.0942  0.6295
 6496SOL     OW30946   1.399   1.934   0.585 -0.1825 -0.0809  0.0862
 6496SOL    HW130947   1.412   2.025   0.557  0.9551 -0.3022 -0.1261
 6496SOL    HW230948   1.304   1.938   0.594 -0.0595  1.3221  0.9117
 6497SOL     OW30949   1.663   2.508   8.859  0.0216  0.0813  0.0112
 6497SOL    HW130950   1.609   2.506   8.780 -0.1220 -3.2723  0.1620
 6497SOL    HW230951   1.677   2.602   8.862 -0.4447  0.2135 -1.9049
 6498SOL     OW30952   3.549   3.412   7.059 -0.1338 -0.7157  0.2202
 6498SOL    HW130953   3.559   3.372   7.145  1.2973  0.1251  0.4464
 6498SOL    HW230954   3.481   3.362   7.014  0.0235 -0.1340 -0.6633
 6499SOL     OW30955   0.967   2.279  12.623  0.1263 -0.2054  0.3879
 6499SOL    HW130956   0.919   2.227  12.557 -0.3305  1.4635 -0.5906
 6499SOL    HW230957   1.050   2.232  12.626 -0.8759 -1.8663  2.3898
 6500SOL     OW30958   3.623   0.812   1.296  0.4623  0.2123  0.6249
 6500SOL    HW130959   3.549   0.799   1.237  0.3797 -0.4558  0.8683
 6500SOL    HW230960   3.681   0.856   1.234 -1.4401 -0.0832 -1.3728
 6501SOL     OW30961   4.624   2.538   5.561 -0.0633 -0.0214  0.1498
 6501SOL    HW130962   4.683   2.464   5.546  0.5095  0.6725 -0.9917
 6501SOL    HW230963   4.608   2.534   5.655  0.9028 -0.9124  0.2800
 6502SOL     OW30964   3.324   1.010   4.911  0.0226  0.2013 -0.2500
 6502SOL    HW130965   3.315   1.043   4.822  1.4990  1.7039  0.1556
 6502SOL    HW230966   3.282   1.071   4.973  1.5199  0.8784  0.1010
 6503SOL     OW30967   0.037   3.488   6.461  0.0211 -0.5094 -0.5598
 6503SOL    HW130968   0.064   3.555   6.523 -1.0277  0.2122 -0.8859
 6503SOL    HW230969   0.107   3.423   6.473  2.9055  2.9416  1.3591
 6504SOL     OW30970   3.058   1.650  11.715  0.0587  0.0602  0.2921
 6504SOL    HW130971   3.115   1.594  11.768 -0.1757  1.0189  1.5469
 6504SOL    HW230972   2.979   1.650  11.768 -0.9842 -3.3273 -1.2726
 6505SOL     OW30973   2.479   0.026   0.075 -0.4154  0.5824 -0.0290
 6505SOL    HW130974   2.431   4.685   0.132  1.1273  0.0838  0.7603
 6505SOL    HW230975   2.501   0.103   0.128  0.2262  1.1818 -1.1656
 6506SOL     OW30976   0.888   3.878   3.054  0.3919  0.2980  0.3248
 6506SOL    HW130977   0.899   3.799   3.001  0.3541  1.6537 -1.7143
 6506SOL    HW230978   0.802   3.875   3.095  0.6178 -0.9278  0.7390
 6507SOL     OW30979   0.591   1.083  15.306  0.5106  0.4163 -0.2843
 6507SOL    HW130980   0.635   0.998  15.311  0.5489  0.4485 -0.0636
 6507SOL    HW230981   0.630   1.135  15.376 -1.4416  1.5104 -0.0216
 6508SOL     OW30982   2.204   3.685   5.911 -0.0378 -0.3202 -0.3773
 6508SOL    HW130983   2.255   3.624   5.964  0.7235  1.4952  0.9789
 6508SOL    HW230984   2.269   3.742   5.868  0.0672  0.0772  0.3080
 6509SOL     OW30985   4.704   1.599  10.477 -0.6437  0.0534  0.1679
 6509SOL    HW130986   4.651   1.519  10.479 -1.3724  0.5191 -0.5982
 6509SOL    HW230987   4.665   1.651  10.547 -0.6441  3.1437 -2.1235
 6510SOL     OW30988   3.238   2.570  15.057  0.1620 -0.9401 -0.3991
 6510SOL    HW130989   3.280   2.641  15.009 -1.9677 -0.1191 -1.0169
 6510SOL    HW230990   3.268   2.493  15.009 -0.2511 -1.2204 -0.2068
 6511SOL     OW30991   3.956   4.154  16.631 -0.1892  0.6814  0.2280
 6511SOL    HW130992   3.970   4.095  16.557 -0.7430  0.3535  0.3879
 6511SOL    HW230993   3.971   4.093  16.702  0.1142  0.0077 -0.4108
 6512SOL     OW30994   2.407   1.049   6.809 -0.4533  0.0585  0.0870
 6512SOL    HW130995   2.349   1.062   6.734 -0.5800  2.2677  0.5783
 6512SOL    HW230996   2.438   0.960   6.791  1.5255  0.3760  1.9288
 6513SOL     OW30997   2.430   3.345   9.165  0.4083 -0.3269  0.6176
 6513SOL    HW130998   2.461   3.257   9.142  0.4892 -0.5986  1.7518
 6513SOL    HW230999   2.377   3.331   9.243 -1.7469 -1.7296 -1.0893
 6514SOL     OW31000   2.359   2.867   4.551 -0.5110 -0.0308  0.4319
 6514SOL    HW131001   2.321   2.779   4.545 -0.4572 -0.0245 -0.0454
 6514SOL    HW231002   2.320   2.897   4.633 -2.3464 -0.6808 -0.2086
 6515SOL     OW31003   3.497   2.625   5.291 -0.6251 -0.1228 -0.2569
 6515SOL    HW131004   3.413   2.649   5.251  0.1306  0.7340 -1.3606
 6515SOL    HW231005   3.559   2.677   5.238 -2.3649 -0.4558 -2.6381
 6516SOL     OW31006   4.278   4.174   6.483  0.2577 -0.4045 -0.0176
 6516SOL    HW131007   4.223   4.163   6.561 -2.3807 -1.7167 -2.0404
 6516SOL    HW231008   4.363   4.137   6.508  1.3002  1.4054 -0.9196
 6517SOL     OW31009   1.508   4.428   7.862  0.7799  0.6666 -0.4958
 6517SOL    HW131010   1.504   4.521   7.882  0.1305  0.7106 -0.8217
 6517SOL    HW231011   1.562   4.404   7.937  2.2271  2.6054 -0.9152
 6518SOL     OW31012   2.482   2.759   0.459  0.2191  0.5442  1.0902
 6518SOL    HW131013   2.463   2.672   0.492  1.0572  0.3044  0.9284
 6518SOL    HW231014   2.560   2.781   0.509  1.5629 -0.2320 -0.6753
 6519SOL     OW31015   2.420   4.167   1.023 -0.1912 -0.1724  0.1762
 6519SOL    HW131016   2.419   4.083   1.068  0.0160 -0.2348  0.0663
 6519SOL    HW231017   2.505   4.211   1.035 -0.6350  1.2230 -1.6665
 6520SOL     OW31018   3.010   0.927   5.631  0.2347 -0.3651 -0.4108
 6520SOL    HW131019   3.037   0.893   5.716  0.2892 -0.5518 -0.5020
 6520SOL    HW231020   2.922   0.892   5.617 -0.4560  0.4794  1.8709
 6521SOL     OW31021   0.979   2.554   4.715  0.0365 -0.4016 -0.0593
 6521SOL    HW131022   1.044   2.500   4.759  0.1838  0.9320  1.3625
 6521SOL    HW231023   1.008   2.645   4.727 -1.7237  0.0084  0.9897
 6522SOL     OW31024   2.344   3.611   1.424  0.3436 -0.0105 -0.3223
 6522SOL    HW131025   2.367   3.559   1.347 -2.0396 -0.9718 -0.3745
 6522SOL    HW231026   2.253   3.582   1.432  0.9618 -1.8801  0.0616
 6523SOL     OW31027   2.873   3.969   4.437 -0.1106  0.1486  0.1871
 6523SOL    HW131028   2.932   3.907   4.393  0.3111  0.1858  0.6899
 6523SOL    HW231029   2.788   3.928   4.422  0.1950 -0.3796 -0.0853
 6524SOL     OW31030   2.376   4.213   5.993  0.1817  0.2134  1.0323
 6524SOL    HW131031   2.290   4.220   5.951  0.7449 -1.4236 -0.4477
 6524SOL    HW231032   2.440   4.256   5.936 -0.3194 -0.9570 -0.4170
 6525SOL     OW31033   2.943   2.018   6.874 -0.0174 -0.2346 -0.2041
 6525SOL    HW131034   2.936   2.111   6.897  1.7142  0.1731 -1.3197
 6525SOL    HW231035   2.882   2.033   6.801  1.7893  1.3326 -1.3977
 6526SOL     OW31036   1.538   1.177   6.687 -0.0022 -0.2320  0.6384
 6526SOL    HW131037   1.470   1.244   6.693  1.8969  1.6962  0.6145
 6526SOL    HW231038   1.512   1.143   6.601  0.5924 -1.0253  0.7715
 6527SOL     OW31039   0.868   3.331   5.226 -0.2445  0.3509 -0.2248
 6527SOL    HW131040   0.846   3.281   5.147 -2.4046  2.2122 -0.8145
 6527SOL    HW231041   0.829   3.277   5.295 -2.1560 -1.0489 -2.3747
 6528SOL     OW31042   4.512   4.343  12.799  0.4473 -0.6499  0.5285
 6528SOL    HW131043   4.549   4.319  12.715 -2.0073  0.3910 -0.8436
 6528SOL    HW231044   4.423   4.377  12.787  0.6295  0.2933  1.7451
 6529SOL     OW31045   1.693   1.210   6.087  0.2536  0.1715 -0.3136
 6529SOL    HW131046   1.736   1.170   6.163  0.5303  0.2164 -0.4458
 6529SOL    HW231047   1.664   1.129   6.044 -2.0468  1.0365 -0.3619
 6530SOL     OW31048   0.717   1.972   9.001  1.1766 -0.3101  0.0700
 6530SOL    HW131049   0.809   1.997   9.008  1.7034 -2.5168  1.0609
 6530SOL    HW231050   0.723   1.912   8.927 -2.1374  1.3775 -1.5550
 6531SOL     OW31051   3.647   2.559   9.472 -0.2631 -0.2049 -0.1939
 6531SOL    HW131052   3.671   2.638   9.423  1.6405 -0.6247  0.0428
 6531SOL    HW231053   3.552   2.553   9.472 -0.3240  0.9938  0.6282
 6532SOL     OW31054   3.068   0.522   1.611 -0.1803 -0.1272  0.1550
 6532SOL    HW131055   3.026   0.437   1.624 -1.0900  0.2764 -0.1372
 6532SOL    HW231056   3.150   0.496   1.653  0.6883 -0.7432 -1.8822
 6533SOL     OW31057   1.461   2.700   5.595  0.8669 -0.5142  0.1910
 6533SOL    HW131058   1.497   2.659   5.674 -1.5307 -0.4651  1.3019
 6533SOL    HW231059   1.395   2.759   5.631  2.5877  1.4599  0.1050
 6534SOL     OW31060   1.885   0.537   5.569 -0.5010  0.3775 -0.2028
 6534SOL    HW131061   1.868   0.445   5.547  0.5467  0.0135  0.4807
 6534SOL    HW231062   1.955   0.564   5.510  0.6052 -1.1240  0.4190
 6535SOL     OW31063   3.454   1.069   9.737  0.2266 -0.1589 -0.0653
 6535SOL    HW131064   3.373   1.098   9.695  0.0131 -1.5865 -0.6317
 6535SOL    HW231065   3.424   1.052   9.826 -0.4235  1.0066 -0.0564
 6536SOL     OW31066   4.524   4.392   3.484  0.3203 -0.3908  0.3072
 6536SOL    HW131067   4.523   4.339   3.564 -2.0210  0.4138  0.8048
 6536SOL    HW231068   4.469   4.465   3.509  2.4495  1.0721  0.7343
 6537SOL     OW31069   0.876   1.016   4.104  0.9823 -0.3667  0.0666
 6537SOL    HW131070   0.795   1.019   4.052  1.1985 -0.5500 -0.2791
 6537SOL    HW231071   0.837   0.978   4.182  0.3318 -1.2468 -0.6853
 6538SOL     OW31072   4.591   0.503   3.730  0.2052  0.0638  0.3358
 6538SOL    HW131073   4.613   0.593   3.751 -2.4358  0.4226  1.5545
 6538SOL    HW231074   4.667   0.465   3.685  0.5985 -0.6413  1.5957
 6539SOL     OW31075   1.884   2.132  15.253 -0.3795 -0.2058 -0.0731
 6539SOL    HW131076   1.848   2.048  15.226  0.9458 -0.1959 -1.8941
 6539SOL    HW231077   1.820   2.192  15.213  1.1270  1.3008 -0.2356
 6540SOL     OW31078   1.053   4.131   4.419  0.2988 -1.2499  0.2417
 6540SOL    HW131079   0.989   4.124   4.490  1.5955 -1.4260  1.3924
 6540SOL    HW231080   1.003   4.081   4.354 -1.8407  1.3496 -0.0854
 6541SOL     OW31081   1.170   0.249   5.701  0.0855 -0.4587 -0.4227
 6541SOL    HW131082   1.230   0.195   5.751  1.0128 -0.2348 -1.3069
 6541SOL    HW231083   1.088   0.200   5.712 -0.3774  0.7050  1.3327
 6542SOL     OW31084   4.110   4.219  15.291  0.1552 -0.1211  0.0654
 6542SOL    HW131085   4.177   4.177  15.237  1.6376  1.0742  0.9814
 6542SOL    HW231086   4.039   4.158  15.270 -1.2910  0.7739  2.3011
 6543SOL     OW31087   4.338   2.493   5.508 -0.1444  0.5316 -0.1493
 6543SOL    HW131088   4.384   2.422   5.552  0.2651 -0.1134 -1.6163
 6543SOL    HW231089   4.338   2.557   5.578  0.7862 -0.9032  1.1684
 6544SOL     OW31090   0.617   0.509   7.491 -0.4352 -0.2873  0.2741
 6544SOL    HW131091   0.621   0.510   7.395  3.3229  0.4014  0.4447
 6544SOL    HW231092   0.601   0.415   7.500 -2.6106  0.1045  0.4890
 6545SOL     OW31093   0.427   3.481  10.671  0.1804 -0.4864  0.3005
 6545SOL    HW131094   0.462   3.396  10.697  1.5137 -0.6430 -1.9258
 6545SOL    HW231095   0.491   3.503  10.602 -0.2272  1.1257  0.4242
 6546SOL     OW31096   1.641   1.005  15.809 -0.1980  0.0411 -0.3949
 6546SOL    HW131097   1.647   1.030  15.901  0.1359  2.0530 -0.9608
 6546SOL    HW231098   1.695   1.080  15.781  1.2429 -0.1524  1.8150
 6547SOL     OW31099   0.718   3.509  11.722 -0.4023  0.5513 -0.4439
 6547SOL    HW131100   0.786   3.477  11.781 -0.9834 -0.5370 -0.3701
 6547SOL    HW231101   0.761   3.590  11.693 -2.7992  2.3885  1.1807
 6548SOL     OW31102   4.051   4.558   3.464 -0.3158 -0.4250  0.1379
 6548SOL    HW131103   4.027   4.474   3.426  1.0137 -0.9042  0.3365
 6548SOL    HW231104   3.962   4.586   3.486 -0.3309 -0.3210 -0.0604
 6549SOL     OW31105   0.183   4.439   3.103  0.2139 -0.0645  0.4163
 6549SOL    HW131106   0.173   4.535   3.099  0.8991  0.0093  0.5585
 6549SOL    HW231107   0.143   4.407   3.184 -0.2618 -2.9860 -0.9941
 6550SOL     OW31108   3.676   1.986   6.650 -0.3224  0.3687  0.1491
 6550SOL    HW131109   3.749   2.019   6.598 -0.8657  1.4089  0.0357
 6550SOL    HW231110   3.697   1.893   6.649  3.4915  1.2560 -1.2526
 6551SOL     OW31111   1.023   2.151   8.304 -0.5197  0.4431  0.1097
 6551SOL    HW131112   0.951   2.092   8.285  0.0348 -0.2454  0.1752
 6551SOL    HW231113   1.099   2.094   8.295 -0.9197 -0.2645  1.2264
 6552SOL     OW31114   2.758   3.458  10.505 -0.2550 -0.1734  0.0546
 6552SOL    HW131115   2.815   3.533  10.523 -1.9568  1.5290 -1.5465
 6552SOL    HW231116   2.796   3.387  10.556  0.9321  0.7472  0.4664
 6553SOL     OW31117   4.223   0.248   5.017 -0.6323  0.3390 -0.0406
 6553SOL    HW131118   4.248   0.201   5.097 -1.0616  1.4423  0.7403
 6553SOL    HW231119   4.148   0.301   5.044 -0.6827 -1.3704  3.1698
 6554SOL     OW31120   2.370   2.866  16.725  0.4912  0.2444 -0.0229
 6554SOL    HW131121   2.304   2.935  16.731 -0.3466 -0.6505  0.9094
 6554SOL    HW231122   2.335   2.809  16.793 -0.6298  2.8950  1.5923
 6555SOL     OW31123   0.792   4.182  17.214  0.6226  0.0077  0.3166
 6555SOL    HW131124   0.779   4.206  17.122  2.6515 -1.8517 -0.4760
 6555SOL    HW231125   0.813   4.089  17.204  1.1659 -0.0457  2.0444
 6556SOL     OW31126   1.919   2.880   6.127  0.0870  0.0818  0.1459
 6556SOL    HW131127   1.955   2.958   6.169 -1.7697  1.0388 -0.0844
 6556SOL    HW231128   1.969   2.808   6.166  1.7122 -0.3821 -2.7338
 6557SOL     OW31129   3.769   4.125  14.791 -0.2199  0.6634  0.4897
 6557SOL    HW131130   3.833   4.192  14.816  0.3417 -0.1900  1.3663
 6557SOL    HW231131   3.695   4.166  14.837  0.0663  0.7113  0.9170
 6558SOL     OW31132   4.282   2.134   4.647  0.1789  0.6134  0.1428
 6558SOL    HW131133   4.353   2.070   4.661  0.5560  0.7604 -1.0476
 6558SOL    HW231134   4.325   2.214   4.616 -0.5517  0.2370 -1.8077
 6559SOL     OW31135   0.900   2.340   6.254 -0.5001  0.2613 -0.0640
 6559SOL    HW131136   0.854   2.384   6.183  0.6271  1.2139 -0.2172
 6559SOL    HW231137   0.977   2.318   6.201 -1.6475  0.6197 -1.8877
 6560SOL     OW31138   1.389   1.865   9.161 -0.2880 -0.0251  0.3632
 6560SOL    HW131139   1.429   1.936   9.212  0.9927  1.3492 -2.5479
 6560SOL    HW231140   1.296   1.872   9.180 -0.0704  1.2065  0.9477
 6561SOL     OW31141   0.573   2.421   7.650  0.1286 -0.6040  0.0093
 6561SOL    HW131142   0.531   2.430   7.736 -0.3219  1.6690 -0.4443
 6561SOL    HW231143   0.512   2.471   7.595  0.4574 -0.2299 -0.0129
 6562SOL     OW31144   1.764   1.452   2.400 -0.1955 -0.2296 -0.3142
 6562SOL    HW131145   1.828   1.516   2.369 -1.8829  0.6477 -1.9735
 6562SOL    HW231146   1.804   1.365   2.396  0.6403  0.1413 -0.0140
 6563SOL     OW31147   4.593   2.700  15.836 -0.1027 -0.1535  0.5124
 6563SOL    HW131148   4.553   2.627  15.883 -0.3516  0.6757  1.6058
 6563SOL    HW231149   4.560   2.679  15.749 -1.1420  0.2471  0.8061
 6564SOL     OW31150   2.042   3.522   8.756  0.2194 -0.6265  0.2588
 6564SOL    HW131151   2.106   3.515   8.827 -1.6778  1.4361  2.1773
 6564SOL    HW231152   2.092   3.471   8.692 -1.7239 -1.2764 -0.7180
 6565SOL     OW31153   3.663   1.374  13.409  0.1120  0.3179 -0.1559
 6565SOL    HW131154   3.743   1.322  13.424 -0.1242 -0.4877 -1.7131
 6565SOL    HW231155   3.618   1.358  13.492 -2.1316 -0.4008 -1.5120
 6566SOL     OW31156   0.697   4.394   8.339 -0.3983  0.5760  0.3753
 6566SOL    HW131157   0.631   4.464   8.334  0.1863  1.0738 -0.4323
 6566SOL    HW231158   0.644   4.314   8.336  0.8633 -0.1713 -1.7040
 6567SOL     OW31159   2.283   1.617   1.991  0.2816 -0.3871 -0.3657
 6567SOL    HW131160   2.266   1.708   2.014  0.7148 -0.7150  1.2062
 6567SOL    HW231161   2.222   1.608   1.917 -0.1788 -0.9480  0.0783
 6568SOL     OW31162   2.454   1.838  13.570 -0.2641 -0.6070  0.2930
 6568SOL    HW131163   2.388   1.779  13.533  0.2995 -0.8514 -0.3197
 6568SOL    HW231164   2.523   1.773  13.580 -0.5408 -0.8797  0.4503
 6569SOL     OW31165   1.001   1.442  10.431  0.1766  0.1507  0.0860
 6569SOL    HW131166   0.982   1.513  10.492 -0.7928  0.3238 -0.4271
 6569SOL    HW231167   1.085   1.414  10.468  1.2359 -0.9428 -3.1741
 6570SOL     OW31168   2.345   3.578  15.141  0.8856  0.2000 -0.9113
 6570SOL    HW131169   2.275   3.637  15.112 -0.7050 -0.4210  1.5923
 6570SOL    HW231170   2.297   3.530  15.209  1.6570 -2.4765 -2.2602
 6571SOL     OW31171   3.287   3.259   8.473 -0.5299  0.0124 -0.4753
 6571SOL    HW131172   3.211   3.292   8.425 -1.7291 -2.5834 -0.3631
 6571SOL    HW231173   3.337   3.216   8.405  0.6043  0.5152  0.0486
 6572SOL     OW31174   0.424   3.986   3.494 -0.4815 -0.2671 -0.2155
 6572SOL    HW131175   0.519   3.991   3.500 -0.5579  0.3363  0.4792
 6572SOL    HW231176   0.407   4.055   3.558  1.6648  0.5833 -0.5599
 6573SOL     OW31177   3.971   2.018  12.331 -0.3539  0.2566 -0.5953
 6573SOL    HW131178   3.928   2.024  12.417  2.0083  0.8708  0.5465
 6573SOL    HW231179   3.999   1.927  12.339 -1.7641 -0.1318  0.0211
 6574SOL     OW31180   2.151   2.123  12.256 -0.3313  0.0446 -0.4426
 6574SOL    HW131181   2.232   2.096  12.299  0.7096 -0.4944 -2.7515
 6574SOL    HW231182   2.186   2.151  12.172 -2.6056  2.4283 -0.6157
 6575SOL     OW31183   4.217   2.867   8.369  0.1954  0.0024  0.0980
 6575SOL    HW131184   4.248   2.934   8.308 -0.3509  0.8623  0.7819
 6575SOL    HW231185   4.129   2.849   8.337  0.0967  2.4135 -0.9947
 6576SOL     OW31186   4.524   1.413   1.338  0.4659 -0.5289 -0.0900
 6576SOL    HW131187   4.521   1.475   1.412 -0.9491 -1.6482  0.8033
 6576SOL    HW231188   4.472   1.343   1.379  1.5421 -0.8097  0.7993
 6577SOL     OW31189   2.872   1.642  11.301 -0.6687 -0.2464 -0.5830
 6577SOL    HW131190   2.851   1.561  11.255  0.2131 -1.3701  1.0092
 6577SOL    HW231191   2.949   1.615  11.351  0.0629 -1.3385 -2.2781
 6578SOL     OW31192   4.550   1.701   2.464 -0.7947 -0.2302  0.0484
 6578SOL    HW131193   4.483   1.681   2.399 -0.6341 -1.3058  0.2133
 6578SOL    HW231194   4.525   1.787   2.499  0.0701  0.3882 -0.8517
 6579SOL     OW31195   1.154   0.744  15.952  0.3756 -0.2123  0.1491
 6579SOL    HW131196   1.092   0.815  15.970  0.1408 -0.3024 -0.2932
 6579SOL    HW231197   1.205   0.744  16.032  1.6648  0.0144 -0.6694
 6580SOL     OW31198   3.525   4.580  13.471  0.5843 -0.1264  0.0820
 6580SOL    HW131199   3.461   4.636  13.515 -0.4454 -0.6669 -0.7225
 6580SOL    HW231200   3.567   4.638  13.408  0.3035  1.6210  1.5222
 6581SOL     OW31201   3.295   4.158  17.529  0.7214  0.0580 -0.1929
 6581SOL    HW131202   3.242   4.080  17.545  0.7882 -0.0001 -0.2564
 6581SOL    HW231203   3.281   4.163  17.434 -2.5238 -0.3201  0.2626
 6582SOL     OW31204   2.671   4.357   2.914  0.9886  0.3059  0.3978
 6582SOL    HW131205   2.729   4.407   2.971  0.7789  0.3521  0.5702
 6582SOL    HW231206   2.721   4.343   2.834 -0.3564  3.4566 -0.9992
 6583SOL     OW31207   0.985   0.818   9.260  0.5188 -0.6105 -0.1441
 6583SOL    HW131208   1.006   0.813   9.354  0.5114  0.4830 -0.0919
 6583SOL    HW231209   0.897   0.853   9.260 -0.2368 -2.4788  0.3747
 6584SOL     OW31210   0.188   1.166   0.801  0.0715  0.2165 -0.2801
 6584SOL    HW131211   0.136   1.235   0.842  0.2234  0.6873 -0.8840
 6584SOL    HW231212   0.195   1.198   0.711  0.5877 -1.1636 -0.7223
 6585SOL     OW31213   4.475   1.552   1.878 -0.2662  0.5720 -0.3906
 6585SOL    HW131214   4.402   1.588   1.828 -1.7781 -2.5125 -0.3807
 6585SOL    HW231215   4.546   1.606   1.842  1.3306 -0.9254  0.5109
 6586SOL     OW31216   4.642   3.609   9.053  0.0472  0.2145  0.0286
 6586SOL    HW131217   4.671   3.524   9.084 -3.1475 -0.9217 -0.1034
 6586SOL    HW231218   4.601   3.641   9.134  0.4998  0.4022  0.1793
 6587SOL     OW31219   3.083   3.895   8.398 -0.8956  0.0922 -0.2669
 6587SOL    HW131220   3.150   3.838   8.434 -0.3267 -1.2354 -3.4836
 6587SOL    HW231221   3.036   3.914   8.480 -0.6414 -1.3813  0.2125
 6588SOL     OW31222   1.797   4.034   0.539  0.2997  0.4770 -0.0658
 6588SOL    HW131223   1.728   3.977   0.506  0.7760  0.0846 -0.3837
 6588SOL    HW231224   1.838   4.068   0.460 -0.7490 -0.5000 -1.0259
 6589SOL     OW31225   1.286   0.780   7.092 -0.2503  0.1834 -0.2412
 6589SOL    HW131226   1.296   0.821   7.005  0.9110  2.0576  0.7682
 6589SOL    HW231227   1.313   0.854   7.147  0.1121 -0.1302  0.0021
 6590SOL     OW31228   2.716   4.051   3.742  0.3312 -0.1055 -0.5246
 6590SOL    HW131229   2.772   4.039   3.666 -0.2229  1.8792 -1.2534
 6590SOL    HW231230   2.734   3.969   3.788 -3.0989 -2.2735 -3.0178
 6591SOL     OW31231   4.321   0.495  12.137 -0.0673 -0.4529 -0.2526
 6591SOL    HW131232   4.358   0.426  12.082  0.0289 -0.2749 -0.4112
 6591SOL    HW231233   4.401   0.534  12.174 -0.8763  0.9144  0.0582
 6592SOL     OW31234   1.510   2.600  13.162 -0.9421  0.4588 -0.2485
 6592SOL    HW131235   1.546   2.680  13.123  1.6742 -0.2072  0.7562
 6592SOL    HW231236   1.565   2.589  13.239 -0.7971 -0.9597 -0.5462
 6593SOL     OW31237   2.421   1.111   6.167  0.1697  0.4909  0.6376
 6593SOL    HW131238   2.514   1.131   6.177  0.7380 -0.8743 -1.8490
 6593SOL    HW231239   2.420   1.074   6.078 -1.8645  0.4057  0.6943
 6594SOL     OW31240   4.542   0.971   4.545  0.1985 -0.3083  0.2172
 6594SOL    HW131241   4.635   0.976   4.567 -0.3895  3.3163  1.9464
 6594SOL    HW231242   4.547   0.881   4.512  1.2817 -0.4271  0.6950
 6595SOL     OW31243   3.694   4.491   3.174  0.0235  0.3732 -0.2240
 6595SOL    HW131244   3.742   4.570   3.199  0.5161  0.1481 -0.4516
 6595SOL    HW231245   3.618   4.528   3.129 -0.1185 -0.1807 -0.4311
 6596SOL     OW31246   2.042   0.475   5.845 -0.4602 -0.6010  0.5389
 6596SOL    HW131247   2.109   0.424   5.801 -0.8396  2.3972 -3.5080
 6596SOL    HW231248   1.996   0.512   5.770 -2.5681 -1.1625  1.5613
 6597SOL     OW31249   1.715   3.612   2.377 -0.1002  0.3784 -0.4823
 6597SOL    HW131250   1.727   3.702   2.406  1.4228  0.2078 -0.5498
 6597SOL    HW231251   1.751   3.571   2.456 -0.7042 -0.5543 -0.6886
 6598SOL     OW31252   2.391   1.578  17.325 -0.6045 -0.1253  0.1591
 6598SOL    HW131253   2.453   1.561  17.395  1.6457 -0.0142 -1.8190
 6598SOL    HW231254   2.358   1.661  17.358  0.2750  1.2828 -2.4553
 6599SOL     OW31255   0.418   1.809   0.554  0.4875  0.1935  0.0184
 6599SOL    HW131256   0.336   1.805   0.507  0.9006  0.9135 -0.7547
 6599SOL    HW231257   0.441   1.898   0.528  0.8654  0.8214  2.4708
 6600SOL     OW31258   3.052   1.042  10.524 -0.1551 -0.0772 -0.3825
 6600SOL    HW131259   3.066   0.963  10.577 -1.3955  0.5131  0.8212
 6600SOL    HW231260   3.051   1.106  10.595  0.9484  1.3996 -1.6945
 6601SOL     OW31261   2.277   1.002   5.725  0.1860  0.0330 -0.2525
 6601SOL    HW131262   2.272   1.081   5.672  2.8375 -2.5875 -4.3867
 6601SOL    HW231263   2.372   0.998   5.716 -0.0078 -1.8231 -1.4257
 6602SOL     OW31264   3.227   3.449   8.886 -0.8186 -0.6589 -0.7094
 6602SOL    HW131265   3.321   3.463   8.873 -1.0096  1.5546  0.3019
 6602SOL    HW231266   3.236   3.359   8.916  1.5936 -0.1267  0.1539
 6603SOL     OW31267   2.881   1.969   7.852  0.1102  1.1347  0.0758
 6603SOL    HW131268   2.817   1.950   7.921  0.4327  0.6427  0.2345
 6603SOL    HW231269   2.852   2.057   7.828  0.5945  1.2119 -0.2138
 6604SOL     OW31270   2.171   4.329   2.151  0.1835 -0.5919 -0.3515
 6604SOL    HW131271   2.091   4.371   2.180  0.8641 -0.6328  1.6233
 6604SOL    HW231272   2.130   4.270   2.088  1.0456 -1.0677 -0.4667
 6605SOL     OW31273   3.637   2.696  14.252 -0.0878 -0.4187 -0.9594
 6605SOL    HW131274   3.677   2.648  14.180  2.3566 -1.1051  0.8439
 6605SOL    HW231275   3.566   2.635  14.272 -0.2188 -0.5590 -1.8615
 6606SOL     OW31276   4.437   0.763  10.339 -0.0128  0.5505  0.1333
 6606SOL    HW131277   4.474   0.677  10.316 -1.6525 -0.1234 -0.0108
 6606SOL    HW231278   4.376   0.762  10.266 -0.8176  1.2048  0.8044
 6607SOL     OW31279   3.361   0.023   0.917  0.2199 -0.1796  0.3855
 6607SOL    HW131280   3.398   0.058   0.836  2.9012 -4.1493 -0.1057
 6607SOL    HW231281   3.338   4.656   0.882 -2.1951  0.0576  1.4299
 6608SOL     OW31282   3.534   0.900   5.066  0.3909  0.3950  0.1697
 6608SOL    HW131283   3.466   0.922   5.131 -1.5843  0.5431 -1.9379
 6608SOL    HW231284   3.477   0.920   4.992  1.4172 -0.3504 -0.8068
 6609SOL     OW31285   4.631   1.528   3.335  0.1942 -0.2241  0.5637
 6609SOL    HW131286   4.706   1.468   3.339  1.7288  1.6199 -0.3502
 6609SOL    HW231287   4.667   1.570   3.257  0.6078 -0.9217  0.3753
 6610SOL     OW31288   2.534   3.779   8.632 -0.0182 -0.2909  0.0827
 6610SOL    HW131289   2.447   3.818   8.647  0.3317  0.4137  0.2498
 6610SOL    HW231290   2.587   3.838   8.685  0.1316  0.0765 -0.4765
 6611SOL     OW31291   2.864   3.072  16.978 -0.3896 -0.1328 -0.2712
 6611SOL    HW131292   2.789   3.079  16.917  1.1947 -0.4080 -2.2523
 6611SOL    HW231293   2.922   3.033  16.913 -0.1065 -1.2865  0.6902
 6612SOL     OW31294   0.687   2.690  13.847  0.5434  0.4512  0.1548
 6612SOL    HW131295   0.692   2.780  13.814 -1.5069 -0.1767 -1.8787
 6612SOL    HW231296   0.757   2.654  13.793 -0.5323 -1.3493 -0.0520
 6613SOL     OW31297   2.312   3.545  13.728  0.4145 -0.2915  0.1827
 6613SOL    HW131298   2.313   3.452  13.706  0.3375 -0.2909  0.1800
 6613SOL    HW231299   2.302   3.547  13.823  0.8238  0.8272  0.2008
 6614SOL     OW31300   1.761   3.556   9.258  0.0891  0.2502 -0.2500
 6614SOL    HW131301   1.846   3.598   9.271 -0.1970  0.6806  0.2342
 6614SOL    HW231302   1.722   3.570   9.344  0.4680  1.7874 -0.3140
 6615SOL     OW31303   1.652   0.481   7.843 -0.4956  0.2160 -0.3380
 6615SOL    HW131304   1.728   0.520   7.887 -0.3560 -0.0331 -0.3582
 6615SOL    HW231305   1.615   0.447   7.924  0.8106 -1.2967 -0.3769
 6616SOL     OW31306   3.940   4.621   0.526 -0.2754  0.0123 -0.6254
 6616SOL    HW131307   3.855   4.602   0.568 -0.4743  0.5950 -0.7629
 6616SOL    HW231308   3.936   4.713   0.550  0.4457 -0.7543  2.4967
 6617SOL     OW31309   2.788   3.135   1.057 -0.4709 -0.3146  0.0636
 6617SOL    HW131310   2.848   3.150   1.130 -0.3832  2.1488 -0.4949
 6617SOL    HW231311   2.828   3.070   1.001  0.8691  0.7028 -0.1597
 6618SOL     OW31312   3.683   1.799  11.621 -0.0035  0.2289  0.0758
 6618SOL    HW131313   3.626   1.724  11.638 -0.1862 -0.2792 -2.6991
 6618SOL    HW231314   3.621   1.871  11.614  0.6969  0.8382  0.2186
 6619SOL     OW31315   4.676   2.023   6.908 -0.1019 -0.2186 -0.3445
 6619SOL    HW131316   4.676   1.988   6.997 -1.9801  3.2292  0.9993
 6619SOL    HW231317   0.025   1.981   6.856 -0.7849 -0.7857 -0.7822
 6620SOL     OW31318   2.117   1.421   0.570 -0.5579 -0.2537  0.3998
 6620SOL    HW131319   2.181   1.453   0.505  0.7430 -2.0036  0.8102
 6620SOL    HW231320   2.142   1.473   0.646 -1.0268 -0.0344  0.3980
 6621SOL     OW31321   0.264   3.279  10.390  0.2571 -0.2243  0.6215
 6621SOL    HW131322   0.348   3.326  10.392  0.4677 -0.5913  0.3177
 6621SOL    HW231323   0.265   3.248  10.300 -1.8839 -0.5752  0.7072
 6622SOL     OW31324   3.653   2.634   3.259  0.1338 -0.1903  0.3046
 6622SOL    HW131325   3.578   2.666   3.209 -0.6603 -0.9248  1.0207
 6622SOL    HW231326   3.680   2.566   3.197  2.1732  1.5105 -0.6799
 6623SOL     OW31327   3.136   2.520   1.607  0.4896 -0.3282  0.3784
 6623SOL    HW131328   3.079   2.551   1.538  0.3347  0.6452  0.9513
 6623SOL    HW231329   3.220   2.505   1.562  0.8837  1.4642  0.5139
 6624SOL     OW31330   1.433   0.661  15.160 -0.2091  0.8002  1.1328
 6624SOL    HW131331   1.344   0.682  15.133 -0.3399 -2.1575 -0.7485
 6624SOL    HW231332   1.471   0.611  15.087 -1.0475  0.2045  1.1029
 6625SOL     OW31333   4.040   4.631  13.261  0.1468 -0.1571 -0.0178
 6625SOL    HW131334   4.103   4.583  13.208  1.1328  0.5713  0.5010
 6625SOL    HW231335   4.106   4.688  13.300 -0.4741  0.1193  0.6195
 6626SOL     OW31336   2.161   0.393   6.877 -0.4442  0.0067  0.0948
 6626SOL    HW131337   2.193   0.317   6.829 -1.0442 -0.1908  0.0116
 6626SOL    HW231338   2.242   0.437   6.904 -0.0340 -0.7293  0.0784
 6627SOL     OW31339   3.652   0.851  10.644 -0.0636  0.0527 -0.3622
 6627SOL    HW131340   3.676   0.879  10.732  0.4249 -0.3346 -0.3748
 6627SOL    HW231341   3.604   0.770  10.659 -0.4933  0.2048 -0.9226
 6628SOL     OW31342   0.982   0.501   8.222  0.3372 -0.2360  0.1151
 6628SOL    HW131343   0.949   0.591   8.224  0.1870 -0.3945  3.4936
 6628SOL    HW231344   0.975   0.481   8.128  0.6196  0.7930 -0.1312
 6629SOL     OW31345   1.557   1.957   0.320 -0.0588 -0.0977 -0.4099
 6629SOL    HW131346   1.635   2.012   0.329 -1.0877  1.6993 -2.6239
 6629SOL    HW231347   1.502   1.970   0.397  1.2444 -1.6583  0.7861
 6630SOL     OW31348   4.538   0.236   2.387 -0.6905  0.1646  0.6606
 6630SOL    HW131349   4.543   0.316   2.335 -1.8465 -0.4951 -0.4589
 6630SOL    HW231350   4.459   0.188   2.364  0.9552 -0.1978 -4.0756
 6631SOL     OW31351   0.216   1.922   7.962 -0.7147  0.1225 -0.2100
 6631SOL    HW131352   0.197   1.852   8.024 -0.3563 -0.2171 -0.4758
 6631SOL    HW231353   0.126   1.927   7.929  0.6810  0.0193 -4.0888
 6632SOL     OW31354   3.918   0.924   1.983 -0.4122  0.1453 -0.7105
 6632SOL    HW131355   3.895   0.972   2.062  0.3883 -0.8536  0.1404
 6632SOL    HW231356   3.847   0.865   1.958 -3.1887  1.5699  3.8100
 6633SOL     OW31357   4.461   3.102   0.660 -0.3378  0.3335 -0.3132
 6633SOL    HW131358   4.519   3.045   0.709  0.1487  0.9924 -0.1188
 6633SOL    HW231359   4.498   3.087   0.573 -2.2578 -0.0313 -1.0734
 6634SOL     OW31360   0.899   2.411  16.741 -0.4062  0.1491  0.0162
 6634SOL    HW131361   0.860   2.329  16.769  0.6171 -0.2825  0.1705
 6634SOL    HW231362   0.967   2.372  16.686 -0.4517  0.0165  0.0561
 6635SOL     OW31363   1.900   2.941   9.285  0.2436  0.0377  0.5322
 6635SOL    HW131364   1.878   2.853   9.315  1.6051 -0.5303 -0.1295
 6635SOL    HW231365   1.814   2.983   9.283  0.7005  0.9762  0.3564
 6636SOL     OW31366   1.350   0.573   7.398  0.4155  0.3200 -0.3062
 6636SOL    HW131367   1.435   0.576   7.442  0.6120 -1.0717 -0.5916
 6636SOL    HW231368   1.326   0.666   7.404 -1.9452 -0.2908 -0.5630
 6637SOL     OW31369   2.719   1.826  13.329 -0.1498 -0.3446  0.4558
 6637SOL    HW131370   2.745   1.907  13.286  0.6919 -1.2600 -0.7278
 6637SOL    HW231371   2.670   1.872  13.397  0.6948  1.1749  0.0254
 6638SOL     OW31372   4.165   0.858  11.302 -0.4909  0.0359  0.5028
 6638SOL    HW131373   4.243   0.894  11.261 -0.4427  0.9088  1.3713
 6638SOL    HW231374   4.093   0.875  11.241 -1.5828  0.8707  2.0368
 6639SOL     OW31375   3.123   2.545   5.120  0.1549  0.7417 -0.2905
 6639SOL    HW131376   3.059   2.604   5.159  0.2369 -0.7521  2.1234
 6639SOL    HW231377   3.069   2.466   5.108 -0.9250  1.3417  0.6144
 6640SOL     OW31378   4.421   4.326   2.166 -0.2286  0.4092  0.3633
 6640SOL    HW131379   4.437   4.263   2.236 -0.7011  1.5027  1.4493
 6640SOL    HW231380   4.468   4.281   2.096  0.6028  0.5814  0.8130
 6641SOL     OW31381   3.780   0.268   8.833  0.3699  0.4758  0.5656
 6641SOL    HW131382   3.707   0.272   8.771  0.6856 -0.1772  0.1464
 6641SOL    HW231383   3.809   0.180   8.808 -2.0370  0.0376 -0.6977
 6642SOL     OW31384   0.460   2.928   5.265  0.5956 -0.1990 -0.2392
 6642SOL    HW131385   0.506   2.984   5.202  1.5642 -2.0548 -1.2012
 6642SOL    HW231386   0.531   2.898   5.322  0.9275 -0.7550 -0.9351
 6643SOL     OW31387   0.090   1.157  17.673 -0.0788  0.4355  0.0037
 6643SOL    HW131388   0.151   1.172  17.601  0.7805 -1.1510  0.3951
 6643SOL    HW231389   0.053   1.071  17.652 -0.0586  0.5724 -0.5804
 6644SOL     OW31390   0.619   0.242  11.607 -0.1346 -0.0908 -0.0053
 6644SOL    HW131391   0.658   0.286  11.682 -0.1015 -2.7142  1.5044
 6644SOL    HW231392   0.583   0.321  11.566  1.9819  2.8789  3.7647
 6645SOL     OW31393   3.018   4.342   1.799 -0.3787 -0.1568  0.1226
 6645SOL    HW131394   3.022   4.263   1.853 -1.0305  0.2947  0.8160
 6645SOL    HW231395   3.075   4.388   1.860  0.5748 -1.6755  0.3830
 6646SOL     OW31396   1.328   4.146  11.052  0.4822  0.1437  0.1885
 6646SOL    HW131397   1.379   4.122  10.975 -0.4805  1.6921 -0.9364
 6646SOL    HW231398   1.245   4.107  11.024 -0.7689  2.4943  0.5743
 6647SOL     OW31399   2.152   2.798   0.947 -0.0626 -0.4016 -0.1406
 6647SOL    HW131400   2.205   2.878   0.946 -0.8556  0.1370  1.0223
 6647SOL    HW231401   2.174   2.747   1.025  0.2909 -0.1026 -0.0474
 6648SOL     OW31402   3.705   0.052   5.652 -0.1699 -0.3371 -0.8886
 6648SOL    HW131403   3.726   0.037   5.744  1.5985  1.7706 -0.9521
 6648SOL    HW231404   3.662   4.696   5.610 -0.4677 -1.7640  1.9792
 6649SOL     OW31405   0.490   3.690   5.639 -1.0897  0.0908  0.3467
 6649SOL    HW131406   0.472   3.620   5.702  1.0565 -1.4925 -0.7953
 6649SOL    HW231407   0.522   3.755   5.701 -2.8669  0.6033  0.7311
 6650SOL     OW31408   1.703   2.583   7.105 -0.2855 -0.4853  0.3330
 6650SOL    HW131409   1.746   2.507   7.066  2.0355  0.3813  1.1658
 6650SOL    HW231410   1.670   2.535   7.181  0.4350 -0.4871  0.6511
 6651SOL     OW31411   1.845   1.991   4.771  0.2771  0.1403  0.7234
 6651SOL    HW131412   1.856   1.904   4.808 -1.2010 -1.0503 -1.6495
 6651SOL    HW231413   1.932   2.031   4.775 -0.3552  1.4062  1.9287
 6652SOL     OW31414   0.975   1.985   4.215 -0.2149 -0.7157  0.3219
 6652SOL    HW131415   0.939   1.941   4.138 -1.5009  0.0127  0.5140
 6652SOL    HW231416   0.993   2.070   4.176 -0.7346 -1.0254 -0.5749
 6653SOL     OW31417   4.453   0.947   2.709  0.2200 -0.5386 -0.4306
 6653SOL    HW131418   4.369   0.992   2.698  0.8616  0.5601 -0.7745
 6653SOL    HW231419   4.457   0.877   2.643 -2.3726  0.5685 -1.7783
 6654SOL     OW31420   2.268   4.588   2.011  0.3141 -0.7949  0.4280
 6654SOL    HW131421   2.262   4.505   2.058  4.4380 -2.0515 -1.3427
 6654SOL    HW231422   2.275   4.547   1.925 -1.6883  2.1238 -1.1565
 6655SOL     OW31423   1.028   1.687   7.393 -1.2156  0.1388  0.0917
 6655SOL    HW131424   1.017   1.742   7.316 -0.4934  1.6710  1.0897
 6655SOL    HW231425   0.947   1.699   7.443 -0.6933  0.8387  0.7671
 6656SOL     OW31426   0.174   4.120  13.059  0.3193 -0.1536  0.0569
 6656SOL    HW131427   0.096   4.168  13.088 -0.5128 -1.6103  0.2414
 6656SOL    HW231428   0.226   4.191  13.022 -0.8400  2.0292  2.5773
 6657SOL     OW31429   2.534   0.199  10.609  0.6246  0.1160  1.1410
 6657SOL    HW131430   2.576   0.275  10.567 -0.5432  0.6365  0.9044
 6657SOL    HW231431   2.538   0.130  10.543  0.6784  1.6527 -0.4676
 6658SOL     OW31432   1.950   1.743   3.639  0.3755 -0.4359 -0.5293
 6658SOL    HW131433   1.987   1.794   3.567  1.7993  0.4623  0.8458
 6658SOL    HW231434   1.872   1.705   3.598  0.7509 -0.3515 -1.3208
 6659SOL     OW31435   3.032   1.737  13.729  0.3173 -0.4839 -0.3371
 6659SOL    HW131436   2.992   1.814  13.768  0.4590 -0.0364 -1.0737
 6659SOL    HW231437   3.120   1.773  13.726  0.5483 -1.0483 -0.3378
 6660SOL     OW31438   2.648   2.834   4.370 -0.2990 -0.5204  0.6254
 6660SOL    HW131439   2.690   2.896   4.431 -0.7822 -1.3595  1.8207
 6660SOL    HW231440   2.700   2.754   4.380 -1.1458 -0.8127  2.7555
 6661SOL     OW31441   3.103   0.079   8.986  0.0095 -0.4965 -0.0927
 6661SOL    HW131442   3.177   0.019   8.979  1.7902  2.0011 -2.4995
 6661SOL    HW231443   3.138   0.155   9.034 -0.5463 -0.0088 -0.4561
 6662SOL     OW31444   1.140   3.397   2.358  0.5928  0.0514  0.0642
 6662SOL    HW131445   1.055   3.398   2.400 -0.4920 -0.1476 -2.1051
 6662SOL    HW231446   1.158   3.304   2.343 -0.8806 -0.5647  2.1414
 6663SOL     OW31447   2.449   2.615   4.248  0.4970 -0.5270  0.3242
 6663SOL    HW131448   2.400   2.697   4.235  1.9485 -0.2120 -3.0690
 6663SOL    HW231449   2.375   2.555   4.238  0.2040  0.1120 -1.2316
 6664SOL     OW31450   2.722   2.807   7.694 -0.5640  0.3790  0.5753
 6664SOL    HW131451   2.701   2.766   7.778 -1.4452 -1.1570 -0.3973
 6664SOL    HW231452   2.793   2.869   7.711  0.8130 -0.9818 -0.2343
 6665SOL     OW31453   3.721   4.424   7.409  0.0830 -0.2667 -0.0358
 6665SOL    HW131454   3.701   4.499   7.465 -0.5270 -0.6117  0.2050
 6665SOL    HW231455   3.725   4.464   7.322 -2.6199  1.6575  0.7283
 6666SOL     OW31456   3.273   1.304   6.757 -0.0825 -0.2034  0.4015
 6666SOL    HW131457   3.229   1.310   6.842  0.0700 -4.2841  0.7649
 6666SOL    HW231458   3.335   1.233   6.774 -0.3229 -0.5950 -0.3406
 6667SOL     OW31459   4.654   4.664  15.034  0.8903  0.0011  0.1885
 6667SOL    HW131460   4.631   4.582  14.989 -0.7372  0.1849  0.6637
 6667SOL    HW231461   4.597   4.665  15.112  1.6412  0.0305  0.7347
 6668SOL     OW31462   1.948   2.674   5.108 -0.3769  0.3517  0.0290
 6668SOL    HW131463   1.942   2.767   5.126  2.4282  0.6935 -0.8501
 6668SOL    HW231464   1.953   2.636   5.196  1.5246  0.3113 -0.0938
 6669SOL     OW31465   2.462   4.245   6.252 -0.1527  0.0533 -0.4963
 6669SOL    HW131466   2.419   4.303   6.315 -0.7856  0.6762 -1.5095
 6669SOL    HW231467   2.419   4.275   6.172  1.0614  1.3020 -0.6827
 6670SOL     OW31468   0.007   3.038   5.783 -0.7691 -0.6714 -0.1668
 6670SOL    HW131469   4.680   3.027   5.866  2.9526  1.6341  2.1912
 6670SOL    HW231470   4.692   2.961   5.736  0.3730 -0.8384 -0.7254
 6671SOL     OW31471   2.848   1.201   2.467  0.2292  0.2089 -0.0275
 6671SOL    HW131472   2.755   1.182   2.480  0.8815 -3.1892 -0.4148
 6671SOL    HW231473   2.865   1.130   2.404 -2.5561  0.1853 -0.7458
 6672SOL     OW31474   4.088   3.348   4.859  0.0940 -0.0526  0.4187
 6672SOL    HW131475   4.056   3.378   4.943 -2.1503 -0.8567 -0.1413
 6672SOL    HW231476   4.099   3.253   4.867  2.1148 -0.0392 -1.9042
 6673SOL     OW31477   0.601   3.432   4.792 -0.2403  0.2324 -1.0558
 6673SOL    HW131478   0.543   3.364   4.826  1.1154 -0.4436 -0.0646
 6673SOL    HW231479   0.671   3.430   4.857  0.6721 -1.0096 -2.0825
 6674SOL     OW31480   0.205   3.802   3.421 -0.3185  0.2000  0.6237
 6674SOL    HW131481   0.282   3.854   3.444  0.2989 -1.6588  2.7302
 6674SOL    HW231482   0.147   3.808   3.497 -1.0378 -3.2398  0.3636
 6675SOL     OW31483   3.668   4.439   7.793 -0.0032 -0.1926  0.0329
 6675SOL    HW131484   3.677   4.458   7.886 -1.7639 -1.0774  0.3910
 6675SOL    HW231485   3.699   4.349   7.777 -0.6520 -0.2530 -0.8653
 6676SOL     OW31486   3.902   2.499   8.759 -0.3281 -0.3203  0.1816
 6676SOL    HW131487   3.816   2.475   8.723  0.4459 -1.5237 -0.8910
 6676SOL    HW231488   3.957   2.491   8.681 -0.3928  0.7756  0.0285
 6677SOL     OW31489   2.004   3.421   6.177  0.4934  0.1945 -0.2005
 6677SOL    HW131490   1.988   3.419   6.083 -1.1716  0.2100  0.0749
 6677SOL    HW231491   2.100   3.421   6.175  0.5042 -0.5442  0.3123
 6678SOL     OW31492   0.459   1.142   4.421 -0.2756 -0.0060  0.2996
 6678SOL    HW131493   0.463   1.177   4.332 -0.7354 -0.3489  0.1455
 6678SOL    HW231494   0.441   1.228   4.459 -0.2735  0.5451 -0.9567
 6679SOL     OW31495   2.626   1.141   6.347 -0.0313  0.5172  0.0737
 6679SOL    HW131496   2.613   1.103   6.434  0.9943  1.4938  0.6416
 6679SOL    HW231497   2.707   1.097   6.321 -0.5264  0.0454 -0.6751
 6680SOL     OW31498   2.633   1.483   7.269 -0.4241  0.4227  0.0909
 6680SOL    HW131499   2.603   1.425   7.339  3.6064 -2.0800 -0.2526
 6680SOL    HW231500   2.627   1.419   7.198  1.3803  1.0478 -0.6421
 6681SOL     OW31501   4.399   2.779   2.748 -0.0508  0.5147  0.2624
 6681SOL    HW131502   4.465   2.728   2.700 -0.4308  0.1834  0.0937
 6681SOL    HW231503   4.328   2.757   2.687 -0.3770  2.7153 -0.1429
 6682SOL     OW31504   0.998   1.718   8.807  0.5971  0.0834  0.0554
 6682SOL    HW131505   1.048   1.798   8.791  0.4701  0.5762  2.1399
 6682SOL    HW231506   1.028   1.706   8.897 -0.7792  0.9245  0.6282
 6683SOL     OW31507   4.290   2.329   9.682 -0.1087 -0.4626  0.3102
 6683SOL    HW131508   4.376   2.320   9.642 -0.7423 -0.7050 -0.9606
 6683SOL    HW231509   4.323   2.314   9.771 -1.3686  2.2330  1.2531
 6684SOL     OW31510   0.609   1.147   4.178 -0.5984  0.0846 -0.2159
 6684SOL    HW131511   0.590   1.073   4.120 -0.4273 -0.1465  0.0196
 6684SOL    HW231512   0.672   1.102   4.234  2.6490  3.7979 -0.9193
 6685SOL     OW31513   2.469   0.308  15.538  0.4710  0.1707  0.6586
 6685SOL    HW131514   2.524   0.251  15.484 -0.7765 -2.2458  1.9485
 6685SOL    HW231515   2.380   0.278  15.520  0.6166 -0.7820  1.5240
 6686SOL     OW31516   4.257   3.826  11.241  0.1766  0.2168  0.0357
 6686SOL    HW131517   4.323   3.893  11.262 -0.0147  0.2248  0.6153
 6686SOL    HW231518   4.238   3.840  11.149 -1.3109 -1.2497  0.1152
 6687SOL     OW31519   1.126   2.811  17.138 -0.1250  0.0779  0.0119
 6687SOL    HW131520   1.054   2.755  17.167 -1.7574  2.8982  1.4041
 6687SOL    HW231521   1.082   2.872  17.078  0.9148 -1.6202 -2.4688
 6688SOL     OW31522   2.131   1.963   2.653  0.0066 -0.3466 -0.4599
 6688SOL    HW131523   2.117   2.035   2.715 -0.6513  0.0476 -1.0592
 6688SOL    HW231524   2.038   1.946   2.636  0.1806 -1.8128  0.0791
 6689SOL     OW31525   3.770   3.952  13.327  0.1385  0.5737  0.0801
 6689SOL    HW131526   3.823   3.885  13.284 -0.8513  0.7641 -1.4442
 6689SOL    HW231527   3.773   4.023  13.263 -0.3397  0.8403  0.3486
 6690SOL     OW31528   2.181   0.792   4.784 -0.4505  0.2013  0.2569
 6690SOL    HW131529   2.211   0.707   4.751  0.2077  0.5688 -0.0670
 6690SOL    HW231530   2.259   0.842   4.764  1.4335 -2.9383 -0.2296
 6691SOL     OW31531   2.815   2.369   8.258  0.3169  0.4579  0.0356
 6691SOL    HW131532   2.887   2.424   8.229 -0.4960  1.3339 -0.3287
 6691SOL    HW231533   2.853   2.320   8.331 -0.6234  2.0136  1.5819
 6692SOL     OW31534   1.199   4.521  12.980  0.3571  0.3657  0.2449
 6692SOL    HW131535   1.191   4.598  13.036  2.8231 -1.1679  2.6810
 6692SOL    HW231536   1.271   4.544  12.922 -0.0630  3.6312  1.0271
 6693SOL     OW31537   4.630   1.765  15.917 -0.1021  0.0549 -0.3680
 6693SOL    HW131538   4.694   1.696  15.898  0.6227 -0.0019  2.2056
 6693SOL    HW231539   4.549   1.748  15.868 -0.6657  0.9084  0.2607
 6694SOL     OW31540   1.932   0.093   4.766 -0.1111  0.2024  0.5385
 6694SOL    HW131541   1.890   0.169   4.726 -0.2730 -0.5032 -0.6200
 6694SOL    HW231542   1.855   0.048   4.801  0.3676  1.1140  2.7550
 6695SOL     OW31543   2.554   0.294   1.954 -0.3257 -0.2690  0.4764
 6695SOL    HW131544   2.496   0.220   1.971 -0.7603 -0.2878 -1.0177
 6695SOL    HW231545   2.487   0.363   1.951 -1.2909 -1.2250  0.0355
 6696SOL     OW31546   4.510   3.415   8.097  0.0805 -0.1011 -0.1991
 6696SOL    HW131547   4.535   3.349   8.033 -1.5954 -2.7328  1.8370
 6696SOL    HW231548   4.569   3.486   8.073 -1.0598  1.2020  0.8449
 6697SOL     OW31549   3.933   3.064   5.544  0.1827  0.3785 -0.0069
 6697SOL    HW131550   4.027   3.064   5.564  0.8319  3.0713 -3.1725
 6697SOL    HW231551   3.911   3.126   5.613 -2.2013  1.9232 -2.1510
 6698SOL     OW31552   0.677   3.885  12.347  0.1831  0.0768  0.2452
 6698SOL    HW131553   0.728   3.965  12.341  2.0352 -0.9760  1.9456
 6698SOL    HW231554   0.596   3.921  12.313 -0.5167 -1.7006  0.0319
 6699SOL     OW31555   4.138   0.674   1.427  0.1246  0.3922 -0.1387
 6699SOL    HW131556   4.078   0.696   1.499  1.0047  0.8574  0.4458
 6699SOL    HW231557   4.100   0.591   1.398  1.1029 -0.2343  0.4022
 6700SOL     OW31558   3.944   2.996   4.681 -0.2032  0.0446  0.1613
 6700SOL    HW131559   3.970   2.905   4.696 -1.7735 -0.1618  1.5880
 6700SOL    HW231560   3.915   3.025   4.767 -1.8837 -1.0024 -0.0392
 6701SOL     OW31561   1.315   2.714  17.322 -0.2786 -0.0923  0.9523
 6701SOL    HW131562   1.380   2.679  17.261 -0.5033  1.1682 -0.0312
 6701SOL    HW231563   1.256   2.770  17.272  0.7031  2.6082  2.7750
 6702SOL     OW31564   1.714   2.266   8.278 -0.1581  0.3666 -0.1535
 6702SOL    HW131565   1.781   2.211   8.318  0.4984  1.1493 -0.1723
 6702SOL    HW231566   1.765   2.344   8.255 -1.0726  0.9981 -0.0344
 6703SOL     OW31567   4.194   3.063   5.571  0.4229  0.2677 -0.0447
 6703SOL    HW131568   4.263   3.047   5.634  0.3410  0.5452  0.1155
 6703SOL    HW231569   4.211   3.145   5.524 -2.4651  0.4280 -0.8575
 6704SOL     OW31570   2.286   1.715   0.339  0.7184  0.0626  0.2591
 6704SOL    HW131571   2.345   1.693   0.267  1.4092  0.1519  0.7990
 6704SOL    HW231572   2.349   1.684   0.404  1.2839 -1.1306 -0.8729
 6705SOL     OW31573   3.771   0.695   8.206  0.2579  0.3536  0.4032
 6705SOL    HW131574   3.774   0.607   8.242 -3.2347 -0.6221 -1.6982
 6705SOL    HW231575   3.819   0.740   8.275  0.9518 -1.4057  1.0680
 6706SOL     OW31576   2.572   4.288   7.817  0.2783 -0.1456 -0.2099
 6706SOL    HW131577   2.608   4.365   7.773 -1.1575 -0.1502 -1.3920
 6706SOL    HW231578   2.494   4.263   7.767  0.2368  0.3077 -0.3696
 6707SOL     OW31579   1.557   0.260   4.133 -0.2190 -0.1181 -0.1442
 6707SOL    HW131580   1.639   0.301   4.160 -1.2102  0.1515  2.5015
 6707SOL    HW231581   1.604   0.176   4.129 -0.9687 -0.7572  4.2454
 6708SOL     OW31582   0.111   3.789  10.334  0.0330  0.1094  0.7651
 6708SOL    HW131583   0.057   3.772  10.411  0.1755  0.8381  1.0257
 6708SOL    HW231584   0.190   3.812  10.383 -0.3269  0.1624  1.3192
 6709SOL     OW31585   3.388   0.892   7.129  0.2378 -0.0366 -0.5329
 6709SOL    HW131586   3.332   0.846   7.192  1.1831 -0.1613  0.2220
 6709SOL    HW231587   3.402   0.814   7.076  1.7540  0.7971 -1.3635
 6710SOL     OW31588   4.535   2.952   3.432  0.2603  0.4917 -0.7059
 6710SOL    HW131589   4.628   2.957   3.452  0.2369 -1.2572 -0.1306
 6710SOL    HW231590   4.538   2.866   3.389  0.2765  1.1096 -1.9413
 6711SOL     OW31591   2.066   3.135   9.386  0.3768  0.3426 -0.3421
 6711SOL    HW131592   2.004   3.076   9.344 -0.4551  2.2654 -1.7889
 6711SOL    HW231593   2.019   3.157   9.467 -0.9715 -1.7229 -0.5566
 6712SOL     OW31594   0.759   3.033  13.713 -0.1877  0.0205  0.4061
 6712SOL    HW131595   0.775   3.010  13.622 -1.8739 -0.7435  0.3114
 6712SOL    HW231596   0.667   3.056  13.726 -0.7907 -0.6197 -2.7861
 6713SOL     OW31597   1.269   1.667  17.097  0.2733  0.2093 -0.3943
 6713SOL    HW131598   1.248   1.760  17.094 -1.4074 -0.1665 -0.1846
 6713SOL    HW231599   1.359   1.670  17.130  0.0069 -0.4823  0.4108
 6714SOL     OW31600   1.718   0.727   5.686 -0.4139 -0.3122  0.1541
 6714SOL    HW131601   1.785   0.666   5.653  0.6691  0.8842  0.1418
 6714SOL    HW231602   1.655   0.661   5.713 -0.4438 -0.2426  0.2530
 6715SOL     OW31603   4.158   3.818   5.383 -0.3058 -0.0453 -0.1018
 6715SOL    HW131604   4.123   3.795   5.469 -1.2528 -3.0648 -1.3035
 6715SOL    HW231605   4.191   3.906   5.403 -2.4368  0.5965  0.5704
 6716SOL     OW31606   3.159   0.341  15.599 -0.1735  0.0123  0.6335
 6716SOL    HW131607   3.142   0.295  15.517  1.5636 -0.0268  0.2976
 6716SOL    HW231608   3.130   0.275  15.662  0.7901 -0.4461  0.5983
 6717SOL     OW31609   2.681   4.332  15.900 -0.2466  0.0814 -0.6318
 6717SOL    HW131610   2.711   4.402  15.959 -0.3401 -0.5166  0.1297
 6717SOL    HW231611   2.760   4.323  15.848 -0.7247  0.1342 -1.3636
 6718SOL     OW31612   3.256   0.254   1.455 -0.2886  0.2014  0.0745
 6718SOL    HW131613   3.201   0.179   1.432  1.6022 -0.7252 -1.4883
 6718SOL    HW231614   3.281   0.235   1.546  0.3868  1.6166  0.1732
 6719SOL     OW31615   2.492   4.250  16.048  0.2625  0.0045 -0.3116
 6719SOL    HW131616   2.518   4.158  16.062  0.5985  0.2206  0.4817
 6719SOL    HW231617   2.556   4.280  15.984  1.0632 -2.7704 -0.8485
 6720SOL     OW31618   2.474   2.794   5.814  0.5671  0.4922  0.3263
 6720SOL    HW131619   2.544   2.752   5.764 -0.6399 -1.3112  0.1684
 6720SOL    HW231620   2.401   2.745   5.775  1.0528 -0.7403  0.9551
 6721SOL     OW31621   0.485   0.254  14.378  0.5146  0.2788 -0.6842
 6721SOL    HW131622   0.525   0.181  14.330  1.6975  1.7991 -2.0039
 6721SOL    HW231623   0.463   0.212  14.461 -1.1227 -0.2529 -1.3958
 6722SOL     OW31624   4.150   4.402   6.998  0.2529  0.1239 -0.5505
 6722SOL    HW131625   4.240   4.383   6.973 -0.3141  0.2995 -2.7389
 6722SOL    HW231626   4.107   4.319   6.980  0.2251  0.1561 -0.6363
 6723SOL     OW31627   1.388   3.940   1.367  0.4279 -0.5548 -0.3609
 6723SOL    HW131628   1.390   3.866   1.428 -1.6535 -1.9652 -2.0197
 6723SOL    HW231629   1.412   4.007   1.431  1.9204  1.1488 -2.7235
 6724SOL     OW31630   1.057   4.268   0.625  0.2433  0.2557 -0.4727
 6724SOL    HW131631   1.022   4.291   0.711  0.0436 -0.2696 -0.4153
 6724SOL    HW231632   1.149   4.260   0.649 -0.7116  0.5583  3.2424
 6725SOL     OW31633   0.942   4.252   1.126 -0.2298 -0.1154 -0.3200
 6725SOL    HW131634   0.882   4.198   1.177  0.3648  0.3426  0.8585
 6725SOL    HW231635   0.915   4.340   1.151  1.3295  0.5881 -1.1462
 6726SOL     OW31636   2.476   2.549   3.721  0.0439  0.5003  0.0795
 6726SOL    HW131637   2.510   2.606   3.789  0.4804  1.2312 -0.7593
 6726SOL    HW231638   2.384   2.558   3.746  0.3346 -1.3302  1.8385
 6727SOL     OW31639   2.123   1.562   4.530  0.3959  0.0402  0.2535
 6727SOL    HW131640   2.116   1.652   4.560  2.3542  0.4311 -0.4420
 6727SOL    HW231641   2.165   1.568   4.444  0.8984 -1.5813  0.3816
 6728SOL     OW31642   0.667   1.911   1.358  0.0141 -0.0009  0.1505
 6728SOL    HW131643   0.600   1.955   1.411 -2.0063 -2.6776 -0.2084
 6728SOL    HW231644   0.618   1.848   1.305  0.1515 -0.5929  0.7253
 6729SOL     OW31645   1.459   1.218  10.006 -0.3002 -0.1441 -0.2344
 6729SOL    HW131646   1.435   1.303   9.969 -1.0405 -1.3343 -2.4410
 6729SOL    HW231647   1.457   1.164   9.927 -1.0784  1.8730 -1.6120
 6730SOL     OW31648   0.957   1.933   4.490  0.2909  0.2525 -0.1499
 6730SOL    HW131649   0.927   1.962   4.404 -2.3868  0.4292  0.8444
 6730SOL    HW231650   0.879   1.952   4.543 -0.1710  0.5736 -0.9463
 6731SOL     OW31651   3.214   0.213   1.056  0.5211 -0.5942  0.3732
 6731SOL    HW131652   3.259   0.130   1.036  0.2029 -0.6707 -0.0470
 6731SOL    HW231653   3.287   0.275   1.057 -2.5128  2.9537 -0.5567
 6732SOL     OW31654   0.517   0.900  16.930 -0.2429  0.0304 -0.8653
 6732SOL    HW131655   0.536   0.970  16.993  2.9442  0.0874 -1.8686
 6732SOL    HW231656   0.521   0.825  16.989  1.0960  0.0664 -0.9065
 6733SOL     OW31657   3.460   2.197  16.754 -0.0017 -0.1500 -0.4780
 6733SOL    HW131658   3.494   2.282  16.780 -1.4936  0.4500 -0.4719
 6733SOL    HW231659   3.536   2.145  16.780 -0.9720 -2.7451 -2.7907
 6734SOL     OW31660   2.641   3.120   7.759  0.0659 -0.4975  0.4056
 6734SOL    HW131661   2.707   3.186   7.738 -1.6240  0.8112 -0.7131
 6734SOL    HW231662   2.660   3.094   7.849  0.3405 -1.3972  0.0937
 6735SOL     OW31663   2.253   2.701   3.908 -0.4679 -0.4539  0.5962
 6735SOL    HW131664   2.337   2.738   3.936 -0.1038 -0.6536 -0.2238
 6735SOL    HW231665   2.253   2.621   3.959 -1.2029 -0.9669 -0.2116
 6736SOL     OW31666   1.488   3.744   4.712  0.6896 -0.3873 -0.6651
 6736SOL    HW131667   1.570   3.775   4.749 -0.2523  1.1677  0.0900
 6736SOL    HW231668   1.507   3.654   4.686  0.4580 -1.0140  1.3661
 6737SOL     OW31669   0.810   0.090   7.748 -0.2236 -0.6672  0.1399
 6737SOL    HW131670   0.900   0.056   7.744  0.0809  0.1424 -0.0058
 6737SOL    HW231671   0.815   0.136   7.832 -1.3575 -0.5861  0.1543
 6738SOL     OW31672   1.374   1.155   3.046  0.0174  0.1206  0.0015
 6738SOL    HW131673   1.287   1.188   3.069 -1.4972 -3.0447 -1.0777
 6738SOL    HW231674   1.371   1.143   2.951 -2.2755  0.8941 -0.0053
 6739SOL     OW31675   0.308   0.927   7.316 -0.1877  0.2794  0.1112
 6739SOL    HW131676   0.357   0.846   7.301  0.1626  0.3300  0.9718
 6739SOL    HW231677   0.256   0.909   7.395  0.5906 -1.1280  0.3118
 6740SOL     OW31678   1.501   0.147  15.306 -0.2809 -0.3224 -0.3507
 6740SOL    HW131679   1.445   0.202  15.251  0.2157  0.6447  0.1135
 6740SOL    HW231680   1.447   0.145  15.385 -2.4400  0.9241 -1.7884
 6741SOL     OW31681   0.368   2.216   5.860 -0.3548  0.2751  0.1374
 6741SOL    HW131682   0.404   2.193   5.774 -0.3704  0.7332  0.0094
 6741SOL    HW231683   0.433   2.177   5.919  1.5888  1.0535 -1.4823
 6742SOL     OW31684   1.564   0.265  15.638  0.0171  0.2131  0.4237
 6742SOL    HW131685   1.497   0.216  15.590  1.5253 -0.9374 -0.4895
 6742SOL    HW231686   1.525   0.264  15.725 -0.0166  0.4860  0.4131
 6743SOL     OW31687   3.907   3.622  15.388 -0.4203 -0.3120 -0.0112
 6743SOL    HW131688   3.949   3.705  15.410 -0.3289 -0.4225  0.2220
 6743SOL    HW231689   3.958   3.565  15.445 -0.5110 -0.4018 -0.0199
 6744SOL     OW31690   0.982   0.673   5.385 -0.3923 -0.0699 -0.5052
 6744SOL    HW131691   0.921   0.667   5.457 -0.5617  1.4754 -0.5207
 6744SOL    HW231692   1.051   0.619   5.424  0.6947  1.1247 -0.7538
 6745SOL     OW31693   0.676   0.942   7.158 -0.4302 -0.1949  0.3639
 6745SOL    HW131694   0.733   0.915   7.230  0.0294 -1.1472 -0.3526
 6745SOL    HW231695   0.603   0.894   7.198  1.4628 -0.6898  3.2009
 6746SOL     OW31696   4.226   3.151   0.762 -0.7092  0.0276  0.2992
 6746SOL    HW131697   4.317   3.137   0.739 -0.2703  2.1162  0.6870
 6746SOL    HW231698   4.227   3.247   0.755  0.2347 -0.0930 -1.0361
 6747SOL     OW31699   3.137   1.252   2.539  0.4932 -0.1335  0.1781
 6747SOL    HW131700   3.194   1.241   2.464  2.5370  1.6654  1.4452
 6747SOL    HW231701   3.050   1.258   2.499  0.4806  0.3071  0.2638
 6748SOL     OW31702   4.347   0.312   2.575  0.7298 -0.5282  0.4205
 6748SOL    HW131703   4.430   0.279   2.541  0.3974 -0.8067 -0.1198
 6748SOL    HW231704   4.287   0.240   2.557  0.4921 -0.1670 -0.2261
 6749SOL     OW31705   3.135   3.958   1.121  0.0516 -0.2053  0.3788
 6749SOL    HW131706   3.134   3.863   1.112  0.6707 -0.0914 -0.9997
 6749SOL    HW231707   3.059   3.972   1.177  1.3191 -0.3518  2.1248
 6750SOL     OW31708   1.763   1.638   6.154  0.0916  0.7155  0.3590
 6750SOL    HW131709   1.717   1.624   6.071  0.6348 -0.6426  0.2864
 6750SOL    HW231710   1.749   1.551   6.192 -2.7479  0.8904 -0.2658
 6751SOL     OW31711   0.518   0.199   1.208 -0.1278 -0.8222 -0.0033
 6751SOL    HW131712   0.581   0.140   1.249  0.4817 -0.3512 -0.2551
 6751SOL    HW231713   0.491   0.141   1.137 -0.4670  0.6531 -1.0874
 6752SOL     OW31714   3.194   3.190  12.146  0.4642 -0.4610 -0.4664
 6752SOL    HW131715   3.240   3.121  12.194 -0.1494 -0.7151 -0.2390
 6752SOL    HW231716   3.252   3.209  12.073  1.3906  1.1382  0.6660
 6753SOL     OW31717   3.305   3.451  13.327  0.7447  0.1136  0.5590
 6753SOL    HW131718   3.288   3.368  13.372  0.7194  0.3596  1.0100
 6753SOL    HW231719   3.384   3.427  13.279  0.5251  1.0222 -0.2359
 6754SOL     OW31720   0.580   1.630   2.783 -0.0875  0.3153 -0.4514
 6754SOL    HW131721   0.497   1.663   2.816  0.4929  0.2659  1.0480
 6754SOL    HW231722   0.610   1.706   2.733 -2.2856  1.5045  0.0465
 6755SOL     OW31723   2.654   4.663  17.221  0.5987  0.3250  0.4952
 6755SOL    HW131724   2.561   4.672  17.198  1.8821  3.4108 -3.4346
 6755SOL    HW231725   2.645   4.662  17.316 -1.2361 -0.3550  0.3276
 6756SOL     OW31726   3.026   2.995   6.852 -0.2166 -0.0079 -0.3327
 6756SOL    HW131727   2.973   2.918   6.834 -2.0052  1.0712  0.3319
 6756SOL    HW231728   3.112   2.962   6.825 -0.4640  0.5485 -1.8045
 6757SOL     OW31729   1.579   0.535   7.571 -0.7150  0.7292  0.2395
 6757SOL    HW131730   1.574   0.519   7.665  1.4515 -0.7804  0.0970
 6757SOL    HW231731   1.653   0.596   7.564 -1.2220  1.0402 -2.4464
 6758SOL     OW31732   4.543   3.225   4.936  0.3924 -0.7057  0.3419
 6758SOL    HW131733   4.550   3.310   4.892 -1.6505  1.5498  4.3842
 6758SOL    HW231734   4.584   3.162   4.877  0.0007  0.7167 -1.4593
 6759SOL     OW31735   3.397   1.803   2.786  0.2329 -0.3198 -0.2474
 6759SOL    HW131736   3.335   1.754   2.732 -2.2788  1.1129  1.2674
 6759SOL    HW231737   3.417   1.869   2.720 -0.9938 -0.9091 -1.2154
 6760SOL     OW31738   1.790   3.982   8.313  0.8033 -0.3504 -0.3005
 6760SOL    HW131739   1.728   4.005   8.382 -0.6115 -2.6177 -0.8126
 6760SOL    HW231740   1.870   4.027   8.343  0.7568  0.3515 -1.2277
 6761SOL     OW31741   3.722   0.122   4.050  0.4947 -0.0470  0.0680
 6761SOL    HW131742   3.767   0.071   3.982  0.7412  1.4176 -0.8760
 6761SOL    HW231743   3.676   0.190   4.001  1.6523 -0.0225 -1.0005
 6762SOL     OW31744   1.568   0.892  16.555 -0.0991  0.0470 -0.0716
 6762SOL    HW131745   1.595   0.960  16.618 -1.6122  0.2440  0.3651
 6762SOL    HW231746   1.588   0.814  16.607 -1.3719 -1.1969 -1.4588
 6763SOL     OW31747   0.415   3.885  16.149  0.3381 -0.7416  0.5570
 6763SOL    HW131748   0.474   3.954  16.182  2.3967 -1.6049 -1.3438
 6763SOL    HW231749   0.432   3.876  16.056 -2.4112  0.1479 -0.0222
 6764SOL     OW31750   1.281   0.081  10.012  0.5992  0.0271  0.0920
 6764SOL    HW131751   1.328   0.005  10.047 -1.7171 -0.9486  1.0934
 6764SOL    HW231752   1.190   0.054  10.017 -0.6273  4.2688  0.4321
 6765SOL     OW31753   3.759   3.407  11.639  0.6879  0.5469  0.5979
 6765SOL    HW131754   3.813   3.373  11.710 -0.3946 -1.9390  0.2453
 6765SOL    HW231755   3.826   3.472  11.616 -1.5921  2.2819 -1.1966
 6766SOL     OW31756   2.126   4.502  17.118  0.6754 -0.2505  0.3429
 6766SOL    HW131757   2.150   4.452  17.039 -1.2390  0.8601 -0.9401
 6766SOL    HW231758   2.037   4.535  17.103  1.0806  0.1048 -1.3781
 6767SOL     OW31759   3.903   2.892  15.853  0.1727 -0.3384  0.7112
 6767SOL    HW131760   3.855   2.974  15.861  0.0261 -0.3504 -0.0084
 6767SOL    HW231761   3.988   2.924  15.883 -0.5378  2.1074  0.1175
 6768SOL     OW31762   0.533   0.957   6.526 -0.1332  0.2755  0.3355
 6768SOL    HW131763   0.563   0.932   6.438  2.1578  0.5242  1.0279
 6768SOL    HW231764   0.470   0.887   6.541 -3.1311  2.5379 -1.9667
 6769SOL     OW31765   4.471   2.391   9.378  1.3523 -0.1492 -0.3971
 6769SOL    HW131766   4.421   2.402   9.297 -0.2605 -2.0779  0.3460
 6769SOL    HW231767   4.438   2.469   9.424  0.2210 -1.5982  1.2258
 6770SOL     OW31768   3.886   3.795  15.146 -0.0803  0.1338  0.4892
 6770SOL    HW131769   3.873   3.756  15.233 -1.2883  1.6600  0.9854
 6770SOL    HW231770   3.800   3.807  15.107  0.1115 -1.4017 -0.4059
 6771SOL     OW31771   0.496   0.344   8.496  0.0041  0.2384 -0.2697
 6771SOL    HW131772   0.406   0.370   8.476 -0.2888  0.1936  1.0203
 6771SOL    HW231773   0.544   0.414   8.452  1.2598  0.6231  1.6933
 6772SOL     OW31774   1.334   0.837  12.737 -0.4252  0.9578 -0.3107
 6772SOL    HW131775   1.342   0.820  12.643 -0.1058  1.2838 -0.3434
 6772SOL    HW231776   1.269   0.770  12.757  1.7492 -1.4775 -1.4941
 6773SOL     OW31777   1.529   3.374   8.452 -1.0384 -0.1086 -0.1766
 6773SOL    HW131778   1.563   3.400   8.366  1.4785 -1.2593  0.4687
 6773SOL    HW231779   1.435   3.390   8.445 -0.6429  1.8997 -1.0024
 6774SOL     OW31780   3.372   1.266   7.521  0.7032  0.6457  0.4208
 6774SOL    HW131781   3.397   1.325   7.449  0.8659 -1.0011 -0.8894
 6774SOL    HW231782   3.279   1.253   7.499  1.0741 -1.3538 -0.0105
 6775SOL     OW31783   3.345   2.402   8.633  0.1181  0.3685 -0.3461
 6775SOL    HW131784   3.256   2.421   8.663  0.5700  1.3240  0.3906
 6775SOL    HW231785   3.368   2.334   8.698  1.2411  1.1942  0.1154
 6776SOL     OW31786   4.346   0.093   7.717  0.1198 -0.1794  0.0912
 6776SOL    HW131787   4.308   0.158   7.658  2.4779  1.6702  0.6353
 6776SOL    HW231788   4.337   0.021   7.654 -2.5709  0.0254  0.2259
 6777SOL     OW31789   1.669   1.885  10.244  0.4273 -0.4937 -0.5361
 6777SOL    HW131790   1.590   1.906  10.294  0.7729 -1.3738  0.3871
 6777SOL    HW231791   1.737   1.851  10.302 -0.5627  0.3403  1.1245
 6778SOL     OW31792   3.198   3.479  14.673  0.0622  0.0885 -0.3100
 6778SOL    HW131793   3.255   3.548  14.640 -0.8818  1.0451  0.0782
 6778SOL    HW231794   3.244   3.469  14.756  2.7431 -0.3884 -1.8653
 6779SOL     OW31795   1.966   4.026   2.638  0.0937  0.2706  0.4641
 6779SOL    HW131796   1.961   4.109   2.685 -0.1156  1.3881 -1.5659
 6779SOL    HW231797   2.010   3.973   2.705  3.5122  4.2379  1.3825
 6780SOL     OW31798   2.534   2.980   9.654 -0.1469  0.2294  0.2755
 6780SOL    HW131799   2.550   2.913   9.720 -0.3341 -0.8730 -0.8198
 6780SOL    HW231800   2.599   3.048   9.674 -1.4065  0.8568  2.2144
 6781SOL     OW31801   2.927   4.369  15.755 -0.1504 -0.3808 -0.0833
 6781SOL    HW131802   2.986   4.394  15.684  0.2872  0.3791  0.5428
 6781SOL    HW231803   2.985   4.393  15.828  3.0257  2.1000 -3.4315
 6782SOL     OW31804   3.406   1.930   6.557 -0.1678 -0.0940 -0.6862
 6782SOL    HW131805   3.411   1.998   6.624 -1.1974 -0.8409  0.1374
 6782SOL    HW231806   3.494   1.937   6.519  0.1673 -1.1875 -0.1060
 6783SOL     OW31807   3.596   0.672   2.924 -0.2847 -0.3625  0.1694
 6783SOL    HW131808   3.582   0.755   2.970 -1.7005 -0.9892  0.8516
 6783SOL    HW231809   3.505   0.643   2.931 -0.0690 -0.9150  0.7145
 6784SOL     OW31810   1.329   3.539   1.428 -0.2115  0.1230  0.2100
 6784SOL    HW131811   1.315   3.446   1.410  0.7766  0.2382 -1.1338
 6784SOL    HW231812   1.421   3.544   1.401 -0.4068 -2.4982 -0.9956
 6785SOL     OW31813   2.701   1.978  10.753 -0.0675  0.1988 -0.0806
 6785SOL    HW131814   2.716   1.901  10.807 -1.2671  0.0229  0.0147
 6785SOL    HW231815   2.705   2.042  10.824  0.6411 -0.9327  0.8906
 6786SOL     OW31816   1.948   1.604   0.796  0.3141 -0.0704  0.0644
 6786SOL    HW131817   1.940   1.679   0.737  0.4419 -0.3077 -0.2589
 6786SOL    HW231818   1.999   1.652   0.861  0.3729 -0.7660  0.5197
 6787SOL     OW31819   2.060   2.286   7.192 -1.2059  0.0530  0.0936
 6787SOL    HW131820   2.059   2.220   7.123  0.5367  1.1371 -0.9674
 6787SOL    HW231821   2.034   2.368   7.151 -2.4618  1.0633  2.9374
 6788SOL     OW31822   1.103   4.124  16.395  0.0040  0.3004  0.2188
 6788SOL    HW131823   1.131   4.162  16.478 -0.4957 -1.8867  1.3796
 6788SOL    HW231824   1.087   4.200  16.339  0.0037  1.0275  1.1990
 6789SOL     OW31825   0.013   1.721  13.272 -0.3253  0.2093 -0.5058
 6789SOL    HW131826   4.687   1.776  13.336 -1.2760  0.7920 -1.6717
 6789SOL    HW231827   4.692   1.635  13.281  2.0518 -0.7810  0.5966
 6790SOL     OW31828   3.078   3.714  11.613 -0.0314  0.6376  0.4939
 6790SOL    HW131829   3.130   3.640  11.643  1.5629  0.6358 -2.2478
 6790SOL    HW231830   3.134   3.788  11.589  0.5346  0.4411  1.2188
 6791SOL     OW31831   2.355   4.134  15.571  0.0317 -0.1701 -0.2657
 6791SOL    HW131832   2.419   4.195  15.533 -0.7032  1.4465  1.1201
 6791SOL    HW231833   2.406   4.086  15.636  0.0197  0.1704 -0.0063
 6792SOL     OW31834   3.907   0.790  11.598  0.3198 -0.3877  0.4816
 6792SOL    HW131835   3.994   0.751  11.584  0.9721  1.8734 -1.7211
 6792SOL    HW231836   3.884   0.756  11.685 -0.3131 -1.2295 -0.0047
 6793SOL     OW31837   3.013   0.935   3.569 -0.3309  0.0259  0.2736
 6793SOL    HW131838   2.947   1.000   3.593  0.7513  1.7631 -1.4436
 6793SOL    HW231839   2.969   0.867   3.620  2.3251 -0.8404  1.4128
 6794SOL     OW31840   0.176   4.359   4.790  0.1231 -0.4520  0.1826
 6794SOL    HW131841   0.189   4.442   4.744  2.7034 -1.2761 -0.5728
 6794SOL    HW231842   0.191   4.293   4.722  1.6009  0.0247  0.0630
 6795SOL     OW31843   3.361   3.822   8.361  0.1958 -0.2182  0.3197
 6795SOL    HW131844   3.353   3.756   8.430  0.2771  1.5206  2.0107
 6795SOL    HW231845   3.455   3.838   8.368 -0.0841  1.9998 -1.0462
 6796SOL     OW31846   2.920   1.117  10.133  0.3099 -0.1094  0.2511
 6796SOL    HW131847   2.850   1.181  10.143 -0.1064 -0.4677 -0.3843
 6796SOL    HW231848   2.954   1.137  10.046  0.4318 -1.4557 -0.0140
 6797SOL     OW31849   1.069   0.052   2.621 -0.1377  0.6698 -0.3604
 6797SOL    HW131850   0.998   0.049   2.557 -0.3901  0.9489 -0.0899
 6797SOL    HW231851   1.132   0.114   2.586  0.4993  0.8300  1.0578
 6798SOL     OW31852   3.450   4.179   7.845 -0.4250  0.1126  0.7103
 6798SOL    HW131853   3.405   4.210   7.924 -0.2685 -1.0952  1.2663
 6798SOL    HW231854   3.530   4.153   7.892 -0.6152  0.5863  1.2938
 6799SOL     OW31855   3.145   1.396   4.607  0.0782 -1.1249  0.4047
 6799SOL    HW131856   3.082   1.457   4.569  1.0026 -1.6008 -1.9151
 6799SOL    HW231857   3.203   1.373   4.534  0.3795 -0.0533  0.3049
 6800SOL     OW31858   3.148   2.414   7.296 -0.0766 -0.4614  0.6101
 6800SOL    HW131859   3.176   2.402   7.205  2.1098  1.5695  1.0221
 6800SOL    HW231860   3.106   2.330   7.315  0.3538 -0.9112 -0.3986
 6801SOL     OW31861   4.177   2.502  16.679  0.2862  0.3705 -0.3344
 6801SOL    HW131862   4.268   2.515  16.704  0.9142 -3.0904 -0.8284
 6801SOL    HW231863   4.129   2.571  16.725  1.5972 -0.8945  2.8847
 6802SOL     OW31864   2.619   2.743   2.564 -0.5372  0.5205  0.3689
 6802SOL    HW131865   2.591   2.826   2.526 -1.3924 -1.1451 -2.5753
 6802SOL    HW231866   2.713   2.746   2.548 -0.2513 -2.6961  1.5631
 6803SOL     OW31867   3.205   0.186   6.366  0.4825  0.4111  0.3011
 6803SOL    HW131868   3.129   0.242   6.349  0.0037 -0.0304  0.9656
 6803SOL    HW231869   3.198   0.180   6.462 -1.3670 -1.0841  0.0692
 6804SOL     OW31870   1.393   2.122   3.585  0.3945 -0.1242  0.4106
 6804SOL    HW131871   1.425   2.063   3.517  0.3423  1.2601 -0.8274
 6804SOL    HW231872   1.345   2.186   3.533  1.2213  1.3344  1.4593
 6805SOL     OW31873   2.652   1.927  14.738 -0.7206 -0.0345 -0.1695
 6805SOL    HW131874   2.558   1.938  14.753 -0.6436  0.2595  0.1072
 6805SOL    HW231875   2.690   1.925  14.825  1.3274  2.6034 -1.0055
 6806SOL     OW31876   0.123   4.188   5.506  0.1854  0.6903  0.4671
 6806SOL    HW131877   0.115   4.248   5.432  0.5993 -2.1937 -1.8941
 6806SOL    HW231878   0.144   4.108   5.458  1.2813  1.3343 -0.1546
 6807SOL     OW31879   0.750   4.712   5.335  0.3971  0.0978  0.2471
 6807SOL    HW131880   0.743   4.679   5.425 -2.5422 -0.5564 -0.2255
 6807SOL    HW231881   0.803   4.646   5.292  2.3032  1.1180  1.0459
 6808SOL     OW31882   4.125   2.759  11.186  0.3281  0.4395  0.1309
 6808SOL    HW131883   4.081   2.737  11.103  1.9099  0.1992 -0.6435
 6808SOL    HW231884   4.106   2.852  11.195  1.1578  0.5145  1.0450
 6809SOL     OW31885   4.074   3.774   7.748 -0.1428 -0.0350 -0.3554
 6809SOL    HW131886   4.026   3.816   7.820 -0.5056  0.4995 -0.9062
 6809SOL    HW231887   4.005   3.714   7.720 -1.4403  0.0469  2.6476
 6810SOL     OW31888   0.935   0.781   1.849 -0.2223  0.3646 -0.1811
 6810SOL    HW131889   0.982   0.727   1.786 -2.5965 -2.0547  0.0909
 6810SOL    HW231890   0.966   0.865   1.816 -0.3844  0.1101 -0.9812
 6811SOL     OW31891   3.864   3.450   5.020 -0.3925 -0.2650  0.1803
 6811SOL    HW131892   3.813   3.477   5.096 -0.9041  3.1849 -1.3901
 6811SOL    HW231893   3.802   3.379   4.999 -1.3270  0.9608 -1.2437
 6812SOL     OW31894   0.925   0.262   3.974 -0.1510  0.4968  0.5475
 6812SOL    HW131895   0.865   0.198   4.010  0.7906  0.2196  1.6170
 6812SOL    HW231896   0.872   0.334   3.938  0.8832  0.5105 -0.9658
 6813SOL     OW31897   2.572   4.003   6.283  0.7049 -0.0587  0.2157
 6813SOL    HW131898   2.490   3.955   6.295  1.6582 -1.2907  1.7586
 6813SOL    HW231899   2.525   4.085   6.268 -1.2574 -1.3214 -0.4812
 6814SOL     OW31900   1.137   4.332   1.274 -0.1548 -0.0729  0.3252
 6814SOL    HW131901   1.208   4.282   1.315 -0.6929  0.9891  2.5603
 6814SOL    HW231902   1.089   4.271   1.218 -1.2901  1.4352 -0.3401
 6815SOL     OW31903   3.801   1.592  12.526  0.2380  0.1600 -0.1067
 6815SOL    HW131904   3.881   1.632  12.562 -0.6366  1.5466  0.2887
 6815SOL    HW231905   3.828   1.500  12.521  0.5625  0.0687  3.2101
 6816SOL     OW31906   2.303   2.367   3.257 -0.3209 -0.2668  0.6747
 6816SOL    HW131907   2.251   2.314   3.197 -0.4049 -0.3726  0.8404
 6816SOL    HW231908   2.380   2.399   3.209 -0.8618  0.6472  0.4283
 6817SOL     OW31909   0.026   3.100   7.102 -0.5166 -0.4152 -0.3998
 6817SOL    HW131910   0.019   3.004   7.103 -2.0714 -0.2768  0.5479
 6817SOL    HW231911   4.654   3.118   7.124  0.3574  0.9230  2.0940
 6818SOL     OW31912   2.506   3.472   9.514 -0.6325  0.6834 -0.5709
 6818SOL    HW131913   2.475   3.445   9.427  1.5684  0.9168 -1.4364
 6818SOL    HW231914   2.582   3.528   9.500  0.1296 -0.0721  0.5278
 6819SOL     OW31915   3.595   2.726   5.791 -0.1498  0.4625 -0.0818
 6819SOL    HW131916   3.636   2.812   5.778  0.0206  0.3913 -0.0174
 6819SOL    HW231917   3.633   2.680   5.716  2.6242  1.9547  0.4135
 6820SOL     OW31918   0.254   2.440   4.517 -0.0670 -0.0824  0.1438
 6820SOL    HW131919   0.337   2.484   4.536  1.3056 -1.6757 -2.1516
 6820SOL    HW231920   0.273   2.350   4.491 -1.5505 -1.0381  2.4156
 6821SOL     OW31921   1.019   2.883   1.011  0.2820  0.1645 -0.1301
 6821SOL    HW131922   0.937   2.932   1.003  0.1624  0.2690  1.7163
 6821SOL    HW231923   1.070   2.933   0.948  2.3911 -2.7573 -0.7619
 6822SOL     OW31924   4.483   4.681  14.303  0.0732 -0.3086 -0.2093
 6822SOL    HW131925   4.422   4.628  14.354 -0.5129  2.1821  1.7017
 6822SOL    HW231926   4.508   0.023  14.373 -1.8234 -0.9472  1.0101
 6823SOL     OW31927   4.533   1.441  15.230  0.3503 -0.3866 -0.6907
 6823SOL    HW131928   4.440   1.458  15.219  0.2394 -0.8727 -0.4835
 6823SOL    HW231929   4.552   1.358  15.187 -0.3191 -1.8856  1.8972
 6824SOL     OW31930   3.719   3.095   7.064 -0.1625  0.1424  0.3407
 6824SOL    HW131931   3.749   3.068   7.151  1.4064 -0.1472 -0.2706
 6824SOL    HW231932   3.628   3.119   7.076  0.4138  3.1368 -1.3504
 6825SOL     OW31933   4.466   0.609  10.607  0.2164 -0.0404 -0.0531
 6825SOL    HW131934   4.408   0.621  10.532 -0.5695  5.1709  1.3939
 6825SOL    HW231935   4.537   0.549  10.583 -0.2873 -1.0743  1.0300
 6826SOL     OW31936   4.340   2.125   1.895  0.1031  0.2058  0.2839
 6826SOL    HW131937   4.342   2.221   1.894 -0.3674  0.1993 -1.2383
 6826SOL    HW231938   4.433   2.118   1.876 -0.5356 -1.2407 -2.1984
 6827SOL     OW31939   3.910   3.801  13.163 -0.0170  0.0014 -0.0023
 6827SOL    HW131940   3.951   3.763  13.240 -0.6911 -1.1441 -0.2123
 6827SOL    HW231941   3.937   3.744  13.090  1.0031 -1.5309  1.5812
 6828SOL     OW31942   0.772   0.881  16.401 -0.1357  0.2370 -0.1540
 6828SOL    HW131943   0.846   0.836  16.441  0.1848  1.6992  0.9273
 6828SOL    HW231944   0.770   0.837  16.317 -1.1359  0.1061 -0.0670
 6829SOL     OW31945   0.702   0.819   1.468  0.0842  0.3894 -0.0838
 6829SOL    HW131946   0.671   0.735   1.434  0.7891  1.3916 -3.2307
 6829SOL    HW231947   0.672   0.816   1.559 -0.1800 -4.2290 -0.3507
 6830SOL     OW31948   3.194   1.265   3.485 -0.0824 -0.5219  0.5815
 6830SOL    HW131949   3.139   1.243   3.410  0.3106  0.5997 -0.0299
 6830SOL    HW231950   3.120   1.241   3.539  0.9186 -2.4448  1.1200
 6831SOL     OW31951   2.650   2.521   2.927  0.5398 -0.1286 -0.6001
 6831SOL    HW131952   2.619   2.491   2.841 -1.8689  0.0925  0.2019
 6831SOL    HW231953   2.719   2.582   2.900  0.1459  1.4717  2.0679
 6832SOL     OW31954   1.759   4.687  14.303  0.1546 -0.2692  0.4533
 6832SOL    HW131955   1.715   0.043  14.265  0.2009  1.8465  4.5688
 6832SOL    HW231956   1.689   4.624  14.321 -0.4824  0.5437  0.8140
 6833SOL     OW31957   4.529   0.101   9.748  0.3575 -0.0041 -0.0823
 6833SOL    HW131958   4.598   0.070   9.807 -1.0759 -2.7454  0.1374
 6833SOL    HW231959   4.467   0.121   9.818  2.0494 -1.5604  1.8661
 6834SOL     OW31960   2.042   3.174   5.132 -0.0761 -0.0464 -0.3234
 6834SOL    HW131961   1.995   3.236   5.187  0.1434 -0.2661  0.1092
 6834SOL    HW231962   2.014   3.099   5.184  2.7280 -0.0790  1.1479
 6835SOL     OW31963   1.333   1.814   1.202 -0.5840 -0.4605  0.1171
 6835SOL    HW131964   1.396   1.834   1.133 -2.8153  0.8540 -1.5220
 6835SOL    HW231965   1.246   1.810   1.162  0.5400 -3.3179 -2.0397
 6836SOL     OW31966   2.548   3.716   6.750 -0.7225  0.6355 -0.2603
 6836SOL    HW131967   2.618   3.652   6.737  0.7854  2.0486  0.8222
 6836SOL    HW231968   2.600   3.797   6.754 -1.9282  1.3170  1.6277
 6837SOL     OW31969   1.281   1.485  17.364 -0.4336  0.0359  0.1897
 6837SOL    HW131970   1.192   1.456  17.382  0.3638 -1.6642  1.3399
 6837SOL    HW231971   1.303   1.505  17.455 -1.3908  0.4658  0.3255
 6838SOL     OW31972   2.740   1.730   4.888  0.8657 -0.0918 -0.0608
 6838SOL    HW131973   2.813   1.673   4.909  2.2481  1.9904  0.8000
 6838SOL    HW231974   2.787   1.809   4.860 -0.4281  0.9657  0.7308
 6839SOL     OW31975   1.066   3.989   7.324 -0.1364 -0.1120 -0.2461
 6839SOL    HW131976   1.143   3.948   7.364 -0.4260  0.2776  0.7230
 6839SOL    HW231977   1.078   3.963   7.233 -2.8998  0.2042 -0.7124
 6840SOL     OW31978   3.737   3.314   1.232  0.8846 -0.3421  0.4110
 6840SOL    HW131979   3.722   3.269   1.149  1.1237 -0.1650  0.2723
 6840SOL    HW231980   3.784   3.393   1.207  1.1559 -0.8066 -0.5150
 6841SOL     OW31981   0.251   4.014   5.101  0.3303  0.2717  0.5646
 6841SOL    HW131982   0.304   3.953   5.049  0.2129 -0.8344  1.7336
 6841SOL    HW231983   0.192   4.034   5.029 -0.0642  0.2412  0.8756
 6842SOL     OW31984   1.238   0.520   8.269 -0.3745 -0.0537  0.0615
 6842SOL    HW131985   1.259   0.584   8.201  0.5871  0.3769  0.7685
 6842SOL    HW231986   1.143   0.524   8.281 -0.3477  2.4402 -0.5493
 6843SOL     OW31987   0.458   1.250   1.269  0.0578  0.1033 -0.5683
 6843SOL    HW131988   0.461   1.239   1.174 -1.0885 -2.1260 -0.3427
 6843SOL    HW231989   0.463   1.160   1.301 -1.0136 -0.3469 -1.6421
 6844SOL     OW31990   0.366   1.096  13.376  0.0406 -0.3169 -0.5476
 6844SOL    HW131991   0.443   1.058  13.418  0.7642  0.7766 -0.8821
 6844SOL    HW231992   0.402   1.102  13.288 -1.7310 -0.1250 -1.2572
 6845SOL     OW31993   4.229   1.830   4.137  0.7531  0.5690  0.2578
 6845SOL    HW131994   4.250   1.854   4.047 -0.2781  2.5238  0.5418
 6845SOL    HW231995   4.304   1.774   4.159 -1.3097 -1.2041  2.7116
 6846SOL     OW31996   2.627   1.001   6.579 -0.2353  0.4558 -0.2412
 6846SOL    HW131997   2.597   0.910   6.579 -1.3875  0.8440 -0.0278
 6846SOL    HW231998   2.634   1.017   6.673 -2.8249  0.1209  0.0048
 6847SOL     OW31999   0.038   0.470   0.400 -0.2062 -0.5436  0.3180
 6847SOL    HW132000   4.689   0.489   0.335 -1.2425 -0.2997  1.4885
 6847SOL    HW232001   4.713   0.466   0.485 -0.0242  0.2149  0.4490
 6848SOL     OW32002   4.623   3.502  13.471  0.3521 -0.2581 -0.0071
 6848SOL    HW132003   4.560   3.558  13.426  1.6546  0.0433 -1.4343
 6848SOL    HW232004   4.679   3.485  13.395 -0.1451 -0.2424 -0.3762
 6849SOL     OW32005   0.242   3.158   5.728 -0.4674  0.5269  0.1291
 6849SOL    HW132006   0.162   3.105   5.723  0.3089 -0.7389  1.0457
 6849SOL    HW232007   0.237   3.203   5.644  1.7434  2.4741  1.0435
 6850SOL     OW32008   2.481   0.914   8.543 -0.1965 -0.4199 -0.1900
 6850SOL    HW132009   2.392   0.892   8.571  0.2553 -0.8407  0.8979
 6850SOL    HW232010   2.525   0.831   8.526  0.4617 -0.4337  1.5660
 6851SOL     OW32011   2.961   2.562   3.175  0.0119 -0.0888  0.2069
 6851SOL    HW132012   3.030   2.560   3.242  2.5261 -1.7018 -2.4148
 6851SOL    HW232013   2.900   2.498   3.210 -1.1325  0.6504 -0.4527
 6852SOL     OW32014   0.571   4.371  13.913  0.3377  0.0178 -0.1515
 6852SOL    HW132015   0.664   4.360  13.896  0.5597  1.1117  0.3195
 6852SOL    HW232016   0.536   4.296  13.866 -0.0554  0.9229 -1.3178
 6853SOL     OW32017   2.349   4.306   5.584 -0.2302  0.1479 -0.2989
 6853SOL    HW132018   2.381   4.306   5.494 -1.8610  1.3469 -0.8569
 6853SOL    HW232019   2.267   4.259   5.571  0.2049 -0.0135 -2.5255
 6854SOL     OW32020   1.720   1.552   2.066 -0.3779 -0.3677  0.1541
 6854SOL    HW132021   1.778   1.572   2.140 -1.0555 -0.9973  0.8617
 6854SOL    HW232022   1.672   1.475   2.096 -0.8214 -0.1233  0.0833
 6855SOL     OW32023   2.086   3.899   7.442 -0.8684  0.7145 -0.7210
 6855SOL    HW132024   1.997   3.912   7.409 -1.9811 -0.5784  1.7172
 6855SOL    HW232025   2.074   3.823   7.499  0.4833  0.9141 -0.1718
 6856SOL     OW32026   1.200   0.886  16.892  0.2075 -0.2735 -0.6516
 6856SOL    HW132027   1.126   0.921  16.944 -0.0224  1.0338 -1.8562
 6856SOL    HW232028   1.160   0.818  16.838  2.2227 -0.7160 -1.5531
 6857SOL     OW32029   3.908   1.419   7.244 -0.1314  0.1349  0.6070
 6857SOL    HW132030   3.907   1.395   7.336 -0.9311  0.7548  0.7542
 6857SOL    HW232031   3.826   1.384   7.209 -1.0396  1.5820  1.3038
 6858SOL     OW32032   3.511   2.507   3.799 -0.4440 -0.5447  0.5892
 6858SOL    HW132033   3.582   2.550   3.751 -0.6164 -0.2250  0.6206
 6858SOL    HW232034   3.558   2.428   3.826 -2.6255 -1.4162  1.8299
 6859SOL     OW32035   4.431   1.418   5.702 -0.0538 -0.3554  0.0246
 6859SOL    HW132036   4.491   1.487   5.673 -2.0325  2.8360  3.5388
 6859SOL    HW232037   4.384   1.376   5.629 -0.7767 -2.5449  1.7602
 6860SOL     OW32038   3.759   4.298   2.752  0.0260 -0.4712 -0.1692
 6860SOL    HW132039   3.685   4.240   2.767  1.4145 -1.5992  2.2693
 6860SOL    HW232040   3.782   4.321   2.842  0.4081  1.9994 -0.8699
 6861SOL     OW32041   3.091   0.766   4.091 -0.4832 -0.1755  0.1570
 6861SOL    HW132042   3.111   0.847   4.046  0.6587  0.0707  1.0996
 6861SOL    HW232043   3.172   0.764   4.142 -0.8897 -1.1886  0.7756
 6862SOL     OW32044   4.653   3.476  15.662  0.4017 -0.2549  0.1606
 6862SOL    HW132045   4.614   3.563  15.652 -2.8360 -1.8070 -0.6032
 6862SOL    HW232046   4.577   3.433  15.700  0.9028 -0.3216  1.0771
 6863SOL     OW32047   3.619   2.717   1.555  0.3013  0.0489  0.1983
 6863SOL    HW132048   3.697   2.669   1.582 -0.0317 -0.6022 -0.0022
 6863SOL    HW232049   3.639   2.805   1.586  1.6613 -0.5625  1.0454
 6864SOL     OW32050   0.428   1.822  11.378  0.6952 -0.3685  0.6107
 6864SOL    HW132051   0.347   1.863  11.348  1.7001  2.7547  2.1623
 6864SOL    HW232052   0.391   1.774  11.453 -1.9780  0.1323 -0.3863
 6865SOL     OW32053   1.853   4.477   3.614  0.6039 -0.3573 -0.3477
 6865SOL    HW132054   1.910   4.447   3.684  0.4784  3.5416  1.4521
 6865SOL    HW232055   1.905   4.547   3.574  0.7868 -1.3632 -1.8906
 6866SOL     OW32056   4.063   2.375   1.100  0.1264  0.0218  0.5969
 6866SOL    HW132057   4.018   2.414   1.175 -0.7960 -0.6649  0.4062
 6866SOL    HW232058   4.135   2.331   1.145 -0.9534 -0.4072  1.9552
 6867SOL     OW32059   3.385   1.752   8.633  0.2940  0.0505 -0.1004
 6867SOL    HW132060   3.337   1.673   8.609 -0.8739  1.4562 -2.4228
 6867SOL    HW232061   3.473   1.728   8.606  0.2937  1.8710 -1.6884
 6868SOL     OW32062   0.226   2.061   6.017  0.1098 -0.5870 -0.6539
 6868SOL    HW132063   0.268   2.133   5.970 -1.1549  1.0963  0.7795
 6868SOL    HW232064   0.268   2.000   5.956  2.6949  1.4979 -0.9455
 6869SOL     OW32065   0.802   2.493   5.988  0.1358  0.5622 -0.5896
 6869SOL    HW132066   0.835   2.406   5.964 -0.2719  0.5258 -1.0004
 6869SOL    HW232067   0.821   2.540   5.907  0.4840  0.4215 -0.5901
 6870SOL     OW32068   2.954   3.004   8.590  0.2156 -0.3197  0.1287
 6870SOL    HW132069   3.010   3.064   8.640  0.2258  0.3515 -0.6779
 6870SOL    HW232070   2.951   3.046   8.503 -0.8474 -1.8408 -0.5514
 6871SOL     OW32071   0.929   4.409   8.514 -0.1225  0.0154 -0.9840
 6871SOL    HW132072   0.856   4.399   8.454 -0.5917 -0.5335 -0.3190
 6871SOL    HW232073   1.001   4.419   8.451  0.4843  0.1863 -0.2674
 6872SOL     OW32074   0.079   4.709   1.609 -0.0586 -0.6012  0.5830
 6872SOL    HW132075   0.093   4.662   1.691  0.7034 -2.1264 -0.4251
 6872SOL    HW232076   0.114   0.075   1.634 -1.4037 -0.3529  1.6306
 6873SOL     OW32077   2.199   2.973   7.818  0.2429 -0.2860 -0.0447
 6873SOL    HW132078   2.289   2.986   7.847  0.3708  0.5755 -0.8331
 6873SOL    HW232079   2.162   3.061   7.808  1.9695  0.6155  1.5942
 6874SOL     OW32080   2.216   0.523   6.341  0.2339  0.2045  0.3289
 6874SOL    HW132081   2.162   0.565   6.274  1.7383 -1.5848 -1.9735
 6874SOL    HW232082   2.232   0.437   6.302 -2.4048  0.0514 -0.3942
 6875SOL     OW32083   1.950   0.976   7.400 -0.2010 -0.0948 -0.5343
 6875SOL    HW132084   1.933   0.978   7.494  2.3322  0.3421 -0.1088
 6875SOL    HW232085   2.041   1.003   7.388 -0.0110 -1.2192 -1.6719
 6876SOL     OW32086   1.372   4.358  12.766  0.7980 -0.0798 -0.1108
 6876SOL    HW132087   1.410   4.438  12.802  1.5695 -0.2557 -0.5427
 6876SOL    HW232088   1.447   4.302  12.784 -0.1972 -1.9104 -1.6549
 6877SOL     OW32089   3.429   2.716   6.304  0.1954  0.7666  0.7040
 6877SOL    HW132090   3.406   2.782   6.369  0.4936  1.0996  0.4736
 6877SOL    HW232091   3.488   2.756   6.240  0.7438 -1.1780 -0.0078
 6878SOL     OW32092   4.091   3.111   5.024  0.6703 -0.4804 -0.0668
 6878SOL    HW132093   4.114   3.101   5.116 -1.7902  2.6930  0.9015
 6878SOL    HW232094   4.175   3.093   4.981 -0.0140 -0.7604 -1.2822
 6879SOL     OW32095   4.654   3.063   4.762  0.0115 -0.0313 -0.0486
 6879SOL    HW132096   4.673   3.109   4.680  0.8451  1.6255  1.0941
 6879SOL    HW232097   4.688   2.976   4.740 -1.6654 -0.9417  0.9281
 6880SOL     OW32098   2.047   1.389   2.600 -0.4305 -0.0861  0.4056
 6880SOL    HW132099   2.090   1.467   2.567 -1.4134  1.0702  1.8117
 6880SOL    HW232100   2.070   1.391   2.693 -2.7035 -0.7630  0.9847
 6881SOL     OW32101   1.432   0.624  15.436 -0.0945  0.1473  0.4051
 6881SOL    HW132102   1.422   0.667  15.351  0.1252  1.8219  1.2500
 6881SOL    HW232103   1.472   0.692  15.489  2.1104 -0.3233 -0.6430
 6882SOL     OW32104   4.320   2.064  11.403  0.2104 -0.2839  0.4044
 6882SOL    HW132105   4.252   2.129  11.423  0.5591  0.2670 -0.1892
 6882SOL    HW232106   4.268   1.984  11.402  0.6715 -0.5567 -2.1802
 6883SOL     OW32107   3.316   4.163   6.971  0.8230  0.2565  0.3021
 6883SOL    HW132108   3.230   4.143   7.009  0.2891  2.1565  0.1162
 6883SOL    HW232109   3.369   4.158   7.051  0.6535 -0.0231  0.3972
 6884SOL     OW32110   3.184   0.178   9.914 -0.0224  0.4912 -0.1136
 6884SOL    HW132111   3.113   0.116   9.931 -1.5062  2.0911 -0.5354
 6884SOL    HW232112   3.254   0.135   9.964 -2.1783 -0.9983  1.5823
 6885SOL     OW32113   4.547   4.379  14.106 -0.2266  0.5096  0.7051
 6885SOL    HW132114   4.536   4.287  14.129 -1.4637  0.6161  0.5752
 6885SOL    HW232115   4.501   4.425  14.176 -1.0150  1.0573 -0.1682
 6886SOL     OW32116   1.343   1.773   7.276  0.1905  0.8451 -0.0891
 6886SOL    HW132117   1.307   1.765   7.364  0.1870 -0.6329 -0.2275
 6886SOL    HW232118   1.423   1.822   7.297  0.8416  0.2559 -1.1840
 6887SOL     OW32119   1.673   2.541   6.059 -0.0921 -0.1431 -0.2553
 6887SOL    HW132120   1.599   2.486   6.085 -0.4188 -1.4991 -4.0202
 6887SOL    HW232121   1.689   2.492   5.978  0.8845  0.0391 -0.1807
 6888SOL     OW32122   2.061   2.268   5.689  0.5744 -0.1135 -0.3731
 6888SOL    HW132123   2.013   2.203   5.740 -0.4842  2.0143  1.3176
 6888SOL    HW232124   2.038   2.350   5.732 -1.4925 -1.1304  0.4722
 6889SOL     OW32125   2.360   3.292   3.529  0.1568 -0.2733 -0.6226
 6889SOL    HW132126   2.315   3.239   3.594  0.9115  0.0858  0.1864
 6889SOL    HW232127   2.298   3.363   3.513 -1.0937 -1.0702  0.7759
 6890SOL     OW32128   0.636   2.280   8.615  0.5023  0.1744  0.2889
 6890SOL    HW132129   0.641   2.358   8.669  0.3547  1.5402 -1.6498
 6890SOL    HW232130   0.661   2.218   8.683  3.3170 -0.7697 -1.5936
 6891SOL     OW32131   2.878   4.496  11.582  0.2442 -0.6545  0.2565
 6891SOL    HW132132   2.853   4.548  11.506  0.6043 -0.0893  0.5311
 6891SOL    HW232133   2.798   4.446  11.600  1.2090 -2.1799  0.3124
 6892SOL     OW32134   2.460   1.625   2.654  0.3378  0.4283  0.5226
 6892SOL    HW132135   2.499   1.570   2.722  1.0699 -0.8399 -0.9221
 6892SOL    HW232136   2.494   1.599   2.568 -1.1012 -0.5188  0.2312
 6893SOL     OW32137   0.639   1.405  14.470 -0.6359  0.2015 -0.3019
 6893SOL    HW132138   0.621   1.460  14.394  0.3088 -1.6629 -1.8856
 6893SOL    HW232139   0.550   1.395  14.503 -0.5558 -0.8718 -0.3900
 6894SOL     OW32140   4.404   4.605   3.241  0.0919 -0.4419 -0.5262
 6894SOL    HW132141   4.431   4.622   3.331 -1.0682 -0.7171 -0.1261
 6894SOL    HW232142   4.477   4.649   3.198 -1.5825  1.6668 -1.2039
 6895SOL     OW32143   4.305   0.712   7.539  0.0462  0.1222 -0.0529
 6895SOL    HW132144   4.371   0.769   7.579 -1.1266  1.3149  0.1521
 6895SOL    HW232145   4.248   0.703   7.616  0.0707  0.8419  0.0461
 6896SOL     OW32146   3.218   0.392   9.740 -0.1215 -0.4256  0.1411
 6896SOL    HW132147   3.134   0.359   9.771  0.1492  0.7116  2.1024
 6896SOL    HW232148   3.274   0.335   9.793  0.2587 -1.1702 -1.0446
 6897SOL     OW32149   2.419   2.115   7.186 -0.1807  0.5974 -0.0386
 6897SOL    HW132150   2.379   2.199   7.166 -0.4590  0.2426 -0.9525
 6897SOL    HW232151   2.492   2.106   7.124  0.0906  2.9968 -0.0688
 6898SOL     OW32152   1.942   2.423   8.698 -0.4140 -0.1120 -0.0484
 6898SOL    HW132153   1.990   2.453   8.775 -0.0231 -0.1595 -0.2753
 6898SOL    HW232154   1.990   2.345   8.672 -0.2773  0.2233 -0.8154
 6899SOL     OW32155   0.165   0.696   0.274 -0.5040 -0.4901  0.0830
 6899SOL    HW132156   0.120   0.727   0.195  0.7867  1.5042  0.1368
 6899SOL    HW232157   0.107   0.628   0.308 -1.8578  1.1913  1.0888
 6900SOL     OW32158   1.941   4.099   2.135 -0.3315 -0.7164  0.7579
 6900SOL    HW132159   1.892   4.024   2.101  0.8855 -0.2531 -1.9835
 6900SOL    HW232160   1.879   4.155   2.181 -1.8117 -2.7608  1.2412
 6901SOL     OW32161   0.632   0.412   8.053  0.1563 -0.6591  0.7064
 6901SOL    HW132162   0.642   0.432   8.146  2.7819  2.3586 -0.2196
 6901SOL    HW232163   0.569   0.340   8.048 -1.5131  0.8393  0.2360
 6902SOL     OW32164   0.748   1.607   8.319  0.5809  0.1983 -0.5112
 6902SOL    HW132165   0.814   1.577   8.382  0.3271  0.9039  0.0830
 6902SOL    HW232166   0.745   1.540   8.250  1.4173  0.4408 -0.7906
 6903SOL     OW32167   1.078   0.815   4.651 -0.4519  0.1915 -0.1053
 6903SOL    HW132168   1.037   0.739   4.610  1.0860 -1.1163  0.7429
 6903SOL    HW232169   1.145   0.757   4.689 -0.5644  2.0016  2.9088
 6904SOL     OW32170   3.230   1.979   6.353 -0.0246 -0.3529 -0.4374
 6904SOL    HW132171   3.170   1.905   6.349 -0.1245 -0.3065  0.1948
 6904SOL    HW232172   3.286   1.942   6.422  0.4394  1.3886  0.1220
 6905SOL     OW32173   0.822   1.075  14.001 -0.1917 -0.2800  0.2587
 6905SOL    HW132174   0.913   1.067  13.974 -0.8607  1.0701 -2.3814
 6905SOL    HW232175   0.795   1.142  13.939 -1.3809 -1.2788 -0.3137
 6906SOL     OW32176   2.479   2.897   9.402  0.6080  0.0432 -0.3677
 6906SOL    HW132177   2.528   2.936   9.475  0.6820  0.7623 -0.8029
 6906SOL    HW232178   2.426   2.974   9.381 -0.0306 -0.5859 -1.0659
 6907SOL     OW32179   4.121   3.710  10.060  0.6609 -0.5717  0.0217
 6907SOL    HW132180   4.129   3.803  10.041  0.9015 -0.8742 -1.3735
 6907SOL    HW232181   4.074   3.728  10.141 -1.0348 -0.2295 -1.0400
 6908SOL     OW32182   1.787   2.257   9.347  0.0332  0.0531  0.3564
 6908SOL    HW132183   1.737   2.306   9.412  1.1080  2.4229 -0.5910
 6908SOL    HW232184   1.868   2.309   9.347 -0.5925  1.0428 -0.5014
 6909SOL     OW32185   1.408   1.008  17.596 -0.3824  0.2287  0.3801
 6909SOL    HW132186   1.486   1.028  17.544 -0.3211  1.3756  0.9204
 6909SOL    HW232187   1.441   1.042   0.000 -0.2620 -1.3716  1.0061
 6910SOL     OW32188   4.015   4.218   5.404 -0.7926 -0.3046 -0.0017
 6910SOL    HW132189   4.099   4.175   5.424 -0.8801 -0.1183  0.7560
 6910SOL    HW232190   3.979   4.215   5.492 -0.1572 -1.1160  0.2329
 6911SOL     OW32191   3.587   1.179  10.075 -0.3837  0.1906  0.0277
 6911SOL    HW132192   3.658   1.226  10.120 -0.2705  0.4654 -0.4428
 6911SOL    HW232193   3.536   1.143  10.147 -1.6947 -0.0065 -1.0089
 6912SOL     OW32194   1.710   0.339   2.768 -0.6851  0.1187  0.5994
 6912SOL    HW132195   1.629   0.302   2.732 -0.1399  1.0309 -1.5775
 6912SOL    HW232196   1.753   0.348   2.683 -0.5259 -0.2451  0.6409
 6913SOL     OW32197   3.686   0.329   7.205  0.7027 -0.1774 -0.2945
 6913SOL    HW132198   3.695   0.283   7.288 -0.5849 -0.5282 -0.3372
 6913SOL    HW232199   3.658   0.416   7.231  0.1347  0.4350 -2.9245
 6914SOL     OW32200   2.688   3.501   6.027  0.0676 -0.5036 -0.4016
 6914SOL    HW132201   2.657   3.574   5.974 -0.8187  0.1506  0.9982
 6914SOL    HW232202   2.729   3.546   6.101  1.2951  0.3466 -1.6175
 6915SOL     OW32203   0.876   1.748   2.159 -0.1147  0.0305 -0.4383
 6915SOL    HW132204   0.901   1.833   2.122 -1.0553  0.6372  0.3337
 6915SOL    HW232205   0.962   1.716   2.188 -0.1264  0.5291  0.1566
 6916SOL     OW32206   3.817   1.102   7.167  0.3988 -0.4910  0.3121
 6916SOL    HW132207   3.768   1.020   7.160  1.5997 -1.1096 -0.9280
 6916SOL    HW232208   3.741   1.157   7.181  1.4347  0.7775  0.9963
 6917SOL     OW32209   4.513   4.050   5.033  0.8897  0.4619  0.2728
 6917SOL    HW132210   4.532   4.039   5.126  1.0282  0.2094  0.2161
 6917SOL    HW232211   4.586   3.996   5.002  0.6675 -0.4028  1.2602
 6918SOL     OW32212   3.629   3.255   6.641  0.6311 -0.5818 -0.7111
 6918SOL    HW132213   3.538   3.259   6.612 -0.1729  1.0948  2.0191
 6918SOL    HW232214   3.629   3.195   6.716  0.4895  1.3741  0.8731
 6919SOL     OW32215   3.509   3.629   3.845 -0.0494 -0.4284 -0.2167
 6919SOL    HW132216   3.522   3.554   3.787 -0.7140  0.8765 -2.0281
 6919SOL    HW232217   3.592   3.675   3.831 -0.8824  1.5397  1.3550
 6920SOL     OW32218   2.857   1.982   2.937 -0.3107  0.3514  0.5222
 6920SOL    HW132219   2.816   2.069   2.934  1.0848  0.9631 -1.0933
 6920SOL    HW232220   2.913   1.978   2.860 -1.3150 -1.2326 -0.1229
 6921SOL     OW32221   0.002   3.641   7.496  0.6611 -0.2293  0.0671
 6921SOL    HW132222   0.020   3.616   7.406  2.4231  2.3146 -0.2994
 6921SOL    HW232223   0.082   3.609   7.536 -1.2389 -3.9364  0.9198
 6922SOL     OW32224   2.691   2.896  13.365  0.0021  0.1010 -0.2100
 6922SOL    HW132225   2.672   2.989  13.347 -0.3624  0.0734  0.0216
 6922SOL    HW232226   2.746   2.915  13.440  1.3318 -1.2727 -0.8469
 6923SOL     OW32227   2.306   3.249   5.481  0.3110  0.6224  0.5335
 6923SOL    HW132228   2.263   3.331   5.504  1.5597  1.2280  0.7114
 6923SOL    HW232229   2.235   3.196   5.517 -1.7112  3.4073  0.6004
 6924SOL     OW32230   1.583   4.086   4.047 -0.4045 -0.5327  0.6986
 6924SOL    HW132231   1.585   4.041   4.131  0.5531 -0.3743  0.7571
 6924SOL    HW232232   1.494   4.069   4.014 -0.8121 -1.6297  2.3877
 6925SOL     OW32233   4.276   2.651  14.588 -0.1406  0.0896  0.3989
 6925SOL    HW132234   4.280   2.737  14.631 -0.7473 -0.3241  1.2849
 6925SOL    HW232235   4.313   2.668  14.502 -1.1976 -0.5848 -0.1829
 6926SOL     OW32236   0.267   1.049  14.505  0.2820 -0.1755 -0.2813
 6926SOL    HW132237   0.344   1.019  14.457  0.0629 -1.5314  0.2135
 6926SOL    HW232238   0.293   1.024  14.594  2.1158  1.9431 -0.2362
 6927SOL     OW32239   2.843   3.264   5.336 -0.4128  0.3660 -0.0565
 6927SOL    HW132240   2.911   3.286   5.400  2.1441  1.0848 -3.0009
 6927SOL    HW232241   2.774   3.321   5.369 -0.0554  3.0448 -3.8731
 6928SOL     OW32242   4.039   0.930   7.636  0.4828  0.1933  0.4554
 6928SOL    HW132243   4.027   0.908   7.544  2.0926  1.8083 -0.1299
 6928SOL    HW232244   4.127   0.966   7.642  0.8529 -0.4741 -1.1474
 6929SOL     OW32245   3.926   3.592   1.075 -0.0942 -0.5636 -0.2762
 6929SOL    HW132246   3.954   3.503   1.052  2.3738  0.6896 -2.0005
 6929SOL    HW232247   3.958   3.632   0.995 -1.4065  0.2653 -0.3943
 6930SOL     OW32248   3.674   0.293   3.829 -0.4169 -0.8698 -0.2014
 6930SOL    HW132249   3.617   0.363   3.798  0.7108 -0.3370 -1.0810
 6930SOL    HW232250   3.613   0.222   3.808  0.6153 -1.8865  0.2041
 6931SOL     OW32251   0.538   2.877   1.205  0.3383 -0.3735  0.4478
 6931SOL    HW132252   0.586   2.907   1.282 -0.6784  0.6175  0.6793
 6931SOL    HW232253   0.570   2.786   1.206  3.1455  0.5509 -3.3393
 6932SOL     OW32254   3.937   2.899  16.640  0.1489 -0.0431 -0.0425
 6932SOL    HW132255   3.994   2.859  16.575 -0.5901  0.2702 -0.8802
 6932SOL    HW232256   3.899   2.969  16.587 -2.7725  0.4750  2.7082
 6933SOL     OW32257   3.030   1.940   9.376 -0.1237 -0.1763 -0.3857
 6933SOL    HW132258   2.992   1.888   9.446  0.1056  1.0771  0.6654
 6933SOL    HW232259   3.099   1.878   9.351 -0.8640 -1.4991  0.8806
 6934SOL     OW32260   3.752   4.348   0.374 -0.0336 -0.5724  0.0683
 6934SOL    HW132261   3.711   4.352   0.287 -1.5807 -0.5745  0.7880
 6934SOL    HW232262   3.798   4.432   0.380 -2.1885  0.6043  0.2328
 6935SOL     OW32263   1.807   4.703   5.455 -0.2724  0.4083 -0.0170
 6935SOL    HW132264   1.826   0.023   5.540 -0.0090 -0.4775  0.3230
 6935SOL    HW232265   1.881   4.643   5.461 -0.3952  0.2207 -0.3150
 6936SOL     OW32266   3.018   0.052   7.433 -0.1927  0.0684  0.4428
 6936SOL    HW132267   3.021   0.079   7.341 -2.3501  3.3432  1.3084
 6936SOL    HW232268   3.032   0.133   7.482 -1.1889  1.1322 -1.0155
 6937SOL     OW32269   2.988   4.406   7.295 -0.2739  0.1065  0.5491
 6937SOL    HW132270   2.897   4.398   7.321 -0.4913 -0.8922 -0.5096
 6937SOL    HW232271   3.010   4.438   7.382  0.9562  1.2233 -0.1539
 6938SOL     OW32272   4.224   0.422  12.941 -0.5641  0.2442  0.0995
 6938SOL    HW132273   4.200   0.488  13.007 -0.6792  0.1265  0.1764
 6938SOL    HW232274   4.146   0.422  12.886 -0.1295 -0.9645 -0.5128
 6939SOL     OW32275   2.134   0.968   1.137 -0.3727  0.0354  0.0288
 6939SOL    HW132276   2.139   0.945   1.045  1.1202  0.5496 -0.0106
 6939SOL    HW232277   2.203   0.914   1.174 -1.6107 -0.1649  2.0898
 6940SOL     OW32278   4.004   2.080  10.005  0.0070 -0.2044 -0.3228
 6940SOL    HW132279   4.062   2.010  10.036 -1.8603 -1.6364 -0.1135
 6940SOL    HW232280   4.066   2.121   9.945 -0.5413 -0.2469 -0.9172
 6941SOL     OW32281   2.389   2.388   0.251  0.7027 -0.3453  0.4627
 6941SOL    HW132282   2.385   2.292   0.255  1.6081 -0.3260  1.7959
 6941SOL    HW232283   2.392   2.404   0.157 -3.7360 -1.3344  0.1557
 6942SOL     OW32284   0.487   4.463   9.468 -0.3240  0.0208  0.7379
 6942SOL    HW132285   0.437   4.525   9.416  0.7708  0.2206 -0.0813
 6942SOL    HW232286   0.477   4.381   9.419 -0.4611  0.0080  0.7860
 6943SOL     OW32287   1.325   1.894  12.740 -0.3263 -0.7805  0.0515
 6943SOL    HW132288   1.313   1.831  12.812  0.0381 -0.0229  0.7839
 6943SOL    HW232289   1.420   1.891  12.728 -0.6832  1.5402 -3.1729
 6944SOL     OW32290   2.072   0.117  16.418  0.0518  0.3326  0.1822
 6944SOL    HW132291   2.040   0.027  16.415 -0.2693  0.4373  0.3595
 6944SOL    HW232292   2.071   0.125  16.513  0.3998 -1.3546  0.3297
 6945SOL     OW32293   3.808   1.747   4.614  0.4806  0.2069  0.0570
 6945SOL    HW132294   3.741   1.742   4.545 -0.1587  0.2652  0.6798
 6945SOL    HW232295   3.891   1.765   4.569  1.5276  3.1239  3.1948
 6946SOL     OW32296   1.475   1.588   7.519  0.1331  0.1190 -0.2588
 6946SOL    HW132297   1.389   1.557   7.492  0.2377 -0.4512  0.0676
 6946SOL    HW232298   1.464   1.682   7.503  0.0614 -0.1908 -2.0701
 6947SOL     OW32299   0.815   3.251   8.264 -0.2123 -0.2077 -0.0570
 6947SOL    HW132300   0.825   3.191   8.190 -1.7543 -0.5551  0.0127
 6947SOL    HW232301   0.725   3.278   8.244  0.1855 -0.1998 -1.8735
 6948SOL     OW32302   0.978   4.045   6.867 -0.1914  1.1807 -0.6430
 6948SOL    HW132303   0.946   3.962   6.902  0.9784  0.9040 -0.2132
 6948SOL    HW232304   1.067   4.017   6.844 -0.7621 -0.7163 -0.4896
 6949SOL     OW32305   0.860   1.212   3.745  0.1444 -0.7790 -0.4961
 6949SOL    HW132306   0.953   1.215   3.770  0.2186 -0.7558 -0.7740
 6949SOL    HW232307   0.838   1.121   3.762 -0.7756 -0.1590  1.6980
 6950SOL     OW32308   3.609   0.967   3.538 -0.2365  0.3095 -0.0264
 6950SOL    HW132309   3.526   0.988   3.494  1.5745  3.3516 -1.9448
 6950SOL    HW232310   3.650   1.053   3.534  0.7490 -0.2181 -1.2355
 6951SOL     OW32311   0.464   0.690   7.311 -0.0876 -0.8443 -0.6919
 6951SOL    HW132312   0.486   0.621   7.248 -1.6584 -0.0070 -2.1959
 6951SOL    HW232313   0.530   0.669   7.377 -0.0207  0.8813 -0.2239
 6952SOL     OW32314   1.704   1.057   9.840  0.4574  0.2157 -0.0720
 6952SOL    HW132315   1.664   1.095   9.762 -1.0291 -0.4028  0.3889
 6952SOL    HW232316   1.719   1.139   9.887 -4.9965  1.1374  0.0297
 6953SOL     OW32317   0.873   1.748  11.172 -0.3231  0.1980 -0.4924
 6953SOL    HW132318   0.831   1.831  11.192 -0.5279 -0.4280  1.7475
 6953SOL    HW232319   0.951   1.777  11.124  0.4656  1.2533  1.4039
 6954SOL     OW32320   0.200   0.793   1.595 -0.3020  0.4271  0.4343
 6954SOL    HW132321   0.130   0.821   1.536  0.2711 -1.1890 -1.0268
 6954SOL    HW232322   0.244   0.724   1.545 -0.3312  1.5355 -1.1246
 6955SOL     OW32323   3.126   4.522   3.948  0.0618 -0.5036 -0.5167
 6955SOL    HW132324   3.126   4.617   3.960  0.7516 -0.5875  0.1674
 6955SOL    HW232325   3.032   4.504   3.943 -0.1538  0.7508 -1.0402
 6956SOL     OW32326   2.786   4.152  13.761  0.2524  0.3193 -0.4363
 6956SOL    HW132327   2.845   4.096  13.710  1.0886  0.6822  0.1210
 6956SOL    HW232328   2.844   4.217  13.801 -3.4055  2.9722  0.5756
 6957SOL     OW32329   2.853   2.046   8.554  0.2140 -0.6850  0.2665
 6957SOL    HW132330   2.854   2.140   8.574 -1.2999 -0.3401 -1.2416
 6957SOL    HW232331   2.920   2.051   8.486  0.2876  1.0618  0.4691
 6958SOL     OW32332   4.111   1.025   0.636 -0.1489  0.1621 -0.5955
 6958SOL    HW132333   4.076   1.114   0.640 -0.8739 -0.1426 -0.3165
 6958SOL    HW232334   4.115   1.015   0.541  0.5556  0.0318 -0.5532
 6959SOL     OW32335   1.356   3.263   2.485 -0.1449 -0.1429 -0.3457
 6959SOL    HW132336   1.333   3.341   2.435  1.6853  1.1140  0.8157
 6959SOL    HW232337   1.318   3.193   2.431  0.7365 -1.1071  0.2831
 6960SOL     OW32338   1.186   4.046   2.412  0.3367  0.7772 -0.1820
 6960SOL    HW132339   1.229   4.130   2.396 -1.2069  1.7373  0.7263
 6960SOL    HW232340   1.105   4.062   2.362 -0.0877  0.1346  0.3098
 6961SOL     OW32341   4.114   4.431   6.582 -0.6994 -0.1202  0.3943
 6961SOL    HW132342   4.182   4.435   6.515 -3.4025  0.2977 -2.3592
 6961SOL    HW232343   4.086   4.340   6.591  1.4158 -0.8951 -0.8221
 6962SOL     OW32344   0.648   1.214   6.493 -0.5757  0.6341  0.2758
 6962SOL    HW132345   0.578   1.154   6.518 -0.4948 -0.9898 -3.3641
 6962SOL    HW232346   0.732   1.175   6.515  0.4481  1.0620 -2.8232
 6963SOL     OW32347   1.421   2.753   0.212 -0.4274 -0.7866  0.3755
 6963SOL    HW132348   1.491   2.695   0.242 -0.1225 -0.7042 -0.1748
 6963SOL    HW232349   1.427   2.731   0.119  1.2474  1.0519  0.0414
 6964SOL     OW32350   2.633   0.754  12.770 -0.7827  0.1621 -0.5492
 6964SOL    HW132351   2.542   0.731  12.753 -0.7592 -1.3203  1.4052
 6964SOL    HW232352   2.622   0.817  12.841 -0.6714  0.4531 -0.7906
 6965SOL     OW32353   1.645   2.763   3.501  0.3552  0.1395 -0.1703
 6965SOL    HW132354   1.569   2.743   3.557  0.2968 -0.0304 -0.3098
 6965SOL    HW232355   1.697   2.818   3.559 -0.2853 -0.0954  0.6394
 6966SOL     OW32356   1.527   3.960   7.958  0.4002 -0.1362 -0.4657
 6966SOL    HW132357   1.591   3.910   8.010 -1.1718  0.0659  1.6794
 6966SOL    HW232358   1.445   3.912   7.969 -0.0121  0.4341 -1.0727
 6967SOL     OW32359   4.559   0.706   8.293  0.6591  0.3918 -0.1469
 6967SOL    HW132360   4.591   0.794   8.273  0.3170  0.2580 -1.2928
 6967SOL    HW232361   4.591   0.656   8.218 -1.0376 -1.8659  0.6399
 6968SOL     OW32362   1.313   0.482  16.010  0.1218  0.1073 -0.0634
 6968SOL    HW132363   1.337   0.562  16.057 -1.7400 -0.3059  1.5582
 6968SOL    HW232364   1.341   0.505  15.921 -1.2063 -0.6997 -0.6958
 6969SOL     OW32365   0.846   2.132   4.703  0.1510 -0.1952 -0.4798
 6969SOL    HW132366   0.841   2.203   4.768 -0.4930 -1.1014  0.4671
 6969SOL    HW232367   0.832   2.062   4.767  0.2179 -0.6068 -0.9167
 6970SOL     OW32368   3.110   2.547  16.984  0.1902  0.3590 -0.1423
 6970SOL    HW132369   3.035   2.488  16.970  1.5662 -1.2906 -0.5406
 6970SOL    HW232370   3.076   2.631  16.954  0.4800 -0.3613 -2.5106
 6971SOL     OW32371   0.448   0.032  12.701 -0.3904  0.1342 -0.4202
 6971SOL    HW132372   0.444   4.656  12.690 -0.2882 -0.1225  1.8347
 6971SOL    HW232373   0.359   0.059  12.678 -0.2890  0.8933  0.0845
 6972SOL     OW32374   1.005   0.507  10.496 -0.3575 -0.1341 -0.1889
 6972SOL    HW132375   0.922   0.460  10.495 -0.9750  0.9398  0.3707
 6972SOL    HW232376   1.054   0.451  10.556 -3.5706 -1.6445  1.0315
 6973SOL     OW32377   3.790   4.028  13.582  0.0208 -0.1446 -0.4779
 6973SOL    HW132378   3.817   4.108  13.537 -0.5089 -0.3774 -1.2162
 6973SOL    HW232379   3.762   3.982  13.503 -0.7857  1.7038 -1.2761
 6974SOL     OW32380   3.569   4.506   2.463 -0.1872  0.0367 -0.1705
 6974SOL    HW132381   3.657   4.491   2.429  0.5002  1.2185  1.0490
 6974SOL    HW232382   3.595   4.543   2.547  1.6512  1.3257 -1.3133
 6975SOL     OW32383   1.693   4.381   5.541 -0.0462  0.1127 -0.1531
 6975SOL    HW132384   1.698   4.353   5.633  1.0212  0.7469 -0.0240
 6975SOL    HW232385   1.697   4.294   5.502 -1.4282 -0.9952  2.1415
 6976SOL     OW32386   1.688   3.020  10.308  0.4067  0.5211  0.3262
 6976SOL    HW132387   1.678   3.114  10.324  2.0325  0.8070 -0.3341
 6976SOL    HW232388   1.695   2.987  10.398 -1.4658  0.9052  0.6075
 6977SOL     OW32389   2.756   4.448   7.692 -0.4564 -0.2569  0.4688
 6977SOL    HW132390   2.796   4.509   7.753 -1.3266  0.7141  0.0703
 6977SOL    HW232391   2.770   4.490   7.607 -2.2453  1.4765  1.0416
 6978SOL     OW32392   2.789   4.283   2.004 -0.0214 -0.2495 -0.3412
 6978SOL    HW132393   2.769   4.222   2.075  0.1753  1.3090  1.0454
 6978SOL    HW232394   2.852   4.236   1.949 -0.8081  0.1994 -1.6352
 6979SOL     OW32395   1.992   0.635   2.407 -0.2795 -0.3560  0.2595
 6979SOL    HW132396   1.984   0.728   2.389  0.1717 -0.3455  0.1281
 6979SOL    HW232397   2.075   0.610   2.367  0.0371  0.6921  0.2772
 6980SOL     OW32398   3.201   3.218   2.955  0.0306 -0.0132 -1.0779
 6980SOL    HW132399   3.213   3.236   2.862 -0.0702  0.1894 -1.0526
 6980SOL    HW232400   3.188   3.307   2.989  1.0696  0.0828 -0.9251
 6981SOL     OW32401   4.231   4.039   5.017 -0.3662 -0.3603  0.2931
 6981SOL    HW132402   4.207   3.966   4.960 -2.8771  2.2257 -1.9104
 6981SOL    HW232403   4.324   4.031   5.041 -0.4433 -1.1557  0.3373
 6982SOL     OW32404   4.633   0.562  17.347  0.0594 -0.0416  0.0564
 6982SOL    HW132405   4.610   0.500  17.416  0.5864  2.2042  2.2502
 6982SOL    HW232406   4.622   0.505  17.271 -1.9105  0.1902  0.1755
 6983SOL     OW32407   3.115   4.426   2.041 -0.0234 -0.0772  0.2082
 6983SOL    HW132408   3.169   4.498   2.011 -0.3094 -0.0777 -0.3190
 6983SOL    HW232409   3.034   4.476   2.033 -0.2157 -0.2802  0.8553
 6984SOL     OW32410   3.199   1.528   4.966  0.6080 -0.1109 -0.1011
 6984SOL    HW132411   3.232   1.527   4.877  1.9445  2.5129  0.3558
 6984SOL    HW232412   3.229   1.447   5.007 -3.0427 -0.3901  1.9898
 6985SOL     OW32413   1.544   2.279  14.898  0.1994  0.1333  0.0342
 6985SOL    HW132414   1.566   2.211  14.835 -1.6307  0.1542 -0.6470
 6985SOL    HW232415   1.461   2.252  14.939 -0.8777  1.1609 -1.4846
 6986SOL     OW32416   1.953   4.353   3.832  0.3480  0.7914  0.2122
 6986SOL    HW132417   1.979   4.428   3.886 -0.0361 -0.0520  1.5774
 6986SOL    HW232418   1.867   4.337   3.870  0.8430 -1.7387  0.2488
 6987SOL     OW32419   2.348   2.394   8.791 -0.1987 -0.0200 -0.0057
 6987SOL    HW132420   2.310   2.481   8.800  0.5663  0.2480  0.5765
 6987SOL    HW232421   2.435   2.404   8.829 -1.2647  0.4159  2.2843
 6988SOL     OW32422   3.205   1.969   2.962 -0.2874 -0.7329 -0.1955
 6988SOL    HW132423   3.160   1.981   2.878  0.4454 -1.8909 -0.7534
 6988SOL    HW232424   3.251   2.051   2.980 -2.2219  0.0702  1.1689
 6989SOL     OW32425   3.454   3.035   6.051  0.1540  0.3048 -0.0122
 6989SOL    HW132426   3.416   2.987   5.977  2.3676 -0.2001 -0.8079
 6989SOL    HW232427   3.524   3.085   6.010 -1.6986  2.3279 -0.7270
 6990SOL     OW32428   0.543   0.006   1.014 -1.2053  0.0046  1.0140
 6990SOL    HW132429   0.487   4.650   1.034 -1.0753 -0.5964 -0.8279
 6990SOL    HW232430   0.579   4.700   0.929 -0.7780 -1.5076  1.6293
 6991SOL     OW32431   3.100   3.731   9.970  0.2412  0.0761  0.3656
 6991SOL    HW132432   3.123   3.803   9.911  1.0288 -1.6996 -1.5002
 6991SOL    HW232433   3.082   3.781  10.050 -1.3712  1.4023 -0.8191
 6992SOL     OW32434   2.088   4.616   5.519  0.5061 -0.4807  0.4628
 6992SOL    HW132435   2.142   4.600   5.597 -1.7165  0.5256  2.2007
 6992SOL    HW232436   2.146   4.679   5.476 -0.9670  0.7385  0.2961
 6993SOL     OW32437   1.070   1.013   1.739 -0.0809  0.1644  0.4461
 6993SOL    HW132438   0.994   1.071   1.750  0.9805  1.7004 -0.3012
 6993SOL    HW232439   1.108   1.050   1.660  0.2945 -2.0264 -0.4058
 6994SOL     OW32440   1.990   1.039   1.355 -0.1906  0.8647 -0.8609
 6994SOL    HW132441   2.035   1.024   1.272  3.2534  2.6919  0.6245
 6994SOL    HW232442   2.058   1.085   1.406  1.6609 -0.1494 -2.4465
 6995SOL     OW32443   3.013   0.494  16.866 -0.0155  0.4756  0.9128
 6995SOL    HW132444   3.049   0.410  16.836  0.2361  1.1972 -0.8018
 6995SOL    HW232445   3.098   0.525  16.898  0.4300  0.1349  0.0637
 6996SOL     OW32446   2.379   1.611  11.185 -0.1511  0.0663 -0.1809
 6996SOL    HW132447   2.343   1.613  11.273  2.7144  0.8136  0.9706
 6996SOL    HW232448   2.468   1.614  11.220  0.2069  1.2422 -1.1713
 6997SOL     OW32449   0.055   4.673   6.190  0.5624 -0.1737  0.2674
 6997SOL    HW132450   0.117   0.015   6.151  0.4470 -0.0517  0.2713
 6997SOL    HW232451   0.009   0.015   6.248  0.5033  0.3316 -0.3113
 6998SOL     OW32452   0.417   0.149   0.455  0.0190  0.4382  0.2156
 6998SOL    HW132453   0.366   0.069   0.443 -0.4833  0.8195 -0.1782
 6998SOL    HW232454   0.475   0.141   0.379  2.2409 -0.0436  1.9431
 6999SOL     OW32455   0.600   0.456   5.215  0.8439  0.1636 -0.0815
 6999SOL    HW132456   0.664   0.398   5.256 -0.3794 -0.1276  1.4027
 6999SOL    HW232457   0.666   0.510   5.171 -0.2122  0.3334 -1.4654
 7000SOL     OW32458   3.046   1.619  13.243 -0.1399  0.1728  0.0173
 7000SOL    HW132459   3.117   1.564  13.209 -0.1524 -1.1272  2.0772
 7000SOL    HW232460   2.989   1.633  13.168  1.5792  2.0713 -0.9202
 7001SOL     OW32461   4.057   0.387   8.133  0.4224  0.2967 -0.1466
 7001SOL    HW132462   4.078   0.470   8.174 -2.8933  1.1305 -0.0835
 7001SOL    HW232463   4.119   0.326   8.172 -0.1523  0.9238  1.7088
 7002SOL     OW32464   2.105   4.131  12.962 -0.1408  0.1701 -0.0578
 7002SOL    HW132465   2.031   4.188  12.982 -0.0679 -0.3411  1.7171
 7002SOL    HW232466   2.182   4.187  12.964  0.4670 -0.7023  0.9747
 7003SOL     OW32467   3.696   1.054   2.620  0.4742 -0.1311  0.0330
 7003SOL    HW132468   3.620   0.999   2.636  1.1345 -1.4437 -1.2810
 7003SOL    HW232469   3.770   0.994   2.630 -1.0591 -2.4227 -2.3133
 7004SOL     OW32470   1.281   3.382   0.074  0.5768  0.2858  0.1278
 7004SOL    HW132471   1.366   3.417   0.101  0.6304  0.2326  0.0242
 7004SOL    HW232472   1.292   3.295   0.111 -0.0913  1.1314  2.3309
 7005SOL     OW32473   2.627   4.110   5.660  0.3984 -0.2436 -0.0692
 7005SOL    HW132474   2.720   4.118   5.684  0.1637 -1.0539  1.1244
 7005SOL    HW232475   2.592   4.162   5.732 -0.6261  0.1491 -0.8575
 7006SOL     OW32476   1.228   3.556   8.932 -0.0986 -0.3306 -0.1515
 7006SOL    HW132477   1.270   3.529   9.013  0.1240  1.6511  0.3861
 7006SOL    HW232478   1.173   3.484   8.902 -0.5762  0.2201 -0.6044
 7007SOL     OW32479   0.044   2.071   3.027  0.2024 -0.0972  0.2777
 7007SOL    HW132480   4.694   2.124   2.986  0.8446  0.3086 -0.2628
 7007SOL    HW232481   0.041   2.103   3.117 -0.1519 -0.4723  0.4011
 7008SOL     OW32482   4.081   1.665   3.718 -0.0340  0.0093  0.4791
 7008SOL    HW132483   4.028   1.611   3.659 -0.3189  0.9304 -0.0967
 7008SOL    HW232484   4.012   1.710   3.765  0.9423  0.4348  1.5197
 7009SOL     OW32485   2.218   3.603   8.035 -0.2852 -1.0537  0.1783
 7009SOL    HW132486   2.231   3.598   8.130 -1.6025 -3.8961  0.2145
 7009SOL    HW232487   2.304   3.630   8.004 -1.4748 -0.1288 -2.3055
 7010SOL     OW32488   3.448   0.008   8.702  0.2175 -0.0703  0.0479
 7010SOL    HW132489   3.544   0.012   8.701  0.2335 -1.0128 -2.0415
 7010SOL    HW232490   3.435   0.085   8.757  1.5885 -0.7936  1.4018
 7011SOL     OW32491   2.360   3.940   9.039 -0.7794 -0.6823  1.1617
 7011SOL    HW132492   2.403   4.025   9.049 -1.0222 -0.1603 -2.2344
 7011SOL    HW232493   2.297   3.956   8.969 -2.6539 -1.2590  2.7179
 7012SOL     OW32494   4.160   3.583   4.782 -0.1871  0.6904 -0.1761
 7012SOL    HW132495   4.216   3.543   4.848  1.3385  0.2914 -1.7196
 7012SOL    HW232496   4.101   3.508   4.784  1.2034 -0.3526  1.3158
 7013SOL     OW32497   3.346   0.764   9.599 -0.6485  0.1036 -0.1286
 7013SOL    HW132498   3.314   0.750   9.689 -1.4359 -0.0669 -0.4276
 7013SOL    HW232499   3.294   0.836   9.564  0.0556 -0.8677 -3.1458
 7014SOL     OW32500   1.183   1.826   3.236 -0.3726 -0.2679 -0.6485
 7014SOL    HW132501   1.106   1.831   3.292 -1.4317 -1.2798 -2.0118
 7014SOL    HW232502   1.161   1.754   3.177  0.8227  0.1449 -1.6052
 7015SOL     OW32503   4.675   2.990  11.059  0.1167 -0.0864 -0.4190
 7015SOL    HW132504   0.019   3.023  10.995 -1.8031  0.7185 -1.9003
 7015SOL    HW232505   4.692   2.896  11.057 -1.7829 -0.4574  1.2322
 7016SOL     OW32506   3.451   2.933   3.871 -0.3636 -0.4090  0.4354
 7016SOL    HW132507   3.495   2.903   3.792 -3.5385 -1.7493 -0.8256
 7016SOL    HW232508   3.523   2.988   3.902  0.2480  0.0287 -1.8059
 7017SOL     OW32509   2.027   3.334   4.211  0.2576  0.1474  0.2311
 7017SOL    HW132510   2.103   3.345   4.155 -0.9846 -2.2597 -1.9181
 7017SOL    HW232511   2.060   3.259   4.259 -1.6416 -0.6958  0.2216
 7018SOL     OW32512   2.243   0.565   9.111 -0.8038 -0.6092  0.8193
 7018SOL    HW132513   2.160   0.612   9.104 -1.3614 -1.4795  1.5677
 7018SOL    HW232514   2.306   0.632   9.086 -0.4476 -1.3575 -0.2880
 7019SOL     OW32515   0.009   2.132   3.289  0.1809 -0.5825  0.0361
 7019SOL    HW132516   4.637   2.117   3.316 -0.0292 -1.0011 -0.9178
 7019SOL    HW232517   0.052   2.123   3.374 -1.0482  0.0291  0.7194
 7020SOL     OW32518   0.038   2.983   2.088  0.3662 -0.1480  0.3881
 7020SOL    HW132519   4.709   3.017   2.013  0.2211 -0.9244  0.1247
 7020SOL    HW232520   0.060   2.901   2.043 -1.1783 -0.3500  0.0067
 7021SOL     OW32521   1.995   0.647   7.322  0.1593 -0.1352 -0.1151
 7021SOL    HW132522   2.064   0.710   7.343  0.2104  0.0436 -0.8119
 7021SOL    HW232523   2.045   0.596   7.257  0.0318 -1.7289  1.0163
 7022SOL     OW32524   2.639   3.071   7.069  0.7323 -0.3981 -0.6921
 7022SOL    HW132525   2.568   3.052   7.130  1.4405 -2.3109 -0.4850
 7022SOL    HW232526   2.712   3.021   7.105  0.6615 -0.2005 -0.2784
 7023SOL     OW32527   2.955   3.406   8.554 -0.1397  0.2140 -0.2773
 7023SOL    HW132528   2.967   3.328   8.500  1.5146  1.4964 -1.7237
 7023SOL    HW232529   2.989   3.363   8.633  0.3370  1.3265  0.1186
 7024SOL     OW32530   3.049   1.673   4.000  0.0126 -0.1923 -0.0074
 7024SOL    HW132531   3.131   1.651   4.043 -0.9556 -1.4851  1.1836
 7024SOL    HW232532   2.988   1.613   4.043 -0.5593  0.6279  0.3308
 7025SOL     OW32533   4.623   4.604   2.341  0.8272 -0.6903  0.0964
 7025SOL    HW132534   4.682   4.678   2.353  0.6826 -1.0018  2.7837
 7025SOL    HW232535   4.570   4.619   2.263 -2.1154  0.1184  2.2408
 7026SOL     OW32536   2.869   2.602  14.285  0.3071 -0.4235  0.0151
 7026SOL    HW132537   2.836   2.524  14.240 -0.1732 -1.1978  1.6737
 7026SOL    HW232538   2.786   2.648  14.279 -0.0444 -1.1085 -0.3362
 7027SOL     OW32539   3.869   0.328  12.279  0.7132  0.0251 -0.4105
 7027SOL    HW132540   3.882   0.422  12.264 -1.4734 -0.0059 -2.4374
 7027SOL    HW232541   3.917   0.297  12.203  1.2493  2.3392 -1.0175
 7028SOL     OW32542   0.529   2.173   8.918  0.9113 -0.3790 -0.1990
 7028SOL    HW132543   0.605   2.115   8.920  1.7175  0.5999 -1.9403
 7028SOL    HW232544   0.558   2.253   8.963  0.3369 -0.6885  0.7131
 7029SOL     OW32545   4.112   1.273  14.851  0.2559 -0.3503 -0.3307
 7029SOL    HW132546   4.020   1.261  14.828 -0.1364  1.4347  0.2581
 7029SOL    HW232547   4.162   1.239  14.778  0.9214  0.7069 -0.3598
 7030SOL     OW32548   4.049   3.116   5.936 -0.4872 -0.1366 -0.0862
 7030SOL    HW132549   4.100   3.073   6.004 -1.5693 -0.6177  0.4289
 7030SOL    HW232550   4.079   3.207   5.948 -1.5802  0.2521 -0.2852
 7031SOL     OW32551   1.083   4.340   3.184  0.7986 -0.2041  0.1574
 7031SOL    HW132552   1.072   4.276   3.114 -1.0257  1.1123 -0.7833
 7031SOL    HW232553   0.991   4.355   3.204  1.2409  0.7377  1.4898
 7032SOL     OW32554   1.992   0.838   8.012  0.1636  0.2409 -0.1600
 7032SOL    HW132555   1.956   0.886   8.087 -1.4174 -1.7027  0.3275
 7032SOL    HW232556   2.080   0.818   8.041  0.3658 -1.9370 -2.3462
 7033SOL     OW32557   1.880   2.726   5.819 -0.0233  0.3001  0.2594
 7033SOL    HW132558   1.946   2.793   5.841 -0.0800  0.9778 -1.6349
 7033SOL    HW232559   1.947   2.669   5.781 -0.7207 -1.2988  1.4619
 7034SOL     OW32560   1.416   2.093  16.999 -0.0576  0.1425 -0.3390
 7034SOL    HW132561   1.368   2.164  16.958 -0.6658  0.9883  1.8674
 7034SOL    HW232562   1.507   2.120  16.989  0.6271 -2.3022 -0.7336
 7035SOL     OW32563   3.800   1.577   9.003  0.3877 -0.1471 -0.5503
 7035SOL    HW132564   3.883   1.534   9.022  0.9913  0.9351 -0.7570
 7035SOL    HW232565   3.746   1.523   9.061  0.3763  1.6269  1.0728
 7036SOL     OW32566   2.568   3.851  14.400  0.1027 -0.3623 -0.7470
 7036SOL    HW132567   2.658   3.863  14.369 -0.6346  0.7075 -2.5173
 7036SOL    HW232568   2.565   3.848  14.496  0.4251  1.6831 -0.6616
 7037SOL     OW32569   3.385   2.804   9.317 -0.8445 -0.5358  0.2011
 7037SOL    HW132570   3.334   2.875   9.355 -1.3581  0.2204 -1.8918
 7037SOL    HW232571   3.359   2.723   9.362  0.3902 -0.5407  0.9176
 7038SOL     OW32572   3.089   2.817  16.887  0.3770 -0.3446  0.2175
 7038SOL    HW132573   3.182   2.820  16.912  1.0301  1.4163 -2.3428
 7038SOL    HW232574   3.093   2.856  16.799  1.1233 -2.2138 -0.5811
 7039SOL     OW32575   2.767   0.290   6.870  0.7111  0.7885  0.1052
 7039SOL    HW132576   2.808   0.255   6.790 -0.4767 -0.3741  0.0087
 7039SOL    HW232577   2.731   0.376   6.847 -0.3737 -0.0556 -1.3668
 7040SOL     OW32578   1.444   0.819   8.278  0.5035  0.2618 -0.5115
 7040SOL    HW132579   1.520   0.791   8.227  1.4654  1.3775  0.2876
 7040SOL    HW232580   1.377   0.790   8.216  0.3500  2.8926 -1.5732
 7041SOL     OW32581   2.225   3.106   1.793  0.0840  0.3068 -0.2661
 7041SOL    HW132582   2.245   3.173   1.859 -0.3366  1.4014 -1.2622
 7041SOL    HW232583   2.306   3.088   1.745 -0.9363 -2.8031 -0.8476
 7042SOL     OW32584   0.675   2.686   4.773 -0.5410  0.3336 -0.2816
 7042SOL    HW132585   0.687   2.619   4.840  0.4018 -0.1964 -0.9879
 7042SOL    HW232586   0.758   2.685   4.726 -0.3743 -0.3331  0.0311
 7043SOL     OW32587   3.639   0.880   4.179  0.1774 -0.1476  0.4082
 7043SOL    HW132588   3.641   0.955   4.239  2.9612 -0.7236  1.0692
 7043SOL    HW232589   3.683   0.930   4.110  1.8542 -0.8976  0.9293
 7044SOL     OW32590   2.614   1.405   0.782  0.4604 -0.4038  0.0665
 7044SOL    HW132591   2.655   1.368   0.860  1.4734  0.2363 -0.1646
 7044SOL    HW232592   2.527   1.438   0.805  0.1640 -2.4154  1.7603
 7045SOL     OW32593   0.139   0.975   6.027 -0.3841 -0.0057 -0.8064
 7045SOL    HW132594   0.117   0.997   6.118 -1.2925  1.0352 -1.2761
 7045SOL    HW232595   0.195   1.048   6.003  2.2906 -1.5278  0.7684
 7046SOL     OW32596   1.905   0.721   6.981  0.3040 -0.5802 -0.0040
 7046SOL    HW132597   1.997   0.745   6.968  0.3915 -0.3813  0.9861
 7046SOL    HW232598   1.871   0.791   7.037  0.0510 -1.1671  0.5728
 7047SOL     OW32599   1.594   2.197   9.132 -0.7202 -0.0675  0.1796
 7047SOL    HW132600   1.672   2.228   9.178 -0.2607 -1.3215  0.2713
 7047SOL    HW232601   1.548   2.137   9.191  2.8273 -1.0361  1.9944
 7048SOL     OW32602   3.493   4.513   4.236 -0.1875  0.1929  0.8630
 7048SOL    HW132603   3.437   4.497   4.312  2.2778  0.9339  2.8189
 7048SOL    HW232604   3.510   4.606   4.243 -1.0628  0.2428  2.4339
 7049SOL     OW32605   2.920   2.966   7.570 -0.4659  0.4308 -0.1717
 7049SOL    HW132606   2.882   2.882   7.544 -0.5765  0.4714 -0.1424
 7049SOL    HW232607   2.879   3.029   7.510  0.1819  0.2870 -0.7724
 7050SOL     OW32608   2.856   2.711   7.452 -0.6556 -0.3362  0.3205
 7050SOL    HW132609   2.836   2.764   7.374  1.1926 -0.6658 -0.3770
 7050SOL    HW232610   2.775   2.660   7.462 -1.5945  0.3607 -3.7604
 7051SOL     OW32611   1.184   0.398  15.005 -0.3103 -0.8060  0.2315
 7051SOL    HW132612   1.144   0.390  14.918  2.6554 -0.0284 -1.2064
 7051SOL    HW232613   1.173   0.489  15.030 -0.8931 -0.3322 -1.7311
 7052SOL     OW32614   0.745   0.057  16.004 -0.5900 -0.4533 -0.2480
 7052SOL    HW132615   0.747   0.143  16.046  2.8230 -1.8453  2.5041
 7052SOL    HW232616   0.827   0.062  15.954 -2.3846  0.3427 -3.0713
 7053SOL     OW32617   2.675   2.178  12.099 -0.1841  0.3959  0.5986
 7053SOL    HW132618   2.588   2.138  12.098  0.4687 -0.9926 -0.7889
 7053SOL    HW232619   2.650   2.266  12.072 -1.5767 -0.1535  0.0799
 7054SOL     OW32620   3.970   3.641   2.355  0.4140 -0.2989 -0.2421
 7054SOL    HW132621   4.024   3.690   2.417 -2.5346 -1.3708  3.1838
 7054SOL    HW232622   3.964   3.707   2.286  0.2029 -0.2482 -0.1743
 7055SOL     OW32623   1.240   2.538   3.033  0.0571 -0.2927  0.3667
 7055SOL    HW132624   1.332   2.512   3.039  0.7308  2.1627  0.6858
 7055SOL    HW232625   1.243   2.606   2.965  1.4773 -1.7722 -1.0603
 7056SOL     OW32626   2.311   0.284  10.462  0.3864  0.3118  0.4752
 7056SOL    HW132627   2.267   0.199  10.462  1.0921 -0.0373  3.5016
 7056SOL    HW232628   2.313   0.300  10.556 -1.1325  0.0305  0.5498
 7057SOL     OW32629   2.282   1.694   3.578  0.1892  0.3877 -0.2805
 7057SOL    HW132630   2.240   1.619   3.535 -0.5628  0.5861  0.1181
 7057SOL    HW232631   2.210   1.756   3.582  0.1155  0.2536  0.3713
 7058SOL     OW32632   2.020   1.396   3.220 -0.0936 -0.4100  0.0950
 7058SOL    HW132633   2.039   1.332   3.288  1.6372  0.2016  0.1851
 7058SOL    HW232634   2.025   1.336   3.146  0.5721  0.6105 -0.6853
 7059SOL     OW32635   1.301   2.016   4.022 -0.0815  0.3949 -0.6627
 7059SOL    HW132636   1.224   2.028   3.966 -0.7282 -1.7953 -0.2314
 7059SOL    HW232637   1.281   1.931   4.062 -1.4215  1.2682  0.5046
 7060SOL     OW32638   0.388   2.928  10.803  0.5240 -0.3810  0.3738
 7060SOL    HW132639   0.353   2.890  10.722  1.7824  0.3988 -0.5331
 7060SOL    HW232640   0.332   3.005  10.813 -0.1812 -0.4466 -2.9404
 7061SOL     OW32641   1.790   3.752   9.020  0.0055 -0.1356 -0.4375
 7061SOL    HW132642   1.765   3.707   9.100  0.6627  0.8000  0.3043
 7061SOL    HW232643   1.701   3.767   8.989  0.6078  0.4668 -1.8556
 7062SOL     OW32644   1.951   4.588  16.450  0.3561 -0.1529 -0.2347
 7062SOL    HW132645   1.886   4.526  16.482  0.4097  0.0737  0.3216
 7062SOL    HW232646   2.025   4.527  16.444 -1.2729 -2.1460  0.2334
 7063SOL     OW32647   1.592   3.600   1.309 -0.5427 -0.3044 -0.6377
 7063SOL    HW132648   1.665   3.644   1.353 -1.5901  0.4364  0.3638
 7063SOL    HW232649   1.570   3.662   1.239 -2.3787  1.5948  1.6085
 7064SOL     OW32650   0.642   3.165  11.610 -0.5618 -0.1344 -0.3388
 7064SOL    HW132651   0.569   3.211  11.651  0.1862  0.8379 -0.1013
 7064SOL    HW232652   0.719   3.212  11.640  0.1330 -0.7526 -1.1265
 7065SOL     OW32653   1.615   0.103   6.593 -0.6367  0.2453 -0.0802
 7065SOL    HW132654   1.526   0.132   6.611 -0.0697  0.9665  1.6519
 7065SOL    HW232655   1.667   0.134   6.668  0.0402 -4.2335  1.2837
 7066SOL     OW32656   2.373   3.723   7.524  0.3284 -0.4419 -0.0001
 7066SOL    HW132657   2.413   3.794   7.574 -0.2951  0.0923 -0.2551
 7066SOL    HW232658   2.278   3.737   7.522  0.5663  1.1413 -0.8310
 7067SOL     OW32659   4.312   1.438  14.655 -0.3754  0.1205  0.1411
 7067SOL    HW132660   4.354   1.478  14.731  2.6037 -0.7911 -1.0096
 7067SOL    HW232661   4.382   1.385  14.616 -0.6822 -1.3265  1.5451
 7068SOL     OW32662   3.478   1.327  15.387  0.1023 -0.3974 -0.0504
 7068SOL    HW132663   3.493   1.299  15.296 -0.1236  1.5307 -0.6707
 7068SOL    HW232664   3.434   1.408  15.365 -0.0787  0.3275  3.0362
 7069SOL     OW32665   1.999   3.590  13.845 -0.0564 -0.2954  0.4693
 7069SOL    HW132666   2.008   3.494  13.846 -0.4739 -0.3575 -1.0152
 7069SOL    HW232667   2.076   3.619  13.894 -0.1195 -2.6031  1.9481
 7070SOL     OW32668   2.646   4.612   5.703 -0.2472  0.2920 -0.8394
 7070SOL    HW132669   2.726   4.576   5.666  1.8360  2.2290  1.8751
 7070SOL    HW232670   2.682   4.693   5.740 -0.3805  1.0982 -2.4538
 7071SOL     OW32671   1.353   3.555   4.524 -0.3474  0.3757 -0.0972
 7071SOL    HW132672   1.277   3.597   4.565 -0.9310  0.0530 -0.8418
 7071SOL    HW232673   1.369   3.625   4.461 -1.1796  0.8858  0.2566
 7072SOL     OW32674   3.142   2.985   3.162 -0.2924  0.0786 -0.1726
 7072SOL    HW132675   3.055   3.025   3.162  0.6820  2.1784  2.4787
 7072SOL    HW232676   3.149   2.981   3.066  0.1448 -0.4571 -0.1162
 7073SOL     OW32677   3.642   2.958   1.144 -0.1182  0.4725  0.2381
 7073SOL    HW132678   3.584   2.915   1.207 -2.1578  2.4958 -0.2213
 7073SOL    HW232679   3.652   2.900   1.068 -0.8742  1.3560 -0.5444
 7074SOL     OW32680   0.561   1.782   6.993  0.0783 -0.0760  0.0323
 7074SOL    HW132681   0.561   1.760   7.086  0.9235 -1.7461 -0.3581
 7074SOL    HW232682   0.470   1.810   6.987  0.3109  0.5465 -0.5204
 7075SOL     OW32683   3.166   0.700   6.305  0.2623  0.4885  0.0832
 7075SOL    HW132684   3.241   0.654   6.269  0.4087  2.2117 -1.8175
 7075SOL    HW232685   3.195   0.766   6.368 -1.4779  1.2033  0.1622
 7076SOL     OW32686   2.202   0.409  10.246  0.8256 -0.4623 -0.3158
 7076SOL    HW132687   2.207   0.355  10.324  1.6631 -0.2235 -0.2074
 7076SOL    HW232688   2.277   0.468  10.258  1.3028 -1.2265  0.4824
 7077SOL     OW32689   0.985   0.460  15.559 -0.0646 -0.2248 -0.8143
 7077SOL    HW132690   1.061   0.450  15.503  0.2991  3.0610 -0.9078
 7077SOL    HW232691   1.027   0.479  15.643 -1.0952 -0.0846 -0.3254
 7078SOL     OW32692   2.746   2.107   5.662  0.6854  0.4537  0.2046
 7078SOL    HW132693   2.712   2.128   5.576 -1.1922  0.9625  1.0764
 7078SOL    HW232694   2.815   2.173   5.665  0.9216  0.3011 -1.8707
 7079SOL     OW32695   3.312   3.722   7.664 -0.1799 -0.0318 -0.4638
 7079SOL    HW132696   3.243   3.776   7.626 -1.8435  1.5397  4.8118
 7079SOL    HW232697   3.313   3.760   7.752  1.8343  0.3481 -0.6471
 7080SOL     OW32698   0.385   4.268   7.485 -0.9948 -0.0647 -0.3759
 7080SOL    HW132699   0.313   4.234   7.539 -0.6887 -0.5598 -0.2795
 7080SOL    HW232700   0.368   4.361   7.494 -1.5919 -0.1767 -0.3400
 7081SOL     OW32701   3.886   2.459   9.633 -0.9876 -0.1083 -0.2701
 7081SOL    HW132702   3.859   2.368   9.641  0.8164 -0.6179  0.0316
 7081SOL    HW232703   3.815   2.487   9.575  0.7515 -0.8911 -2.7950
 7082SOL     OW32704   4.703   1.967   4.671  0.7692  0.0629  0.8632
 7082SOL    HW132705   4.718   2.031   4.600  0.7994  0.0003  0.8130
 7082SOL    HW232706   4.611   1.943   4.660  0.9273  0.7749 -2.2488
 7083SOL     OW32707   1.974   0.302   7.427  0.0498 -0.1008 -0.5434
 7083SOL    HW132708   1.979   0.288   7.522  0.8175  1.6573 -0.3205
 7083SOL    HW232709   2.011   0.390   7.419 -0.4252  0.3549  2.2588
 7084SOL     OW32710   0.811   1.381   9.063 -0.5833 -0.4451  0.7179
 7084SOL    HW132711   0.772   1.316   9.121  1.1557 -0.2399  2.1267
 7084SOL    HW232712   0.883   1.409   9.121  0.1495 -0.7960 -0.0174
 7085SOL     OW32713   3.993   0.681   0.428  0.0751 -0.2776  0.2173
 7085SOL    HW132714   4.061   0.619   0.402 -0.7296  0.1475 -2.9188
 7085SOL    HW232715   3.996   0.738   0.351 -0.9143 -3.5899 -2.2474
 7086SOL     OW32716   3.716   4.491   9.368 -0.4816  0.0911 -0.0630
 7086SOL    HW132717   3.780   4.520   9.304  1.3367 -0.3443  1.5485
 7086SOL    HW232718   3.766   4.506   9.448 -1.0698 -1.8512  0.6776
 7087SOL     OW32719   1.295   3.012  16.030  0.5147  0.1165 -0.2595
 7087SOL    HW132720   1.226   2.954  15.999  0.3050  0.4775 -0.4752
 7087SOL    HW232721   1.256   3.093  15.997  2.6397  0.0368 -2.9397
 7088SOL     OW32722   0.439   2.740  16.038 -0.2694  0.6245  0.2983
 7088SOL    HW132723   0.354   2.743  16.082 -0.0932 -0.9971  0.7510
 7088SOL    HW232724   0.431   2.654  15.996  1.6283  0.3242  0.5431
 7089SOL     OW32725   2.972   3.123  12.274 -0.0133 -0.1918 -0.1242
 7089SOL    HW132726   3.058   3.123  12.232  0.5103 -2.3357  0.9153
 7089SOL    HW232727   2.987   3.204  12.322  0.6690 -2.0148  2.7858
 7090SOL     OW32728   1.910   4.295  11.446 -0.2915  0.6304  0.3093
 7090SOL    HW132729   1.985   4.277  11.389 -0.6760 -1.6073  0.5115
 7090SOL    HW232730   1.891   4.389  11.436 -1.4059  0.0560 -2.9380
 7091SOL     OW32731   1.874   0.602   5.275  0.2186  0.2250 -0.1768
 7091SOL    HW132732   1.848   0.680   5.324  2.6783  2.9086 -3.1215
 7091SOL    HW232733   1.918   0.640   5.199 -0.0160 -0.4920 -0.6684
 7092SOL     OW32734   4.505   0.495   2.181 -0.4452 -0.5046  0.3417
 7092SOL    HW132735   4.447   0.459   2.114  1.0712  0.8378 -1.6780
 7092SOL    HW232736   4.443   0.518   2.251  1.3157  3.4116  0.6003
 7093SOL     OW32737   4.583   2.376  12.458  1.0448  0.7995 -0.0047
 7093SOL    HW132738   4.521   2.366  12.386 -0.4623 -1.3904  1.5847
 7093SOL    HW232739   4.620   2.460  12.431  1.8396  1.4890  3.2112
 7094SOL     OW32740   1.731   4.685   0.645 -0.2464  0.3822  0.1973
 7094SOL    HW132741   1.685   4.661   0.565  0.0152 -3.8350  1.3081
 7094SOL    HW232742   1.749   4.597   0.679 -0.8128  0.4605  0.6990
 7095SOL     OW32743   0.713   2.325  17.148 -0.4306 -0.1235 -0.2985
 7095SOL    HW132744   0.630   2.344  17.104 -0.1005 -1.9969 -1.7682
 7095SOL    HW232745   0.716   2.229  17.144 -3.3163 -0.1611 -1.8465
 7096SOL     OW32746   0.853   4.367   6.043  0.0280  0.6008 -0.1646
 7096SOL    HW132747   0.764   4.337   6.058  0.9058 -1.7016  0.4514
 7096SOL    HW232748   0.866   4.379   5.948  1.5440  3.9571  0.4538
 7097SOL     OW32749   3.404   1.297   4.165 -0.5490 -0.3636 -0.5770
 7097SOL    HW132750   3.355   1.215   4.158  0.1385 -0.5399 -3.5509
 7097SOL    HW232751   3.494   1.264   4.156 -1.2384 -2.1487 -0.9279
 7098SOL     OW32752   2.777   0.332   3.539 -0.8907  0.2319  0.2296
 7098SOL    HW132753   2.823   0.415   3.550  0.2099 -0.2582 -0.6393
 7098SOL    HW232754   2.844   0.278   3.581 -0.7092 -1.1252 -1.7652
 7099SOL     OW32755   4.046   2.965  15.384 -0.6540 -0.1453 -0.0045
 7099SOL    HW132756   4.111   2.954  15.453  1.5860  0.7598 -1.9495
 7099SOL    HW232757   3.996   2.886  15.405 -0.9150  0.4297  1.5062
 7100SOL     OW32758   0.184   1.907  11.273  0.3046 -0.2026  0.2037
 7100SOL    HW132759   0.127   1.950  11.337 -0.6010 -1.6045  0.3312
 7100SOL    HW232760   0.146   1.950  11.196  1.0132 -2.2468 -1.2901
 7101SOL     OW32761   2.865   2.300   4.732  0.3555  0.4049  0.3356
 7101SOL    HW132762   2.864   2.262   4.644 -1.1280 -0.7882  0.8671
 7101SOL    HW232763   2.835   2.222   4.778 -1.2545  0.6116 -0.3519
 7102SOL     OW32764   2.407   4.297  11.512 -0.3990  0.7075 -0.1792
 7102SOL    HW132765   2.354   4.369  11.546 -0.7320 -0.3740  1.5834
 7102SOL    HW232766   2.413   4.321  11.419 -3.5651  0.2987 -0.4668
 7103SOL     OW32767   3.682   1.925   2.275  0.3944 -0.6574  0.3336
 7103SOL    HW132768   3.775   1.902   2.268  0.6431  0.1837  0.9871
 7103SOL    HW232769   3.682   2.020   2.273 -1.6599 -0.6996 -2.0800
 7104SOL     OW32770   4.225   3.339   3.718  0.3215  0.3667 -0.0614
 7104SOL    HW132771   4.137   3.344   3.679 -0.5006 -0.0378  1.7682
 7104SOL    HW232772   4.215   3.407   3.784 -0.3118 -0.7483  0.9836
 7105SOL     OW32773   3.116   1.013  14.298 -0.7377 -0.5309  0.3736
 7105SOL    HW132774   3.121   0.927  14.339  0.5322  0.2728  1.9028
 7105SOL    HW232775   3.129   1.062  14.379 -0.0938  2.2177 -1.4183
 7106SOL     OW32776   1.922   2.829   4.211 -0.4524  0.0654  0.1417
 7106SOL    HW132777   1.982   2.775   4.263  2.0585  1.0764 -1.6872
 7106SOL    HW232778   1.925   2.913   4.257 -1.0851 -0.4791  1.1670
 7107SOL     OW32779   3.249   0.647   2.247 -0.2869 -0.2100  0.2466
 7107SOL    HW132780   3.164   0.652   2.291 -0.3997  1.3022 -0.1251
 7107SOL    HW232781   3.232   0.597   2.167 -0.1635  0.7486 -0.3790
 7108SOL     OW32782   2.949   2.462  11.808 -0.0527 -0.3090 -0.1563
 7108SOL    HW132783   2.868   2.411  11.810  0.6271 -1.4528 -1.7341
 7108SOL    HW232784   3.009   2.388  11.813  1.5393  1.0414  0.5212
 7109SOL     OW32785   2.451   0.260   2.875  0.4644  0.1800 -0.4367
 7109SOL    HW132786   2.452   0.255   2.779 -0.8942 -0.3324 -0.4209
 7109SOL    HW232787   2.425   0.352   2.885 -1.4074 -0.2990 -0.8575
 7110SOL     OW32788   3.405   1.954   9.549 -0.7986  0.2197  0.5262
 7110SOL    HW132789   3.346   2.030   9.541 -1.4292 -0.1474  1.5765
 7110SOL    HW232790   3.341   1.899   9.503  0.7613 -2.6904  1.8550
 7111SOL     OW32791   0.613   0.089   9.319 -0.5578 -0.1017  0.1673
 7111SOL    HW132792   0.646   0.046   9.398 -1.0140 -1.9770 -0.6514
 7111SOL    HW232793   0.571   0.013   9.279 -0.2241 -0.3496  0.2904
 7112SOL     OW32794   2.644   0.193   6.010  0.5174 -0.5307 -0.1413
 7112SOL    HW132795   2.645   0.288   6.020  0.2495 -0.6446  1.0477
 7112SOL    HW232796   2.691   0.180   6.093 -1.4933 -1.2809  0.8992
 7113SOL     OW32797   1.434   1.114   5.267  0.2326  0.1078 -0.2992
 7113SOL    HW132798   1.393   1.047   5.322  0.2817  0.9501  0.7794
 7113SOL    HW232799   1.361   1.133   5.209  3.3039  0.8173 -3.9356
 7114SOL     OW32800   0.272   1.473   8.308 -0.2404  0.2284  0.2775
 7114SOL    HW132801   0.325   1.547   8.339  0.6444  0.8958 -2.8707
 7114SOL    HW232802   0.231   1.439   8.388 -1.6726 -1.7201 -1.2703
 7115SOL     OW32803   2.071   1.789   4.661  0.2616  0.3162  0.2726
 7115SOL    HW132804   1.982   1.756   4.675  0.5308 -0.5581 -0.0756
 7115SOL    HW232805   2.053   1.875   4.624  0.4151  0.2659  0.0853
 7116SOL     OW32806   1.281   2.757   2.840 -0.4150  0.0799  0.1725
 7116SOL    HW132807   1.297   2.819   2.910 -1.0863  0.6724 -0.1982
 7116SOL    HW232808   1.192   2.780   2.814 -0.3991 -0.3705 -0.2820
 7117SOL     OW32809   3.549   3.356   2.978  0.0579  0.1093  0.0628
 7117SOL    HW132810   3.601   3.290   2.932 -0.5310 -0.9182  0.8747
 7117SOL    HW232811   3.526   3.417   2.908 -0.6296 -1.9236 -1.4893
 7118SOL     OW32812   0.746   0.123   8.205 -0.7203  0.7592 -0.1851
 7118SOL    HW132813   0.786   0.195   8.253 -1.9231  1.0125  0.4433
 7118SOL    HW232814   0.679   0.104   8.270  0.1248 -0.9473  0.1735
 7119SOL     OW32815   4.435   0.665   3.026  0.3391 -0.0866  0.0025
 7119SOL    HW132816   4.447   0.570   3.019  1.7340 -0.0784  2.3531
 7119SOL    HW232817   4.355   0.663   3.079  0.4737  1.3809  0.2425
 7120SOL     OW32818   0.317   0.196   8.209 -0.1873 -0.2008 -0.2471
 7120SOL    HW132819   0.269   0.276   8.185  0.7225 -0.2990 -2.3767
 7120SOL    HW232820   0.370   0.179   8.131 -1.7890  0.4869 -1.4835
 7121SOL     OW32821   3.533   1.302  14.118 -0.1614  0.1168 -0.6741
 7121SOL    HW132822   3.439   1.300  14.138 -0.1206 -1.5449 -0.6613
 7121SOL    HW232823   3.552   1.394  14.137  0.7962  0.0244 -1.1741
 7122SOL     OW32824   1.590   1.293   1.785  0.2469 -0.2347 -0.5445
 7122SOL    HW132825   1.660   1.231   1.768 -1.0831 -1.5503 -1.1717
 7122SOL    HW232826   1.534   1.260   1.857  0.1632  0.3498 -0.3409
 7123SOL     OW32827   1.741   0.041   5.199 -0.1696 -0.1838 -0.5843
 7123SOL    HW132828   1.747   0.136   5.212 -2.3575  0.0250 -1.0875
 7123SOL    HW232829   1.782   0.005   5.278 -0.6589 -1.1557 -0.7782
 7124SOL     OW32830   2.835   1.221  14.977 -0.2871  0.3444  0.1494
 7124SOL    HW132831   2.838   1.189  14.888  0.6574 -1.1232  0.7179
 7124SOL    HW232832   2.873   1.309  14.968  1.5157 -0.5530 -1.0467
 7125SOL     OW32833   0.214   3.041   5.373 -0.3931 -0.9262 -0.3099
 7125SOL    HW132834   0.280   3.000   5.317  0.3882  1.0744 -0.8579
 7125SOL    HW232835   0.164   2.963   5.396  0.7786 -0.7572  2.9244
 7126SOL     OW32836   0.319   1.302   6.939  0.2647 -0.6060  0.0226
 7126SOL    HW132837   0.225   1.294   6.950  0.5506 -3.3443  0.5973
 7126SOL    HW232838   0.333   1.390   6.907 -0.4012  0.5244  2.8061
 7127SOL     OW32839   2.950   1.509  17.551 -0.1506  0.6770  0.1198
 7127SOL    HW132840   2.933   1.564  17.475  2.1454  1.0181 -0.1495
 7127SOL    HW232841   2.967   1.577  17.617 -0.3518  1.5071 -0.6827
 7128SOL     OW32842   2.912   1.420   4.030  0.1438  0.4433 -0.0182
 7128SOL    HW132843   2.949   1.337   3.999  1.1844  0.7773  0.3200
 7128SOL    HW232844   2.962   1.428   4.112 -0.4947 -0.9653  0.5204
 7129SOL     OW32845   0.985   1.906   3.573  1.0235  0.2401  0.3460
 7129SOL    HW132846   1.035   1.846   3.628 -1.6311 -2.6522 -0.3954
 7129SOL    HW232847   0.931   1.840   3.529 -0.6023  0.2599  2.2820
 7130SOL     OW32848   0.925   1.004   2.200  0.3581 -0.4041  0.7155
 7130SOL    HW132849   0.996   1.064   2.223  0.4707 -0.4924  0.5985
 7130SOL    HW232850   0.976   0.938   2.153  1.5836  2.4230 -1.8901
 7131SOL     OW32851   3.669   4.262  12.735 -0.7265 -0.4807  0.0630
 7131SOL    HW132852   3.731   4.300  12.798  0.1176 -0.2830 -0.8942
 7131SOL    HW232853   3.707   4.175  12.722 -0.0850 -0.5015  1.9903
 7132SOL     OW32854   2.507   3.321   3.229  0.3983 -0.2264  0.4811
 7132SOL    HW132855   2.585   3.309   3.283  0.0388 -1.0577  0.8232
 7132SOL    HW232856   2.459   3.385   3.281 -1.4075 -0.2476 -1.1762
 7133SOL     OW32857   0.516   4.101   5.253 -0.1006 -0.4099  0.1140
 7133SOL    HW132858   0.532   4.010   5.280 -3.0525 -1.9715 -3.4999
 7133SOL    HW232859   0.421   4.106   5.248 -0.2019 -3.0130 -0.5713
 7134SOL     OW32860   2.175   3.473  10.602 -0.5362 -0.1410  0.1636
 7134SOL    HW132861   2.266   3.460  10.573 -0.3225  1.4622  0.1079
 7134SOL    HW232862   2.145   3.388  10.571 -1.6336 -0.0179  0.8877
 7135SOL     OW32863   0.518   1.277   9.827 -0.0444 -0.1081  0.4167
 7135SOL    HW132864   0.543   1.247   9.915 -1.1129 -2.9096 -0.2311
 7135SOL    HW232865   0.561   1.208   9.777  0.7895  2.0716 -1.8734
 7136SOL     OW32866   0.933   0.857   5.741 -0.7413  0.6446 -0.8886
 7136SOL    HW132867   0.846   0.842   5.704 -1.0637 -1.7992  0.7784
 7136SOL    HW232868   0.972   0.920   5.681 -4.0006  3.5086  0.0284
 7137SOL     OW32869   0.388   0.061  14.570  0.0474  0.3764 -0.2572
 7137SOL    HW132870   0.473   0.030  14.601 -1.0218  0.6578  2.9334
 7137SOL    HW232871   0.359   0.102  14.651  0.2623  1.3817 -0.6923
 7138SOL     OW32872   3.749   2.879   0.771  0.2255 -0.1561 -0.1867
 7138SOL    HW132873   3.791   2.944   0.713  1.2547 -1.8226 -1.3202
 7138SOL    HW232874   3.809   2.907   0.840 -0.6255 -0.4036  0.6364
 7139SOL     OW32875   1.331   1.436   3.507 -0.6044  0.3831 -0.4086
 7139SOL    HW132876   1.416   1.396   3.492  0.3402  2.0185  0.5014
 7139SOL    HW232877   1.281   1.414   3.428 -1.8368 -1.1738  0.8023
 7140SOL     OW32878   4.554   1.698   4.633  0.2042  0.1098  0.1160
 7140SOL    HW132879   4.548   1.749   4.714 -3.5613 -0.6793  0.3535
 7140SOL    HW232880   4.469   1.726   4.599 -0.4479 -1.6153  0.3206
 7141SOL     OW32881   4.146   0.792   2.563 -0.3528 -0.6835  0.1722
 7141SOL    HW132882   4.073   0.738   2.530 -0.0004 -0.1876 -1.4269
 7141SOL    HW232883   4.207   0.726   2.597 -1.4663 -1.6059  0.3985
 7142SOL     OW32884   0.011   2.722   4.047  0.4204  0.2605  0.9119
 7142SOL    HW132885   4.716   2.715   4.142  0.4085 -0.1801  0.8805
 7142SOL    HW232886   4.639   2.735   4.021 -0.9109 -4.0311  3.3592
 7143SOL     OW32887   1.755   3.367   4.256 -0.3098  0.3912 -0.1629
 7143SOL    HW132888   1.740   3.331   4.169  0.9852  1.7757 -0.9730
 7143SOL    HW232889   1.851   3.372   4.246  0.0226 -2.4984  1.7146
 7144SOL     OW32890   3.679   1.534  17.571 -0.0688  0.3589  0.3959
 7144SOL    HW132891   3.772   1.547  17.558  0.4083 -1.6210  1.8595
 7144SOL    HW232892   3.638   1.614  17.537 -0.8340 -0.3889 -0.4482
 7145SOL     OW32893   1.593   0.734   6.691  0.6570 -0.3674 -0.1965
 7145SOL    HW132894   1.517   0.695   6.649 -0.1375  3.3094 -2.1526
 7145SOL    HW232895   1.594   0.678   6.769 -1.6327  0.4095  0.3822
 7146SOL     OW32896   0.476   3.390  11.675  0.2622 -0.3948  0.0074
 7146SOL    HW132897   0.445   3.419  11.589 -0.1743 -1.3182 -0.1570
 7146SOL    HW232898   0.542   3.453  11.701 -0.2483 -0.6886  1.9855
 7147SOL     OW32899   2.303   3.356  11.737 -0.0056  0.1403  0.0223
 7147SOL    HW132900   2.315   3.430  11.796  1.1605 -1.0467  1.2780
 7147SOL    HW232901   2.387   3.331  11.699 -1.3461 -2.1982 -1.3793
 7148SOL     OW32902   4.133   2.946   4.241  0.2990  0.4860  0.2343
 7148SOL    HW132903   4.181   3.004   4.300 -0.3491  2.1985 -0.9174
 7148SOL    HW232904   4.045   2.983   4.251  0.8361  1.1690  2.2921
 7149SOL     OW32905   2.364   3.482  16.493 -0.2755 -0.4288 -0.0272
 7149SOL    HW132906   2.313   3.401  16.492  3.1278 -2.5673  1.4420
 7149SOL    HW232907   2.417   3.476  16.414 -0.6130 -1.1139 -0.2015
 7150SOL     OW32908   1.242   3.329  15.695  0.0715 -0.6560 -0.3889
 7150SOL    HW132909   1.192   3.290  15.767  0.5169 -1.0124 -0.2693
 7150SOL    HW232910   1.312   3.263  15.693  1.9448  1.3936 -2.3929
 7151SOL     OW32911   3.607   4.224   3.666  0.0242  0.5604  0.1712
 7151SOL    HW132912   3.525   4.218   3.714  0.8856  1.8216  1.8252
 7151SOL    HW232913   3.639   4.290   3.728 -0.9713  1.2231 -0.0231
 7152SOL     OW32914   0.333   3.058   9.499  0.0827  0.2743  0.0591
 7152SOL    HW132915   0.314   2.988   9.436  0.8574 -0.0094  0.1413
 7152SOL    HW232916   0.312   3.009   9.578  2.3182  0.5211  0.8011
 7153SOL     OW32917   2.929   1.025   2.298 -0.4945  0.0653  0.6921
 7153SOL    HW132918   2.884   1.018   2.214  0.1132 -0.1945  0.3894
 7153SOL    HW232919   3.021   1.023   2.272 -0.7641 -1.2951 -0.1059
 7154SOL     OW32920   1.482   2.135   7.837  0.1578 -0.3832 -0.5366
 7154SOL    HW132921   1.552   2.163   7.896  0.1925 -0.3015 -0.6147
 7154SOL    HW232922   1.456   2.222   7.806 -0.3478 -0.4484 -0.2915
 7155SOL     OW32923   2.183   1.969   8.448  0.3138 -0.1428 -0.0804
 7155SOL    HW132924   2.180   1.878   8.479  0.2617  0.6125  2.1171
 7155SOL    HW232925   2.255   2.005   8.500  0.4658 -0.5398 -0.0143
 7156SOL     OW32926   0.991   0.949  17.068 -0.1756  0.2850 -0.6309
 7156SOL    HW132927   0.918   1.004  17.037 -0.5434 -1.2847 -2.5949
 7156SOL    HW232928   0.954   0.898  17.140 -0.1421  0.3065 -0.5990
 7157SOL     OW32929   4.313   0.606   3.863 -0.5493  0.0747 -0.1574
 7157SOL    HW132930   4.381   0.637   3.802 -1.3741  1.9413 -0.1466
 7157SOL    HW232931   4.268   0.545   3.804  0.6734  0.1521 -1.1635
 7158SOL     OW32932   0.056   0.039  14.809  0.3908  0.6016 -0.4836
 7158SOL    HW132933   0.003   0.016  14.886  0.1372  1.0157 -0.5313
 7158SOL    HW232934   0.138   4.711  14.824 -0.2786  0.1157  1.7822
 7159SOL     OW32935   2.532   4.689   7.956  0.1003  0.0984  0.1775
 7159SOL    HW132936   2.498   0.004   7.873  0.2212 -0.9563 -0.2996
 7159SOL    HW232937   2.624   4.668   7.941  0.4159  2.5737 -1.3835
 7160SOL     OW32938   1.828   4.551   7.155 -0.2409  0.1170 -0.0004
 7160SOL    HW132939   1.824   4.639   7.116 -3.0261 -0.0277 -0.0511
 7160SOL    HW232940   1.832   4.497   7.076 -0.8314  0.0987 -0.0188
 7161SOL     OW32941   0.503   3.566   2.280  0.3521 -0.4943 -0.3922
 7161SOL    HW132942   0.441   3.541   2.349  1.1539  1.4862  1.0381
 7161SOL    HW232943   0.456   3.556   2.197 -0.1200  0.3580 -0.2222
 7162SOL     OW32944   3.371   0.105   5.438  0.0783 -0.1132 -0.0055
 7162SOL    HW132945   3.449   0.094   5.383 -0.5449 -2.5276 -0.4126
 7162SOL    HW232946   3.331   0.166   5.376  1.4187 -0.3332 -1.0859
 7163SOL     OW32947   2.390   4.480  11.096  0.9175  0.3159 -0.1285
 7163SOL    HW132948   2.295   4.464  11.100  1.4120 -2.4734  0.3146
 7163SOL    HW232949   2.410   4.455  11.006  0.6505  0.9113 -0.3539
 7164SOL     OW32950   1.510   3.671   7.325 -0.2185  0.4446  0.7431
 7164SOL    HW132951   1.515   3.628   7.240  0.4229  0.0472  0.9850
 7164SOL    HW232952   1.495   3.597   7.384  2.3944 -1.0437 -0.4843
 7165SOL     OW32953   2.956   0.175   5.645 -0.1312  0.2288  0.4444
 7165SOL    HW132954   2.965   0.263   5.608 -1.3750 -0.7141 -2.1385
 7165SOL    HW232955   3.043   0.158   5.680 -0.9277 -0.9788  1.8284
 7166SOL     OW32956   2.321   1.096   8.722 -0.1140 -0.5735  0.1847
 7166SOL    HW132957   2.390   1.114   8.659  0.2223 -1.5042  0.2854
 7166SOL    HW232958   2.287   1.185   8.733  0.1843 -0.5514  0.9421
 7167SOL     OW32959   2.078   1.276   8.500 -0.8587  0.1038  0.0149
 7167SOL    HW132960   2.130   1.334   8.555 -0.4899  0.8816 -1.1398
 7167SOL    HW232961   2.146   1.247   8.439  0.4279 -1.1264  2.0257
 7168SOL     OW32962   1.950   1.003   2.620  0.6487 -0.1190  0.3612
 7168SOL    HW132963   1.988   0.930   2.669 -3.0157 -0.2733  2.9998
 7168SOL    HW232964   2.005   1.071   2.659 -1.5785  1.0581  1.4739
 7169SOL     OW32965   1.146   4.502   4.891 -0.0383  0.3130 -0.0202
 7169SOL    HW132966   1.216   4.483   4.829  0.3988  0.8872  0.2945
 7169SOL    HW232967   1.155   4.437   4.962  1.1838  0.2356 -0.2380
 7170SOL     OW32968   1.002   2.999   9.165  0.0692  0.4299  0.6290
 7170SOL    HW132969   1.015   2.946   9.244 -0.7261 -0.5324  0.1101
 7170SOL    HW232970   1.094   3.006   9.139 -0.0517 -0.2355  0.0013
 7171SOL     OW32971   2.101   1.955   8.182  0.0037  0.5419 -0.0825
 7171SOL    HW132972   2.133   1.979   8.269  3.2731 -0.2806 -1.0733
 7171SOL    HW232973   2.029   1.896   8.203  0.4904  0.1742  0.5368
 7172SOL     OW32974   4.513   3.005   8.357  0.2103 -0.1472  0.2066
 7172SOL    HW132975   4.425   3.025   8.325 -0.1647 -2.4623 -0.2544
 7172SOL    HW232976   4.516   2.909   8.349 -2.9999 -0.5071  3.2358
 7173SOL     OW32977   2.736   3.318   6.955 -0.8934 -0.2583  0.2449
 7173SOL    HW132978   2.699   3.245   7.005 -0.7154 -2.5746 -3.0096
 7173SOL    HW232979   2.660   3.366   6.924 -0.3546  0.2134 -0.3315
 7174SOL     OW32980   0.320   1.639   4.937 -0.2992 -0.1078  0.3564
 7174SOL    HW132981   0.414   1.632   4.919 -0.0884  0.3137  1.2975
 7174SOL    HW232982   0.293   1.631   4.845  1.0408 -2.2806  0.1531
 7175SOL     OW32983   0.415   4.101   5.584  0.5113 -0.7853 -0.0549
 7175SOL    HW132984   0.342   4.123   5.641 -0.0767  1.0473 -1.5255
 7175SOL    HW232985   0.384   4.017   5.551  2.0610 -0.5218 -2.1965
 7176SOL     OW32986   2.853   0.920  10.327  0.7222  0.0518 -0.0542
 7176SOL    HW132987   2.892   0.946  10.410 -0.0780 -3.2376  1.3614
 7176SOL    HW232988   2.892   0.982  10.265 -1.7299 -0.2813 -1.9335
 7177SOL     OW32989   3.602   2.447   3.459  0.1946  0.2826  0.0426
 7177SOL    HW132990   3.613   2.491   3.544 -2.0630 -1.4202  1.2147
 7177SOL    HW232991   3.615   2.510   3.389  1.5150  1.2257  1.1294
 7178SOL     OW32992   2.776   0.562   4.584  0.3068 -0.0120 -0.2337
 7178SOL    HW132993   2.849   0.623   4.598 -0.1129  0.6147 -0.7830
 7178SOL    HW232994   2.712   0.597   4.645  0.2840  0.8874 -0.7754
 7179SOL     OW32995   0.406   2.782   8.160 -0.0747 -0.1047 -0.5102
 7179SOL    HW132996   0.408   2.711   8.224 -1.1782 -0.0372 -0.4007
 7179SOL    HW232997   0.486   2.762   8.113 -1.7511 -0.2434 -3.2987
 7180SOL     OW32998   1.891   3.300   4.538 -0.0546 -0.3928 -0.4151
 7180SOL    HW132999   1.958   3.261   4.595  0.1617  1.8442  0.8815
 7180SOL    HW233000   1.863   3.222   4.491 -0.4916  1.6916 -3.6222
 7181SOL     OW33001   2.157   0.240   3.850 -0.1673  0.1313  0.4122
 7181SOL    HW133002   2.132   0.158   3.892  0.0740  0.3177  0.9302
 7181SOL    HW233003   2.241   0.228   3.806 -0.8322  1.4462 -1.2422
 7182SOL     OW33004   2.944   1.021   9.149  0.3256  0.2822  0.1483
 7182SOL    HW133005   2.876   0.969   9.105 -1.3176  2.7721 -0.2708
 7182SOL    HW233006   3.021   0.969   9.126  0.3924 -0.2772  1.6260
 7183SOL     OW33007   1.056   2.522  12.542  0.2908 -0.0611 -0.3001
 7183SOL    HW133008   1.040   2.434  12.575 -0.3925 -0.8301 -2.6795
 7183SOL    HW233009   1.103   2.508  12.460  2.2461 -0.3878  0.8856
 7184SOL     OW33010   0.074   1.899   3.981 -0.4226 -0.5070  0.0433
 7184SOL    HW133011   0.099   1.819   3.934 -0.4432 -0.2851 -0.3528
 7184SOL    HW233012   0.148   1.896   4.040 -0.7137 -1.1584  0.3741
 7185SOL     OW33013   4.434   1.744   0.868 -0.1538 -0.5284 -0.1326
 7185SOL    HW133014   4.448   1.834   0.898 -0.7750 -0.7146  0.7092
 7185SOL    HW233015   4.429   1.696   0.950 -0.2223 -3.0032 -1.6024
 7186SOL     OW33016   4.541   4.597  10.998  0.5389 -0.4102 -0.3006
 7186SOL    HW133017   4.600   4.666  11.028 -1.4176  0.6664  1.0689
 7186SOL    HW233018   4.526   4.607  10.904 -1.4830 -0.0678  0.0396
 7187SOL     OW33019   4.086   1.806   4.506  0.2152 -0.3185  0.0933
 7187SOL    HW133020   4.085   1.890   4.460 -3.3908 -1.1540 -1.3264
 7187SOL    HW233021   4.064   1.743   4.438  0.1143  0.3247 -0.4670
 7188SOL     OW33022   0.688   3.338   3.991  0.1946 -0.4114 -0.1077
 7188SOL    HW133023   0.659   3.332   4.082 -0.7032 -2.0553 -0.5089
 7188SOL    HW233024   0.768   3.285   3.987  0.7308  0.2581  1.8252
 7189SOL     OW33025   1.616   0.831  15.303  0.6052 -0.7494 -0.4759
 7189SOL    HW133026   1.600   0.793  15.217  0.2383  2.2486 -1.7218
 7189SOL    HW233027   1.592   0.918  15.273 -2.0056 -0.4088  2.6220
 7190SOL     OW33028   0.768   1.035  12.589  0.4945 -0.1135  0.1825
 7190SOL    HW133029   0.853   1.033  12.632 -1.6445  0.8398  4.3997
 7190SOL    HW233030   0.728   0.952  12.615  1.1212 -0.5253 -0.1884
 7191SOL     OW33031   3.395   2.059   6.088 -0.0332  0.3931 -0.3060
 7191SOL    HW133032   3.309   2.098   6.100 -0.9215 -1.3462 -1.0908
 7191SOL    HW233033   3.383   1.978   6.137  1.4009 -0.4668 -1.3723
 7192SOL     OW33034   4.546   4.490   7.451  0.0257  0.4217  0.1344
 7192SOL    HW133035   4.598   4.508   7.372  0.2426 -3.0057 -0.4734
 7192SOL    HW233036   4.547   4.578   7.490  1.9621 -0.0760  1.1643
 7193SOL     OW33037   1.538   1.695  16.306 -0.1546  1.0167 -0.0430
 7193SOL    HW133038   1.543   1.781  16.264 -0.5525  0.8545 -0.4280
 7193SOL    HW233039   1.504   1.638  16.237  1.4393  0.9434 -0.7557
 7194SOL     OW33040   4.486   1.370   5.170 -0.2432 -0.2612  0.0272
 7194SOL    HW133041   4.573   1.386   5.135  0.0679 -1.4100  0.2788
 7194SOL    HW233042   4.514   1.295   5.223 -1.9913 -0.4573  0.6863
 7195SOL     OW33043   2.126   0.035   2.717 -0.1040  0.5305  0.0942
 7195SOL    HW133044   2.199   4.709   2.676 -1.3073 -0.3180 -1.1123
 7195SOL    HW233045   2.140   0.125   2.688  3.1504 -0.5008 -1.4848
 7196SOL     OW33046   2.946   4.310   3.557  0.4804  0.8246  0.0075
 7196SOL    HW133047   2.860   4.349   3.571  0.2952  0.2006  0.6101
 7196SOL    HW233048   3.000   4.368   3.610  3.8079 -0.1937 -2.2409
 7197SOL     OW33049   4.045   4.531  10.515  0.2039 -0.0984  0.5175
 7197SOL    HW133050   3.985   4.546  10.442 -0.5599 -2.1339  0.7204
 7197SOL    HW233051   4.079   4.445  10.489  0.5736 -0.0880  0.9709
 7198SOL     OW33052   1.286   2.926   2.517 -0.1748  0.0771  0.2111
 7198SOL    HW133053   1.262   2.839   2.548 -0.3985  0.1543  0.2494
 7198SOL    HW233054   1.211   2.964   2.562 -1.3143  0.0616 -1.6639
 7199SOL     OW33055   3.462   3.171   3.681 -0.0342 -0.1566 -0.1522
 7199SOL    HW133056   3.397   3.187   3.613  0.6759 -0.1875 -0.8359
 7199SOL    HW233057   3.435   3.093   3.729  0.8093  1.3897  2.8573
 7200SOL     OW33058   1.317   1.168   2.772 -0.2093  0.7643 -0.1586
 7200SOL    HW133059   1.339   1.260   2.753  0.2157  0.8960  0.9974
 7200SOL    HW233060   1.223   1.177   2.755  0.1605  2.9886 -1.0343
 7201SOL     OW33061   3.462   2.312   5.995 -0.1132  0.2172 -0.2559
 7201SOL    HW133062   3.431   2.228   6.029 -0.5795  2.2480  4.2702
 7201SOL    HW233063   3.459   2.373   6.068  1.2935 -0.7009  0.5766
 7202SOL     OW33064   0.408   1.417   7.923  0.4111  0.8307 -0.3285
 7202SOL    HW133065   0.484   1.438   7.977 -0.2395 -0.2277  0.9908
 7202SOL    HW233066   0.418   1.322   7.922 -2.1129  0.5789 -2.4625
 7203SOL     OW33067   1.222   1.874   7.043 -0.1344  0.0894 -0.3496
 7203SOL    HW133068   1.133   1.878   7.076 -0.8708 -3.0038 -1.9887
 7203SOL    HW233069   1.262   1.860   7.129 -0.9376  1.4799  0.2537
 7204SOL     OW33070   4.690   4.169   7.283  0.7819 -0.3696  0.3499
 7204SOL    HW133071   4.635   4.186   7.360 -1.5148 -0.1278 -1.3458
 7204SOL    HW233072   0.046   4.226   7.299  1.0102 -0.2930 -1.0298
 7205SOL     OW33073   2.034   1.831   4.187 -0.0797 -0.2386  0.2505
 7205SOL    HW133074   1.955   1.791   4.225 -1.3564 -0.7607 -2.9533
 7205SOL    HW233075   2.014   1.831   4.094  1.4412  1.4213 -0.0757
 7206SOL     OW33076   0.974   4.546   7.916  0.3674  0.3510  0.2752
 7206SOL    HW133077   1.002   4.455   7.927 -1.6989 -0.3737 -0.5178
 7206SOL    HW233078   0.950   4.564   8.007  1.0533 -1.2907  0.7857
 7207SOL     OW33079   1.909   1.453   1.822 -0.1045  0.1714 -0.0691
 7207SOL    HW133080   1.873   1.483   1.906  0.1600  0.6696 -0.1354
 7207SOL    HW233081   1.947   1.533   1.787 -0.3362 -0.5376 -1.9610
 7208SOL     OW33082   0.910   0.218   1.271 -0.2270 -0.5716 -0.0896
 7208SOL    HW133083   0.974   0.178   1.330 -2.8191 -1.9924  1.7438
 7208SOL    HW233084   0.890   0.143   1.214 -0.4273 -1.5479  1.2831
 7209SOL     OW33085   4.072   0.246   2.526  0.0012 -0.0781  0.1508
 7209SOL    HW133086   4.055   0.277   2.615  1.2548  0.3638  0.2342
 7209SOL    HW233087   3.989   0.269   2.484  0.2866 -0.5197 -0.6431
 7210SOL     OW33088   1.293   1.009   1.879 -0.2606 -0.7094  0.3679
 7210SOL    HW133089   1.260   0.945   1.942  0.1840 -1.3165 -0.0133
 7210SOL    HW233090   1.222   1.009   1.814 -0.6036 -2.8894  0.7572
 7211SOL     OW33091   0.822   4.655  17.510  0.6653  0.2512 -0.0826
 7211SOL    HW133092   0.734   4.676  17.479  0.1976 -0.5967  0.6798
 7211SOL    HW233093   0.871   4.665  17.429  0.0848  0.8639 -0.3644
 7212SOL     OW33094   2.596   3.566   2.572 -0.2662  0.5356 -0.0708
 7212SOL    HW133095   2.515   3.535   2.613 -0.1395  0.4042  0.0797
 7212SOL    HW233096   2.576   3.583   2.480 -0.6282 -1.3941 -0.3309
 7213SOL     OW33097   3.011   2.427   6.913 -0.0579  0.1678 -0.1994
 7213SOL    HW133098   2.956   2.399   6.840  1.2480  0.4647 -1.2855
 7213SOL    HW233099   3.095   2.394   6.881  0.9155  0.2317  2.2765
 7214SOL     OW33100   3.467   2.752   9.064 -0.3535 -0.2657  0.5493
 7214SOL    HW133101   3.422   2.778   9.144  0.1305  1.6009  0.2198
 7214SOL    HW233102   3.509   2.671   9.089  1.1819  0.8548  1.5480
 7215SOL     OW33103   2.608   3.352   2.136 -0.5179 -0.3387  0.2805
 7215SOL    HW133104   2.541   3.400   2.087  1.3002  0.4007 -1.4628
 7215SOL    HW233105   2.671   3.422   2.151 -3.0603  2.4357 -1.7975
 7216SOL     OW33106   3.503   4.187   2.831 -0.1122  0.4983 -0.0710
 7216SOL    HW133107   3.519   4.109   2.883 -0.4614  0.4914  0.0271
 7216SOL    HW233108   3.410   4.201   2.848 -0.3842 -1.9780  0.4877
 7217SOL     OW33109   0.710   4.592   4.023 -0.0407  0.3458  0.2680
 7217SOL    HW133110   0.668   4.524   4.077 -3.2562  1.3404 -0.9733
 7217SOL    HW233111   0.666   4.565   3.943 -0.1373 -1.4417  0.9204
 7218SOL     OW33112   1.176   0.967   2.976  0.0942 -0.1633 -0.3260
 7218SOL    HW133113   1.151   1.058   2.992 -1.5494 -0.5953 -0.4266
 7218SOL    HW233114   1.182   0.964   2.880 -1.2860  1.0363 -0.4366
 7219SOL     OW33115   2.347   1.865   4.476  0.4983  0.0486 -0.2738
 7219SOL    HW133116   2.372   1.946   4.431 -1.1895  2.0902  2.3938
 7219SOL    HW233117   2.308   1.815   4.405  3.5432  2.2153 -3.4951
 7220SOL     OW33118   0.635   3.396   3.394  0.3371  0.2535  0.2571
 7220SOL    HW133119   0.717   3.352   3.369 -0.0027 -0.2657  0.0700
 7220SOL    HW233120   0.572   3.365   3.329  0.8497  1.6091 -0.8909
 7221SOL     OW33121   0.182   3.770   8.300  0.2105  0.0415 -0.3212
 7221SOL    HW133122   0.254   3.729   8.347  0.2554 -0.6085 -0.9658
 7221SOL    HW233123   0.136   3.812   8.373  0.1010 -1.9340  0.7619
 7222SOL     OW33124   2.765   0.166   7.895  0.2304  0.2583  0.6731
 7222SOL    HW133125   2.735   0.151   7.985  2.2898 -2.3919  0.9206
 7222SOL    HW233126   2.799   0.079   7.876  2.0015  1.3900 -1.2516
 7223SOL     OW33127   1.321   2.871   4.149  0.5188  0.1159  0.6357
 7223SOL    HW133128   1.390   2.890   4.086 -0.7120  1.9376 -0.1897
 7223SOL    HW233129   1.301   2.959   4.182  1.2700  1.3503 -2.1725
 7224SOL     OW33130   2.934   3.417   2.755  0.1677  0.6414 -0.6069
 7224SOL    HW133131   2.926   3.443   2.663 -1.6199  0.2728 -0.5602
 7224SOL    HW233132   2.857   3.461   2.790  1.6956  1.4122  1.8064
 7225SOL     OW33133   3.111   2.071   0.682 -0.1726  0.4016 -0.2221
 7225SOL    HW133134   3.137   2.110   0.766  0.4493 -0.7360  0.1203
 7225SOL    HW233135   3.108   1.978   0.707  3.6694 -0.2729 -2.3640
 7226SOL     OW33136   4.655   0.553   5.261 -0.5597 -0.1655  0.6290
 7226SOL    HW133137   4.619   0.634   5.296 -0.1147  0.7101 -0.9369
 7226SOL    HW233138   0.019   0.545   5.308 -0.5184  0.5045  0.6606
 7227SOL     OW33139   4.028   0.330   6.410 -0.5409  0.1652 -0.0654
 7227SOL    HW133140   4.044   0.422   6.393 -2.1498  0.5919  0.6447
 7227SOL    HW233141   4.095   0.297   6.350 -0.7740 -1.8113  0.7484
 7228SOL     OW33142   0.886   4.567   4.321 -0.0123  0.3379 -0.4234
 7228SOL    HW133143   0.813   4.597   4.376  2.2042  1.1123  2.1091
 7228SOL    HW233144   0.872   4.619   4.242 -0.1180 -0.3015 -0.8271
 7229SOL     OW33145   1.259   4.121  11.350 -0.2441 -0.7212  0.0392
 7229SOL    HW133146   1.261   4.149  11.258 -1.4415 -1.0290 -0.0810
 7229SOL    HW233147   1.345   4.081  11.352 -0.7263 -1.8479 -1.2586
 7230SOL     OW33148   4.423   4.263   5.256 -0.2063 -0.3866 -0.3521
 7230SOL    HW133149   4.469   4.180   5.270  1.1284  0.3561 -0.3374
 7230SOL    HW233150   4.399   4.295   5.343 -0.7284 -0.9570 -0.2860
 7231SOL     OW33151   4.185   3.390   1.201 -0.0414 -0.0872 -0.0727
 7231SOL    HW133152   4.223   3.442   1.131 -1.4278  1.7686  0.5479
 7231SOL    HW233153   4.182   3.303   1.162  0.5913 -0.3557  0.4697
 7232SOL     OW33154   1.210   4.502  10.238 -0.3102  0.3327  0.4018
 7232SOL    HW133155   1.207   4.440  10.311 -1.0049  1.2370  1.1551
 7232SOL    HW233156   1.266   4.455  10.176 -0.9811  1.9951 -1.4766
 7233SOL     OW33157   0.933   0.943  15.188 -0.8577  0.2895 -0.3670
 7233SOL    HW133158   0.870   0.955  15.117 -0.0415  1.5091 -0.8971
 7233SOL    HW233159   1.009   0.914  15.137 -0.1780  0.4181  0.5865
 7234SOL     OW33160   0.362   1.504   3.838  0.3356  0.4436 -0.0968
 7234SOL    HW133161   0.441   1.455   3.858 -2.1431 -3.8844 -1.0852
 7234SOL    HW233162   0.301   1.435   3.811  0.9620 -0.1890  0.1151
 7235SOL     OW33163   1.764   3.661   3.578 -0.0892 -0.3852 -0.1549
 7235SOL    HW133164   1.752   3.733   3.515 -0.8614 -0.9422 -0.6471
 7235SOL    HW233165   1.834   3.699   3.631  1.4631 -0.1705 -2.3481
 7236SOL     OW33166   3.908   2.758   1.178 -0.3906  0.9430 -0.0588
 7236SOL    HW133167   3.945   2.827   1.234  0.1467  1.0876 -0.5987
 7236SOL    HW233168   3.900   2.805   1.096  1.7667 -0.5650 -1.1293
 7237SOL     OW33169   4.546   0.611  15.461 -0.1802  0.4550 -0.0684
 7237SOL    HW133170   4.535   0.706  15.459 -2.8771 -0.0025 -5.2115
 7237SOL    HW233171   4.584   0.596  15.374  0.2400  1.1480 -0.0060
 7238SOL     OW33172   2.058   3.650   4.986 -0.0083  0.1917  0.0228
 7238SOL    HW133173   2.140   3.700   4.979  0.1387 -0.0056  0.3679
 7238SOL    HW233174   2.055   3.612   4.898  0.8896  0.6712 -0.2169
 7239SOL     OW33175   1.887   1.384   8.290 -0.1869  0.2535  0.2607
 7239SOL    HW133176   1.926   1.470   8.302  0.6678  0.0124 -0.8072
 7239SOL    HW233177   1.936   1.339   8.359  1.6232 -1.8931 -2.3860
 7240SOL     OW33178   4.482   1.269   0.481  0.1535 -0.0091 -0.0432
 7240SOL    HW133179   4.555   1.319   0.516 -0.1676  0.2728  0.2277
 7240SOL    HW233180   4.439   1.233   0.559  1.1643  1.4998  1.2164
 7241SOL     OW33181   4.594   0.760   6.992 -0.0865  0.3440  0.0488
 7241SOL    HW133182   4.626   0.748   7.081 -0.2880 -0.3010  0.0308
 7241SOL    HW233183   4.600   0.668   6.967  2.5697  0.4183  0.4415
 7242SOL     OW33184   2.876   2.530  11.118 -0.3529 -0.2966  0.7253
 7242SOL    HW133185   2.915   2.605  11.073 -1.7981 -0.0051 -0.0483
 7242SOL    HW233186   2.863   2.468  11.047 -0.8847 -1.6826  2.0339
 7243SOL     OW33187   0.455   0.559   3.862  0.6544  0.1296  0.2622
 7243SOL    HW133188   0.471   0.558   3.956  0.1622  1.8872  0.3727
 7243SOL    HW233189   0.391   0.630   3.860  0.4707 -0.0716 -0.9149
 7244SOL     OW33190   2.123   4.088   2.347 -0.0018 -0.3967 -0.2286
 7244SOL    HW133191   2.085   4.111   2.263  0.1402 -1.1965 -0.5096
 7244SOL    HW233192   2.048   4.060   2.399  0.0258 -2.9730 -1.5841
 7245SOL     OW33193   2.005   0.389   9.803 -0.0015  0.5108  0.6275
 7245SOL    HW133194   1.963   0.343   9.876  0.8883 -2.2523 -0.6222
 7245SOL    HW233195   2.092   0.392   9.843 -0.0420 -0.3300  0.7732
 7246SOL     OW33196   0.788   1.515   1.452 -0.2767  0.1351 -0.2280
 7246SOL    HW133197   0.833   1.591   1.489 -1.3052  1.1205 -1.0116
 7246SOL    HW233198   0.714   1.556   1.408 -0.2868  1.5592  1.1364
 7247SOL     OW33199   0.733   4.252  10.381  0.1671  0.1208  0.0609
 7247SOL    HW133200   0.672   4.254  10.307 -0.4875 -3.9140  0.4582
 7247SOL    HW233201   0.670   4.218  10.445 -0.7119 -0.3359 -1.0474
 7248SOL     OW33202   2.153   3.658  15.398 -0.1624  0.2477 -0.7387
 7248SOL    HW133203   2.141   3.679  15.306 -0.1189  0.1665 -0.7636
 7248SOL    HW233204   2.195   3.740  15.424 -2.8828  0.4652  2.9517
 7249SOL     OW33205   3.107   1.261   7.038 -0.0238  0.4351  0.1271
 7249SOL    HW133206   3.129   1.170   7.020 -1.7877  0.1567 -0.5726
 7249SOL    HW233207   3.025   1.252   7.087 -1.2524  0.0800 -2.0025
 7250SOL     OW33208   4.475   2.231   8.453 -0.3672 -0.0555  0.2304
 7250SOL    HW133209   4.497   2.137   8.447 -2.3662 -0.4327 -1.1272
 7250SOL    HW233210   4.514   2.241   8.540 -0.0999 -0.8190  0.2037
 7251SOL     OW33211   3.086   2.177   9.231  0.6244  0.0801  0.6559
 7251SOL    HW133212   3.085   2.106   9.295  0.9914  1.1286  1.8178
 7251SOL    HW233213   3.011   2.223   9.268  0.4471 -0.4582  0.9652
 7252SOL     OW33214   2.593   3.110   8.736 -0.4988  0.2575 -0.2243
 7252SOL    HW133215   2.635   3.179   8.787  0.1166  1.0709 -1.8101
 7252SOL    HW233216   2.656   3.038   8.741  0.3240  1.0119  0.4372
 7253SOL     OW33217   3.258   2.640   0.650 -0.2935 -0.0268  0.0998
 7253SOL    HW133218   3.350   2.665   0.660 -0.8933  1.6863  1.5146
 7253SOL    HW233219   3.249   2.629   0.556  0.5988  3.6751 -0.4220
 7254SOL     OW33220   2.968   0.435   7.331  0.7676  0.2263 -0.1106
 7254SOL    HW133221   2.980   0.355   7.279 -0.3106 -0.7379  1.1125
 7254SOL    HW233222   2.891   0.474   7.289  1.6068  0.9744 -0.9385
 7255SOL     OW33223   2.690   2.351   7.360  0.0137  0.7896 -0.7358
 7255SOL    HW133224   2.617   2.301   7.395  0.7883  0.3042  0.1803
 7255SOL    HW233225   2.656   2.436   7.389 -1.8893 -0.5434  0.9180
 7256SOL     OW33226   3.626   2.203  14.533 -0.0640  0.0840 -0.1776
 7256SOL    HW133227   3.651   2.124  14.580  1.8647  0.7569 -0.0529
 7256SOL    HW233228   3.643   2.270  14.599 -0.8961 -0.6096  0.7466
 7257SOL     OW33229   3.163   1.630   2.955  0.7774  0.2116 -0.3282
 7257SOL    HW133230   3.070   1.655   2.962  1.1217  1.1864  0.8911
 7257SOL    HW233231   3.160   1.555   2.897 -1.4777  2.3272 -2.9798
 7258SOL     OW33232   0.880   4.529   7.667 -0.7433  0.2024  0.1248
 7258SOL    HW133233   0.814   4.462   7.685 -0.9171 -0.1336 -1.8051
 7258SOL    HW233234   0.916   4.551   7.754  2.3820 -2.1170 -0.5474
 7259SOL     OW33235   1.177   1.997   2.816 -0.3366  0.1952 -0.3198
 7259SOL    HW133236   1.193   1.940   2.742 -1.5706  1.3757 -1.4982
 7259SOL    HW233237   1.105   1.953   2.861  1.4500 -0.5012  1.8798
 7260SOL     OW33238   2.432   1.541   4.681  0.4457 -0.5033 -0.2468
 7260SOL    HW133239   2.340   1.525   4.702  0.4099 -0.1026 -0.0917
 7260SOL    HW233240   2.469   1.602   4.745 -2.6540  2.1435 -0.9671
 7261SOL     OW33241   0.185   0.197   3.896 -0.2872 -0.2363 -0.6093
 7261SOL    HW133242   0.118   0.205   3.829  0.6082 -0.4272 -1.5362
 7261SOL    HW233243   0.150   0.118   3.936 -1.2579  0.0051 -0.9924
 7262SOL     OW33244   1.122   2.209  13.743  0.3677  0.0260  0.0687
 7262SOL    HW133245   1.050   2.255  13.787  0.1933 -0.6612  0.4946
 7262SOL    HW233246   1.184   2.280  13.726  1.4396 -1.1368 -0.9130
 7263SOL     OW33247   4.139   0.838  13.275 -0.4065  0.7684 -0.0821
 7263SOL    HW133248   4.204   0.793  13.329  0.6078  1.5311 -0.6774
 7263SOL    HW233249   4.182   0.923  13.269  0.1758  0.5641  1.1404
 7264SOL     OW33250   4.184   1.130   6.241 -0.5503 -0.2239  0.2363
 7264SOL    HW133251   4.232   1.213   6.247 -3.4210  1.3481  1.3766
 7264SOL    HW233252   4.149   1.117   6.329  2.0183 -0.8465  1.1555
 7265SOL     OW33253   4.218   3.460  12.309 -0.0193  0.6443 -0.1430
 7265SOL    HW133254   4.188   3.509  12.233  0.3531  0.4657 -0.4042
 7265SOL    HW233255   4.284   3.518  12.345 -0.2196  0.0203  1.2565
 7266SOL     OW33256   4.208   3.064   6.135 -0.3680  0.4368  0.0042
 7266SOL    HW133257   4.227   3.101   6.222  0.8568 -3.5202  1.4194
 7266SOL    HW233258   4.265   2.987   6.133  3.0790  2.9995  0.4487
 7267SOL     OW33259   2.446   2.500   4.988  0.4675 -0.2274 -0.1968
 7267SOL    HW133260   2.449   2.550   4.907  1.0082  1.8966  1.1157
 7267SOL    HW233261   2.445   2.577   5.046  2.6467  1.5151 -2.5091
 7268SOL     OW33262   1.309   4.210   0.736  0.1158 -0.1986 -0.0053
 7268SOL    HW133263   1.309   4.142   0.805 -1.0047  0.2183  0.4055
 7268SOL    HW233264   1.374   4.171   0.678 -0.0954 -1.3716  0.5290
 7269SOL     OW33265   1.571   3.713   9.955  0.2606  0.0841 -0.1564
 7269SOL    HW133266   1.478   3.737   9.951  0.0016 -0.8259  0.3013
 7269SOL    HW233267   1.595   3.747   9.869 -1.6427  1.5935 -0.1047
 7270SOL     OW33268   1.380   2.752   6.465 -0.5401  0.0457  0.2882
 7270SOL    HW133269   1.413   2.754   6.555  2.0893  1.1531 -0.7000
 7270SOL    HW233270   1.298   2.709   6.489 -1.0524 -0.5770 -2.5387
 7271SOL     OW33271   1.626   4.543   3.254 -0.4132 -0.2062  0.0817
 7271SOL    HW133272   1.685   4.506   3.319  0.7890 -0.0161 -0.8985
 7271SOL    HW233273   1.580   4.468   3.215 -1.2805  0.8907 -1.0106
 7272SOL     OW33274   2.696   2.917   3.908  0.1952  0.0329 -0.0635
 7272SOL    HW133275   2.787   2.889   3.918  0.3896  0.6338 -0.1343
 7272SOL    HW233276   2.667   2.889   3.821 -1.5730 -0.8299  0.8118
 7273SOL     OW33277   3.036   2.666   0.835  0.0463  0.4487 -0.0324
 7273SOL    HW133278   3.094   2.647   0.761 -1.5933  0.5827 -1.3605
 7273SOL    HW233279   2.965   2.605   0.816  0.1954 -0.2599  1.7533
 7274SOL     OW33280   2.334   0.908   4.340  0.0130 -0.1671  0.2769
 7274SOL    HW133281   2.396   0.953   4.282  1.6551 -0.2365  1.9987
 7274SOL    HW233282   2.371   0.909   4.428  1.3228  1.4550 -0.2889
 7275SOL     OW33283   2.991   3.418   9.327 -0.3746  0.6280 -0.2278
 7275SOL    HW133284   3.086   3.422   9.318 -0.2761  0.5543  0.7453
 7275SOL    HW233285   2.976   3.470   9.406 -1.8278  1.1070 -0.8106
 7276SOL     OW33286   3.245   4.301   5.218  0.1244  0.3121  0.4092
 7276SOL    HW133287   3.165   4.285   5.168  1.9365 -0.3473 -2.2904
 7276SOL    HW233288   3.293   4.351   5.152  0.0841  2.2386  1.8590
 7277SOL     OW33289   0.059   0.336   6.841  0.1770 -0.7459  0.1263
 7277SOL    HW133290   4.706   0.277   6.865 -1.1942  0.7447 -0.3122
 7277SOL    HW233291   0.123   0.282   6.793  0.6635  0.0731 -0.1439
 7278SOL     OW33292   1.398   3.899   2.756  0.0051 -0.5051 -0.7402
 7278SOL    HW133293   1.381   3.807   2.777 -1.0907 -0.2724 -0.5686
 7278SOL    HW233294   1.309   3.934   2.749  0.3360 -0.0258 -2.6127
 7279SOL     OW33295   1.670   2.461   2.664 -0.2744  0.0858 -0.5497
 7279SOL    HW133296   1.652   2.554   2.679 -0.6836  0.0613 -0.8919
 7279SOL    HW233297   1.650   2.462   2.571 -0.6302 -2.3751 -0.4822
 7280SOL     OW33298   0.632   2.292   2.776 -0.1342  0.0283  0.3408
 7280SOL    HW133299   0.703   2.337   2.730  0.8564 -2.7847 -0.8712
 7280SOL    HW233300   0.551   2.310   2.729  0.1558  0.2361 -0.0762
 7281SOL     OW33301   2.972   4.067  10.478 -0.0033  0.6206  0.5889
 7281SOL    HW133302   2.973   3.985  10.528 -1.2308  0.4466  0.3381
 7281SOL    HW233303   3.065   4.086  10.488  0.0706  0.5764  0.0168
 7282SOL     OW33304   2.543   2.598   6.599  0.1209 -0.3338 -0.6802
 7282SOL    HW133305   2.508   2.528   6.544 -1.0330 -0.0409 -0.3156
 7282SOL    HW233306   2.621   2.624   6.550  0.6826 -1.3932 -0.3616
 7283SOL     OW33307   0.230   3.900   1.704  0.2070  0.3095 -0.0036
 7283SOL    HW133308   0.163   3.963   1.676  0.4119 -0.0148 -1.2328
 7283SOL    HW233309   0.283   3.970   1.743 -0.2935 -0.4820  2.0868
 7284SOL     OW33310   3.204   2.916   7.552 -0.0322  0.1458 -0.7282
 7284SOL    HW133311   3.202   2.823   7.530  0.4589 -0.2554  0.8713
 7284SOL    HW233312   3.117   2.928   7.590  0.4850  2.7305 -0.4034
 7285SOL     OW33313   0.341   2.434   5.338  0.3084  0.4160 -0.0131
 7285SOL    HW133314   0.431   2.452   5.368  0.8979  0.0612 -1.5693
 7285SOL    HW233315   0.332   2.500   5.270 -1.1557 -0.9000 -1.0827
 7286SOL     OW33316   4.437   0.818  10.816  1.1357 -0.5714  0.5267
 7286SOL    HW133317   4.424   0.803  10.722  1.5882 -0.4379  0.4435
 7286SOL    HW233318   4.520   0.864  10.821 -0.7674  3.2404 -2.4183
 7287SOL     OW33319   1.873   1.878   0.586  0.5165 -0.2518  0.1032
 7287SOL    HW133320   1.851   1.854   0.495  0.1244 -1.4599  0.5163
 7287SOL    HW233321   1.966   1.854   0.585  0.5698  0.0879 -3.5824
 7288SOL     OW33322   2.618   3.384  11.904  0.0219 -0.0926 -0.2758
 7288SOL    HW133323   2.651   3.362  11.817  0.8739 -2.4008  0.6400
 7288SOL    HW233324   2.546   3.440  11.875  0.8883  0.7128 -0.8598
 7289SOL     OW33325   2.146   4.401   1.819  0.2156 -0.2650  0.3292
 7289SOL    HW133326   2.237   4.372   1.817  0.2905 -0.0857  1.1123
 7289SOL    HW233327   2.099   4.321   1.843 -0.3250  0.5885  2.1147
 7290SOL     OW33328   4.023   2.800   9.249  0.8019 -0.4463  0.0907
 7290SOL    HW133329   4.054   2.836   9.332 -1.9804 -0.0331  0.9445
 7290SOL    HW233330   4.106   2.788   9.204  1.6246 -1.0449  1.7577
 7291SOL     OW33331   1.953   0.054   9.248  0.0016  0.2799  0.3411
 7291SOL    HW133332   1.931   4.689   9.287  1.6274  0.5482  1.8016
 7291SOL    HW233333   2.036   0.085   9.283  0.7008  1.5236 -2.4070
 7292SOL     OW33334   0.947   2.998   3.000  0.4857  0.9310 -0.4681
 7292SOL    HW133335   0.970   2.919   2.952 -0.0766  1.3141 -1.3618
 7292SOL    HW233336   0.939   3.060   2.927 -0.8215  0.5646 -0.6423
 7293SOL     OW33337   2.897   0.627   7.679  0.2776  0.3334 -0.2142
 7293SOL    HW133338   2.984   0.611   7.644  0.5046 -0.7618  0.8576
 7293SOL    HW233339   2.849   0.560   7.631  0.7231  1.1126 -1.7485
 7294SOL     OW33340   3.941   3.893  14.754  0.0943  0.5760  0.1466
 7294SOL    HW133341   3.893   3.967  14.791 -0.1390  0.9888 -0.9710
 7294SOL    HW233342   3.931   3.909  14.660 -0.6907  2.0360  0.4747
 7295SOL     OW33343   0.013   2.278   6.889  0.7958  0.3349  0.2949
 7295SOL    HW133344   4.707   2.186   6.899 -1.8669  0.8849 -1.1461
 7295SOL    HW233345   4.653   2.325   6.917 -2.0337 -2.6371 -2.5712
 7296SOL     OW33346   2.843   2.085   3.359 -0.6109  0.4055 -0.4138
 7296SOL    HW133347   2.875   2.024   3.293 -0.6909 -0.8554  0.7085
 7296SOL    HW233348   2.799   2.026   3.421 -0.8450 -0.7996 -1.7408
 7297SOL     OW33349   2.843   0.613   8.521  0.0900  0.1055 -0.6437
 7297SOL    HW133350   2.775   0.675   8.493 -0.4175  0.7272  1.9700
 7297SOL    HW233351   2.791   0.577   8.593  1.3420 -0.3538  0.0131
 7298SOL     OW33352   2.592   4.162   0.148  0.2479 -0.2538 -0.4608
 7298SOL    HW133353   2.609   4.155   0.242  0.8955 -0.1452 -0.5687
 7298SOL    HW233354   2.678   4.193   0.119  0.7665 -0.9197  0.3535
 7299SOL     OW33355   2.372   0.942  10.931 -0.1879 -0.1845  0.3936
 7299SOL    HW133356   2.289   0.986  10.949  0.3145  0.4140  1.2170
 7299SOL    HW233357   2.424   0.958  11.010 -1.1867  0.2144  0.9722
 7300SOL     OW33358   3.689   2.820   6.461 -0.1814  0.0517 -0.0778
 7300SOL    HW133359   3.616   2.882   6.456 -0.0525  0.3630  1.6747
 7300SOL    HW233360   3.640   2.749   6.503  2.1138 -1.2773  0.2917
 7301SOL     OW33361   3.640   0.920   7.623 -0.7636  0.2290 -0.1701
 7301SOL    HW133362   3.617   0.982   7.554 -1.1905 -1.1936 -1.3183
 7301SOL    HW233363   3.557   0.871   7.628  1.0862 -2.9390 -0.5961
 7302SOL     OW33364   1.548   0.993   7.454  0.1601  0.1116  0.2722
 7302SOL    HW133365   1.596   1.056   7.401 -1.8274  3.0162  1.9464
 7302SOL    HW233366   1.616   0.973   7.520 -0.7449  1.0847  1.4908
 7303SOL     OW33367   1.707   2.053   5.938  0.2618 -0.0176  0.0879
 7303SOL    HW133368   1.778   2.017   5.884 -0.4528 -0.8488 -0.3024
 7303SOL    HW233369   1.736   2.030   6.026 -0.9388 -0.9886  0.2333
 7304SOL     OW33370   1.835   0.561  17.551  0.0703  0.3894  0.4787
 7304SOL    HW133371   1.760   0.515  17.514  2.0807 -1.9446 -0.6400
 7304SOL    HW233372   1.891   0.486  17.569 -4.3311 -2.6183  1.6730
 7305SOL     OW33373   1.445   3.904   3.524 -0.1002 -0.3482  0.2391
 7305SOL    HW133374   1.349   3.896   3.528  0.0156 -0.3815  3.3663
 7305SOL    HW233375   1.461   3.897   3.430 -0.0620 -1.4027  0.3289
 7306SOL     OW33376   4.463   2.479   6.603 -0.4813  0.8188 -0.4987
 7306SOL    HW133377   4.371   2.503   6.613 -0.0102  2.1510  0.5523
 7306SOL    HW233378   4.497   2.512   6.687 -1.6091  1.8390 -0.4473
 7307SOL     OW33379   1.572   0.363  12.765  0.1435  0.4562  0.3205
 7307SOL    HW133380   1.512   0.375  12.691 -0.4017  1.6865  0.9584
 7307SOL    HW233381   1.653   0.381  12.717 -0.8433 -0.6645 -1.7925
 7308SOL     OW33382   4.104   1.459   7.737 -0.4122  0.0849  0.3116
 7308SOL    HW133383   4.065   1.540   7.769  2.4338  1.3070  0.6881
 7308SOL    HW233384   4.172   1.506   7.688  1.2324  0.3151  2.8347
 7309SOL     OW33385   0.671   2.258   5.230  0.2551  0.0074  0.1962
 7309SOL    HW133386   0.654   2.216   5.314 -0.7947  0.5872  0.2656
 7309SOL    HW233387   0.621   2.199   5.174  0.8139 -0.7735  0.5168
 7310SOL     OW33388   2.062   3.532   4.473  0.5620 -0.2282  0.3392
 7310SOL    HW133389   2.008   3.454   4.456 -1.1532  1.3003 -1.1497
 7310SOL    HW233390   2.149   3.503   4.445 -0.6752 -2.3765 -1.3652
 7311SOL     OW33391   3.755   4.422  11.578 -0.5463 -0.2304  0.0785
 7311SOL    HW133392   3.718   4.471  11.505  1.1435  1.1633  0.1406
 7311SOL    HW233393   3.707   4.340  11.570 -0.1454 -0.5998  1.3535
 7312SOL     OW33394   3.952   1.895   8.094 -0.1335  0.0248  0.5763
 7312SOL    HW133395   3.979   1.934   8.010  0.6561 -1.5686  0.0741
 7312SOL    HW233396   3.880   1.844   8.057  0.5020 -0.2269 -0.3414
 7313SOL     OW33397   4.251   0.744   2.250 -0.0790 -0.2508  0.2030
 7313SOL    HW133398   4.223   0.736   2.158  1.2104  2.4935 -0.4304
 7313SOL    HW233399   4.245   0.655   2.285  0.1871 -0.1838  0.4141
 7314SOL     OW33400   3.938   3.487  15.142  0.4637  0.5598  0.5264
 7314SOL    HW133401   3.920   3.488  15.236 -1.0451  0.4007  0.2330
 7314SOL    HW233402   3.914   3.577  15.119  2.1587  1.6373  2.9613
 7315SOL     OW33403   3.591   2.120   4.588  0.5896  0.3476  0.0030
 7315SOL    HW133404   3.677   2.137   4.627  1.1064  1.6684 -1.6651
 7315SOL    HW233405   3.549   2.072   4.659 -2.0024  0.6533 -1.3263
 7316SOL     OW33406   3.564   2.804  16.772 -1.1012  0.4797  0.0020
 7316SOL    HW133407   3.491   2.792  16.833 -1.0056  0.4103  0.1024
 7316SOL    HW233408   3.595   2.890  16.804  3.1859 -1.3106  0.7316
 7317SOL     OW33409   4.157   0.756   1.116 -0.1112 -0.1299  0.0237
 7317SOL    HW133410   4.237   0.726   1.073 -0.7150 -1.4365 -0.1814
 7317SOL    HW233411   4.138   0.690   1.182 -2.4898  0.4530 -0.0929
 7318SOL     OW33412   2.084   0.994   3.665 -0.4291  0.3040  0.2397
 7318SOL    HW133413   2.109   0.911   3.624  0.4207  0.7071 -0.0509
 7318SOL    HW233414   2.170   1.034   3.677 -0.6279  1.1070 -1.0119
 7319SOL     OW33415   2.054   3.685  14.273  0.5260  0.0955  0.3059
 7319SOL    HW133416   2.134   3.718  14.312  0.2109  1.7155 -0.4150
 7319SOL    HW233417   2.032   3.751  14.207 -2.0746  1.6147  2.6654
 7320SOL     OW33418   3.030   3.685   7.527  0.4561 -0.1443  0.3170
 7320SOL    HW133419   3.037   3.627   7.604  2.9823 -0.3266 -0.0509
 7320SOL    HW233420   2.996   3.765   7.566  1.4524  0.3737  0.1149
 7321SOL     OW33421   1.966   3.309   5.559  0.3993 -0.0736 -0.5279
 7321SOL    HW133422   1.986   3.217   5.577 -0.5307  0.3861  2.8138
 7321SOL    HW233423   1.890   3.305   5.617 -0.5349 -0.6641 -1.7937
 7322SOL     OW33424   2.440   0.171   6.869 -0.4226  0.5911 -0.3920
 7322SOL    HW133425   2.467   0.096   6.815 -1.7911 -0.4298  0.3699
 7322SOL    HW233426   2.351   0.149   6.896 -0.4607  0.6582 -0.4597
 7323SOL     OW33427   0.513   3.163   2.522 -0.1007 -0.2263 -0.2930
 7323SOL    HW133428   0.542   3.156   2.613  1.4795  3.4342 -0.5219
 7323SOL    HW233429   0.586   3.206   2.477 -0.5043  1.4980  0.6960
 7324SOL     OW33430   0.865   1.571   2.778 -0.4082 -0.7749 -0.2936
 7324SOL    HW133431   0.771   1.586   2.768 -0.3598 -0.4931 -0.3283
 7324SOL    HW233432   0.865   1.492   2.832  1.8470 -0.7022 -0.1590
 7325SOL     OW33433   4.239   1.682   5.321 -0.2242  0.0314 -0.0285
 7325SOL    HW133434   4.237   1.776   5.336  1.1477  0.0389  0.0869
 7325SOL    HW233435   4.162   1.648   5.369 -0.4481  0.6725  0.0685
 7326SOL     OW33436   0.127   3.234   2.222  0.0244  0.1739 -0.0034
 7326SOL    HW133437   0.213   3.248   2.182  0.1098 -2.6003 -0.7458
 7326SOL    HW233438   0.084   3.171   2.165  2.9313 -0.6951 -1.2666
 7327SOL     OW33439   0.622   1.320   1.709  0.3875  0.3955  0.4865
 7327SOL    HW133440   0.573   1.345   1.787  1.5499  1.0547  1.0083
 7327SOL    HW233441   0.552   1.304   1.646  2.0015  1.2176 -1.5326
 7328SOL     OW33442   4.388   2.758  11.205 -0.0829  0.3497 -0.3295
 7328SOL    HW133443   4.294   2.746  11.201 -0.0686  0.2143 -0.2471
 7328SOL    HW233444   4.422   2.676  11.168 -1.6744 -1.0587  1.3226
 7329SOL     OW33445   3.871   2.992   3.544  0.0456  0.2049  0.4974
 7329SOL    HW133446   3.923   3.024   3.618 -0.4399 -1.2593  1.4809
 7329SOL    HW233447   3.907   3.042   3.471  1.6540  1.1526  1.9253
 7330SOL     OW33448   1.035   2.040   3.859 -0.2687  0.2094 -0.5677
 7330SOL    HW133449   0.943   2.016   3.871 -0.0190 -0.3671  0.2091
 7330SOL    HW233450   1.078   1.954   3.852  3.0148  1.9046 -1.1086
 7331SOL     OW33451   0.515   3.831  15.890 -0.1830 -0.4908 -0.0978
 7331SOL    HW133452   0.493   3.905  15.833 -1.6252 -1.8642 -1.3272
 7331SOL    HW233453   0.483   3.752  15.847 -1.3646 -0.1419  0.1353
 7332SOL     OW33454   3.581   0.008   7.262 -0.1444  0.0208 -0.4173
 7332SOL    HW133455   3.567   4.653   7.321  0.4588 -0.0298 -0.3389
 7332SOL    HW233456   3.643   0.061   7.312 -0.4498  0.9242 -0.9878
 7333SOL     OW33457   0.574   1.085   9.671 -0.2750 -0.0579  0.4047
 7333SOL    HW133458   0.647   1.045   9.625 -0.4197  0.6987 -0.4877
 7333SOL    HW233459   0.548   1.004   9.714 -0.2707  0.4416  1.3495
 7334SOL     OW33460   3.692   3.808  15.438  0.6302  0.1673  0.1891
 7334SOL    HW133461   3.697   3.802  15.533  1.4905  0.4800  0.1587
 7334SOL    HW233462   3.654   3.895  15.431 -2.8796 -1.4488 -1.0592
 7335SOL     OW33463   0.845   2.978   5.761  1.1354 -0.4680  0.6504
 7335SOL    HW133464   0.865   3.062   5.721  0.7473  0.2068  1.8830
 7335SOL    HW233465   0.756   2.999   5.791  0.0761 -2.7416 -0.8393
 7336SOL     OW33466   4.499   3.102   6.279 -0.5348 -0.0035 -0.4659
 7336SOL    HW133467   4.423   3.136   6.325 -1.0070 -0.9499 -0.5386
 7336SOL    HW233468   4.485   3.007   6.277  1.1729 -0.2664 -0.2415
 7337SOL     OW33469   0.544   2.187   4.863 -0.3681  0.4298 -0.5735
 7337SOL    HW133470   0.574   2.126   4.931  0.0761  0.6526 -0.5690
 7337SOL    HW233471   0.466   2.227   4.902 -1.5283 -0.8427 -1.6014
 7338SOL     OW33472   3.024   2.950   0.013 -0.4068 -0.1949 -0.3588
 7338SOL    HW133473   3.096   2.887   0.017 -2.3950 -2.6497 -2.1168
 7338SOL    HW233474   3.026   2.972  17.598  3.0811  1.3928  0.1044
 7339SOL     OW33475   1.639   1.869   3.316 -0.1455  0.0689  0.1495
 7339SOL    HW133476   1.564   1.929   3.321  2.5382  3.3805  0.2094
 7339SOL    HW233477   1.708   1.932   3.295 -0.3442 -0.1628 -1.1744
 7340SOL     OW33478   3.805   3.643   7.762  0.3262 -0.4406  0.2393
 7340SOL    HW133479   3.725   3.590   7.764 -3.1052  4.6793 -2.3275
 7340SOL    HW233480   3.783   3.733   7.787  0.2790 -0.9907  2.2382
 7341SOL     OW33481   3.656   4.698   8.442  0.4449  0.8510  0.2238
 7341SOL    HW133482   3.727   4.663   8.389  0.1552  1.3601 -0.5012
 7341SOL    HW233483   3.584   4.648   8.403  0.2232  0.0949  1.6177
 7342SOL     OW33484   4.642   4.105  13.383  0.2326 -0.2982 -0.4200
 7342SOL    HW133485   4.556   4.109  13.425  1.6327  1.5389  2.2848
 7342SOL    HW233486   4.619   4.087  13.292 -1.0981 -2.4224  0.3286
 7343SOL     OW33487   2.022   3.682   4.249 -0.0069 -0.3102  0.0752
 7343SOL    HW133488   1.929   3.688   4.227  0.1565 -0.0384 -0.5568
 7343SOL    HW233489   2.027   3.611   4.313  0.0533 -0.2022  0.1899
 7344SOL     OW33490   4.450   2.749   7.903 -0.8994  0.4342 -0.6246
 7344SOL    HW133491   4.502   2.752   7.983  0.7088 -0.6856 -1.6350
 7344SOL    HW233492   4.369   2.715   7.942 -0.3887 -0.4454 -0.3184
 7345SOL     OW33493   0.787   0.646   5.562  0.6105  0.2473  0.1702
 7345SOL    HW133494   0.734   0.576   5.600 -1.1076  0.5999 -1.5314
 7345SOL    HW233495   0.732   0.687   5.494 -1.4524  0.4134  1.9448
 7346SOL     OW33496   2.561   0.791  16.208  0.4606 -0.0592  0.2548
 7346SOL    HW133497   2.555   0.809  16.114  0.3972  1.2030  0.4994
 7346SOL    HW233498   2.492   0.725  16.209  0.2162  0.1989  0.5419
 7347SOL     OW33499   0.661   2.311   4.641 -0.4904 -0.6948  0.2607
 7347SOL    HW133500   0.736   2.252   4.649 -0.2331 -0.1995  1.5355
 7347SOL    HW233501   0.610   2.270   4.712  0.8471 -0.7832  1.1718
 7348SOL     OW33502   3.019   3.450  14.468 -0.2726  0.0694  0.2391
 7348SOL    HW133503   3.086   3.437  14.535  0.3390 -0.7243 -0.5224
 7348SOL    HW233504   2.945   3.481  14.520  0.7436  2.2628  0.3798
 7349SOL     OW33505   4.668   3.183  13.444 -0.3698  0.3370 -0.2731
 7349SOL    HW133506   4.595   3.245  13.443 -1.3135 -0.7475  0.8985
 7349SOL    HW233507   4.661   3.140  13.359  0.9976  0.3520 -0.3882
 7350SOL     OW33508   3.362   4.579   3.394  0.5023 -0.4434  0.5674
 7350SOL    HW133509   3.364   4.624   3.310  4.5138 -0.2910  0.7387
 7350SOL    HW233510   3.456   4.588   3.406  0.9159 -1.2262 -2.0673
 7351SOL     OW33511   0.146   2.835  13.984  0.0079  0.1980 -0.0657
 7351SOL    HW133512   0.228   2.820  14.032 -0.0134  1.4336  0.3648
 7351SOL    HW233513   0.169   2.922  13.954 -2.4517  0.6937 -0.5515
 7352SOL     OW33514   1.793   1.232   1.441 -0.3820  0.1313 -0.2874
 7352SOL    HW133515   1.719   1.223   1.381 -1.3534  1.8726  0.6660
 7352SOL    HW233516   1.858   1.168   1.412  2.1509  2.1896  0.8474
 7353SOL     OW33517   2.314   2.201   1.361  0.1659  0.1452 -0.3425
 7353SOL    HW133518   2.239   2.173   1.308  0.1619  0.5225 -0.5305
 7353SOL    HW233519   2.265   2.266   1.412 -0.5051 -0.4037 -0.2771
 7354SOL     OW33520   0.317   0.449   5.872  0.4435 -0.1511 -0.7868
 7354SOL    HW133521   0.400   0.453   5.826  0.5930 -0.9774 -0.5756
 7354SOL    HW233522   0.266   0.395   5.812 -0.0579 -0.4581 -0.0808
 7355SOL     OW33523   1.552   3.341   3.218  0.0833 -0.3791 -0.0097
 7355SOL    HW133524   1.475   3.393   3.241 -0.3183 -0.9811 -0.0175
 7355SOL    HW233525   1.520   3.322   3.130  0.5336  0.6530 -0.4001
 7356SOL     OW33526   0.719   2.362   5.589  0.1945  0.8118 -0.1719
 7356SOL    HW133527   0.731   2.456   5.572 -2.1614  1.2953  0.7759
 7356SOL    HW233528   0.675   2.374   5.673  1.0753 -2.4365  0.7604
 7357SOL     OW33529   3.889   3.202   4.508  0.0920 -0.0056 -0.0676
 7357SOL    HW133530   3.867   3.269   4.572  0.4692  0.3747 -0.3410
 7357SOL    HW233531   3.932   3.134   4.559 -0.1713 -0.3057 -0.2464
 7358SOL     OW33532   2.763   4.413  13.592 -0.4117 -0.3843 -0.2545
 7358SOL    HW133533   2.754   4.508  13.587  0.8848 -0.2129  0.5809
 7358SOL    HW233534   2.859   4.410  13.597 -0.4097  2.3600  1.3137
 7359SOL     OW33535   0.796   2.548   7.812  0.0146  0.0542  0.5571
 7359SOL    HW133536   0.793   2.483   7.883 -1.1916  0.6488  1.0463
 7359SOL    HW233537   0.717   2.523   7.764 -0.9856 -1.5873  3.0488
 7360SOL     OW33538   1.955   0.903   4.887  0.0171  0.1011 -0.0113
 7360SOL    HW133539   1.927   0.857   4.966  1.9049 -1.2580 -0.1547
 7360SOL    HW233540   2.016   0.838   4.853 -1.1331 -0.8148 -0.3261
 7361SOL     OW33541   3.893   3.323   8.637 -0.0950 -0.0394  0.0022
 7361SOL    HW133542   3.887   3.286   8.725  2.5310 -0.0972  0.1755
 7361SOL    HW233543   3.802   3.337   8.610 -0.2848 -1.0111  0.1392
 7362SOL     OW33544   3.729   4.552  13.058 -0.7610  0.5373 -0.0095
 7362SOL    HW133545   3.793   4.492  13.018  1.2519  0.9560  2.5935
 7362SOL    HW233546   3.664   4.547  12.988 -0.6767 -0.6646  0.0029
 7363SOL     OW33547   4.424   2.915  11.671  0.3661 -0.2963  0.0110
 7363SOL    HW133548   4.381   2.972  11.607  1.3707 -0.1583 -0.5451
 7363SOL    HW233549   4.483   2.976  11.715  1.1419 -1.0385  0.0086
 7364SOL     OW33550   2.116   1.086  14.911  1.2143 -0.4994  0.0134
 7364SOL    HW133551   2.125   1.028  14.986  2.5610 -1.1893 -0.6823
 7364SOL    HW233552   2.159   1.030  14.847  1.7308 -0.7456  0.5795
 7365SOL     OW33553   2.640   4.632   1.860 -0.3719  0.2292 -0.1089
 7365SOL    HW133554   2.647   4.611   1.767  1.5248 -0.6106  0.2356
 7365SOL    HW233555   2.625   0.007   1.868  1.9327  0.6352 -0.7921
 7366SOL     OW33556   1.069   3.939   1.417  0.3047  0.1532  0.4067
 7366SOL    HW133557   1.103   3.956   1.505 -0.1284 -0.9079  0.7726
 7366SOL    HW233558   1.052   3.846   1.431 -1.3276  0.4838  0.5899
 7367SOL     OW33559   1.028   0.274   4.592 -0.1361 -0.6331 -0.1037
 7367SOL    HW133560   0.992   0.274   4.504  1.1113  1.5628 -0.6184
 7367SOL    HW233561   0.972   0.208   4.633 -2.4483  0.9546 -0.7540
 7368SOL     OW33562   3.048   3.879   5.164  0.1193 -0.2564  0.0082
 7368SOL    HW133563   3.130   3.918   5.194  1.0118 -1.3548 -0.9622
 7368SOL    HW233564   2.994   3.958   5.169 -2.9873 -2.3971  0.3591
 7369SOL     OW33565   2.384   4.528  10.153  0.8204  0.1855  0.7291
 7369SOL    HW133566   2.324   4.500  10.084  2.2946 -2.7495  0.6116
 7369SOL    HW233567   2.452   4.568  10.100 -0.9233 -0.8037 -2.2615
 7370SOL     OW33568   0.100   1.329  14.458 -0.1146  0.2589  0.5616
 7370SOL    HW133569   0.110   1.255  14.519 -1.9379 -0.4369  0.0330
 7370SOL    HW233570   0.074   1.295  14.372 -2.0257  1.5912  0.6130
 7371SOL     OW33571   1.213   0.638  13.192 -0.7166 -0.1382  0.1408
 7371SOL    HW133572   1.221   0.554  13.238 -0.3469 -0.3866 -0.3808
 7371SOL    HW233573   1.230   0.709  13.254  0.4462 -1.2313  1.0731
 7372SOL     OW33574   4.594   1.368  10.479 -0.4943  0.1130 -0.5384
 7372SOL    HW133575   4.668   1.315  10.451  0.3699  0.2794  1.4617
 7372SOL    HW233576   4.541   1.305  10.528 -0.0217 -0.1510 -0.3754
 7373SOL     OW33577   3.056   0.403   5.529  0.6920  0.1174 -0.4662
 7373SOL    HW133578   3.038   0.393   5.435  1.6537  1.7374 -0.8234
 7373SOL    HW233579   3.139   0.450   5.529  0.1414  1.1181 -1.7342
 7374SOL     OW33580   0.914   3.721   2.495 -0.7599 -0.0031 -0.1182
 7374SOL    HW133581   0.842   3.765   2.542  0.3124 -0.2145  1.7489
 7374SOL    HW233582   0.867   3.692   2.417  0.2205  0.4441 -0.8652
 7375SOL     OW33583   0.381   0.850  15.330 -0.0358  1.3886  0.1729
 7375SOL    HW133584   0.472   0.837  15.359  1.2312  2.5130 -3.2671
 7375SOL    HW233585   0.354   0.888  15.413  2.2862 -2.0432  2.4987
 7376SOL     OW33586   0.816   0.696   2.640  0.1966  0.7456 -0.1597
 7376SOL    HW133587   0.763   0.764   2.682 -0.6495  0.5329 -0.8970
 7376SOL    HW233588   0.761   0.618   2.629  0.1271  0.4075  2.5761
 7377SOL     OW33589   4.282   2.935   3.220  0.2173 -0.5172 -0.2505
 7377SOL    HW133590   4.326   2.957   3.138 -1.1444 -0.4602 -0.9710
 7377SOL    HW233591   4.193   2.948   3.188  0.6453  0.7496 -0.9105
 7378SOL     OW33592   0.834   0.706   3.566  0.1981  0.2585 -0.5728
 7378SOL    HW133593   0.787   0.643   3.511 -0.1683  1.2081 -1.3338
 7378SOL    HW233594   0.915   0.720   3.517  0.5590  0.2110  0.0019
 7379SOL     OW33595   4.570   1.673   7.156  0.1876  0.0179  0.0560
 7379SOL    HW133596   4.587   1.582   7.132 -1.2621 -0.6075  1.3905
 7379SOL    HW233597   4.569   1.655   7.250  1.9982 -0.2814  0.0286
 7380SOL     OW33598   0.729   0.827   7.416 -0.8397  0.3162  0.5817
 7380SOL    HW133599   0.773   0.912   7.421 -2.0841  0.8776  2.1744
 7380SOL    HW233600   0.802   0.767   7.430 -1.5093 -0.6604 -0.1110
 7381SOL     OW33601   3.000   2.561   4.831  1.3042 -0.8219  0.1971
 7381SOL    HW133602   2.906   2.556   4.812  1.2667 -1.3978  0.5329
 7381SOL    HW233603   3.010   2.473   4.867  0.5180 -0.5845  1.0319
 7382SOL     OW33604   2.615   2.692  10.936  0.3213  0.1975 -0.2541
 7382SOL    HW133605   2.589   2.606  10.905 -0.3159  0.8636 -1.5485
 7382SOL    HW233606   2.568   2.695  11.020 -2.2089 -1.1468 -1.6268
 7383SOL     OW33607   1.912   4.069   5.906 -0.3190 -0.0869  0.0223
 7383SOL    HW133608   1.843   4.003   5.900 -0.3941  0.1224 -1.4665
 7383SOL    HW233609   1.961   4.039   5.983 -1.9687 -1.0276  0.6994
 7384SOL     OW33610   1.270   0.838  13.373 -0.0384 -0.5673  0.0521
 7384SOL    HW133611   1.280   0.820  13.467  0.9936 -0.0657  0.0276
 7384SOL    HW233612   1.217   0.918  13.377 -0.6246 -0.9213 -0.6290
 7385SOL     OW33613   3.192   2.790   4.811  0.3783  0.0884 -0.0014
 7385SOL    HW133614   3.148   2.707   4.829  1.6440 -0.0936  2.2025
 7385SOL    HW233615   3.266   2.760   4.759 -0.5810 -0.3530 -1.1393
 7386SOL     OW33616   2.757   2.140   7.666  0.1097 -0.5928  0.7690
 7386SOL    HW133617   2.666   2.160   7.688  0.2551  0.7033  0.2054
 7386SOL    HW233618   2.740   2.088   7.588  0.7554 -0.4218  0.5198
 7387SOL     OW33619   4.408   1.792   9.787 -0.0538 -0.0770  0.7244
 7387SOL    HW133620   4.457   1.751   9.859 -0.7369 -0.4204  0.9918
 7387SOL    HW233621   4.461   1.870   9.776  1.8907 -1.5518 -0.3606
 7388SOL     OW33622   3.486   0.579  17.124 -0.1638  0.1249 -0.3566
 7388SOL    HW133623   3.573   0.577  17.165 -0.9126  0.7275  1.2357
 7388SOL    HW233624   3.500   0.548  17.034  0.9663  0.1455 -0.1868
 7389SOL     OW33625   1.283   2.922   8.987 -0.0244 -0.1637 -0.2609
 7389SOL    HW133626   1.333   2.949   8.910 -0.3151  2.1450  0.3622
 7389SOL    HW233627   1.357   2.892   9.039 -1.2088 -3.8105 -0.6530
 7390SOL     OW33628   1.552   0.338   7.322  0.2541 -0.4817  0.1495
 7390SOL    HW133629   1.585   0.426   7.338 -1.0361  0.2071 -1.0591
 7390SOL    HW233630   1.492   0.315   7.394  0.6227 -1.6153  0.1042
 7391SOL     OW33631   4.262   1.089  13.552  0.1502 -0.3489 -0.3454
 7391SOL    HW133632   4.357   1.077  13.546  0.0496 -1.3191  0.0952
 7391SOL    HW233633   4.236   1.102  13.461  0.7049 -2.8423 -0.8536
 7392SOL     OW33634   2.571   2.734   7.111  0.5988 -0.2645 -0.4763
 7392SOL    HW133635   2.500   2.798   7.108  0.0418 -0.8392  0.5607
 7392SOL    HW233636   2.579   2.710   7.019  4.0768 -2.3087  0.3598
 7393SOL     OW33637   1.583   4.151   9.301 -0.3520 -0.0672  0.0637
 7393SOL    HW133638   1.554   4.205   9.227 -1.2474  1.5423  1.6036
 7393SOL    HW233639   1.536   4.190   9.374 -1.2416 -0.9630 -0.0333
 7394SOL     OW33640   3.802   2.625   6.309  0.8066 -0.0309  0.4206
 7394SOL    HW133641   3.740   2.623   6.236  3.3492  0.2007 -1.7464
 7394SOL    HW233642   3.778   2.713   6.337  0.0911  0.1188 -0.6752
 7395SOL     OW33643   2.829   3.944  16.202 -0.6427 -0.5004  0.2009
 7395SOL    HW133644   2.867   3.864  16.237 -0.8139 -0.3180  0.7983
 7395SOL    HW233645   2.881   4.011  16.245 -1.5285 -0.9810  2.0068
 7396SOL     OW33646   0.919   4.551  11.214 -0.0829  0.2802  0.5707
 7396SOL    HW133647   0.993   4.497  11.241 -1.5481 -1.8484  0.3260
 7396SOL    HW233648   0.939   4.568  11.122  2.0770 -3.2066  0.3869
 7397SOL     OW33649   2.753   3.599   8.758 -0.1917 -0.0396 -0.0740
 7397SOL    HW133650   2.691   3.656   8.713  0.0471  0.1015 -0.2252
 7397SOL    HW233651   2.840   3.633   8.734  0.2911  0.1505  1.9119
 7398SOL     OW33652   3.641   4.069  13.794 -0.3278  0.3318 -0.2199
 7398SOL    HW133653   3.717   4.090  13.847 -0.6258 -0.6116  0.5862
 7398SOL    HW233654   3.675   4.050  13.707  2.5817 -0.2261  1.0345
 7399SOL     OW33655   1.427   2.270   3.162 -0.1352  0.4501 -0.5326
 7399SOL    HW133656   1.424   2.186   3.116 -1.9273 -0.3208  1.0328
 7399SOL    HW233657   1.418   2.246   3.254  0.2881  1.9880 -0.0814
 7400SOL     OW33658   4.716   1.210   1.157 -0.2135 -0.7001 -0.0507
 7400SOL    HW133659   4.630   1.177   1.129 -0.8139 -0.4432  1.5094
 7400SOL    HW233660   4.715   1.190   1.250 -1.6857 -0.2919  0.0316
 7401SOL     OW33661   3.107   4.489   5.810 -0.1399  0.1617 -0.4677
 7401SOL    HW133662   3.104   4.574   5.855  1.4661  0.5408 -1.0543
 7401SOL    HW233663   3.023   4.454   5.838  0.7163  0.3462  2.3554
 7402SOL     OW33664   2.602   4.259  15.441 -0.4590  0.3494  0.5583
 7402SOL    HW133665   2.682   4.292  15.400 -1.6236  1.3834 -0.8812
 7402SOL    HW233666   2.569   4.209  15.366 -1.8552  2.1871 -0.0422
 7403SOL     OW33667   0.685   1.744   5.975  0.9927 -0.4846 -0.1400
 7403SOL    HW133668   0.669   1.662   6.021  1.6867 -0.2614  0.5113
 7403SOL    HW233669   0.775   1.727   5.949  1.5326 -1.4512  2.3202
 7404SOL     OW33670   1.539   2.759   6.683 -0.5734  0.1396 -0.0268
 7404SOL    HW133671   1.625   2.759   6.724 -1.1624 -1.2857  1.2228
 7404SOL    HW233672   1.481   2.739   6.757  1.6032  0.7140  1.8393
 7405SOL     OW33673   4.038   3.450   2.195 -0.1157 -0.5478  0.4224
 7405SOL    HW133674   4.028   3.532   2.243  1.8295  0.8116 -1.5011
 7405SOL    HW233675   3.969   3.393   2.229 -0.0594  0.2575  1.8618
 7406SOL     OW33676   0.387   1.081   4.842 -0.1154 -0.1013  0.0662
 7406SOL    HW133677   0.429   1.014   4.789  1.6652  2.7459 -2.1613
 7406SOL    HW233678   0.443   1.155   4.819 -0.8781  0.7618  1.0031
 7407SOL     OW33679   2.150   4.283   9.291  0.1886  0.1858  0.0527
 7407SOL    HW133680   2.184   4.303   9.204  1.2741 -0.6609  0.2882
 7407SOL    HW233681   2.159   4.188   9.294  0.6863  0.1517 -3.2390
 7408SOL     OW33682   1.601   0.123   8.979 -1.0324  0.7217 -0.0394
 7408SOL    HW133683   1.536   0.172   9.029 -0.7607  2.2661 -1.2185
 7408SOL    HW233684   1.633   0.197   8.930  3.6924 -0.8006  0.7595
 7409SOL     OW33685   4.677   2.541   3.467 -0.2376  0.1325  0.5167
 7409SOL    HW133686   4.707   2.485   3.396 -0.1117 -0.5891  1.1321
 7409SOL    HW233687   4.617   2.602   3.423 -0.7123  1.0044  2.3631
 7410SOL     OW33688   1.440   0.323   2.347  0.1357 -0.4608 -0.4197
 7410SOL    HW133689   1.444   0.391   2.280  0.1461  0.0318  0.0841
 7410SOL    HW233690   1.515   0.265   2.334 -0.5527 -2.2678  3.5511
 7411SOL     OW33691   4.449   3.139   7.134 -0.0588 -0.0943 -0.2631
 7411SOL    HW133692   4.399   3.220   7.132  1.1551  0.7026  2.4577
 7411SOL    HW233693   4.378   3.075   7.143  1.0508 -1.1469  1.2127
 7412SOL     OW33694   4.587   3.558   8.368 -0.3722 -0.2898  0.6411
 7412SOL    HW133695   4.680   3.533   8.373 -0.4774 -1.0005 -1.0765
 7412SOL    HW233696   4.552   3.469   8.373  1.3649 -0.8665  2.5930
 7413SOL     OW33697   2.266   4.429   4.533  0.1230  0.4230 -1.1418
 7413SOL    HW133698   2.230   4.351   4.490  0.8108  1.1362 -3.0373
 7413SOL    HW233699   2.181   4.475   4.537  0.0435 -0.0243  1.8268
 7414SOL     OW33700   3.501   4.248  13.521 -0.6973 -0.6469 -0.7062
 7414SOL    HW133701   3.442   4.274  13.592 -0.4768 -1.5091 -0.2043
 7414SOL    HW233702   3.487   4.153  13.514  1.8150 -1.0650  0.0043
 7415SOL     OW33703   0.948   2.439  17.473 -0.0383  0.1392  0.0298
 7415SOL    HW133704   1.002   2.507  17.513 -0.0915  0.2753 -0.1305
 7415SOL    HW233705   0.958   2.448  17.378 -0.7769 -0.5159 -0.1099
 7416SOL     OW33706   0.235   4.567   4.429 -0.2272  0.5803 -0.2334
 7416SOL    HW133707   0.254   4.580   4.522  2.1586  2.5758 -0.9987
 7416SOL    HW233708   0.139   4.567   4.422 -0.4024 -2.8162  2.0376
 7417SOL     OW33709   3.543   2.706  15.537  1.1241  0.7754  0.0227
 7417SOL    HW133710   3.454   2.679  15.513  0.6136  1.7210  0.8289
 7417SOL    HW233711   3.587   2.712  15.453 -1.4979 -1.1983 -1.5082
 7418SOL     OW33712   1.841   4.099   4.788 -0.5453 -0.1731  0.1174
 7418SOL    HW133713   1.754   4.136   4.778 -1.1069 -1.8039 -0.9495
 7418SOL    HW233714   1.856   4.119   4.880  0.0777 -2.0399  0.4344
 7419SOL     OW33715   2.696   1.733   2.814  0.3930 -0.0038 -0.2255
 7419SOL    HW133716   2.670   1.805   2.756  0.1090 -1.1163 -1.4631
 7419SOL    HW233717   2.669   1.765   2.900 -0.2930 -0.2275 -0.3570
 7420SOL     OW33718   4.352   3.001   7.878  0.6992  0.3385 -0.0158
 7420SOL    HW133719   4.371   3.020   7.786  0.4239 -1.4641 -0.4564
 7420SOL    HW233720   4.393   2.914   7.887  1.8748  0.9163  0.2339
 7421SOL     OW33721   3.398   2.599   5.593 -0.0874 -0.1879  0.2690
 7421SOL    HW133722   3.444   2.614   5.510 -0.2038 -0.9020  0.0792
 7421SOL    HW233723   3.314   2.574   5.554 -1.1998  2.8412  0.7071
 7422SOL     OW33724   3.106   2.293   7.967  0.5290 -0.2646 -0.1578
 7422SOL    HW133725   3.017   2.258   7.977  1.2699 -1.8068  1.0444
 7422SOL    HW233726   3.089   2.382   7.999  0.7998 -0.8528  1.6235
 7423SOL     OW33727   0.448   4.682   5.576 -0.1339 -0.1147 -0.2185
 7423SOL    HW133728   0.388   0.019   5.526  2.2539  0.8945 -1.9101
 7423SOL    HW233729   0.395   4.681   5.656 -1.2606 -0.5422 -0.9766
 7424SOL     OW33730   0.704   2.599  16.708 -0.2136  0.1504 -0.1121
 7424SOL    HW133731   0.740   2.656  16.641  0.5445  0.0163  0.1826
 7424SOL    HW233732   0.781   2.547  16.732 -0.4994 -0.5868 -0.7746
 7425SOL     OW33733   0.453   4.366  11.921  0.4275  0.1483  0.0621
 7425SOL    HW133734   0.531   4.393  11.970  0.2748 -0.6878  0.7528
 7425SOL    HW233735   0.414   4.442  11.877 -0.3180 -0.2418  0.0526
 7426SOL     OW33736   4.236   0.264   8.302 -0.1820 -0.1738 -0.5672
 7426SOL    HW133737   4.230   0.245   8.396  2.1600  2.3691  0.1016
 7426SOL    HW233738   4.308   0.326   8.302 -1.1384  0.9572  0.3838
 7427SOL     OW33739   3.602   2.375   8.936  0.7601  0.0819  0.5199
 7427SOL    HW133740   3.525   2.338   8.893  1.3235  0.2955 -0.6696
 7427SOL    HW233741   3.640   2.423   8.863 -2.7513  2.4130  0.1990
 7428SOL     OW33742   2.564   1.950   0.497  0.0164 -0.3747 -0.4615
 7428SOL    HW133743   2.627   1.906   0.440  0.8856 -0.7251  0.7603
 7428SOL    HW233744   2.564   1.897   0.576  2.4844 -0.0085 -0.2134
 7429SOL     OW33745   2.318   1.173   0.608  0.0499 -0.7106  0.6055
 7429SOL    HW133746   2.345   1.252   0.561 -2.0092  0.4387  1.3969
 7429SOL    HW233747   2.232   1.196   0.641  0.0558  0.5654 -0.2835
 7430SOL     OW33748   0.117   2.094  14.829  1.0704 -0.1748 -0.7501
 7430SOL    HW133749   0.142   2.175  14.784 -0.7395  1.1826  0.6859
 7430SOL    HW233750   0.164   2.097  14.912  0.8753  1.5438 -0.6886
 7431SOL     OW33751   2.070   2.932   5.853 -0.1680 -0.1235 -0.1735
 7431SOL    HW133752   2.007   2.963   5.918 -1.5980 -2.6076 -0.3648
 7431SOL    HW233753   2.156   2.963   5.883 -0.0778 -0.3701 -0.1755
 7432SOL     OW33754   2.914   1.948   4.861 -0.4564 -0.1167  0.0757
 7432SOL    HW133755   2.988   1.895   4.891 -0.1881  0.5639  0.6237
 7432SOL    HW233756   2.875   2.002   4.930  0.1336 -1.5590  1.5334
 7433SOL     OW33757   4.111   2.029   9.403  0.3807 -0.1806 -0.5788
 7433SOL    HW133758   4.144   1.986   9.482 -0.3792  2.1706  1.0386
 7433SOL    HW233759   4.093   1.956   9.345 -0.0414 -0.2947 -0.3060
 7434SOL     OW33760   1.958   0.462   0.560 -0.0481  0.1284  0.0556
 7434SOL    HW133761   2.016   0.471   0.485 -2.0478 -2.3171 -1.7715
 7434SOL    HW233762   1.965   0.368   0.577 -1.1933  0.0061 -0.1620
 7435SOL     OW33763   4.371   0.514   0.592 -0.2085 -0.6988 -0.0071
 7435SOL    HW133764   4.459   0.499   0.628  0.0176  1.6429  0.4280
 7435SOL    HW233765   4.385   0.600   0.551 -0.5049 -0.2173  0.8941
 7436SOL     OW33766   1.056   1.966   1.246 -0.4147 -0.3708 -0.1984
 7436SOL    HW133767   1.071   1.907   1.173  1.6563  0.3822 -0.3576
 7436SOL    HW233768   0.963   1.987   1.240  0.0883  1.6856 -0.6356
 7437SOL     OW33769   2.652   0.438   4.368  0.0044  0.2465 -0.3817
 7437SOL    HW133770   2.566   0.474   4.389 -1.0948 -1.4435 -2.0701
 7437SOL    HW233771   2.706   0.487   4.430 -0.9300 -0.3582  0.9132
 7438SOL     OW33772   1.227   3.310   6.271 -0.4893 -0.2922 -0.1828
 7438SOL    HW133773   1.173   3.243   6.314 -1.1013  0.3169  0.0130
 7438SOL    HW233774   1.263   3.268   6.193 -1.5874 -0.1102 -0.7927
 7439SOL     OW33775   2.280   3.072   0.274 -0.0042  0.5659  0.1013
 7439SOL    HW133776   2.276   3.155   0.227  0.4733  0.3857 -0.2539
 7439SOL    HW233777   2.196   3.033   0.247  1.4341 -2.8230  0.5328
 7440SOL     OW33778   1.594   1.547   6.646  0.0116  0.4174  0.0974
 7440SOL    HW133779   1.577   1.478   6.710  0.3160 -0.3278 -0.6278
 7440SOL    HW233780   1.518   1.530   6.589  0.8628  0.6911 -1.1123
 7441SOL     OW33781   2.579   3.283   1.071 -0.2489  0.6200  0.3077
 7441SOL    HW133782   2.659   3.236   1.050 -0.7772  0.0099 -0.3771
 7441SOL    HW233783   2.514   3.241   1.014  0.1717  0.3819  0.0001
 7442SOL     OW33784   1.002   3.722   0.454 -0.2516  0.3998 -0.1541
 7442SOL    HW133785   0.930   3.768   0.412 -0.0673  0.6856 -0.1622
 7442SOL    HW233786   1.083   3.750   0.411 -0.0519 -1.1755 -0.7969
 7443SOL     OW33787   1.449   1.638   0.796  0.0442  0.3849 -0.3351
 7443SOL    HW133788   1.543   1.652   0.805  0.2240 -0.3340 -1.0274
 7443SOL    HW233789   1.425   1.724   0.830 -0.0879  0.3800 -0.4126
 7444SOL     OW33790   4.506   0.031  13.355  0.1041 -0.0729 -0.0163
 7444SOL    HW133791   4.597   0.009  13.375 -0.1846 -0.9443  0.3397
 7444SOL    HW233792   4.513   0.118  13.314  1.9160  0.2205  0.9314
 7445SOL     OW33793   3.516   2.277   8.421 -0.0375  0.1591 -0.0491
 7445SOL    HW133794   3.438   2.299   8.471  1.9525  2.2779  2.0917
 7445SOL    HW233795   3.530   2.186   8.447 -1.0901 -0.3459 -1.2122
 7446SOL     OW33796   2.412   2.073   6.524  0.3127 -1.0984 -0.2196
 7446SOL    HW133797   2.341   2.095   6.464  1.7492  0.9628 -1.1452
 7446SOL    HW233798   2.417   1.980   6.503 -0.5183 -0.7136 -2.0420
 7447SOL     OW33799   3.418   2.199   1.364  0.3233 -0.1464  0.1224
 7447SOL    HW133800   3.413   2.274   1.305 -0.4883  0.2307  0.6659
 7447SOL    HW233801   3.390   2.251   1.439 -2.4537 -0.6190 -0.5734
 7448SOL     OW33802   1.991   4.391   6.035 -0.1261 -0.2061  0.1451
 7448SOL    HW133803   1.958   4.415   5.949  0.3992  0.2567  0.0696
 7448SOL    HW233804   1.957   4.467   6.082 -1.8645  1.1875 -3.3888
 7449SOL     OW33805   1.138   2.824   6.116 -0.8678  0.0470  0.2291
 7449SOL    HW133806   1.123   2.898   6.058  0.5774  1.8192  2.1403
 7449SOL    HW233807   1.202   2.858   6.179  0.2877 -2.0396  0.1702
 7450SOL     OW33808   1.431   2.427   3.727  0.3941  0.1703 -0.1761
 7450SOL    HW133809   1.414   2.388   3.641 -2.7374 -1.3536  1.1599
 7450SOL    HW233810   1.405   2.351   3.778  2.3384 -0.0314  0.5177
 7451SOL     OW33811   4.094   4.264  17.435 -0.2626 -0.3159  0.0672
 7451SOL    HW133812   4.159   4.335  17.438  0.3640 -0.8530 -1.1282
 7451SOL    HW233813   4.136   4.193  17.388 -0.6408 -0.1782 -0.4758
 7452SOL     OW33814   1.277   1.544   4.810 -0.1165 -0.0490 -0.0544
 7452SOL    HW133815   1.329   1.477   4.765  0.1521 -0.0160  0.2067
 7452SOL    HW233816   1.300   1.508   4.896 -0.3438 -0.4692 -0.1679
 7453SOL     OW33817   1.688   4.482   4.771 -0.2196 -0.5859  0.2143
 7453SOL    HW133818   1.783   4.485   4.769 -0.1965 -0.1269  1.7848
 7453SOL    HW233819   1.663   4.489   4.679 -1.3323 -0.7197  0.4967
 7454SOL     OW33820   1.143   1.648   2.196 -0.7799  0.2262 -0.1447
 7454SOL    HW133821   1.121   1.560   2.166  0.7587 -0.3901  0.4800
 7454SOL    HW233822   1.216   1.662   2.135  1.4803 -0.0376  2.4587
 7455SOL     OW33823   1.560   2.972   9.025 -0.3830 -0.0569 -0.1476
 7455SOL    HW133824   1.587   2.971   8.933 -0.5030  0.5273 -0.1872
 7455SOL    HW233825   1.561   3.064   9.053 -0.6447 -0.4234  1.0319
 7456SOL     OW33826   0.583   1.526   1.258 -0.4704  0.2984  0.0028
 7456SOL    HW133827   0.566   1.433   1.273  0.6760  0.0305 -0.3365
 7456SOL    HW233828   0.651   1.510   1.193 -0.0246  0.4087  0.4412
 7457SOL     OW33829   0.461   4.488  12.249 -0.3545  0.8733  0.0807
 7457SOL    HW133830   0.401   4.555  12.218  1.0143  1.3059 -1.6141
 7457SOL    HW233831   0.525   4.506  12.181  0.3776 -0.4957  0.4097
 7458SOL     OW33832   4.460   0.360   4.890  0.2071 -0.4919 -0.2892
 7458SOL    HW133833   4.414   0.443   4.886  1.3023  0.2543  3.0389
 7458SOL    HW233834   4.384   0.302   4.879 -0.8950  0.4767  2.1960
 7459SOL     OW33835   0.411   0.079  10.359 -0.3202 -0.5122 -0.5158
 7459SOL    HW133836   0.419   0.002  10.416  1.4189  0.0032 -0.0843
 7459SOL    HW233837   0.443   0.153  10.410  0.7333 -1.1209 -0.2853
 7460SOL     OW33838   2.015   4.590  15.007 -0.4302 -0.5557 -0.0251
 7460SOL    HW133839   1.989   4.681  15.024  1.2616 -0.3759  1.6941
 7460SOL    HW233840   2.073   4.577  15.082 -0.4610 -1.5366 -0.1788
 7461SOL     OW33841   3.046   3.679   1.952  0.3455 -0.0836  0.2926
 7461SOL    HW133842   3.036   3.773   1.969  0.5709 -0.3458  1.9086
 7461SOL    HW233843   3.003   3.670   1.867  0.5980 -0.3279  0.1949
 7462SOL     OW33844   4.062   3.046   2.861 -0.6168 -0.1043  0.1619
 7462SOL    HW133845   3.976   3.039   2.903 -0.7081  1.4890  0.2553
 7462SOL    HW233846   4.063   2.961   2.818  3.2349 -0.7673  1.5494
 7463SOL     OW33847   4.567   2.039  11.303  0.3191  0.4057 -0.1294
 7463SOL    HW133848   4.553   2.094  11.227  0.7316 -0.1481 -0.6042
 7463SOL    HW233849   4.481   2.047  11.345  0.4799  1.0613  0.0747
 7464SOL     OW33850   1.020   1.646   6.783 -0.0893  0.1435  0.4097
 7464SOL    HW133851   0.988   1.657   6.694  3.3110  0.3000 -0.7667
 7464SOL    HW233852   1.031   1.551   6.784  1.0004  0.2731 -1.8921
 7465SOL     OW33853   4.644   2.449   3.833 -0.2314  0.3345 -0.5891
 7465SOL    HW133854   4.671   2.479   3.920  3.0778 -1.2785 -1.0682
 7465SOL    HW233855   4.600   2.522   3.789 -1.0243 -1.7696 -3.3181
 7466SOL     OW33856   1.593   2.954   2.645  0.2728  0.9412 -0.1223
 7466SOL    HW133857   1.582   2.965   2.550  0.3828 -0.8620 -0.3522
 7466SOL    HW233858   1.508   2.982   2.678 -0.1372 -0.4064 -0.0110
 7467SOL     OW33859   0.804   4.094   8.197  0.0235  0.2716 -0.0274
 7467SOL    HW133860   0.765   4.038   8.130 -0.3491  1.0744 -0.4836
 7467SOL    HW233861   0.735   4.090   8.263  0.6690 -0.5668  0.5923
 7468SOL     OW33862   3.047   4.058   8.688 -0.0165 -0.9269  0.3876
 7468SOL    HW133863   3.006   4.001   8.753  0.1014 -0.4047  0.9129
 7468SOL    HW233864   3.012   4.139   8.724 -1.7411 -0.7444 -1.6676
 7469SOL     OW33865   2.888   3.677  12.299  0.0202 -0.0916  0.3795
 7469SOL    HW133866   2.822   3.642  12.239 -0.2699 -1.2837  1.3929
 7469SOL    HW233867   2.958   3.690  12.235  0.5760 -1.8629  0.6392
 7470SOL     OW33868   4.556   2.491   3.050 -0.2524  0.3754 -0.5208
 7470SOL    HW133869   4.634   2.481   3.104  0.4279 -0.0300 -1.5597
 7470SOL    HW233870   4.481   2.495   3.109 -0.3687 -2.7535 -0.4398
 7471SOL     OW33871   1.628   3.232   8.661  0.2118 -0.0477  0.2680
 7471SOL    HW133872   1.674   3.304   8.705 -0.8302  0.9819 -0.3201
 7471SOL    HW233873   1.627   3.281   8.578  1.7045  1.5057  1.1632
 7472SOL     OW33874   3.202   2.664   7.879  0.4433  0.0505 -0.0090
 7472SOL    HW133875   3.112   2.679   7.848 -0.0281 -2.0119  0.3336
 7472SOL    HW233876   3.184   2.644   7.971 -1.4390 -1.0370 -0.5989
 7473SOL     OW33877   3.146   0.965   2.670 -0.5194  0.3264 -0.4785
 7473SOL    HW133878   3.137   0.914   2.590  1.9854 -0.4479 -0.2352
 7473SOL    HW233879   3.189   1.040   2.629  0.0192  1.3327  1.9114
 7474SOL     OW33880   1.252   4.534   6.142  0.3171 -0.3674 -0.1123
 7474SOL    HW133881   1.267   4.507   6.052  1.7432  3.2730 -0.9579
 7474SOL    HW233882   1.339   4.570   6.158 -0.4340  1.6232 -0.6043
 7475SOL     OW33883   3.682   4.507   8.175 -0.1997 -0.0274 -0.3306
 7475SOL    HW133884   3.624   4.573   8.136 -0.0288  1.5284  2.0267
 7475SOL    HW233885   3.758   4.560   8.199 -1.8433  2.3886 -0.5016
 7476SOL     OW33886   2.467   0.633   4.410  0.1402 -0.1292 -0.1426
 7476SOL    HW133887   2.511   0.716   4.429 -0.7675  0.2309  0.3755
 7476SOL    HW233888   2.406   0.664   4.343  1.6428  0.9939 -1.0135
 7477SOL     OW33889   1.306   1.622   6.856  0.1797  0.0688  0.9098
 7477SOL    HW133890   1.288   1.711   6.827  0.0617 -0.4886 -0.6812
 7477SOL    HW233891   1.273   1.624   6.946 -1.1223 -2.0003  0.4826
 7478SOL     OW33892   2.996   4.543   6.589  0.0249 -0.6271  0.2140
 7478SOL    HW133893   2.950   4.545   6.505 -3.1149 -1.8779  1.9112
 7478SOL    HW233894   3.089   4.550   6.565 -0.7889  0.3311 -2.6731
 7479SOL     OW33895   1.889   0.705   0.922  0.1170  0.1293  0.0076
 7479SOL    HW133896   1.918   0.614   0.913  1.9450  0.7029  0.1892
 7479SOL    HW233897   1.805   0.703   0.875 -0.3316  1.9881  0.7409
 7480SOL     OW33898   0.410   3.062  14.194  0.2220  0.5113 -0.1332
 7480SOL    HW133899   0.356   3.019  14.261  2.2585 -1.1588  0.4293
 7480SOL    HW233900   0.485   3.003  14.204 -0.6213 -0.3724  1.1156
 7481SOL     OW33901   1.777   2.839  11.331  0.1069 -0.0917 -0.1820
 7481SOL    HW133902   1.699   2.892  11.314  0.8172  1.4262  1.2709
 7481SOL    HW233903   1.799   2.823  11.239  0.7909 -2.4009  0.3817
 7482SOL     OW33904   0.895   0.610   3.792  0.6529 -0.0797  0.2749
 7482SOL    HW133905   0.866   0.645   3.707 -0.8718 -1.3195  0.2767
 7482SOL    HW233906   0.828   0.541   3.802 -1.4134  1.7355 -0.9489
 7483SOL     OW33907   0.444   1.815   7.685  0.0640 -0.1111 -0.3789
 7483SOL    HW133908   0.445   1.888   7.746  0.3881 -2.0483  1.9631
 7483SOL    HW233909   0.429   1.864   7.604  0.2952  1.3359  0.4695
 7484SOL     OW33910   4.052   2.692   0.711  0.2532 -0.2130  0.3371
 7484SOL    HW133911   3.967   2.649   0.707  0.0595  0.0861  1.1255
 7484SOL    HW233912   4.080   2.677   0.621  1.2612 -0.0625  0.6172
 7485SOL     OW33913   3.412   2.442  15.840 -0.2008  0.2725  0.0758
 7485SOL    HW133914   3.371   2.528  15.850 -1.1748 -0.2282  0.3146
 7485SOL    HW233915   3.357   2.391  15.781 -1.3788 -1.9753  3.1468
 7486SOL     OW33916   2.061   0.678   3.474 -0.4146 -0.1462 -0.1109
 7486SOL    HW133917   2.021   0.702   3.391  1.8550 -0.1600 -1.2061
 7486SOL    HW233918   2.143   0.726   3.479 -0.3564 -0.1971 -0.5553
 7487SOL     OW33919   0.261   3.986   4.276 -0.3291  0.1535 -0.0218
 7487SOL    HW133920   0.214   4.069   4.266 -1.4712 -0.4746  0.1468
 7487SOL    HW233921   0.240   3.932   4.200 -0.8400 -0.4321  0.5364
 7488SOL     OW33922   0.413   0.696  15.093 -0.6885 -0.4849 -0.4411
 7488SOL    HW133923   0.398   0.690  15.187  0.6114  1.7961 -0.0678
 7488SOL    HW233924   0.359   0.769  15.065  0.5040  1.2470  1.7982
 7489SOL     OW33925   0.195   3.314   4.606  0.1716  0.3245  0.2012
 7489SOL    HW133926   0.194   3.398   4.560 -0.1128  1.6045  2.5596
 7489SOL    HW233927   0.118   3.272   4.568  0.1464 -0.5481  1.2228
 7490SOL     OW33928   1.041   0.262   7.537 -0.0610  0.2065  0.6548
 7490SOL    HW133929   1.055   0.211   7.617  2.9791  2.0246  1.3096
 7490SOL    HW233930   1.066   0.349   7.567 -0.9076  0.4293  0.7125
 7491SOL     OW33931   4.439   2.941  10.106  0.1094  0.1786  0.0492
 7491SOL    HW133932   4.378   2.880  10.065 -1.0156  1.4619 -0.2165
 7491SOL    HW233933   4.506   2.942  10.038 -1.7777  1.7728 -1.8180
 7492SOL     OW33934   3.157   1.891  11.786 -1.1424  0.4500 -0.3082
 7492SOL    HW133935   3.082   1.833  11.778 -0.2853 -0.9864  1.8116
 7492SOL    HW233936   3.214   1.832  11.835 -0.8307  0.0089 -1.2018
 7493SOL     OW33937   3.808   0.702   4.288  0.6227 -0.0475 -0.8781
 7493SOL    HW133938   3.745   0.639   4.323  1.3304  0.2011  0.8574
 7493SOL    HW233939   3.754   0.756   4.229 -0.7426  0.6628  1.0133
 7494SOL     OW33940   4.285   1.847   3.830 -0.5909  0.1599 -0.0266
 7494SOL    HW133941   4.209   1.805   3.790  0.3646 -2.5540  0.9810
 7494SOL    HW233942   4.347   1.853   3.757  0.6665  3.4078  1.3235
 7495SOL     OW33943   3.535   4.191  14.948 -0.6068  0.3565 -0.1904
 7495SOL    HW133944   3.490   4.163  14.868  0.3357 -0.7312 -0.3559
 7495SOL    HW233945   3.498   4.279  14.947 -1.1788  0.1335  1.0354
 7496SOL     OW33946   3.620   3.493   8.603 -0.4603 -0.3400  0.1776
 7496SOL    HW133947   3.571   3.476   8.683 -0.8126 -2.1368 -0.4149
 7496SOL    HW233948   3.591   3.579   8.571 -0.4437 -0.3958  0.0088
 7497SOL     OW33949   1.348   4.711  13.760 -0.2576  0.3046  0.1043
 7497SOL    HW133950   1.427   4.685  13.713  0.5083  2.3302  0.2616
 7497SOL    HW233951   1.333   4.620  13.788 -1.7510  0.1726 -1.1561
 7498SOL     OW33952   0.572   3.547   3.596 -0.0814 -0.8004  0.2129
 7498SOL    HW133953   0.582   3.500   3.513 -1.3234 -1.3006  0.3394
 7498SOL    HW233954   0.615   3.480   3.649 -2.3019 -0.7531  2.0451
 7499SOL     OW33955   3.758   2.069   9.847 -0.5470 -0.2848 -0.4643
 7499SOL    HW133956   3.761   1.973   9.845  0.2500 -0.2666  0.2454
 7499SOL    HW233957   3.848   2.091   9.868 -1.2840  1.3599  0.8967
 7500SOL     OW33958   0.793   0.361  15.932 -0.2901  0.1104 -0.1688
 7500SOL    HW133959   0.714   0.366  15.986  0.6283 -2.4465  1.4326
 7500SOL    HW233960   0.761   0.336  15.846 -0.4178  3.7976 -1.1809
 7501SOL     OW33961   4.538   2.065  11.993 -0.0058 -0.6693 -0.3409
 7501SOL    HW133962   4.618   2.013  11.990  0.5471  0.1839 -0.3010
 7501SOL    HW233963   4.522   2.076  12.086  3.7641 -1.8675  0.4260
 7502SOL     OW33964   2.019   1.213   7.821  0.5005  0.0149 -0.2130
 7502SOL    HW133965   1.961   1.267   7.768  0.7876  0.3119 -0.2220
 7502SOL    HW233966   2.045   1.266   7.896  2.9899 -1.2087 -0.2015
 7503SOL     OW33967   3.557   1.874  10.724  0.1516  0.2442  0.0159
 7503SOL    HW133968   3.553   1.960  10.683  0.9042  0.0575 -0.4523
 7503SOL    HW233969   3.643   1.884  10.766  0.5421 -2.3838 -0.1209
 7504SOL     OW33970   1.791   0.455   6.944 -0.1927  0.1388  0.1930
 7504SOL    HW133971   1.800   0.415   7.030 -1.8043  1.0853  0.7897
 7504SOL    HW233972   1.802   0.548   6.964  1.6358  0.4602 -2.3144
 7505SOL     OW33973   2.936   2.275   7.429 -0.5198 -0.1003  0.0832
 7505SOL    HW133974   2.858   2.310   7.386 -1.0828  0.9345  1.9300
 7505SOL    HW233975   2.903   2.188   7.448 -2.6437  0.5797 -0.4477
 7506SOL     OW33976   0.286   4.639   6.369  1.7752 -0.1698 -0.7995
 7506SOL    HW133977   0.292   4.548   6.397  0.1843 -0.2357 -0.6920
 7506SOL    HW233978   0.195   4.631   6.342  1.6322 -0.2393 -0.2922
 7507SOL     OW33979   1.232   0.494   8.954 -0.0755  0.1142 -0.1714
 7507SOL    HW133980   1.239   0.590   8.953  0.8496  0.0374 -2.9609
 7507SOL    HW233981   1.177   0.489   9.032 -1.1315 -1.8705 -1.0481
 7508SOL     OW33982   4.071   3.508   1.932  0.7771  0.2142  0.1418
 7508SOL    HW133983   4.075   3.493   2.027 -0.0034  1.5976  0.3961
 7508SOL    HW233984   3.998   3.569   1.938  0.6337 -0.0079  0.6933
 7509SOL     OW33985   3.821   3.652   1.960  0.0561  0.3112 -0.1057
 7509SOL    HW133986   3.777   3.579   1.916  0.7434 -0.5794  0.6992
 7509SOL    HW233987   3.746   3.711   1.958 -0.5441 -0.4477  0.4119
 7510SOL     OW33988   1.363   0.812   8.896  0.1583  0.0007 -0.0483
 7510SOL    HW133989   1.358   0.888   8.839  1.0839 -1.2185 -1.7535
 7510SOL    HW233990   1.458   0.801   8.889  0.1329 -0.7897  0.8265
 7511SOL     OW33991   0.349   0.987   2.066 -0.5734 -0.2485 -0.1792
 7511SOL    HW133992   0.321   1.047   2.135 -0.7548  0.5906 -0.9906
 7511SOL    HW233993   0.384   0.920   2.125 -1.0752 -2.1702 -2.0550
 7512SOL     OW33994   2.885   0.740  13.237  0.0303 -0.7857  0.7012
 7512SOL    HW133995   2.874   0.761  13.144  0.5482 -1.4423  0.4882
 7512SOL    HW233996   2.956   0.799  13.263  1.2592 -1.0945 -1.9268
 7513SOL     OW33997   0.766   3.165   1.342  0.0491 -0.1121 -0.6737
 7513SOL    HW133998   0.715   3.182   1.262 -0.5975  1.7913  0.1500
 7513SOL    HW233999   0.701   3.175   1.412  2.4665  0.4900  1.4557
 7514SOL     OW34000   1.802   0.596  14.757 -0.0591 -0.2970 -0.1622
 7514SOL    HW134001   1.717   0.589  14.712  0.6336  1.4394 -1.7658
 7514SOL    HW234002   1.810   0.688  14.782  0.2696 -0.5119  0.5040
 7515SOL     OW34003   1.161   0.733  12.924  0.3274  0.1583 -0.2057
 7515SOL    HW134004   1.194   0.823  12.935 -1.0941  1.1393 -4.0719
 7515SOL    HW234005   1.165   0.701  13.014 -0.6856 -2.3131 -1.0462
 7516SOL     OW34006   3.705   2.476   6.825  0.0209  0.4428  0.3440
 7516SOL    HW134007   3.774   2.539   6.805 -1.3180  1.8983  0.3534
 7516SOL    HW234008   3.727   2.409   6.760 -0.8432  0.8141 -0.3350
 7517SOL     OW34009   3.494   4.247   2.055 -0.0403  0.0298 -0.9709
 7517SOL    HW134010   3.545   4.327   2.070  1.7231 -0.9772 -1.6752
 7517SOL    HW234011   3.563   4.188   2.025  0.8677 -0.0284  1.1808
 7518SOL     OW34012   4.144   3.855   2.270  0.5944  0.0801 -0.6617
 7518SOL    HW134013   4.179   3.885   2.186 -0.4638 -2.5396 -2.0397
 7518SOL    HW234014   4.100   3.935   2.298 -1.3099 -0.5394 -1.8521
 7519SOL     OW34015   3.177   3.733   1.457 -0.3069 -0.3266  0.3728
 7519SOL    HW134016   3.200   3.672   1.528 -0.3750 -0.7704  0.0149
 7519SOL    HW234017   3.214   3.811   1.498  0.0950 -0.7659  0.8422
 7520SOL     OW34018   0.228   3.810  12.932  0.1989  0.6319 -0.1823
 7520SOL    HW134019   0.303   3.825  12.874 -0.0376 -1.9467 -1.1425
 7520SOL    HW234020   0.262   3.844  13.015  2.5256  0.5701 -1.0919
 7521SOL     OW34021   0.972   2.169  17.585  0.0721 -0.6195 -0.4413
 7521SOL    HW134022   1.002   2.260  17.575  2.1103 -1.1563  0.7811
 7521SOL    HW234023   0.955   2.174   0.000 -1.7659 -1.8564 -0.7212
 7522SOL     OW34024   0.968   2.238  11.063 -0.3686  0.2329  0.1795
 7522SOL    HW134025   0.889   2.187  11.048 -1.6648  1.6311  2.2069
 7522SOL    HW234026   0.959   2.307  10.997 -2.5856 -0.1670  0.0485
 7523SOL     OW34027   0.820   3.471   3.711 -0.7706  0.1883 -0.4511
 7523SOL    HW134028   0.813   3.390   3.761 -1.3718  0.6622  0.2177
 7523SOL    HW234029   0.903   3.461   3.664 -1.3901 -1.5288 -1.1958
 7524SOL     OW34030   3.867   4.252   7.141 -0.0214  0.1312  0.0347
 7524SOL    HW134031   3.872   4.189   7.070 -0.9025 -0.3654  0.4199
 7524SOL    HW234032   3.841   4.332   7.096  1.2463  1.3851  1.5057
 7525SOL     OW34033   0.068   1.461   2.972 -0.5175 -0.9788 -0.4485
 7525SOL    HW134034   0.157   1.447   3.002  0.2844  2.0955 -1.4055
 7525SOL    HW234035   0.071   1.427   2.883 -0.8815  2.0774 -1.6355
 7526SOL     OW34036   2.436   1.664   6.747  0.3415  0.1759 -0.0085
 7526SOL    HW134037   2.415   1.707   6.664 -0.3445 -0.1624 -0.0049
 7526SOL    HW234038   2.384   1.585   6.733 -1.2945  1.4460 -1.0790
 7527SOL     OW34039   4.042   1.041  13.719  0.0635 -0.5233  0.1289
 7527SOL    HW134040   3.977   1.006  13.658  1.2183 -1.3277 -0.6466
 7527SOL    HW234041   4.115   1.056  13.660  1.3838  0.7581  2.0771
 7528SOL     OW34042   3.813   3.271   7.411 -0.1342  0.3060 -0.2492
 7528SOL    HW134043   3.847   3.359   7.392 -2.5774  0.9702 -1.4791
 7528SOL    HW234044   3.889   3.216   7.392 -0.3084  0.5596 -1.7560
 7529SOL     OW34045   0.674   2.676   8.351 -0.0971  0.2082 -0.6678
 7529SOL    HW134046   0.707   2.669   8.440 -1.4849  1.6900 -0.0367
 7529SOL    HW234047   0.728   2.747   8.316 -1.4359  0.8192 -1.4998
 7530SOL     OW34048   3.412   0.932  12.414 -0.1500 -0.6252  0.8709
 7530SOL    HW134049   3.400   0.856  12.356  0.7016  0.4009 -0.6434
 7530SOL    HW234050   3.483   0.973  12.366 -0.0347 -2.9600 -0.9807
 7531SOL     OW34051   2.223   0.520   8.004 -0.6136  0.0953 -0.1919
 7531SOL    HW134052   2.254   0.496   7.916 -1.3497 -1.6672  0.0219
 7531SOL    HW234053   2.157   0.452   8.017 -2.3569  1.3304 -2.6927
 7532SOL     OW34054   4.316   1.424   2.396  0.2371 -0.0916 -0.1125
 7532SOL    HW134055   4.406   1.391   2.391 -0.5171 -2.0528 -0.4923
 7532SOL    HW234056   4.328   1.506   2.348 -1.8359  1.5763  2.1751
 7533SOL     OW34057   3.106   4.379   3.332  0.3346  0.0072 -0.3392
 7533SOL    HW134058   3.082   4.390   3.424  1.0117 -0.9185 -0.0483
 7533SOL    HW234059   3.077   4.293   3.300  0.2393 -0.4261  0.9252
 7534SOL     OW34060   4.366   1.400   6.281 -0.0963  0.0205  0.0869
 7534SOL    HW134061   4.458   1.381   6.301 -0.0855  1.5274  1.4714
 7534SOL    HW234062   4.338   1.420   6.371 -2.8512 -1.2881 -0.4989
 7535SOL     OW34063   1.816   1.962   7.842  0.0851  0.1730 -0.1970
 7535SOL    HW134064   1.903   1.953   7.878  0.7757  2.3923 -1.2672
 7535SOL    HW234065   1.818   2.053   7.811 -2.8197 -0.1917 -1.5131
 7536SOL     OW34066   0.618   3.523  11.106 -0.1740 -0.5020  0.5509
 7536SOL    HW134067   0.678   3.584  11.149 -1.8248  2.5698 -1.5479
 7536SOL    HW234068   0.593   3.571  11.027 -1.2395  0.1367  1.2738
 7537SOL     OW34069   2.693   3.740   8.156 -0.2311 -0.1999 -0.0896
 7537SOL    HW134070   2.783   3.771   8.147 -0.4607 -0.0367 -1.7109
 7537SOL    HW234071   2.676   3.763   8.248  1.9032 -0.6327  0.4171
 7538SOL     OW34072   1.459   0.722  12.148 -0.0839  0.0732 -0.3029
 7538SOL    HW134073   1.372   0.704  12.184 -0.9633 -1.6380 -3.3089
 7538SOL    HW234074   1.437   0.749  12.059  1.0760  1.0548 -0.2844
 7539SOL     OW34075   1.918   4.523  17.644  0.1984  0.0302 -0.3580
 7539SOL    HW134076   2.001   4.548   0.005  0.7184 -0.9654 -0.8199
 7539SOL    HW234077   1.929   4.531  17.549  0.3223 -2.2825 -0.5592
 7540SOL     OW34078   2.382   3.524   2.039  0.2174 -0.0895 -0.2687
 7540SOL    HW134079   2.373   3.521   1.944 -0.7169  0.2603 -0.1940
 7540SOL    HW234080   2.318   3.456   2.058  0.0097 -0.3836 -2.0028
 7541SOL     OW34081   4.616   4.663   2.884 -0.6838 -0.4306 -0.0528
 7541SOL    HW134082   4.528   4.687   2.854 -0.4206 -0.7989 -1.1346
 7541SOL    HW234083   4.638   0.018   2.941 -3.7447  1.4413 -1.2541
 7542SOL     OW34084   0.832   0.003  10.973  0.2701 -0.5503 -0.1761
 7542SOL    HW134085   0.810   0.008  10.880 -1.6638 -0.4565  0.2787
 7542SOL    HW234086   0.748   4.705  11.016  0.1035 -2.1968 -1.1358
 7543SOL     OW34087   4.016   2.401  12.791  0.2140 -0.3808 -0.2143
 7543SOL    HW134088   3.927   2.415  12.761  0.5395  2.9063  0.3731
 7543SOL    HW234089   4.004   2.340  12.864  1.6575  2.2912  2.2851
 7544SOL     OW34090   4.485   1.628  16.232 -0.2150  0.5365  0.2308
 7544SOL    HW134091   4.552   1.573  16.192 -0.0952  1.5689 -1.0004
 7544SOL    HW234092   4.487   1.715  16.192 -0.9153  0.3763 -0.1465
 7545SOL     OW34093   3.183   0.891   9.118  0.4363 -0.0324  0.2501
 7545SOL    HW134094   3.267   0.846   9.124  0.9302  0.7255 -1.0753
 7545SOL    HW234095   3.209   0.982   9.131  0.0533 -0.0162  0.9194
 7546SOL     OW34096   2.329   3.854   2.738 -0.1360 -0.4344 -0.7202
 7546SOL    HW134097   2.339   3.759   2.741  1.7034 -0.1256  2.5607
 7546SOL    HW234098   2.367   3.873   2.652  2.1219 -0.7854  0.1940
 7547SOL     OW34099   0.719   0.621   7.001  0.1901  0.8588  0.5398
 7547SOL    HW134100   0.776   0.579   6.937 -1.1629 -0.9872  0.5795
 7547SOL    HW234101   0.705   0.711   6.971 -0.4610  0.3628 -0.6226
 7548SOL     OW34102   2.381   3.063   7.985  0.0118  0.2496 -0.7513
 7548SOL    HW134103   2.321   3.051   8.058 -0.3559  1.2840 -0.8828
 7548SOL    HW234104   2.391   3.158   7.993 -0.1318  0.1475  0.5677
 7549SOL     OW34105   1.124   0.469   5.555 -0.2813 -0.1732  0.0395
 7549SOL    HW134106   1.170   0.411   5.616 -1.8350 -2.2428 -0.7384
 7549SOL    HW234107   1.046   0.496   5.604 -0.6837  1.5383 -1.5720
 7550SOL     OW34108   0.810   0.723   4.794  0.0612 -0.0557  0.5979
 7550SOL    HW134109   0.738   0.705   4.734 -2.1314 -0.8132  3.5065
 7550SOL    HW234110   0.868   0.785   4.749  1.6392 -1.5873  0.5487
 7551SOL     OW34111   0.107   3.677   8.857 -0.3701 -0.0431 -0.5385
 7551SOL    HW134112   0.133   3.744   8.920 -0.7401  1.2824 -1.7917
 7551SOL    HW234113   0.052   3.620   8.910 -1.2118 -1.9584 -3.4515
 7552SOL     OW34114   3.290   0.852   3.237  0.3581  0.4124  0.6839
 7552SOL    HW134115   3.276   0.890   3.150 -0.8659  0.1226  0.7506
 7552SOL    HW234116   3.303   0.929   3.293 -0.1729  0.8347  0.2205
 7553SOL     OW34117   1.007   2.100   7.535  0.1124 -0.1606 -0.1273
 7553SOL    HW134118   0.994   2.019   7.585 -0.6551  0.3580  0.5099
 7553SOL    HW234119   0.932   2.151   7.566 -0.4992 -0.9876 -0.2403
 7554SOL     OW34120   4.622   2.966   2.697  0.0602 -0.1177 -0.1838
 7554SOL    HW134121   4.680   2.933   2.628  2.5665 -1.4308  2.5547
 7554SOL    HW234122   4.536   2.927   2.686 -0.3657  0.6625  0.3916
 7555SOL     OW34123   1.714   2.768   6.888 -0.6853 -0.2197 -0.4315
 7555SOL    HW134124   1.716   2.721   6.972  1.3749  0.8532  0.1211
 7555SOL    HW234125   1.706   2.859   6.916  0.5142 -0.6867  1.4557
 7556SOL     OW34126   1.547   2.308   2.854 -0.0332 -0.5174  0.0271
 7556SOL    HW134127   1.607   2.356   2.797 -0.8294  0.4122 -0.0293
 7556SOL    HW234128   1.527   2.379   2.915 -0.9685 -0.7155 -0.0485
 7557SOL     OW34129   3.413   1.513   2.778 -0.8237  0.2626 -0.3368
 7557SOL    HW134130   3.335   1.487   2.828 -1.1603 -0.8254 -1.4336
 7557SOL    HW234131   3.428   1.598   2.820 -1.1488 -0.3018  0.9484
 7558SOL     OW34132   2.858   3.791  10.302 -0.1189 -0.3044 -0.0221
 7558SOL    HW134133   2.892   3.866  10.253 -1.6134 -0.8784 -1.9283
 7558SOL    HW234134   2.917   3.785  10.378  1.6457  2.9216 -1.1141
 7559SOL     OW34135   0.360   1.286   4.198 -0.1206  0.1358  0.2465
 7559SOL    HW134136   0.418   1.239   4.138  0.8870  1.3536  0.2637
 7559SOL    HW234137   0.274   1.288   4.156 -0.6123 -0.8228  1.2104
 7560SOL     OW34138   0.958   1.110   0.999 -0.0412  0.3596  0.2765
 7560SOL    HW134139   0.876   1.108   0.950  2.0346 -0.5111 -3.1319
 7560SOL    HW234140   0.993   1.022   0.987 -0.7466 -0.1383  1.8634
 7561SOL     OW34141   2.632   3.054  12.920  0.0441 -0.0455 -0.0587
 7561SOL    HW134142   2.644   3.111  12.996 -2.4845  0.5522 -0.1018
 7561SOL    HW234143   2.541   3.075  12.898  0.0433  0.9324  0.9249
 7562SOL     OW34144   1.894   3.433   6.949 -0.1693  0.0356  0.5661
 7562SOL    HW134145   1.987   3.454   6.943 -0.3702  0.6360 -0.5714
 7562SOL    HW234146   1.850   3.464   6.870  0.3943 -0.7538 -0.0614
 7563SOL     OW34147   3.271   4.375   7.256  0.1141  0.3680 -0.0623
 7563SOL    HW134148   3.207   4.307   7.233 -1.0619  1.4650  0.0195
 7563SOL    HW234149   3.230   4.414   7.333 -1.0358  1.0881 -1.0423
 7564SOL     OW34150   3.829   3.777   3.067 -0.1009  0.6586  0.2289
 7564SOL    HW134151   3.838   3.815   3.154 -1.4046  1.2180  0.1346
 7564SOL    HW234152   3.766   3.707   3.084  0.7746  0.4497  2.4911
 7565SOL     OW34153   1.963   3.265   3.810  0.4222 -0.6614  0.4920
 7565SOL    HW134154   1.894   3.284   3.746  0.2615 -1.3482  0.4621
 7565SOL    HW234155   1.916   3.210   3.873  0.2680  1.8677  2.5550
 7566SOL     OW34156   0.707   4.180  15.759  0.3715 -0.1168  0.1540
 7566SOL    HW134157   0.756   4.134  15.826  0.3094  0.0936  0.3427
 7566SOL    HW234158   0.621   4.139  15.759  0.9929 -1.3980  1.3575
 7567SOL     OW34159   0.267   3.530   1.121 -0.2852  0.4668 -0.1419
 7567SOL    HW134160   0.299   3.587   1.051 -1.5457  1.1974 -0.1388
 7567SOL    HW234161   0.310   3.451   1.091  0.9674  0.3500  1.9404
 7568SOL     OW34162   3.473   0.316   8.273 -0.6343  1.0196  0.1485
 7568SOL    HW134163   3.531   0.240   8.269  0.4223  1.7582  1.3896
 7568SOL    HW234164   3.516   0.374   8.210 -2.1759  1.4497 -0.5093
 7569SOL     OW34165   0.165   0.939   0.386  0.1403 -0.1505  0.2833
 7569SOL    HW134166   0.152   0.846   0.366  2.3933 -0.5787  0.7872
 7569SOL    HW234167   0.253   0.961   0.355  0.2371  1.6336  1.8377
 7570SOL     OW34168   2.454   2.070   4.177  0.0564 -0.0299  0.0016
 7570SOL    HW134169   2.536   2.032   4.144  0.6948  1.6972 -0.4080
 7570SOL    HW234170   2.442   2.144   4.116  2.0081 -0.1346 -0.5075
 7571SOL     OW34171   4.541   1.915   6.256  0.0803  0.6223  0.2893
 7571SOL    HW134172   4.584   1.904   6.172 -0.7381  2.7219 -0.4162
 7571SOL    HW234173   4.456   1.944   6.224  0.3605  0.2198 -0.8067
 7572SOL     OW34174   4.236   2.489   4.017  0.1526  0.3265 -0.6863
 7572SOL    HW134175   4.222   2.396   3.996  2.9552 -0.3261  0.2258
 7572SOL    HW234176   4.257   2.520   3.930 -1.2007  0.8432 -0.8243
 7573SOL     OW34177   2.534   1.367   0.534  0.4393 -0.5187 -0.2256
 7573SOL    HW134178   2.615   1.350   0.486 -0.6874  1.1495 -2.7175
 7573SOL    HW234179   2.562   1.354   0.624 -0.3067  0.6317  0.1715
 7574SOL     OW34180   0.826   4.293   9.306  0.0533 -0.4016 -0.1862
 7574SOL    HW134181   0.821   4.378   9.264 -0.0173 -0.7942 -0.9658
 7574SOL    HW234182   0.878   4.315   9.383  0.0950 -1.5624  0.1159
 7575SOL     OW34183   4.006   3.043   3.790  0.4434  0.3731 -0.2352
 7575SOL    HW134184   4.004   3.090   3.873  1.1469 -1.1529  0.6567
 7575SOL    HW234185   4.009   2.952   3.823  0.8768  0.9781  1.4257
 7576SOL     OW34186   3.564   2.333   6.447  0.8649  0.5838  0.2705
 7576SOL    HW134187   3.624   2.332   6.522  0.4378  0.7332  0.6130
 7576SOL    HW234188   3.627   2.310   6.379 -1.2876  3.7455 -2.7406
 7577SOL     OW34189   4.514   2.972  13.278 -0.2007 -0.3970  0.0657
 7577SOL    HW134190   4.603   2.984  13.309 -0.0507 -0.2805 -0.4088
 7577SOL    HW234191   4.474   3.012  13.354 -2.3096 -1.9070 -0.2338
 7578SOL     OW34192   2.675   1.864   9.705  0.1129 -0.0029 -0.8419
 7578SOL    HW134193   2.659   1.877   9.799  3.5904  0.4710 -0.3073
 7578SOL    HW234194   2.655   1.771   9.702 -0.1019  0.0210 -0.1327
 7579SOL     OW34195   2.893   1.054   6.329 -0.1993  0.4212  0.2563
 7579SOL    HW134196   2.919   0.965   6.305  2.5593  1.0911  0.8198
 7579SOL    HW234197   2.909   1.056   6.423 -0.2546  0.7090  0.2620
 7580SOL     OW34198   0.194   1.877   8.770  0.1667  0.4040 -0.0224
 7580SOL    HW134199   0.229   1.939   8.834 -0.9588  1.0096  0.0025
 7580SOL    HW234200   0.225   1.790   8.793  0.2290  0.4866  0.2114
 7581SOL     OW34201   1.459   1.830   6.413  0.5235  0.0930 -0.1064
 7581SOL    HW134202   1.503   1.915   6.409  0.1029  0.3006 -0.3232
 7581SOL    HW234203   1.395   1.847   6.483 -0.7332 -0.4294 -1.1258
 7582SOL     OW34204   0.260   0.300   6.517  0.0764 -0.4941 -0.1191
 7582SOL    HW134205   0.333   0.242   6.498 -0.6327 -1.4308 -0.0259
 7582SOL    HW234206   0.287   0.364   6.582  1.3995  0.0763 -1.2389
 7583SOL     OW34207   1.808   2.884   5.554 -0.3059 -0.1588 -0.7381
 7583SOL    HW134208   1.821   2.888   5.649  1.8983  1.0361 -1.0962
 7583SOL    HW234209   1.828   2.793   5.534 -0.7369 -0.5025  0.4015
 7584SOL     OW34210   4.150   3.078   6.905  0.2911  0.2022 -0.5735
 7584SOL    HW134211   4.074   3.020   6.897  1.2125 -1.0035 -0.5887
 7584SOL    HW234212   4.118   3.138   6.973 -2.1450  0.0546 -1.5680
 7585SOL     OW34213   0.514   1.044  15.045  0.6325  0.1552 -0.3900
 7585SOL    HW134214   0.428   1.011  15.069  1.1944  0.2837  1.7500
 7585SOL    HW234215   0.550   1.055  15.133  1.5519  1.6346 -0.9451
 7586SOL     OW34216   1.707   1.499  14.788 -0.4222  0.0363 -0.1504
 7586SOL    HW134217   1.738   1.505  14.879  0.7046  1.4541 -0.6302
 7586SOL    HW234218   1.773   1.451  14.739 -0.7278 -0.2602 -0.2742
 7587SOL     OW34219   4.666   3.651   9.879  0.1099  0.5813 -0.3216
 7587SOL    HW134220   0.043   3.646   9.882 -0.0576 -1.5403  1.0732
 7587SOL    HW234221   4.638   3.580   9.936  1.9343  0.3020  0.2483
 7588SOL     OW34222   4.149   2.349   3.082 -0.2454  0.2646  0.0835
 7588SOL    HW134223   4.164   2.412   3.011  0.0859  0.7917  0.6243
 7588SOL    HW234224   4.053   2.346   3.087 -0.2382  1.4264  1.1571
 7589SOL     OW34225   0.638   2.913   4.574 -0.4077  0.0091  0.2645
 7589SOL    HW134226   0.657   2.820   4.560 -0.0338  0.1459 -0.1459
 7589SOL    HW234227   0.642   2.949   4.486  1.3724  0.5582  0.5769
 7590SOL     OW34228   2.824   0.395  16.023  0.3347 -0.8123 -0.5689
 7590SOL    HW134229   2.739   0.436  16.039  0.3384  0.1979 -3.1202
 7590SOL    HW234230   2.873   0.434  16.095 -0.4958 -1.4734  0.3478
 7591SOL     OW34231   4.615   2.835   5.638 -0.5934 -0.1286  1.2451
 7591SOL    HW134232   4.535   2.784   5.627  1.3151 -3.1726  1.4864
 7591SOL    HW234233   4.680   2.765   5.651  0.3037  0.2052 -1.4287
 7592SOL     OW34234   0.632   1.461   4.971  0.1475  0.1218 -0.7446
 7592SOL    HW134235   0.632   1.407   5.050  2.3155  1.0786 -0.0941
 7592SOL    HW234236   0.658   1.546   5.005  0.9904  0.7894 -3.0539
 7593SOL     OW34237   4.008   1.896   6.524 -0.5003 -0.4882  0.1950
 7593SOL    HW134238   4.059   1.907   6.444  0.6920 -0.9631  0.8783
 7593SOL    HW234239   3.922   1.898   6.482 -0.0635  1.5649 -0.6179
 7594SOL     OW34240   1.840   1.503   0.215 -0.7529 -0.6624  0.0297
 7594SOL    HW134241   1.904   1.434   0.196 -0.9326 -1.0376  0.7903
 7594SOL    HW234242   1.840   1.514   0.310  1.4209  0.1264 -0.0643
 7595SOL     OW34243   3.961   0.172   3.400 -0.0032 -0.1735 -0.4129
 7595SOL    HW134244   3.935   0.212   3.482  2.4920 -0.1505  0.3685
 7595SOL    HW234245   4.022   0.111   3.442  1.1013  1.6714  0.6089
 7596SOL     OW34246   3.775   1.270  12.564 -0.3985  0.3678 -0.3653
 7596SOL    HW134247   3.821   1.260  12.480  0.3522  2.3775 -0.2070
 7596SOL    HW234248   3.693   1.231  12.535 -0.2102  0.6866 -1.3472
 7597SOL     OW34249   1.398   3.613  16.721  0.2578 -0.0095  0.3493
 7597SOL    HW134250   1.481   3.655  16.743  0.1020  0.3089  0.3201
 7597SOL    HW234251   1.352   3.600  16.805 -0.8308 -2.0147 -0.5459
 7598SOL     OW34252   2.710   0.808   7.764 -0.0645 -0.3860 -0.2140
 7598SOL    HW134253   2.685   0.748   7.834  0.0437  0.2550  0.3760
 7598SOL    HW234254   2.760   0.741   7.718 -0.0329 -0.5780  0.1024
 7599SOL     OW34255   3.706   3.487   2.744  0.5868 -0.6385 -0.2702
 7599SOL    HW134256   3.712   3.419   2.810 -1.5283  1.0911  1.6977
 7599SOL    HW234257   3.765   3.462   2.673  0.9294  1.8308 -0.8812
 7600SOL     OW34258   2.772   4.688   3.755  0.4496 -0.2766 -0.0196
 7600SOL    HW134259   2.826   4.665   3.680  1.1983  0.1474  0.3774
 7600SOL    HW234260   2.792   4.615   3.813  3.1094  1.1965  0.9310
 7601SOL     OW34261   4.169   1.134   4.610  0.6247  0.1069  0.6646
 7601SOL    HW134262   4.138   1.141   4.701  1.9745 -0.2416  1.1496
 7601SOL    HW234263   4.178   1.042   4.587 -0.1875 -0.6294  3.2178
 7602SOL     OW34264   3.851   3.158   8.927 -0.1891  0.6074 -0.5596
 7602SOL    HW134265   3.895   3.133   9.008  1.2615  0.4391 -1.4043
 7602SOL    HW234266   3.759   3.133   8.935 -0.2443  1.1515  0.4143
 7603SOL     OW34267   0.498   1.368  10.361 -0.1802  0.5320  0.1593
 7603SOL    HW134268   0.568   1.303  10.355 -0.8212 -0.3400  2.2661
 7603SOL    HW234269   0.420   1.313  10.362  0.5574 -0.5663 -1.8646
 7604SOL     OW34270   2.406   2.657   8.161 -0.2984  0.5140 -0.1959
 7604SOL    HW134271   2.421   2.635   8.253  0.7581  1.5866 -0.1027
 7604SOL    HW234272   2.312   2.673   8.160 -0.4942 -0.4825  1.8582
 7605SOL     OW34273   2.508   4.354   6.845 -0.0925  0.4028  0.3588
 7605SOL    HW134274   2.435   4.298   6.819 -2.3156  2.6451  1.6720
 7605SOL    HW234275   2.550   4.357   6.759 -1.2122 -2.0314 -0.2529
 7606SOL     OW34276   3.497   1.571   9.635  0.2088 -0.0645  0.4850
 7606SOL    HW134277   3.533   1.588   9.548 -2.4489  2.3109 -0.1675
 7606SOL    HW234278   3.493   1.476   9.628  0.4446  0.0678 -1.5340
 7607SOL     OW34279   1.110   2.202  17.119  0.3442  0.3620 -0.2873
 7607SOL    HW134280   1.054   2.275  17.147 -0.0523 -0.5882  1.4192
 7607SOL    HW234281   1.156   2.241  17.045 -0.7250  1.4878 -0.3706
 7608SOL     OW34282   1.587   2.294   8.034 -0.0170 -0.4081  0.2005
 7608SOL    HW134283   1.603   2.259   8.122  0.0551 -1.3979 -0.2149
 7608SOL    HW234284   1.669   2.341   8.021  0.5810 -1.4825  0.1124
 7609SOL     OW34285   4.284   1.100   3.346 -0.1519  0.3978  0.4707
 7609SOL    HW134286   4.349   1.168   3.326  1.7278 -1.2516  0.9259
 7609SOL    HW234287   4.310   1.034   3.281  0.4897  0.1712  0.9576
 7610SOL     OW34288   4.443   1.593   8.576  0.4423 -0.1556 -0.5742
 7610SOL    HW134289   4.415   1.507   8.543 -1.0867  0.7751 -1.6856
 7610SOL    HW234290   4.494   1.577   8.655  3.5083  2.2574 -2.0652
 7611SOL     OW34291   3.803   0.557   5.160  0.5918 -0.0142  0.1128
 7611SOL    HW134292   3.735   0.587   5.100 -0.2055  0.8008  1.4319
 7611SOL    HW234293   3.785   0.627   5.223 -0.5823  1.3602 -1.7617
 7612SOL     OW34294   0.480   2.993   3.807  0.2231 -0.1913 -0.3429
 7612SOL    HW134295   0.468   2.920   3.746 -0.8561 -0.2206 -0.0873
 7612SOL    HW234296   0.468   3.063   3.743  0.1817  0.0707 -0.0482
 7613SOL     OW34297   4.550   4.119   4.692  0.0978 -0.3458  0.0435
 7613SOL    HW134298   4.483   4.158   4.748  0.4036 -0.4587  0.4815
 7613SOL    HW234299   4.527   4.027   4.681 -1.1084  0.0061 -0.3752
 7614SOL     OW34300   2.288   3.749   4.341  0.1288  0.1199  0.2995
 7614SOL    HW134301   2.203   3.730   4.301  0.9323  0.8653 -1.7916
 7614SOL    HW234302   2.309   3.663   4.377  2.5008  0.5672 -0.0206
 7615SOL     OW34303   0.344   2.476  17.102  0.0052  0.3297 -0.4487
 7615SOL    HW134304   0.392   2.393  17.106  0.9493  0.8886 -0.2483
 7615SOL    HW234305   0.406   2.523  17.047  0.2335  2.1025  1.3195
 7616SOL     OW34306   1.334   1.618   2.006  0.4544  0.0971 -0.0346
 7616SOL    HW134307   1.295   1.639   1.921  1.5673  1.4990 -0.2036
 7616SOL    HW234308   1.398   1.689   2.017 -1.0719  1.6574 -1.1636
 7617SOL     OW34309   0.310   1.215  10.164 -0.0383  0.0446 -0.3862
 7617SOL    HW134310   0.404   1.200  10.158 -0.2784 -0.9586 -1.5781
 7617SOL    HW234311   0.306   1.299  10.118 -2.7279  0.3181  0.3742
 7618SOL     OW34312   0.509   1.538   1.901  0.2390  0.0593  0.2476
 7618SOL    HW134313   0.451   1.595   1.952 -0.3050 -0.3021  0.0205
 7618SOL    HW234314   0.565   1.599   1.852 -0.3287 -1.8009 -2.6606
 7619SOL     OW34315   0.707   1.398   4.249 -0.0869 -0.2338  0.0978
 7619SOL    HW134316   0.758   1.339   4.305 -1.2396 -1.5635 -0.2519
 7619SOL    HW234317   0.676   1.323   4.199  0.7270  0.7621 -1.9253
 7620SOL     OW34318   3.674   1.491  16.727 -0.2780 -0.3012  0.3286
 7620SOL    HW134319   3.744   1.540  16.684  0.9684 -0.2507  2.4262
 7620SOL    HW234320   3.591   1.529  16.697 -0.6935 -1.4414  0.0219
 7621SOL     OW34321   1.989   4.699   3.535 -0.4664 -0.1034  0.6237
 7621SOL    HW134322   1.967   0.050   3.473  0.5312 -0.4095 -0.0759
 7621SOL    HW234323   2.080   4.681   3.512 -1.2944 -3.1609 -0.1654
 7622SOL     OW34324   0.199   0.538   2.453 -0.2039  0.1384 -0.2171
 7622SOL    HW134325   0.159   0.532   2.367 -0.3816 -1.2801 -0.0300
 7622SOL    HW234326   0.280   0.486   2.456  0.0429  0.6138  1.6799
 7623SOL     OW34327   2.885   1.410  11.122 -0.3683  0.2640 -0.1823
 7623SOL    HW134328   2.821   1.431  11.053  0.1651 -2.0029 -1.3576
 7623SOL    HW234329   2.881   1.316  11.134 -1.7637  0.4759  1.0674
 7624SOL     OW34330   4.520   1.742   8.909 -0.2235  0.0812 -0.0152
 7624SOL    HW134331   4.526   1.736   9.004 -0.8689  1.8755  0.1410
 7624SOL    HW234332   4.482   1.656   8.892 -2.4564  1.4307 -2.0863
 7625SOL     OW34333   0.816   2.870   8.235 -0.2519  0.1317  0.0883
 7625SOL    HW134334   0.859   2.811   8.173 -0.2937 -0.3796  0.5471
 7625SOL    HW234335   0.844   2.954   8.199 -1.0534  0.0591 -0.7165
 7626SOL     OW34336   2.599   1.820   8.251 -0.4697 -0.4160  0.3217
 7626SOL    HW134337   2.519   1.873   8.258 -1.3434 -1.7146  0.2716
 7626SOL    HW234338   2.662   1.890   8.268 -0.4627 -0.5257  0.7696
 7627SOL     OW34339   3.900   3.035   8.435 -0.2566  0.2981  0.1746
 7627SOL    HW134340   3.913   3.079   8.519 -1.3716  0.5563  0.2065
 7627SOL    HW234341   3.964   3.082   8.381  0.6043 -1.5977 -0.4613
 7628SOL     OW34342   0.520   1.050   5.386  0.1860  0.9209 -0.1652
 7628SOL    HW134343   0.559   1.045   5.473 -0.7558 -2.7047  0.0329
 7628SOL    HW234344   0.431   1.080   5.404  1.2256  3.3065  1.0059
 7629SOL     OW34345   2.088   4.195   0.128  0.0307 -0.0125 -0.1347
 7629SOL    HW134346   2.171   4.189   0.175  0.6666  0.5104 -1.1788
 7629SOL    HW234347   2.124   4.212   0.041 -1.2239 -1.3063 -0.9090
 7630SOL     OW34348   2.460   0.473   3.382  0.2606  1.1495  0.3004
 7630SOL    HW134349   2.382   0.449   3.333  0.7948  1.6117 -0.7787
 7630SOL    HW234350   2.474   0.416   3.458  4.0157  1.2410 -0.3172
 7631SOL     OW34351   0.500   3.653  17.580  0.2393 -0.1601  0.0383
 7631SOL    HW134352   0.554   3.587  17.537  0.3251  1.4849 -2.4096
 7631SOL    HW234353   0.535   3.729  17.533 -0.4174  1.3557  1.9728
 7632SOL     OW34354   2.413   2.402   6.461  0.4959  0.0286  0.1203
 7632SOL    HW134355   2.318   2.387   6.465  0.0878  2.2473 -1.1584
 7632SOL    HW234356   2.439   2.359   6.379 -0.5280 -0.5102  0.0681
 7633SOL     OW34357   0.401   1.020   3.025  0.0855  0.6853 -0.3505
 7633SOL    HW134358   0.399   1.097   2.968  1.1855  1.8334  1.1716
 7633SOL    HW234359   0.494   1.026   3.046 -0.2656  1.1463  1.0494
 7634SOL     OW34360   1.219   2.547   7.219  0.1899 -0.4490 -0.3469
 7634SOL    HW134361   1.268   2.472   7.187  1.7491 -0.4019  1.9282
 7634SOL    HW234362   1.134   2.537   7.176  0.8502 -2.0345 -1.2398
 7635SOL     OW34363   4.476   2.231   8.939 -0.3128  0.2984  0.6450
 7635SOL    HW134364   4.469   2.170   9.013 -0.8726 -1.9941 -1.2996
 7635SOL    HW234365   4.382   2.244   8.929 -0.6397 -3.2152 -0.7801
 7636SOL     OW34366   4.498   1.107   4.106  0.2247 -0.2783 -0.3802
 7636SOL    HW134367   4.406   1.097   4.133  0.4067 -0.4289  0.1869
 7636SOL    HW234368   4.521   1.022   4.069  1.1731  0.8512 -2.3532
 7637SOL     OW34369   1.734   0.365  14.280  0.1373  0.6367  0.5282
 7637SOL    HW134370   1.820   0.323  14.284 -1.3317 -2.2009  1.9785
 7637SOL    HW234371   1.678   0.293  14.253  0.4211  0.4026  0.5682
 7638SOL     OW34372   2.789   1.393   5.106 -0.0199  0.0229  0.1734
 7638SOL    HW134373   2.772   1.450   5.181  1.1437  0.5830  0.0147
 7638SOL    HW234374   2.836   1.454   5.049  0.3734  0.0690  0.5462
 7639SOL     OW34375   2.049   4.126   5.216  0.4898 -0.0918 -0.0138
 7639SOL    HW134376   1.982   4.142   5.149  1.0823 -0.7854 -0.7618
 7639SOL    HW234377   2.050   4.209   5.264  0.1916 -1.2251  1.9415
 7640SOL     OW34378   1.044   0.687  11.828 -0.2137  0.3058 -0.5329
 7640SOL    HW134379   1.098   0.696  11.907 -0.4439 -1.0832 -0.2045
 7640SOL    HW234380   1.016   0.595  11.833 -0.6750  0.3586 -2.3006
 7641SOL     OW34381   2.734   4.700   7.215  0.5735 -0.0686  0.1432
 7641SOL    HW134382   2.664   0.047   7.220  0.1445 -0.6185  1.4070
 7641SOL    HW234383   2.784   0.018   7.142  0.3831  0.4556  0.2786
 7642SOL     OW34384   2.459   3.450  10.778 -0.3332  0.2020 -0.2762
 7642SOL    HW134385   2.481   3.504  10.702  1.9788  0.4286  0.5357
 7642SOL    HW234386   2.520   3.377  10.767 -0.1215  0.1499  1.2960
 7643SOL     OW34387   3.295   2.983   7.833  0.3481 -0.0101  0.6852
 7643SOL    HW134388   3.269   2.918   7.768 -1.2072  0.5046  0.7924
 7643SOL    HW234389   3.301   3.057   7.772 -0.1668  0.2559  0.9563
 7644SOL     OW34390   2.804   3.716   6.986 -0.2861 -0.0151 -0.6303
 7644SOL    HW134391   2.857   3.662   6.927 -0.8197 -0.8452 -0.3563
 7644SOL    HW234392   2.730   3.751   6.936 -1.0362 -1.0801 -0.2707
 7645SOL     OW34393   4.249   3.447   8.018  0.3551  0.2921 -0.0881
 7645SOL    HW134394   4.212   3.454   8.106  1.0719 -0.7804  0.2922
 7645SOL    HW234395   4.340   3.444   8.045  0.3930  0.9566 -0.1528
 7646SOL     OW34396   2.375   2.081  12.419 -0.0104 -0.5315 -0.0487
 7646SOL    HW134397   2.390   1.992  12.389 -0.4275 -0.5841 -0.1049
 7646SOL    HW234398   2.346   2.062  12.509  0.0053 -0.6503 -0.0697
 7647SOL     OW34399   1.388   4.033  17.231  0.1549 -0.3939  0.4304
 7647SOL    HW134400   1.350   3.945  17.239  0.1309 -0.5034 -1.0136
 7647SOL    HW234401   1.321   4.090  17.268  0.4262  0.7277 -0.8278
 7648SOL     OW34402   1.122   1.285  15.078 -0.2552 -0.0373  0.3833
 7648SOL    HW134403   1.070   1.243  15.010  0.0909  0.6633 -0.3263
 7648SOL    HW234404   1.197   1.226  15.084 -0.4987 -0.2152  1.8475
 7649SOL     OW34405   1.048   1.412  14.554 -0.0314 -0.5720 -0.1367
 7649SOL    HW134406   1.102   1.366  14.618 -1.9267 -1.0747  1.0958
 7649SOL    HW234407   0.974   1.353  14.548  0.5262 -1.3169  0.3225
 7650SOL     OW34408   0.861   1.210  11.283  0.1584 -0.5352  0.1290
 7650SOL    HW134409   0.887   1.302  11.290  0.5007 -0.6032 -0.2680
 7650SOL    HW234410   0.852   1.194  11.377 -0.2551 -2.0692 -0.1745
 7651SOL     OW34411   1.183   1.665  10.811  0.3437  0.4807  0.4925
 7651SOL    HW134412   1.221   1.751  10.830 -0.2191  1.0379 -0.9005
 7651SOL    HW234413   1.263   1.614  10.816  0.5188  0.6193 -1.0408
 7652SOL     OW34414   3.781   2.207   6.309  0.2615 -0.4663 -0.0291
 7652SOL    HW134415   3.784   2.240   6.219  0.2803  0.4627  0.3162
 7652SOL    HW234416   3.871   2.223   6.334  0.0579  1.0669 -0.3203
 7653SOL     OW34417   4.387   3.806   2.855 -0.2650 -0.5936  0.0052
 7653SOL    HW134418   4.296   3.778   2.860 -0.4863 -0.1675 -1.6312
 7653SOL    HW234419   4.381   3.891   2.899 -1.7802  0.3755 -2.0808
 7654SOL     OW34420   1.381   4.002  16.477 -0.1200  0.3409  0.2639
 7654SOL    HW134421   1.343   4.089  16.487  0.4041  0.5385  0.5368
 7654SOL    HW234422   1.466   4.013  16.520  0.0857  1.7685 -0.5264
 7655SOL     OW34423   1.127   2.898   2.097  0.3864 -0.3593  0.2064
 7655SOL    HW134424   1.222   2.892   2.103  0.6554  1.2705 -2.6390
 7655SOL    HW234425   1.102   2.806   2.109 -0.3748 -0.0788  0.7658
 7656SOL     OW34426   1.492   0.380   9.039 -0.4916  0.0609 -0.6174
 7656SOL    HW134427   1.423   0.429   9.083  1.7802  0.7731  2.1556
 7656SOL    HW234428   1.480   0.413   8.950 -0.2460 -0.0750 -0.7001
 7657SOL     OW34429   2.956   1.804  11.070  0.1572 -0.2934  0.0934
 7657SOL    HW134430   2.930   1.770  11.156 -2.0963 -0.8459 -0.8084
 7657SOL    HW234431   2.934   1.896  11.089 -0.8197  0.1801 -3.4119
 7658SOL     OW34432   4.192   3.247   7.623  0.1828  0.0382  0.1479
 7658SOL    HW134433   4.116   3.189   7.628  0.4152  0.0006  3.0200
 7658SOL    HW234434   4.150   3.332   7.612  0.3139  0.1025  0.1509
 7659SOL     OW34435   0.091   0.856   8.244  0.2298  0.0338 -0.1346
 7659SOL    HW134436   0.079   0.819   8.332 -2.4429  0.7287 -0.1941
 7659SOL    HW234437   0.185   0.862   8.229  0.4528 -0.5107  0.9924
 7660SOL     OW34438   1.160   3.049   4.510 -0.2523  0.2792 -0.3354
 7660SOL    HW134439   1.109   3.084   4.437 -0.6768 -1.9759 -1.1075
 7660SOL    HW234440   1.251   3.068   4.489  0.1729 -1.3665  0.0189
 7661SOL     OW34441   4.536   0.579   0.274  0.7958 -0.2887  0.1282
 7661SOL    HW134442   4.542   0.579   0.178 -2.8361  2.3634 -0.0827
 7661SOL    HW234443   4.516   0.672   0.285 -0.0035 -0.5580  0.8856
 7662SOL     OW34444   2.532   0.064   9.448 -0.0311 -0.3626 -0.7662
 7662SOL    HW134445   2.517   0.155   9.423  1.2027 -0.2643 -1.1270
 7662SOL    HW234446   2.620   0.056   9.413 -0.9186 -2.2431 -2.5911
 7663SOL     OW34447   0.179   3.778   7.232 -0.6256 -0.0046  0.5125
 7663SOL    HW134448   0.166   3.764   7.138 -0.2437 -1.4918  0.6880
 7663SOL    HW234449   0.226   3.699   7.259 -1.1198 -0.1926  0.8181
 7664SOL     OW34450   2.346   3.372   7.497 -0.2027  0.5652  0.0306
 7664SOL    HW134451   2.364   3.398   7.406  1.7498 -3.5008 -0.7914
 7664SOL    HW234452   2.345   3.458   7.538 -5.6009  0.9171 -0.8867
 7665SOL     OW34453   2.618   0.614   4.801 -0.3983 -0.6540 -0.6935
 7665SOL    HW134454   2.640   0.521   4.792  0.5329 -0.4410 -0.7086
 7665SOL    HW234455   2.673   0.638   4.876 -0.5735  0.1363 -0.8242
 7666SOL     OW34456   0.245   1.621   3.475 -0.2753 -0.8297  0.3960
 7666SOL    HW134457   0.221   1.686   3.410  0.8503 -1.4600 -0.6524
 7666SOL    HW234458   0.306   1.667   3.531  0.3564 -1.0581 -0.1044
 7667SOL     OW34459   1.938   1.716   7.822  0.1682  0.0072 -0.5842
 7667SOL    HW134460   1.870   1.780   7.801  2.1370  2.0165 -0.8605
 7667SOL    HW234461   1.996   1.764   7.881  2.4379  0.3357 -3.0745
 7668SOL     OW34462   4.235   2.080  12.376 -0.5936 -0.1007  0.2074
 7668SOL    HW134463   4.213   2.138  12.449  1.3246  1.1169 -0.1917
 7668SOL    HW234464   4.146   2.084  12.341 -1.1235 -1.4386  1.3941
 7669SOL     OW34465   0.411   1.410   0.014 -0.1345  0.0444  0.2378
 7669SOL    HW134466   0.400   1.408  17.598 -1.0559 -1.9043  0.3766
 7669SOL    HW234467   0.324   1.423   0.052 -1.0530 -3.3421 -0.7107
 7670SOL     OW34468   0.967   3.610   6.783  0.0853 -0.5132 -0.2291
 7670SOL    HW134469   0.900   3.650   6.728 -0.7952 -1.1042  0.4068
 7670SOL    HW234470   0.939   3.519   6.794  0.6637 -0.4756  1.5971
 7671SOL     OW34471   3.240   1.021  16.663  0.0834 -0.1669 -0.3492
 7671SOL    HW134472   3.238   1.055  16.573  2.1342  1.4489  0.2175
 7671SOL    HW234473   3.286   1.087  16.714 -0.6724  0.1478 -0.0822
 7672SOL     OW34474   1.137   4.595   4.438 -0.2917 -0.2274 -0.5846
 7672SOL    HW134475   1.044   4.588   4.418 -0.3439 -0.6462 -0.2006
 7672SOL    HW234476   1.158   4.505   4.413 -1.1068 -0.3485 -0.8425
 7673SOL     OW34477   1.492   1.407   2.114 -0.1259 -0.5250 -0.2521
 7673SOL    HW134478   1.420   1.456   2.075 -1.0821 -2.0837 -0.4521
 7673SOL    HW234479   1.481   1.315   2.090  0.6745 -1.2546  2.1514
 7674SOL     OW34480   1.708   2.657   3.239 -0.7128 -0.4443  0.2962
 7674SOL    HW134481   1.673   2.714   3.307  1.1148  4.3194 -2.7388
 7674SOL    HW234482   1.790   2.650   3.288  0.1535  0.9986 -0.9563
 7675SOL     OW34483   2.704   3.192  13.122  0.1391  0.2535  0.1572
 7675SOL    HW134484   2.657   3.200  13.205 -1.1592 -2.1172 -0.3433
 7675SOL    HW234485   2.778   3.253  13.124 -0.2096  0.7478 -1.4801
 7676SOL     OW34486   0.229   3.896   7.943  0.0450 -0.5519 -0.2030
 7676SOL    HW134487   0.230   3.882   7.848 -1.4534 -0.1710 -0.2767
 7676SOL    HW234488   0.306   3.951   7.956 -0.4204 -0.0431  0.4207
 7677SOL     OW34489   0.745   2.939   6.605  0.1060  0.2517 -0.5198
 7677SOL    HW134490   0.828   2.923   6.650  1.3562  1.4015 -2.4263
 7677SOL    HW234491   0.716   3.025   6.634 -1.1439 -0.5556  0.6663
 7678SOL     OW34492   0.201   2.428   5.770  0.0175 -0.0814  0.1915
 7678SOL    HW134493   0.270   2.369   5.802  0.7673  0.3840 -0.5763
 7678SOL    HW234494   0.211   2.404   5.678 -0.7041 -1.2306  0.4044
 7679SOL     OW34495   4.391   0.441   3.535  0.1779  0.0678  0.2386
 7679SOL    HW134496   4.434   0.372   3.484 -1.0319  0.1530 -0.8750
 7679SOL    HW234497   4.439   0.434   3.618  1.6504 -0.6742 -0.6593
 7680SOL     OW34498   2.766   0.096   4.941  0.6044  0.1537 -0.1855
 7680SOL    HW134499   2.729   0.010   4.923  2.5046 -0.8066  0.6134
 7680SOL    HW234500   2.723   0.117   5.024  0.9891 -0.5941  0.1965
 7681SOL     OW34501   3.467   3.738   8.851  0.0737 -0.2452  0.2143
 7681SOL    HW134502   3.463   3.754   8.756 -1.2313 -0.6379  0.1946
 7681SOL    HW234503   3.444   3.646   8.861 -0.1159 -0.5917 -3.1159
 7682SOL     OW34504   4.630   0.715  16.520  0.8783 -0.0130  0.1708
 7682SOL    HW134505   4.629   0.781  16.451 -1.8521 -1.1913 -0.8868
 7682SOL    HW234506   4.613   0.630  16.481 -1.2721 -0.1752  1.4502
 7683SOL     OW34507   0.897   3.699   4.081 -0.0945  0.0339 -0.0582
 7683SOL    HW134508   0.822   3.641   4.095  1.2833 -1.5025  0.9987
 7683SOL    HW234509   0.949   3.650   4.017  0.0454 -1.0820  0.8982
 7684SOL     OW34510   2.832   0.822   3.748 -0.2750 -0.2460  0.0279
 7684SOL    HW134511   2.787   0.819   3.832 -1.8257 -1.4703 -0.8656
 7684SOL    HW234512   2.750   0.804   3.702 -0.5841 -0.8828  0.8390
 7685SOL     OW34513   4.301   0.652   3.371 -0.0626 -0.1737 -0.1671
 7685SOL    HW134514   4.340   0.581   3.421 -0.9688 -0.9016 -0.5080
 7685SOL    HW234515   4.337   0.723   3.424 -1.2956  1.6346 -1.7525
 7686SOL     OW34516   4.313   0.722   7.026  0.2046 -0.7582  0.1492
 7686SOL    HW134517   4.407   0.727   7.007  0.1579 -1.3730 -0.2529
 7686SOL    HW234518   4.281   0.690   6.942 -0.6918 -1.5932  0.8103
 7687SOL     OW34519   1.796   1.918   9.122  0.3731  0.4213 -0.2251
 7687SOL    HW134520   1.824   1.839   9.075 -4.8631 -0.8368 -1.3099
 7687SOL    HW234521   1.783   1.891   9.213 -0.5448 -2.2592 -1.1314
 7688SOL     OW34522   0.796   4.121  12.304  0.3783  0.6308  0.2268
 7688SOL    HW134523   0.852   4.090  12.233  0.4301  0.1081  0.4973
 7688SOL    HW234524   0.800   4.212  12.276 -2.3809 -0.0721 -2.4762
 7689SOL     OW34525   2.101   3.229   9.116  0.1154  0.3982 -0.5664
 7689SOL    HW134526   2.121   3.174   9.191 -0.0879 -1.3139 -1.7666
 7689SOL    HW234527   2.182   3.227   9.065  1.2380 -1.0637  1.2788
 7690SOL     OW34528   3.011   0.005   8.158  0.2101  0.0225  0.0084
 7690SOL    HW134529   2.933   0.056   8.181  0.0188  0.8756 -2.4832
 7690SOL    HW234530   3.043   4.708   8.246  1.6556  0.0821 -0.5027
 7691SOL     OW34531   1.921   1.233   2.424  0.1951  0.0241  0.1859
 7691SOL    HW134532   1.939   1.169   2.493 -0.9044 -0.5819 -0.0786
 7691SOL    HW234533   1.957   1.310   2.469  0.5673 -0.1352  0.1534
 7692SOL     OW34534   0.184   3.341   6.880 -0.2727  0.4706 -0.4068
 7692SOL    HW134535   0.199   3.356   6.973  1.0434  1.7399 -0.8233
 7692SOL    HW234536   0.115   3.406   6.869  1.1343  1.8034 -1.4230
 7693SOL     OW34537   2.174   3.695   6.252  0.2200 -0.3603  0.5705
 7693SOL    HW134538   2.156   3.636   6.326  2.3973 -0.2610  1.1670
 7693SOL    HW234539   2.266   3.680   6.232  0.3251  0.3785  0.5060
 7694SOL     OW34540   2.415   3.625   2.372 -0.0354 -0.0905  0.2620
 7694SOL    HW134541   2.344   3.587   2.423  0.0748  1.4319  1.5361
 7694SOL    HW234542   2.389   3.717   2.381 -0.1057  0.2133 -3.0749
 7695SOL     OW34543   3.357   2.655   4.611  0.3678 -0.2041  0.3180
 7695SOL    HW134544   3.429   2.608   4.654 -0.9216 -1.9887  0.5260
 7695SOL    HW234545   3.401   2.738   4.592  0.5066 -0.3772 -0.0969
 7696SOL     OW34546   1.137   2.085   5.857  0.4420 -0.1267 -0.0972
 7696SOL    HW134547   1.229   2.107   5.846  0.3660  0.0672 -0.3451
 7696SOL    HW234548   1.128   2.034   5.776 -1.6743 -1.8472  1.2256
 7697SOL     OW34549   2.205   0.785  13.324 -0.1436 -0.1542 -0.3250
 7697SOL    HW134550   2.282   0.764  13.272 -1.2103 -1.2686 -1.4398
 7697SOL    HW234551   2.134   0.747  13.274  0.0582 -0.2919 -0.5085
 7698SOL     OW34552   0.216   1.127  12.558  0.2162  0.6533  0.2434
 7698SOL    HW134553   0.195   1.050  12.505 -0.3023  0.9101  0.0802
 7698SOL    HW234554   0.178   1.194  12.501 -1.2658 -0.0319  0.4366
 7699SOL     OW34555   0.478   0.130  11.324  0.4076  0.0699 -0.7202
 7699SOL    HW134556   0.443   0.114  11.411 -0.9398 -0.9425 -1.4459
 7699SOL    HW234557   0.561   0.083  11.335  1.5032  2.1669  0.0386
 7700SOL     OW34558   1.644   3.905   9.364  0.3995 -0.8797 -0.1044
 7700SOL    HW134559   1.563   3.858   9.385 -0.5453  1.7248  2.0905
 7700SOL    HW234560   1.618   3.972   9.302  0.8508  0.3028  0.9862
 7701SOL     OW34561   0.289   3.136  11.114  0.1667  0.2790  0.2354
 7701SOL    HW134562   0.236   3.110  11.039  0.9682 -1.7460  0.3748
 7701SOL    HW234563   0.357   3.193  11.078 -0.1461  1.1689  1.0476
 7702SOL     OW34564   3.021   0.269  15.843 -0.6523  0.3178 -0.1514
 7702SOL    HW134565   2.984   0.303  15.762 -0.6859  1.8559  0.5010
 7702SOL    HW234566   2.957   0.312  15.901  1.0325  0.6514  1.4538
 7703SOL     OW34567   4.133   0.063   9.974  0.2337 -0.4546  0.1825
 7703SOL    HW134568   4.108   0.017   9.895 -2.3373 -0.7628  1.1871
 7703SOL    HW234569   4.105   0.153   9.955  0.1131 -0.1643  1.6850
 7704SOL     OW34570   2.239   1.250  13.512 -0.0217  0.4763  0.2221
 7704SOL    HW134571   2.155   1.224  13.473  0.3931  1.6632 -1.4330
 7704SOL    HW234572   2.246   1.341  13.483  1.0700  0.0271 -0.9144
 7705SOL     OW34573   1.025   0.023   0.810  0.1364  0.9059  0.5997
 7705SOL    HW134574   1.046   0.104   0.855  0.6076  0.8884  0.4065
 7705SOL    HW234575   1.019   0.050   0.718 -0.8992 -1.9016 -0.1779
 7706SOL     OW34576   1.647   4.239   8.072 -0.0839 -0.0226 -0.0226
 7706SOL    HW134577   1.618   4.156   8.036 -1.5289  0.7199 -0.5698
 7706SOL    HW234578   1.577   4.269   8.130 -1.0586  0.9132 -1.6765
 7707SOL     OW34579   0.176   2.394   7.620  0.1816  0.1587  0.7846
 7707SOL    HW134580   0.133   2.476   7.644  0.8063  1.0704 -1.2110
 7707SOL    HW234581   0.121   2.335   7.671 -1.2941  2.1277  1.4568
 7708SOL     OW34582   1.071   4.154  11.861 -0.4908 -0.9131  0.6106
 7708SOL    HW134583   0.977   4.138  11.875 -0.5079 -0.6126  0.8481
 7708SOL    HW234584   1.076   4.134  11.768 -1.0082 -0.2459  0.4364
 7709SOL     OW34585   1.252   1.087  10.393 -0.2314 -0.2153 -0.2525
 7709SOL    HW134586   1.218   1.029  10.461  0.5042  0.1693  0.4371
 7709SOL    HW234587   1.347   1.077  10.398 -0.2060  0.0377 -0.2428
 7710SOL     OW34588   4.538   0.150  14.534 -0.2096 -0.4318 -0.3521
 7710SOL    HW134589   4.633   0.160  14.533 -0.1979 -0.4377  1.3605
 7710SOL    HW234590   4.514   0.121  14.622  0.3984  0.7588  0.2156
 7711SOL     OW34591   1.709   0.275   7.673  0.2943 -0.0975  0.4402
 7711SOL    HW134592   1.707   0.342   7.606 -0.4570  1.3113  1.8780
 7711SOL    HW234593   1.718   0.337   7.745  2.8809 -0.8600  0.7802
 7712SOL     OW34594   2.499   4.364   9.393 -0.8433  0.7290  0.6934
 7712SOL    HW134595   2.554   4.316   9.454  2.5311  2.9891 -0.5464
 7712SOL    HW234596   2.430   4.405   9.446  1.4812  1.5370  3.1122
 7713SOL     OW34597   4.406   4.500   0.329  0.4290 -0.4111 -0.0413
 7713SOL    HW134598   4.430   4.588   0.361 -0.2899 -1.5834  3.7660
 7713SOL    HW234599   4.313   4.511   0.309  0.4870 -1.6885 -0.9975
 7714SOL     OW34600   1.689   2.390   4.589  0.5092  0.4834 -0.7268
 7714SOL    HW134601   1.655   2.309   4.551  1.0108 -0.5244  0.9347
 7714SOL    HW234602   1.604   2.432   4.586  0.0364 -0.1931  2.9781
 7715SOL     OW34603   0.821   2.060  17.166 -0.0879  0.2977  0.1344
 7715SOL    HW134604   0.889   2.086  17.229  0.8666 -0.2801 -0.6470
 7715SOL    HW234605   0.871   2.053  17.085 -0.3974  1.2711 -0.1307
 7716SOL     OW34606   0.371   4.355   9.206  0.3139  0.2120  0.1496
 7716SOL    HW134607   0.321   4.349   9.125 -0.3683 -1.0169  0.6644
 7716SOL    HW234608   0.350   4.269   9.242  2.2887  1.1456  3.5468
 7717SOL     OW34609   4.316   4.044  14.183 -0.0363  0.4959 -0.0853
 7717SOL    HW134610   4.321   4.122  14.128 -1.8114  0.4381 -0.3151
 7717SOL    HW234611   4.377   3.988  14.136  1.7854  1.9063  0.5782
 7718SOL     OW34612   1.415   1.843  15.013  0.0927  0.3111  0.1935
 7718SOL    HW134613   1.468   1.855  14.934 -1.5436  0.5973 -0.8709
 7718SOL    HW234614   1.456   1.919  15.053 -0.4998 -1.2567  3.7782
 7719SOL     OW34615   4.154   0.238   6.168  0.1860 -0.8853  0.0348
 7719SOL    HW134616   4.125   0.184   6.095  0.8786 -1.3215  0.0770
 7719SOL    HW234617   4.241   0.269   6.141  1.2446 -3.1116  0.8702
 7720SOL     OW34618   3.734   2.388   1.508  0.4133 -0.3898 -0.5032
 7720SOL    HW134619   3.706   2.336   1.432  0.4007 -0.5006 -0.4227
 7720SOL    HW234620   3.794   2.438   1.453 -0.3098  2.1561  1.0314
 7721SOL     OW34621   0.371   4.436   6.914  0.0034  0.3755 -0.2006
 7721SOL    HW134622   0.436   4.379   6.955  1.3938  2.6226  0.7283
 7721SOL    HW234623   0.320   4.468   6.989  1.1713  1.1480  0.2595
 7722SOL     OW34624   2.537   1.419   8.074  0.0222 -0.1479 -0.7066
 7722SOL    HW134625   2.605   1.473   8.115  0.2850 -2.6071  2.1271
 7722SOL    HW234626   2.539   1.449   7.983 -0.8986  1.5514 -0.1739
 7723SOL     OW34627   1.673   2.619  13.399 -0.5848 -0.2535 -0.6155
 7723SOL    HW134628   1.721   2.701  13.409 -1.2468 -0.0439  0.7693
 7723SOL    HW234629   1.673   2.592  13.491  1.4209  1.4755 -0.0845
 7724SOL     OW34630   4.141   1.049   8.072  0.0667 -0.0641 -0.1397
 7724SOL    HW134631   4.085   1.116   8.033  1.3008 -0.1828 -2.1138
 7724SOL    HW234632   4.144   1.070   8.165 -2.5762 -1.0460  0.1730
 7725SOL     OW34633   3.792   3.625   4.805  0.6527  0.0867 -0.0223
 7725SOL    HW134634   3.705   3.666   4.801  0.7715  0.2913 -0.4674
 7725SOL    HW234635   3.840   3.678   4.869 -1.6217  1.6137  0.4472
 7726SOL     OW34636   3.816   0.175   6.358  0.4928 -0.0667 -0.1230
 7726SOL    HW134637   3.887   0.237   6.372  0.7597 -0.6262  0.9502
 7726SOL    HW234638   3.772   0.229   6.291 -2.7395 -0.2529  1.8616
 7727SOL     OW34639   2.771   4.672  13.521 -0.3867  0.3587 -0.2326
 7727SOL    HW134640   2.699   4.679  13.584  1.1274 -1.4608  1.6947
 7727SOL    HW234641   2.834   0.013  13.562  0.7526 -1.6181  0.8761
 7728SOL     OW34642   2.788   0.041   9.326  0.4863 -0.6958  0.4395
 7728SOL    HW134643   2.820   0.132   9.327  1.2242 -0.9386 -2.9032
 7728SOL    HW234644   2.819   0.006   9.243 -1.1691  0.5861 -0.7075
 7729SOL     OW34645   1.902   4.481   9.289  0.7218  0.6146  0.1004
 7729SOL    HW134646   1.930   4.435   9.369  0.4307 -0.0948 -0.2051
 7729SOL    HW234647   1.817   4.438   9.276  1.9658 -1.6503 -0.6271
 7730SOL     OW34648   1.691   2.308   8.627 -0.0645  0.3076  0.3108
 7730SOL    HW134649   1.737   2.228   8.603  1.2960  0.4387  2.5120
 7730SOL    HW234650   1.770   2.356   8.650 -0.9998  1.3695  1.3064
 7731SOL     OW34651   1.761   4.110   3.562  0.7391 -0.2592  0.6096
 7731SOL    HW134652   1.717   4.038   3.518 -0.3392  1.5333 -1.2521
 7731SOL    HW234653   1.773   4.170   3.489  1.6917  1.0318  1.8215
 7732SOL     OW34654   2.010   0.719  10.699 -0.4063  0.1501  0.1593
 7732SOL    HW134655   1.989   0.801  10.655  1.2313  1.5408  1.9285
 7732SOL    HW234656   2.097   0.697  10.665 -0.4728  0.7168 -0.3747
 7733SOL     OW34657   3.770   0.112  15.521  0.3024 -1.0009  0.6793
 7733SOL    HW134658   3.826   0.170  15.573  2.4374 -1.3986 -1.1822
 7733SOL    HW234659   3.848   0.066  15.487 -0.3513 -1.7913  0.2517
 7734SOL     OW34660   1.784   1.308   3.530 -0.3883 -0.2749  0.2219
 7734SOL    HW134661   1.803   1.348   3.615 -0.1112  3.2935 -1.4895
 7734SOL    HW234662   1.690   1.293   3.540 -0.1704 -0.5819  1.8779
 7735SOL     OW34663   2.725   3.926   5.292  0.3634  0.3848  0.1714
 7735SOL    HW134664   2.707   4.007   5.340  2.2373 -0.0943  1.6492
 7735SOL    HW234665   2.690   3.959   5.209  1.6681  3.0634  0.6840
 7736SOL     OW34666   4.065   0.346   2.216  0.2404  0.1862  0.1378
 7736SOL    HW134667   3.987   0.395   2.189 -1.2481 -1.9111  0.5969
 7736SOL    HW234668   4.027   0.260   2.234 -0.0332  0.3971  0.5625
 7737SOL     OW34669   2.691   2.701   5.670 -0.3584  0.4312  0.3147
 7737SOL    HW134670   2.663   2.614   5.701  1.7260 -0.3837 -0.1095
 7737SOL    HW234671   2.782   2.692   5.696  0.2299  0.3932 -1.8048
 7738SOL     OW34672   3.425   1.155   5.802 -0.0950 -0.6418 -0.0851
 7738SOL    HW134673   3.496   1.188   5.747 -3.8243  1.4347 -3.6598
 7738SOL    HW234674   3.368   1.216   5.756 -0.4608 -0.7483  0.2249
 7739SOL     OW34675   1.186   3.496   7.150  0.1254 -0.1795 -0.3058
 7739SOL    HW134676   1.103   3.464   7.185 -0.8803  0.7939 -1.7888
 7739SOL    HW234677   1.177   3.590   7.164 -1.5915 -0.2655 -0.9096
 7740SOL     OW34678   3.116   2.115   9.845  0.1681 -0.2714 -0.4672
 7740SOL    HW134679   3.189   2.163   9.885  0.4977 -1.0335 -0.1603
 7740SOL    HW234680   3.147   2.115   9.754  0.5458 -1.3031 -0.3264
 7741SOL     OW34681   3.703   1.451   4.622 -0.7259  0.1572  0.2300
 7741SOL    HW134682   3.738   1.531   4.583  1.0211 -1.0488 -0.6907
 7741SOL    HW234683   3.698   1.474   4.715 -1.2329  0.3688  0.1505
 7742SOL     OW34684   2.107   3.707  12.627  0.3828 -0.6307 -0.0129
 7742SOL    HW134685   2.016   3.736  12.639 -0.3016 -2.1270 -1.4895
 7742SOL    HW234686   2.157   3.787  12.615 -0.2040 -0.4988 -1.5828
 7743SOL     OW34687   3.187   4.617  14.536 -0.5438 -0.1343  0.7092
 7743SOL    HW134688   3.151   4.691  14.586  2.3208 -0.1399  2.7534
 7743SOL    HW234689   3.185   4.555  14.608 -1.0115 -0.6333  0.2652
 7744SOL     OW34690   1.289   4.031   9.801  0.1354  0.0222  0.2797
 7744SOL    HW134691   1.269   3.943   9.833  0.8822 -1.1945 -2.5991
 7744SOL    HW234692   1.292   4.078   9.884  0.8209  3.1207 -1.4661
 7745SOL     OW34693   3.984   3.085   7.666 -0.1297  0.4854  0.3470
 7745SOL    HW134694   3.952   3.011   7.614  0.5945  0.5846 -0.2495
 7745SOL    HW234695   3.905   3.138   7.675 -0.1605  0.1449  1.9581
 7746SOL     OW34696   3.494   4.618   7.515  0.1839 -0.9110 -0.6027
 7746SOL    HW134697   3.438   4.571   7.577 -0.3785  1.0158  0.3160
 7746SOL    HW234698   3.456   4.705   7.523 -0.6406 -1.3302  0.0989
 7747SOL     OW34699   2.684   3.847   8.402  0.2445 -0.1365 -0.0460
 7747SOL    HW134700   2.626   3.824   8.475  0.8512  1.4928  0.9395
 7747SOL    HW234701   2.764   3.801   8.426 -0.0084 -0.3945  0.3100
 7748SOL     OW34702   2.884   3.380  12.376 -0.0926 -0.3249  0.0773
 7748SOL    HW134703   2.846   3.406  12.460 -0.7898  0.1455 -0.3849
 7748SOL    HW234704   2.833   3.444  12.327 -0.1411  0.4070  1.0846
 7749SOL     OW34705   2.556   2.622  16.613  0.0049 -0.3414  0.0373
 7749SOL    HW134706   2.651   2.635  16.617  0.1894 -1.0666 -1.7266
 7749SOL    HW234707   2.536   2.707  16.573 -0.4945 -0.1738  0.6501
 7750SOL     OW34708   0.071   3.110  11.271  0.2352  0.5458 -0.3954
 7750SOL    HW134709   0.017   3.069  11.203  1.1232  1.1897 -1.5020
 7750SOL    HW234710   0.159   3.099  11.237  0.1735  0.1729 -0.4290
 7751SOL     OW34711   1.025   4.059   5.561 -0.1799 -0.5606 -0.2459
 7751SOL    HW134712   1.048   3.967   5.552  0.2735 -0.3271 -1.5808
 7751SOL    HW234713   1.028   4.072   5.655  1.9237  2.0111 -0.6546
 7752SOL     OW34714   0.812   2.346  15.795 -0.1364 -0.0677  0.3865
 7752SOL    HW134715   0.807   2.250  15.786  0.9174 -0.3941  3.2936
 7752SOL    HW234716   0.747   2.368  15.728  0.0180  0.3348  0.3750
 7753SOL     OW34717   3.835   1.788   3.176  0.0402 -0.0146 -0.4394
 7753SOL    HW134718   3.911   1.783   3.233 -0.7955  1.5329  0.8071
 7753SOL    HW234719   3.873   1.820   3.094  0.4545  0.9312  0.1188
 7754SOL     OW34720   2.032   3.570   9.122  0.2961  0.2361 -0.3005
 7754SOL    HW134721   1.945   3.529   9.117  0.6614 -0.3263 -2.1942
 7754SOL    HW234722   2.086   3.505   9.078  0.4446  2.0944 -2.8798
 7755SOL     OW34723   2.307   0.251  12.177  0.4439  0.1737 -0.2384
 7755SOL    HW134724   2.327   0.212  12.092  1.9003 -2.2416  1.2167
 7755SOL    HW234725   2.220   0.287  12.157  0.4734  0.5986  0.4322
 7756SOL     OW34726   1.092   2.855   3.852 -0.6804  0.0228  0.8445
 7756SOL    HW134727   1.025   2.788   3.835 -2.3543  2.1696 -0.9330
 7756SOL    HW234728   1.137   2.868   3.769 -0.9567 -2.4773  0.2986
 7757SOL     OW34729   3.959   3.306  15.946 -0.3214  0.7794 -0.1541
 7757SOL    HW134730   3.891   3.261  15.896 -0.2029  0.5217 -0.0819
 7757SOL    HW234731   3.940   3.397  15.923 -0.2591  0.6468 -0.7178
 7758SOL     OW34732   0.534   2.764   6.079 -0.1992 -0.6717 -0.4733
 7758SOL    HW134733   0.457   2.821   6.072 -1.0234 -1.8703 -1.0886
 7758SOL    HW234734   0.583   2.807   6.150 -3.1176 -2.1860  2.4704
 7759SOL     OW34735   0.346   0.891  14.148 -0.3675  0.0817 -0.0814
 7759SOL    HW134736   0.433   0.886  14.108 -2.2027 -1.5277 -3.8391
 7759SOL    HW234737   0.340   0.965  14.208 -0.2870 -0.9096  1.1587
 7760SOL     OW34738   0.670   0.053   2.727  0.7268  0.3343  0.4193
 7760SOL    HW134739   0.676   0.039   2.821 -0.1891 -1.3569  0.2251
 7760SOL    HW234740   0.734   4.707   2.695  0.7117  1.5617 -2.1441
 7761SOL     OW34741   2.358   3.432  17.582 -0.5013  0.4529  0.5161
 7761SOL    HW134742   2.437   3.382  17.563  0.5018  1.5871  1.6991
 7761SOL    HW234743   2.373   3.522  17.552  1.7420  0.0575  0.4633
 7762SOL     OW34744   2.713   4.522   8.090  0.2247 -0.0403 -0.1129
 7762SOL    HW134745   2.746   4.433   8.078  0.8722  0.1546  0.2272
 7762SOL    HW234746   2.637   4.505   8.146  0.2928  2.8338  0.8543
 7763SOL     OW34747   4.243   1.790   8.909 -0.2691 -0.1230 -0.2623
 7763SOL    HW134748   4.337   1.800   8.891 -0.5436  0.8778 -1.0933
 7763SOL    HW234749   4.220   1.712   8.859 -0.2044 -0.6345  0.5009
 7764SOL     OW34750   1.203   3.579   4.971 -0.0592  0.1708 -0.7695
 7764SOL    HW134751   1.121   3.628   4.967  0.0200  0.2776 -1.0943
 7764SOL    HW234752   1.246   3.628   5.041  1.0100  0.3826 -1.5739
 7765SOL     OW34753   1.384   0.300   6.314 -0.3816 -0.2006 -0.4655
 7765SOL    HW134754   1.374   0.296   6.409 -0.7122 -2.1318 -0.5938
 7765SOL    HW234755   1.336   0.382   6.300  0.1366 -0.0010 -1.0599
 7766SOL     OW34756   2.254   4.076   8.486 -0.1083 -0.1207  0.4654
 7766SOL    HW134757   2.295   4.155   8.451  0.2692 -0.3656  0.3614
 7766SOL    HW234758   2.187   4.046   8.424 -0.5615 -0.6083  1.1943
 7767SOL     OW34759   0.144   1.792   3.268 -0.2913  0.2337 -0.1468
 7767SOL    HW134760   0.092   1.828   3.341 -0.2576 -1.1202  0.5481
 7767SOL    HW234761   0.081   1.754   3.207 -0.1656 -3.3174  1.9186
 7768SOL     OW34762   3.261   3.127   5.685 -0.3176  0.6910 -0.2039
 7768SOL    HW134763   3.255   3.056   5.749 -0.0051  1.0332  0.2021
 7768SOL    HW234764   3.248   3.201   5.746 -2.8507 -0.2908  0.4537
 7769SOL     OW34765   3.656   3.628   5.533  0.0359 -0.4830  0.4284
 7769SOL    HW134766   3.732   3.671   5.495 -0.7392  0.5014  0.0070
 7769SOL    HW234767   3.685   3.584   5.613 -0.3304 -2.2015 -0.3781
 7770SOL     OW34768   2.227   0.777   7.391  0.8854 -0.6281  0.1847
 7770SOL    HW134769   2.245   0.871   7.390  0.8141 -0.6433 -2.2748
 7770SOL    HW234770   2.202   0.764   7.482  3.0435  0.3240  0.9113
 7771SOL     OW34771   1.091   0.605   2.694 -0.1164 -0.4407  0.1682
 7771SOL    HW134772   1.029   0.677   2.689 -1.3280 -1.2881  2.9032
 7771SOL    HW234773   1.160   0.665   2.721  0.0041  0.7368 -2.7724
 7772SOL     OW34774   3.755   0.925  10.243  0.0070  0.2616  0.1887
 7772SOL    HW134775   3.702   1.001  10.219  0.5009  0.9803  1.3616
 7772SOL    HW234776   3.839   0.955  10.207 -0.1506 -0.5871 -0.8817
 7773SOL     OW34777   3.263   2.046   8.329 -0.2437  0.1413 -0.4218
 7773SOL    HW134778   3.310   2.025   8.410 -0.7802 -1.6423 -0.5747
 7773SOL    HW234779   3.341   2.058   8.276  0.3078 -1.7267 -0.0166
 7774SOL     OW34780   0.081   3.446  16.098 -0.1334  0.0183  0.4925
 7774SOL    HW134781   0.139   3.515  16.067 -1.7960  0.6995 -1.0618
 7774SOL    HW234782   4.716   3.477  16.065  0.4954  0.6622 -0.5012
 7775SOL     OW34783   3.931   4.239   2.525 -0.0441 -0.3126 -0.1246
 7775SOL    HW134784   4.015   4.206   2.557  0.6322  1.4766 -0.0494
 7775SOL    HW234785   3.881   4.241   2.607 -0.0877 -0.2974 -0.1513
 7776SOL     OW34786   3.025   3.354   5.944  0.3075 -0.0555 -0.2672
 7776SOL    HW134787   2.987   3.435   5.977 -2.1693 -1.6010  0.6153
 7776SOL    HW234788   3.100   3.382   5.890  0.0538  1.5342  0.2031
 7777SOL     OW34789   3.924   2.437   4.260 -0.3256 -0.4405 -0.4250
 7777SOL    HW134790   3.993   2.371   4.250 -1.1193 -1.1688 -1.1029
 7777SOL    HW234791   3.971   2.519   4.247  0.1785 -0.6355  0.1660
 7778SOL     OW34792   1.666   1.621   5.639 -0.2107 -0.5096 -0.4858
 7778SOL    HW134793   1.719   1.700   5.631 -0.9501  0.0925  0.5613
 7778SOL    HW234794   1.724   1.562   5.592  0.2848 -0.8560  0.5521
 7779SOL     OW34795   0.620   3.936  10.423  0.0683  0.2131  0.2071
 7779SOL    HW134796   0.629   4.013  10.480  0.7951 -0.6120  1.2357
 7779SOL    HW234797   0.697   3.947  10.368 -0.2910  0.5948 -0.2100
 7780SOL     OW34798   0.493   3.228  10.759 -0.0773 -0.1866 -0.2541
 7780SOL    HW134799   0.400   3.207  10.752 -0.0793 -0.4176  0.4785
 7780SOL    HW234800   0.535   3.163  10.702 -2.6259 -0.0371 -2.3233
 7781SOL     OW34801   0.672   1.072  16.562 -0.1585 -0.1442 -0.5178
 7781SOL    HW134802   0.691   0.993  16.511 -0.4373  0.8177 -2.0999
 7781SOL    HW234803   0.665   1.141  16.497 -2.2981  1.4054  1.3429
 7782SOL     OW34804   3.720   2.316   0.825  0.2342 -0.2813  0.5851
 7782SOL    HW134805   3.811   2.294   0.842  0.2916 -1.3807 -1.1148
 7782SOL    HW234806   3.687   2.228   0.804  0.3753 -0.3800  0.7820
 7783SOL     OW34807   0.882   2.450  16.432 -0.2377 -0.9063 -0.0939
 7783SOL    HW134808   0.894   2.512  16.503  1.8892 -0.8458 -0.5140
 7783SOL    HW234809   0.802   2.481  16.389 -1.3306 -1.2220  1.7118
 7784SOL     OW34810   1.112   3.325   3.963  0.2869  0.5639  0.5768
 7784SOL    HW134811   1.153   3.347   4.047  1.2926  0.5272  0.1016
 7784SOL    HW234812   1.079   3.237   3.980  1.1939  0.3794  1.4370
 7785SOL     OW34813   1.950   3.707   6.522  0.1561 -0.4870 -0.1192
 7785SOL    HW134814   1.942   3.793   6.481  1.1971 -0.3087  0.0567
 7785SOL    HW234815   1.999   3.738   6.598  0.0120  0.1647 -0.2927
 7786SOL     OW34816   0.144   4.536   7.528  0.3012  0.2625 -0.2378
 7786SOL    HW134817   0.130   4.631   7.524  0.4818  0.3170  0.2982
 7786SOL    HW234818   0.239   4.530   7.542  0.4688  0.7517 -1.1514
 7787SOL     OW34819   1.031   4.119   3.545  0.1579 -0.3201  0.3204
 7787SOL    HW134820   0.994   4.096   3.460  1.6768 -0.4438 -0.3106
 7787SOL    HW234821   1.111   4.164   3.516 -0.6611  0.6915 -0.3663
 7788SOL     OW34822   0.633   2.678   9.081 -0.0919 -0.0927 -0.0425
 7788SOL    HW134823   0.586   2.760   9.090 -0.3323 -0.1317 -0.9658
 7788SOL    HW234824   0.722   2.705   9.060  0.0308  0.2242  0.8782
 7789SOL     OW34825   2.039   0.536   3.698  0.4320  0.3860 -0.1248
 7789SOL    HW134826   2.124   0.536   3.742  0.1883 -0.7859  0.3482
 7789SOL    HW234827   2.041   0.615   3.645 -0.3605  1.5586  1.6095
 7790SOL     OW34828   2.114   4.583  13.859  0.2477 -0.4816  0.0423
 7790SOL    HW134829   2.034   4.589  13.808  1.2454  1.6638 -1.2720
 7790SOL    HW234830   2.078   4.546  13.940 -0.9490 -0.6197 -0.5589
 7791SOL     OW34831   2.513   2.317   6.215  0.0989 -0.6783 -0.0212
 7791SOL    HW134832   2.460   2.374   6.159  0.1024 -0.8232 -0.1729
 7791SOL    HW234833   2.541   2.270   6.136 -1.5981 -2.3883  0.3873
 7792SOL     OW34834   3.791   0.305   3.047 -0.0430  0.3936 -0.1673
 7792SOL    HW134835   3.780   0.230   2.989  0.8743 -0.5377  0.8813
 7792SOL    HW234836   3.708   0.311   3.095  0.7550 -0.0315  1.2495
 7793SOL     OW34837   4.084   1.146   7.228 -0.2509 -0.6328  0.0519
 7793SOL    HW134838   3.989   1.137   7.226 -0.3725  0.5536  0.3719
 7793SOL    HW234839   4.105   1.105   7.143 -0.0776  1.5922 -0.9812
 7794SOL     OW34840   2.402   1.255   6.979 -0.1736 -0.3780  0.0588
 7794SOL    HW134841   2.392   1.175   6.926 -0.3079 -1.1741  1.2805
 7794SOL    HW234842   2.315   1.295   6.979  0.8102  1.7823 -1.8771
 7795SOL     OW34843   3.910   3.594   5.950  0.2299  0.0268  0.0560
 7795SOL    HW134844   3.876   3.619   6.035 -1.5630 -1.5554 -0.2082
 7795SOL    HW234845   3.932   3.680   5.913 -2.4825  0.9477  0.6267
 7796SOL     OW34846   4.628   4.472  13.724  0.1792 -0.1014  0.6014
 7796SOL    HW134847   4.635   4.505  13.634 -5.1929 -0.6418  0.0156
 7796SOL    HW234848   4.534   4.472  13.742  0.2652  0.8054  1.0704
 7797SOL     OW34849   1.372   3.922   7.096  0.1443  0.0987 -0.3745
 7797SOL    HW134850   1.294   3.869   7.082  0.6163 -0.6945 -0.0509
 7797SOL    HW234851   1.330   4.007   7.103  0.2186  0.1419 -0.4542
 7798SOL     OW34852   0.890   3.347   6.579 -0.0079 -0.0654  0.2595
 7798SOL    HW134853   0.976   3.313   6.554  0.5881  2.5098 -1.1467
 7798SOL    HW234854   0.900   3.362   6.673 -0.9751 -1.0402  0.5232
 7799SOL     OW34855   1.123   2.185   3.209 -0.0350  0.1020 -0.1412
 7799SOL    HW134856   1.175   2.264   3.193 -1.1039  0.4286 -1.9483
 7799SOL    HW234857   1.070   2.191   3.130 -1.3565  1.3774  0.8443
 7800SOL     OW34858   2.515   0.059   6.319 -0.2801  0.3144  0.4969
 7800SOL    HW134859   2.603   0.093   6.336  0.4660 -2.1741  1.5899
 7800SOL    HW234860   2.544   4.704   6.266 -1.6551  3.1562 -4.1950
 7801SOL     OW34861   3.873   4.630   5.514  0.1726  0.0736  0.3296
 7801SOL    HW134862   3.833   4.703   5.560 -2.2146 -0.5606 -0.7276
 7801SOL    HW234863   3.886   4.565   5.583 -1.6298 -0.0807  0.5046
 7802SOL     OW34864   2.454   2.449   7.857 -0.2066 -0.1354 -0.1604
 7802SOL    HW134865   2.365   2.416   7.869 -1.0303  2.0230 -0.4491
 7802SOL    HW234866   2.462   2.500   7.937 -0.5634  0.8051 -0.7286
 7803SOL     OW34867   2.118   2.456   4.723  0.3772  0.0040 -0.1872
 7803SOL    HW134868   2.057   2.385   4.705 -1.0879  1.6704 -1.9072
 7803SOL    HW234869   2.071   2.538   4.743  0.0049 -0.2067 -0.1950
 7804SOL     OW34870   2.307   1.861   8.817 -0.2633 -0.3784 -0.4542
 7804SOL    HW134871   2.231   1.918   8.821 -1.3535 -1.9704  1.5670
 7804SOL    HW234872   2.356   1.884   8.897 -0.2005 -2.4373  0.1000
 7805SOL     OW34873   2.116   2.529   3.718 -0.1656  0.0686 -0.0761
 7805SOL    HW134874   2.064   2.511   3.639  0.7770 -0.2409 -0.6247
 7805SOL    HW234875   2.061   2.595   3.762 -1.1462  1.2499 -3.0450
 7806SOL     OW34876   4.594   1.120   1.419  0.5203  0.3407  0.1686
 7806SOL    HW134877   4.505   1.145   1.444 -0.1712  0.4963 -2.5517
 7806SOL    HW234878   4.630   1.157   1.500  0.5786  2.5019 -0.8535
 7807SOL     OW34879   1.160   3.333  17.499 -0.3054 -0.4477  0.1969
 7807SOL    HW134880   1.219   3.358  17.570 -0.0937 -0.6249  0.0834
 7807SOL    HW234881   1.144   3.239  17.506 -3.2428 -0.0062 -0.6803
 7808SOL     OW34882   4.482   4.646   4.225  0.2038  0.1022  0.4035
 7808SOL    HW134883   4.514   4.557   4.238  2.0590  0.7520  0.2061
 7808SOL    HW234884   4.415   4.652   4.293  0.6672  2.1447  0.6759
 7809SOL     OW34885   4.458   1.569   1.567 -0.1917  0.9366  0.2914
 7809SOL    HW134886   4.540   1.561   1.616 -0.3868  0.7494  0.5922
 7809SOL    HW234887   4.417   1.643   1.611 -1.9118 -0.1185  0.4901
 7810SOL     OW34888   4.165   4.558   5.545  0.1282 -0.0996 -0.0390
 7810SOL    HW134889   4.074   4.547   5.571  0.0764 -0.7945 -0.5050
 7810SOL    HW234890   4.203   4.625   5.602 -1.1330 -0.9469  1.7938
 7811SOL     OW34891   1.884   1.153   5.062 -0.0576 -0.8056 -0.3284
 7811SOL    HW134892   1.820   1.093   5.101 -2.1518  2.0136  0.5669
 7811SOL    HW234893   1.922   1.102   4.990  2.4820  0.6661 -0.0154
 7812SOL     OW34894   0.554   0.768   8.521  0.4279 -0.1423  0.3812
 7812SOL    HW134895   0.594   0.816   8.594 -0.9248  2.2280 -0.4409
 7812SOL    HW234896   0.515   0.691   8.562  0.7974 -0.7255 -0.3467
 7813SOL     OW34897   1.472   4.719   4.448 -0.7472  0.1060 -0.1689
 7813SOL    HW134898   1.516   0.082   4.426 -1.2222  0.5583  0.5563
 7813SOL    HW234899   1.435   0.013   4.535 -1.1085 -0.3410 -0.2536
 7814SOL     OW34900   1.130   2.045   0.574  0.1303 -0.6058 -0.5802
 7814SOL    HW134901   1.076   1.972   0.543  0.0096 -0.2523 -1.2040
 7814SOL    HW234902   1.132   2.093   0.491  0.7002  0.0626 -0.1813
 7815SOL     OW34903   2.806   3.419   2.494  0.2685 -0.1117  0.4223
 7815SOL    HW134904   2.744   3.355   2.459  0.7268 -1.5189  2.1786
 7815SOL    HW234905   2.745   3.479   2.537 -1.9058 -2.4802  0.6437
 7816SOL     OW34906   3.843   1.098   7.723  0.0915 -0.0450 -0.0764
 7816SOL    HW134907   3.766   1.046   7.700 -0.3002 -0.1634  1.5166
 7816SOL    HW234908   3.917   1.044   7.694  0.5566  1.9898 -2.6962
 7817SOL     OW34909   4.546   4.127   9.735  0.6105 -0.2439  0.5197
 7817SOL    HW134910   4.608   4.054   9.736  2.3972  1.2309 -0.5928
 7817SOL    HW234911   4.607   4.195   9.763  0.8540 -1.2082  2.3466
 7818SOL     OW34912   1.698   4.489   2.828 -0.4584 -0.3693 -0.2919
 7818SOL    HW134913   1.686   4.551   2.901 -1.6517 -0.8810 -0.0568
 7818SOL    HW234914   1.777   4.529   2.789 -1.1432 -0.3980 -1.7063
 7819SOL     OW34915   3.143   4.267   0.104  0.6080 -0.4922  0.5759
 7819SOL    HW134916   3.119   4.203   0.171  0.0525 -0.1162  0.7369
 7819SOL    HW234917   3.203   4.217   0.048 -0.5013 -0.4548 -0.6443
 7820SOL     OW34918   0.248   1.902   3.035 -0.0933 -0.2175 -0.0540
 7820SOL    HW134919   0.186   1.968   3.004  0.4086 -0.1679 -0.9555
 7820SOL    HW234920   0.210   1.866   3.115 -0.8339  0.0091 -0.3018
 7821SOL     OW34921   2.064   1.527   3.861 -0.3886 -0.5631  0.2100
 7821SOL    HW134922   2.024   1.543   3.947 -0.8364 -0.0082 -0.0992
 7821SOL    HW234923   2.038   1.612   3.826 -0.6706 -0.6255  0.2638
 7822SOL     OW34924   3.725   1.286   5.411  0.4528 -0.4183 -0.4188
 7822SOL    HW134925   3.817   1.271   5.433  0.1814 -1.6052 -0.1351
 7822SOL    HW234926   3.742   1.333   5.329  0.2813 -1.5254 -1.0769
 7823SOL     OW34927   0.779   0.439   4.549  0.9761  0.5004  0.7250
 7823SOL    HW134928   0.809   0.366   4.494  1.8470  1.7009 -0.3796
 7823SOL    HW234929   0.808   0.404   4.633  2.0753  1.3138  0.6770
 7824SOL     OW34930   1.203   1.378  15.992  0.1231  0.5902  0.0458
 7824SOL    HW134931   1.157   1.430  16.058  0.2349  0.5796  0.1336
 7824SOL    HW234932   1.252   1.316  16.046  2.9998  1.7470 -1.2004
 7825SOL     OW34933   0.328   4.164   8.756  0.1281  0.7706 -0.1272
 7825SOL    HW134934   0.377   4.215   8.692  0.2471  0.6368 -0.1432
 7825SOL    HW234935   0.262   4.125   8.699 -0.5637  0.0658  1.1573
 7826SOL     OW34936   1.165   4.487   7.677 -0.1456 -0.4727  0.0007
 7826SOL    HW134937   1.084   4.450   7.643  0.4453 -1.4650 -0.3324
 7826SOL    HW234938   1.195   4.415   7.733 -0.9653  0.5260  1.7404
 7827SOL     OW34939   0.264   0.531   6.123 -0.3751  0.0471 -0.2626
 7827SOL    HW134940   0.274   0.490   6.037  1.8277 -0.4074  0.2069
 7827SOL    HW234941   0.297   0.621   6.121  0.2878 -0.1808  0.3654
 7828SOL     OW34942   3.966   2.502   9.026 -0.2335 -0.4447  0.1629
 7828SOL    HW134943   3.964   2.542   8.939 -1.0447 -0.8064  0.0186
 7828SOL    HW234944   3.952   2.409   9.010 -2.6033  0.0753 -0.7152
 7829SOL     OW34945   1.928   3.355   5.306  0.2052  0.5459 -0.6272
 7829SOL    HW134946   1.920   3.449   5.317 -1.0750  0.2546  0.8693
 7829SOL    HW234947   1.953   3.328   5.394 -1.1764  0.4342 -0.2783
 7830SOL     OW34948   0.073   3.608   8.116  0.5743  0.5628 -0.3610
 7830SOL    HW134949   0.100   3.543   8.180 -1.1510 -1.0315 -1.2451
 7830SOL    HW234950   0.113   3.681   8.162  0.8606 -0.5862  1.1969
 7831SOL     OW34951   2.839   2.956   0.743 -0.1688 -0.0092  0.2213
 7831SOL    HW134952   2.851   2.879   0.688  1.1428 -0.1190  0.6697
 7831SOL    HW234953   2.747   2.979   0.728 -0.8659 -2.3633  0.8698
 7832SOL     OW34954   2.618   3.414   5.443  0.0323 -0.1289 -0.4071
 7832SOL    HW134955   2.557   3.471   5.398  0.7612  1.4961  0.6572
 7832SOL    HW234956   2.635   3.465   5.522 -2.6845  0.2554 -0.0828
 7833SOL     OW34957   1.831   3.765   7.620 -0.2342 -0.1685 -0.0138
 7833SOL    HW134958   1.887   3.842   7.613 -0.1984 -0.2358 -0.4525
 7833SOL    HW234959   1.833   3.719   7.536  0.4562  0.5945 -0.4085
 7834SOL     OW34960   3.432   1.302  15.877  0.2830  0.1471 -0.6327
 7834SOL    HW134961   3.355   1.357  15.889  0.6057  0.6346 -0.7867
 7834SOL    HW234962   3.461   1.329  15.790 -0.6613 -0.4310 -1.1276
 7835SOL     OW34963   1.247   1.086   5.936 -0.1652  0.1666  0.0763
 7835SOL    HW134964   1.306   1.018   5.904  0.1033  0.4368  0.0012
 7835SOL    HW234965   1.266   1.148   5.866  0.4853 -0.8822 -0.6863
 7836SOL     OW34966   2.013   2.875   9.031  0.4065  0.1879 -0.2378
 7836SOL    HW134967   1.971   2.921   9.104 -0.5292 -0.7713 -0.1602
 7836SOL    HW234968   2.035   2.793   9.075  0.5295  0.4411  0.1700
 7837SOL     OW34969   4.631   3.601   7.889  0.7013 -0.8361 -0.1920
 7837SOL    HW134970   4.681   3.613   7.970  0.7597  0.4747 -0.4199
 7837SOL    HW234971   4.635   3.690   7.853 -0.8974 -0.4005  0.7220
 7838SOL     OW34972   1.332   3.741   1.108 -0.2676 -0.5248  0.1185
 7838SOL    HW134973   1.425   3.756   1.121 -0.3510 -1.9882  2.5136
 7838SOL    HW234974   1.302   3.796   1.181 -0.1124 -1.7388  1.1040
 7839SOL     OW34975   0.451   3.068  17.356  0.3281 -0.8077  0.1770
 7839SOL    HW134976   0.468   3.159  17.383  0.9771 -1.2210  1.1482
 7839SOL    HW234977   0.437   3.026  17.440 -0.2043 -0.0752  0.4607
 7840SOL     OW34978   2.707   1.442   3.405  0.1713  0.2921 -0.1865
 7840SOL    HW134979   2.692   1.503   3.478  0.7172  1.3299 -0.9525
 7840SOL    HW234980   2.686   1.490   3.325  0.9559  0.4494 -0.2968
 7841SOL     OW34981   1.533   4.113  13.157  0.3262  0.3256  0.1450
 7841SOL    HW134982   1.584   4.157  13.225 -1.4957  1.5405  0.7153
 7841SOL    HW234983   1.483   4.187  13.126  0.9075  0.8886  0.5477
 7842SOL     OW34984   0.371   0.975   1.709 -0.0540 -0.2461 -0.0403
 7842SOL    HW134985   0.332   0.919   1.642 -0.7669  1.5668 -1.1556
 7842SOL    HW234986   0.411   0.902   1.756  0.2314  0.1758  0.3808
 7843SOL     OW34987   4.482   1.922   5.475  0.9176  0.0964  0.1743
 7843SOL    HW134988   4.399   1.947   5.434  0.3946 -2.3211 -0.2743
 7843SOL    HW234989   4.453   1.880   5.556 -0.1109  0.7253  0.1275
 7844SOL     OW34990   1.961   1.253   2.949  0.0056  0.0423  0.1569
 7844SOL    HW134991   1.869   1.273   2.932  0.6611  2.8684 -0.0862
 7844SOL    HW234992   1.997   1.243   2.860  0.5102 -2.0459  0.5860
 7845SOL     OW34993   3.166   1.276   8.470  0.0333  0.0257 -0.4778
 7845SOL    HW134994   3.167   1.242   8.560  0.6799 -1.1735 -0.9302
 7845SOL    HW234995   3.258   1.260   8.448  0.1334  2.0227 -1.4434
 7846SOL     OW34996   2.900   0.570   3.203  0.6280 -0.3491 -0.8451
 7846SOL    HW134997   2.843   0.503   3.240  1.3784 -0.1551  0.6665
 7846SOL    HW234998   2.932   0.603   3.287 -0.1689  1.4426 -1.2457
 7847SOL     OW34999   2.334   2.554   2.840 -0.4994  0.1542  0.0585
 7847SOL    HW135000   2.309   2.552   2.748  0.3461  1.1279 -0.1835
 7847SOL    HW235001   2.355   2.646   2.855 -0.1214 -0.2290  1.9778
 7848SOL     OW35002   0.200   2.940  10.280  0.0684  0.3571  0.0187
 7848SOL    HW135003   0.180   2.921  10.188 -0.1829  2.1822 -0.3154
 7848SOL    HW235004   0.132   3.005  10.297 -1.5381 -0.4084 -3.4183
 7849SOL     OW35005   4.066   1.103   6.773 -0.2311 -0.4215  0.9732
 7849SOL    HW135006   4.085   1.064   6.858  1.7148 -1.1156  0.2291
 7849SOL    HW235007   4.076   1.198   6.783 -0.5958 -0.3360  0.5251
 7850SOL     OW35008   2.202   0.024  10.476  0.1566 -0.4156  0.4308
 7850SOL    HW135009   2.183   0.022  10.570 -2.0501  0.8355  0.0207
 7850SOL    HW235010   2.290   4.707  10.486 -0.7632 -2.6740  0.5166
 7851SOL     OW35011   1.269   1.384  15.731 -0.0592 -0.6920  0.2861
 7851SOL    HW135012   1.320   1.303  15.735 -0.5948 -0.9348  2.5071
 7851SOL    HW235013   1.242   1.393  15.823  4.0571 -1.6214  1.6015
 7852SOL     OW35014   3.616   2.878   8.836 -0.1963 -0.0149  0.6600
 7852SOL    HW135015   3.608   2.951   8.898  0.5536  1.8449 -1.4142
 7852SOL    HW235016   3.564   2.813   8.882  0.4134  0.6928  2.3651
 7853SOL     OW35017   0.073   3.061   7.625 -0.0523  0.0823  0.2707
 7853SOL    HW135018   0.147   3.002   7.637 -1.0024 -1.1373  0.2298
 7853SOL    HW235019   4.716   3.002   7.620 -0.9495  1.4477 -1.9437
 7854SOL     OW35020   2.251   0.444   7.694  0.0501  0.2106 -0.4131
 7854SOL    HW135021   2.321   0.396   7.649 -0.3736  1.1303 -2.0153
 7854SOL    HW235022   2.176   0.393   7.663  0.7041 -1.2280  0.3810
 7855SOL     OW35023   3.492   4.349  17.560  0.0028 -0.0099 -0.2296
 7855SOL    HW135024   3.408   4.303  17.553 -0.1172 -0.5263  4.6456
 7855SOL    HW235025   3.547   4.304  17.496  0.1388  0.4309 -0.4214
 7856SOL     OW35026   2.636   0.817   5.984  0.2727 -0.4346 -0.2204
 7856SOL    HW135027   2.569   0.785   6.045  0.2720  1.0359  0.5535
 7856SOL    HW235028   2.651   0.742   5.927  2.1636 -0.5605  0.4419
 7857SOL     OW35029   0.035   4.326   5.281 -0.1878  0.1220 -0.0632
 7857SOL    HW135030   4.664   4.296   5.265  0.0063 -0.4107 -0.1500
 7857SOL    HW235031   0.056   4.375   5.202  2.1640 -0.6081  0.1179
 7858SOL     OW35032   2.165   3.117   6.842  0.4386 -0.0286  0.2687
 7858SOL    HW135033   2.233   3.138   6.906  2.0755 -0.9296 -1.1617
 7858SOL    HW235034   2.210   3.061   6.779 -2.1342 -2.2788  0.4518
 7859SOL     OW35035   3.421   0.558   5.179 -0.0930 -0.0529  0.1783
 7859SOL    HW135036   3.414   0.613   5.257 -0.8197 -1.5208  1.1555
 7859SOL    HW235037   3.482   0.493   5.214 -0.2246  1.0376  2.4739
 7860SOL     OW35038   0.883   3.905   5.800 -0.0463 -0.2295  0.0927
 7860SOL    HW135039   0.864   3.977   5.861  0.5239 -0.2543  0.2982
 7860SOL    HW235040   0.820   3.925   5.731  0.8293 -1.3509 -1.0244
 7861SOL     OW35041   2.133   0.323  16.259  0.0336 -0.2371  0.0555
 7861SOL    HW135042   2.227   0.303  16.252 -0.0740 -0.7315  0.0260
 7861SOL    HW235043   2.093   0.264  16.323  0.8853 -0.7920  0.0777
 7862SOL     OW35044   1.155   0.425  11.570 -0.3247  0.1148  0.5412
 7862SOL    HW135045   1.250   0.418  11.555 -0.4653 -0.6422  0.0058
 7862SOL    HW235046   1.131   0.477  11.493  2.1272 -0.9884 -0.9721
 7863SOL     OW35047   0.183   4.181  16.223 -0.1359  0.0752 -0.1166
 7863SOL    HW135048   0.105   4.125  16.233  1.0010 -1.7999 -1.7041
 7863SOL    HW235049   0.245   4.118  16.262 -1.0371 -0.5886  0.2635
 7864SOL     OW35050   2.461   1.732   4.900  0.2453  0.3655 -0.4548
 7864SOL    HW135051   2.544   1.780   4.897  1.6652 -2.0616 -0.2056
 7864SOL    HW235052   2.417   1.769   4.824  1.1941  1.6021 -0.4119
 7865SOL     OW35053   4.222   2.341   8.083 -0.3716 -0.5127 -0.1452
 7865SOL    HW135054   4.240   2.332   8.176  1.6390  0.5439 -0.4111
 7865SOL    HW235055   4.262   2.262   8.045 -1.5617 -1.5186  0.7111
 7866SOL     OW35056   2.405   0.149   8.392  0.0008  0.1742  0.2604
 7866SOL    HW135057   2.402   0.151   8.297  0.1019 -0.1261  0.2518
 7866SOL    HW235058   2.460   0.223   8.418  0.8525 -0.4648  0.2838
 7867SOL     OW35059   4.093   3.113  16.739  0.3595 -0.2341  0.0515
 7867SOL    HW135060   4.044   3.149  16.813  1.0799  1.6682 -0.3974
 7867SOL    HW235061   4.022   3.056  16.711  0.7481 -0.2365 -0.9333
 7868SOL     OW35062   4.335   0.163   6.879  0.0890 -0.0848 -0.4168
 7868SOL    HW135063   4.319   0.076   6.844 -0.1634 -0.3955  0.4490
 7868SOL    HW235064   4.352   0.209   6.797 -1.2733 -3.4869 -2.5726
 7869SOL     OW35065   0.936   2.081  12.135  0.0487 -0.8408  0.1236
 7869SOL    HW135066   0.944   2.174  12.158  2.2417 -0.8581 -0.5576
 7869SOL    HW235067   0.841   2.074  12.140  0.0546 -1.4260 -0.5420
 7870SOL     OW35068   0.779   3.543   0.374  0.0493  0.3831 -0.4400
 7870SOL    HW135069   0.858   3.533   0.427 -0.6045 -1.3162  0.2156
 7870SOL    HW235070   0.799   3.477   0.308  1.1590  0.1968  0.0930
 7871SOL     OW35071   4.232   4.153   3.284 -0.3283 -0.0240 -0.2041
 7871SOL    HW135072   4.314   4.199   3.298 -1.4876  2.0048 -0.0545
 7871SOL    HW235073   4.218   4.173   3.192  0.6895  2.6346  0.2133
 7872SOL     OW35074   0.521   2.446   3.580  0.0614 -0.1893 -0.0314
 7872SOL    HW135075   0.524   2.383   3.651 -2.0486 -1.1073 -0.7540
 7872SOL    HW235076   0.505   2.393   3.502 -1.8161 -1.7862  1.4860
 7873SOL     OW35077   1.534   2.670  17.127  0.8003 -0.2325 -0.7453
 7873SOL    HW135078   1.561   2.591  17.079 -0.2881 -1.2701  0.3540
 7873SOL    HW235079   1.591   2.740  17.096 -1.1471  0.8383 -1.8955
 7874SOL     OW35080   4.557   3.664   5.955 -0.1494  0.6429  0.1284
 7874SOL    HW135081   4.559   3.568   5.952  0.9645  0.6728  0.1233
 7874SOL    HW235082   4.475   3.689   5.999 -0.0748 -0.2221  0.7531
 7875SOL     OW35083   3.937   2.876   6.562 -0.3287  0.2826  0.1140
 7875SOL    HW135084   3.853   2.833   6.547  1.4878 -2.9507 -0.8281
 7875SOL    HW235085   3.928   2.948   6.500  2.2972  1.3001  0.9401
 7876SOL     OW35086   4.242   4.623   7.137 -0.4320 -0.1969 -0.2265
 7876SOL    HW135087   4.217   4.533   7.119 -1.2183 -0.0114 -0.0823
 7876SOL    HW235088   4.203   4.667   7.062  2.3625  1.8673 -0.4654
 7877SOL     OW35089   2.341   1.706   3.840  0.4097 -0.2597  0.3107
 7877SOL    HW135090   2.352   1.677   3.749 -2.0522 -0.1731 -0.0136
 7877SOL    HW235091   2.327   1.797   3.814  0.5182  0.3190  2.2772
 7878SOL     OW35092   1.719   3.269   7.528 -0.4820  0.2932 -0.2160
 7878SOL    HW135093   1.774   3.210   7.477 -2.4373  0.9579 -3.1154
 7878SOL    HW235094   1.672   3.210   7.586 -1.0133 -0.0257 -0.9643
 7879SOL     OW35095   3.686   1.972   9.494 -0.3574 -0.6801  0.4143
 7879SOL    HW135096   3.729   1.907   9.549 -1.6804 -1.1271  0.9301
 7879SOL    HW235097   3.598   1.970   9.532 -0.1897  3.5310  1.0086
 7880SOL     OW35098   0.182   4.513   5.417 -0.8076  0.3968 -0.9458
 7880SOL    HW135099   0.234   4.556   5.349 -1.2263 -0.0196 -1.5284
 7880SOL    HW235100   0.155   4.433   5.372 -0.8019 -0.7882  1.1848
 7881SOL     OW35101   1.144   1.313  15.438  0.4439  0.4616  0.1381
 7881SOL    HW135102   1.092   1.234  15.423 -0.7499  1.5787 -1.5798
 7881SOL    HW235103   1.173   1.294  15.527  3.4258  1.8504 -0.5307
 7882SOL     OW35104   2.757   0.185   1.817 -0.0063 -0.1047  0.2984
 7882SOL    HW135105   2.694   0.250   1.849  1.3518  0.6732  1.4225
 7882SOL    HW235106   2.794   0.156   1.900  0.0919  2.0329  0.9922
 7883SOL     OW35107   3.732   2.456   8.397 -0.1616 -0.1780 -0.1461
 7883SOL    HW135108   3.755   2.473   8.306 -2.2008 -0.0817 -0.6470
 7883SOL    HW235109   3.661   2.392   8.406  0.1441 -0.2934  1.4298
 7884SOL     OW35110   2.365   4.035   3.043 -0.6853 -0.2069 -0.1823
 7884SOL    HW135111   2.433   4.097   3.069 -1.7031  0.2813  1.2675
 7884SOL    HW235112   2.398   4.005   2.958 -1.8745 -1.1914 -0.2849
 7885SOL     OW35113   2.843   0.157   6.228 -0.4201  0.3533 -0.1419
 7885SOL    HW135114   2.895   0.237   6.230  0.0497  0.0338  0.5220
 7885SOL    HW235115   2.897   0.105   6.288 -0.3282  0.0787 -0.4683
 7886SOL     OW35116   2.969   1.788   6.155  0.3137  0.0153 -0.1191
 7886SOL    HW135117   3.039   1.745   6.105 -0.3220 -0.5345 -0.5308
 7886SOL    HW235118   3.010   1.781   6.241 -0.8228 -1.4466  0.3026
 7887SOL     OW35119   0.112   3.851   9.089 -0.3743 -0.2576  0.1035
 7887SOL    HW135120   0.137   3.789   9.157  3.2298  0.5548 -0.4668
 7887SOL    HW235121   0.117   3.933   9.137  0.2481 -0.2733  0.0567
 7888SOL     OW35122   3.067   2.661   7.062 -0.4025 -0.3246  0.5330
 7888SOL    HW135123   3.066   2.693   6.972 -0.2433 -0.4310  0.4937
 7888SOL    HW235124   3.063   2.568   7.041  0.1530 -0.3621  0.6000
 7889SOL     OW35125   2.328   3.905  15.414 -0.5522 -0.1766  0.0453
 7889SOL    HW135126   2.289   3.965  15.350  1.4101 -0.1662 -1.1374
 7889SOL    HW235127   2.372   3.973  15.465  0.1839 -0.7869  0.2120
 7890SOL     OW35128   2.067   0.002   4.005  0.4919 -0.8948  0.3055
 7890SOL    HW135129   1.982   0.035   4.036 -1.0788 -2.8263 -1.9178
 7890SOL    HW235130   2.043   4.628   4.014  1.0030 -1.0298  0.2342
 7891SOL     OW35131   2.327   1.444   3.943  0.1106 -0.2073 -0.0739
 7891SOL    HW135132   2.242   1.476   3.913 -0.5986 -2.0963 -0.0698
 7891SOL    HW235133   2.372   1.527   3.957  1.2775 -0.8497  0.0066
 7892SOL     OW35134   2.706   2.213   0.633  0.2542  0.4931 -0.0432
 7892SOL    HW135135   2.650   2.285   0.602  0.9016  1.6467  1.4366
 7892SOL    HW235136   2.655   2.141   0.596 -0.4576  0.6562  0.6030
 7893SOL     OW35137   1.499   0.728   7.884  0.4403 -0.0455 -0.5383
 7893SOL    HW135138   1.408   0.702   7.869  0.8916 -1.6870 -0.3289
 7893SOL    HW235139   1.544   0.657   7.840  0.8268 -0.6366  0.8287
 7894SOL     OW35140   2.143   3.174   4.659  0.4026  0.2159 -0.2442
 7894SOL    HW135141   2.204   3.237   4.695  3.3943 -1.5508 -2.1729
 7894SOL    HW235142   2.158   3.087   4.696  0.8749 -0.5064 -2.0947
 7895SOL     OW35143   3.405   3.736   5.767 -0.1228  0.1171 -0.4421
 7895SOL    HW135144   3.349   3.740   5.844 -1.7187 -0.3035 -1.5721
 7895SOL    HW235145   3.358   3.661   5.730 -0.7858  1.4435 -2.3335
 7896SOL     OW35146   1.585   0.040   9.889  0.1024 -0.1081  0.3096
 7896SOL    HW135147   1.510   4.711   9.855  0.7358  0.4927 -1.9266
 7896SOL    HW235148   1.569   0.008   9.978 -0.6264 -0.6440 -0.0187
 7897SOL     OW35149   1.723   3.868   3.354 -0.1969 -0.1695  0.2343
 7897SOL    HW135150   1.776   3.897   3.279  0.3414 -0.2254  0.5880
 7897SOL    HW235151   1.718   3.775   3.332  2.5611  0.4880 -3.1937
 7898SOL     OW35152   0.326   4.005  10.165 -0.5200 -0.1516 -0.0307
 7898SOL    HW135153   0.301   3.955  10.242  1.3258 -1.3627 -0.1918
 7898SOL    HW235154   0.273   3.965  10.096  1.5489  1.4093 -2.5152
 7899SOL     OW35155   2.135   0.629  17.330 -0.2965 -0.1970 -1.0256
 7899SOL    HW135156   2.102   0.625  17.240 -0.9132 -0.5547 -0.7841
 7899SOL    HW235157   2.226   0.604  17.312 -0.2597 -2.1049  1.8248
 7900SOL     OW35158   2.846   3.968   9.920 -0.0803  0.1358  0.6742
 7900SOL    HW135159   2.924   3.946   9.869 -1.3425  0.0861 -1.2383
 7900SOL    HW235160   2.874   3.948  10.009  1.8132  3.2933  0.7578
 7901SOL     OW35161   4.701   1.271   6.074 -0.0736  0.4539  0.8864
 7901SOL    HW135162   0.054   1.246   6.016 -1.5489 -0.9994 -0.3007
 7901SOL    HW235163   4.633   1.285   6.008  1.1254 -2.6499 -0.9994
 7902SOL     OW35164   1.816   0.246   9.143 -0.0395  0.0818  0.3108
 7902SOL    HW135165   1.727   0.216   9.127  0.2146 -1.2787  1.4079
 7902SOL    HW235166   1.853   0.173   9.193  1.2671  0.4845 -0.0693
 7903SOL     OW35167   1.980   2.445   9.342  0.3384 -0.1980 -0.2197
 7903SOL    HW135168   2.075   2.444   9.333  0.0758 -1.0251 -2.6437
 7903SOL    HW235169   1.967   2.533   9.379  1.7369 -0.2711  0.4314
 7904SOL     OW35170   3.887   4.569  10.288 -0.7366  0.0042  0.0435
 7904SOL    HW135171   3.867   4.507  10.218 -0.7554 -0.5602  0.5479
 7904SOL    HW235172   3.972   4.603  10.261 -2.1871  2.4964 -1.4141
 7905SOL     OW35173   0.195   3.720   9.651  0.4053 -0.2860  0.5954
 7905SOL    HW135174   0.194   3.650   9.716  0.8722  0.0507  0.9653
 7905SOL    HW235175   0.235   3.784   9.709 -2.1576  1.8667 -0.0073
 7906SOL     OW35176   3.622   0.470   6.099  0.1020  0.4074 -0.0345
 7906SOL    HW135177   3.574   0.387   6.105  2.0297 -0.4927  2.6317
 7906SOL    HW235178   3.687   0.479   6.168  1.3137 -2.2376 -0.8212
 7907SOL     OW35179   0.715   2.256   8.349  0.7681 -0.3405  0.4341
 7907SOL    HW135180   0.703   2.259   8.444 -2.4881 -1.9878  0.0601
 7907SOL    HW235181   0.757   2.339   8.329  0.4386 -0.5803 -1.2608
 7908SOL     OW35182   0.085   2.402  15.159 -0.0694  0.0738  0.2506
 7908SOL    HW135183   0.161   2.369  15.110  1.0289  1.6935  0.8732
 7908SOL    HW235184   0.122   2.419  15.245  0.5117 -0.5931  0.1381
 7909SOL     OW35185   2.051   3.944   8.852  0.6504 -0.3741  0.0145
 7909SOL    HW135186   1.959   3.926   8.833  0.1930  1.5699  0.3403
 7909SOL    HW235187   2.060   3.895   8.933 -1.7553 -0.6935  0.0846
 7910SOL     OW35188   3.155   0.235   7.657 -0.1004 -0.5862  0.2406
 7910SOL    HW135189   3.069   0.274   7.648  0.6860  0.9415 -0.6876
 7910SOL    HW235190   3.138   0.184   7.736 -1.0421  0.5890  0.7886
 7911SOL     OW35191   4.518   4.582   9.574 -0.1648 -0.0857  0.2166
 7911SOL    HW135192   4.511   4.662   9.626 -1.2032  0.9594 -1.5554
 7911SOL    HW235193   4.610   4.561   9.594  0.2425 -1.1906 -2.6940
 7912SOL     OW35194   1.251   4.329   2.385  0.1424 -0.1971  0.1181
 7912SOL    HW135195   1.341   4.316   2.415  0.6056  0.3939 -1.0215
 7912SOL    HW235196   1.261   4.338   2.290  1.1767  0.8000  0.3251
 7913SOL     OW35197   3.300   0.233  13.229 -0.0211 -0.3816  0.1510
 7913SOL    HW135198   3.215   0.189  13.217 -0.2735 -0.3836  1.8411
 7913SOL    HW235199   3.281   0.327  13.226 -1.1575 -0.6408 -0.9613
 7914SOL     OW35200   4.635   0.492   7.018  0.4964  0.1077 -0.2801
 7914SOL    HW135201   4.605   0.405   7.046 -1.7172  0.6036 -1.0680
 7914SOL    HW235202   0.002   0.478   6.979  0.5681 -0.9831  0.2727
 7915SOL     OW35203   4.313   3.008  11.945 -0.0875 -0.4135 -0.4211
 7915SOL    HW135204   4.345   2.953  11.873 -1.8569  1.2212 -2.4576
 7915SOL    HW235205   4.394   3.053  11.967 -1.0133  1.4279 -0.7578
 7916SOL     OW35206   1.597   3.326   2.646 -0.2249  0.6385 -0.5603
 7916SOL    HW135207   1.599   3.418   2.670 -0.7067 -0.0465  2.0952
 7916SOL    HW235208   1.518   3.321   2.592 -0.5357 -1.8101  0.0914
 7917SOL     OW35209   2.343   2.341   9.927 -0.0489  0.2094 -0.3277
 7917SOL    HW135210   2.326   2.332   9.833 -2.2256 -0.5204  0.1319
 7917SOL    HW235211   2.428   2.303   9.947  0.5228  1.8581  0.3328
 7918SOL     OW35212   3.638   2.017   2.861  0.6907  0.1909  0.0390
 7918SOL    HW135213   3.571   2.006   2.929 -0.4417  0.7517 -0.9706
 7918SOL    HW235214   3.610   1.950   2.798 -1.6566 -0.1258  1.3901
 7919SOL     OW35215   3.245   2.561   8.947 -0.0909  0.8015  0.1287
 7919SOL    HW135216   3.199   2.550   9.031 -0.4056  0.5342 -0.0783
 7919SOL    HW235217   3.331   2.591   8.975 -0.1599  2.2062 -1.1957
 7920SOL     OW35218   0.450   2.031   5.641  0.1120 -0.1502  0.2008
 7920SOL    HW135219   0.365   2.011   5.600 -0.2422 -1.0532  1.3784
 7920SOL    HW235220   0.470   1.943   5.672  0.0541 -0.3029 -0.1938
 7921SOL     OW35221   4.261   0.484   2.366  0.5619  0.0236  0.3280
 7921SOL    HW135222   4.280   0.423   2.437 -1.5124  1.1813  1.9224
 7921SOL    HW235223   4.187   0.431   2.336  0.2004  0.9437 -0.3977
 7922SOL     OW35224   2.178   1.077  16.471  0.8443 -0.0500 -0.9750
 7922SOL    HW135225   2.134   1.156  16.439 -1.8912 -0.7804  0.9464
 7922SOL    HW235226   2.226   1.115  16.544 -0.4930  0.1274 -0.1845
 7923SOL     OW35227   1.921   3.081  12.986  0.1855  0.1286  0.3700
 7923SOL    HW135228   1.850   3.055  13.045  1.5263  0.6799  2.2530
 7923SOL    HW235229   1.888   3.171  12.975 -1.7703 -0.8396 -1.7079
 7924SOL     OW35230   2.647   4.500  10.563  0.0471  0.1217  0.7876
 7924SOL    HW135231   2.723   4.475  10.511 -1.5318 -1.3803 -0.8213
 7924SOL    HW235232   2.690   4.499  10.648 -1.1526  0.2959  1.4029
 7925SOL     OW35233   1.243   2.586  15.018  0.6537  0.5516 -0.2863
 7925SOL    HW135234   1.184   2.515  15.045  1.6006  0.1831  0.7812
 7925SOL    HW235235   1.237   2.650  15.089  1.8924  0.0754  0.2454
 7926SOL     OW35236   0.037   3.150  10.088  0.5138 -1.0119  0.0517
 7926SOL    HW135237   0.071   3.062  10.071  0.9129 -0.9120  0.3348
 7926SOL    HW235238   4.676   3.139  10.036 -0.8499  1.1358  1.7215
 7927SOL     OW35239   3.605   0.480   1.892  0.3610  0.0727  0.4743
 7927SOL    HW135240   3.522   0.466   1.847  0.3959  2.6706 -0.4046
 7927SOL    HW235241   3.636   0.390   1.884  0.5679  0.2255 -0.4352
 7928SOL     OW35242   2.451   1.410  12.433 -0.2604  0.2820 -0.9005
 7928SOL    HW135243   2.418   1.485  12.384  1.6985  2.2368  0.7842
 7928SOL    HW235244   2.374   1.355  12.449 -0.0071  1.3013  3.9546
 7929SOL     OW35245   1.536   3.014   6.532 -0.1717 -0.1649  1.0526
 7929SOL    HW135246   1.589   3.037   6.608  0.0148  3.0944 -0.0749
 7929SOL    HW235247   1.516   2.921   6.546  0.4298 -0.2521  1.3374
 7930SOL     OW35248   0.278   3.087   6.809 -0.2186 -0.2654  0.0673
 7930SOL    HW135249   0.286   3.175   6.846  1.8730 -0.9085  1.1682
 7930SOL    HW235250   0.184   3.096   6.794 -0.2726 -0.2012  0.4441
 7931SOL     OW35251   2.157   2.517  10.831 -0.2227  0.3040 -0.4574
 7931SOL    HW135252   2.151   2.606  10.867  3.1105 -0.4818  1.9459
 7931SOL    HW235253   2.093   2.467  10.881 -1.6105  1.3560 -1.1525
 7932SOL     OW35254   3.943   0.463   6.813  0.3201 -0.6486 -0.7016
 7932SOL    HW135255   3.982   0.506   6.737 -0.1920 -1.1625 -1.2534
 7932SOL    HW235256   3.946   0.372   6.785  0.5762 -0.7346 -0.3988
 7933SOL     OW35257   4.422   0.288  12.004  0.5869 -0.8797  0.2830
 7933SOL    HW135258   4.407   0.223  11.936  0.5765  0.6268 -1.1503
 7933SOL    HW235259   4.516   0.281  12.022  1.0656 -0.2991 -2.0031
 7934SOL     OW35260   3.955   3.813  12.149 -0.1283 -0.3594 -0.0532
 7934SOL    HW135261   4.033   3.758  12.153 -0.5119 -0.8894  0.0359
 7934SOL    HW235262   3.970   3.853  12.063 -2.2872  0.6174  0.0260
 7935SOL     OW35263   1.409   1.620  13.433 -0.3143 -0.4274 -0.2608
 7935SOL    HW135264   1.499   1.591  13.420  0.1926  1.1244 -0.2660
 7935SOL    HW235265   1.358   1.548  13.396 -0.4150  1.1831 -3.2458
 7936SOL     OW35266   0.630   3.069  12.784 -0.8236 -0.1566 -0.2743
 7936SOL    HW135267   0.627   3.071  12.688  3.8234 -0.1764 -0.4286
 7936SOL    HW235268   0.575   2.992  12.801 -0.8524 -0.2304 -0.6930
 7937SOL     OW35269   0.828   1.841   3.975  0.0089 -0.2730  0.1799
 7937SOL    HW135270   0.845   1.787   4.052  0.5799  0.8412  0.8331
 7937SOL    HW235271   0.813   1.770   3.913 -1.1837 -0.1245  0.2986
 7938SOL     OW35272   2.810   2.870   9.311 -0.1949  0.6057 -0.1255
 7938SOL    HW135273   2.761   2.929   9.367 -0.2088  0.9047 -0.4512
 7938SOL    HW235274   2.756   2.875   9.232 -0.0418  2.6555 -0.1156
 7939SOL     OW35275   1.450   3.963   4.549 -0.1766  0.8867 -0.0948
 7939SOL    HW135276   1.476   3.895   4.611  0.3053  1.4468  0.3174
 7939SOL    HW235277   1.367   3.930   4.515 -0.6857  0.5188  1.4688
 7940SOL     OW35278   3.175   0.803  14.469 -0.1362 -0.0108 -0.4206
 7940SOL    HW135279   3.152   0.732  14.529  1.4510  0.8135  1.1556
 7940SOL    HW235280   3.174   0.876  14.531  0.7369 -0.3398 -0.0309
 7941SOL     OW35281   1.313   0.193   1.225  0.3179 -0.0683  0.3392
 7941SOL    HW135282   1.382   0.210   1.160  1.7623  0.4179  2.0016
 7941SOL    HW235283   1.368   0.188   1.303  0.9551  0.7340 -0.0614
 7942SOL     OW35284   2.123   3.993   3.558 -0.1762 -0.3661  0.2930
 7942SOL    HW135285   2.178   3.956   3.627  0.8106 -1.2810 -0.9838
 7942SOL    HW235286   2.062   4.038   3.616  1.6920  0.8132  1.3300
 7943SOL     OW35287   4.217   0.653  10.790 -0.0715 -0.1808 -0.4353
 7943SOL    HW135288   4.219   0.592  10.717  1.5045 -0.8748  0.1762
 7943SOL    HW235289   4.307   0.685  10.794 -0.0909  0.1037 -2.5874
 7944SOL     OW35290   2.482   4.469  13.620  0.2852  0.0958 -0.1487
 7944SOL    HW135291   2.488   4.552  13.667  1.0432 -0.6851  1.1233
 7944SOL    HW235292   2.398   4.486  13.577  1.3054  0.1935 -2.0867
 7945SOL     OW35293   2.827   3.416  10.844  0.3460  0.3116 -0.3955
 7945SOL    HW135294   2.790   3.356  10.779  1.0903  0.0985 -0.6293
 7945SOL    HW235295   2.780   3.389  10.923  0.8795 -0.3981 -0.3222
 7946SOL     OW35296   2.287   0.081   9.117  0.2057 -0.2342  0.6956
 7946SOL    HW135297   2.280   0.070   9.212  1.3576  0.9648  0.9200
 7946SOL    HW235298   2.325   0.167   9.104  1.5931 -1.3574 -2.7243
 7947SOL     OW35299   2.831   0.558  16.265 -0.1079  0.2887 -0.8303
 7947SOL    HW135300   2.891   0.508  16.320  0.8883  0.7029 -1.5176
 7947SOL    HW235301   2.789   0.614  16.330 -0.4469 -1.2163  0.2434
 7948SOL     OW35302   2.450   4.048   6.881 -0.2057 -0.2089 -0.5270
 7948SOL    HW135303   2.474   4.120   6.940  0.3277 -1.3143  0.6028
 7948SOL    HW235304   2.421   3.981   6.942  1.0117 -0.1386  0.1365
 7949SOL     OW35305   1.912   4.071   8.071  0.2591 -0.1693 -0.0868
 7949SOL    HW135306   1.846   4.055   8.139 -2.2290  0.8050 -2.2903
 7949SOL    HW235307   1.925   4.165   8.082 -0.2358 -0.3718  2.1999
 7950SOL     OW35308   3.133   2.447   9.546 -0.3672 -0.1532  0.1216
 7950SOL    HW135309   3.059   2.420   9.491 -0.0572 -0.6160 -0.0745
 7950SOL    HW235310   3.086   2.522   9.583 -1.3642  0.2166 -1.8990
 7951SOL     OW35311   2.619   4.179   5.390  0.4519  0.5941  0.1605
 7951SOL    HW135312   2.624   4.166   5.484  1.0399  2.5336  0.4120
 7951SOL    HW235313   2.531   4.212   5.371  0.2514  0.5023  0.9324
 7952SOL     OW35314   2.913   4.576   6.320  0.1631  0.5000 -0.0151
 7952SOL    HW135315   2.999   4.616   6.304  0.9784 -0.5948  1.6518
 7952SOL    HW235316   2.911   4.491   6.275  1.9470 -1.1720  3.1026
 7953SOL     OW35317   2.145   2.639  14.480  0.5052  0.0718  0.2906
 7953SOL    HW135318   2.179   2.597  14.560  2.7607 -1.4428 -1.4509
 7953SOL    HW235319   2.193   2.586  14.416 -0.0598 -1.6713  1.2975
 7954SOL     OW35320   1.404   3.105   3.262  0.1232 -0.2054 -0.4718
 7954SOL    HW135321   1.491   3.139   3.242 -0.0888  1.9326  2.1704
 7954SOL    HW235322   1.351   3.184   3.252 -0.4468 -1.0804 -4.1831
 7955SOL     OW35323   3.642   3.107   8.654  0.0511 -0.3543 -0.2577
 7955SOL    HW135324   3.547   3.101   8.662 -0.1577  0.2898 -2.4898
 7955SOL    HW235325   3.672   3.055   8.729 -0.0065  0.8609  0.6071
 7956SOL     OW35326   1.653   3.852   3.870 -0.2635 -0.4662  0.1443
 7956SOL    HW135327   1.694   3.938   3.870 -1.1504 -0.0475  0.5559
 7956SOL    HW235328   1.727   3.795   3.853 -0.2701 -0.4425  0.0334
 7957SOL     OW35329   3.447   3.548   2.806 -0.1963 -0.1732 -0.0169
 7957SOL    HW135330   3.493   3.508   2.732 -0.2928 -0.6397  0.1707
 7957SOL    HW235331   3.479   3.636   2.791 -1.8790  0.4413 -0.0491
 7958SOL     OW35332   4.138   0.571   6.323 -0.3369 -0.2078  0.1780
 7958SOL    HW135333   4.229   0.598   6.329 -0.1123 -0.6625 -1.1018
 7958SOL    HW235334   4.097   0.654   6.299 -0.0340  0.3181  1.4850
 7959SOL     OW35335   3.632   3.040  16.859  0.3069  0.1512 -0.3041
 7959SOL    HW135336   3.615   3.134  16.866  1.5222  0.5493 -2.5433
 7959SOL    HW235337   3.720   3.030  16.896 -1.2180 -3.0151  2.4257
 7960SOL     OW35338   4.356   3.562   9.992 -0.4998  0.0946 -0.9526
 7960SOL    HW135339   4.268   3.599   9.998 -0.5572 -0.4810  1.5762
 7960SOL    HW235340   4.399   3.645  10.013 -1.5153  0.2890  0.3704
 7961SOL     OW35341   2.559   4.283  11.895 -0.0723  0.1987  0.2723
 7961SOL    HW135342   2.551   4.379  11.896 -2.9082 -0.0167 -1.1492
 7961SOL    HW235343   2.536   4.255  11.984 -2.2029 -0.1948 -0.4089
 7962SOL     OW35344   0.623   1.778  15.637  0.0331 -0.3043  0.8798
 7962SOL    HW135345   0.617   1.697  15.689  2.9388 -2.1344 -1.6409
 7962SOL    HW235346   0.539   1.784  15.593 -0.7226  1.7968  2.6258
 7963SOL     OW35347   1.504   0.918  13.247  0.2395  0.2499 -0.4809
 7963SOL    HW135348   1.548   0.841  13.284 -2.8890 -1.1827  0.2009
 7963SOL    HW235349   1.414   0.889  13.259  0.4987 -1.0817 -1.7000
 7964SOL     OW35350   3.629   0.226  16.563  0.2321 -0.0093  0.0107
 7964SOL    HW135351   3.579   0.303  16.590 -0.6476 -0.5597 -0.0682
 7964SOL    HW235352   3.670   0.205  16.647  0.5809  1.2622  0.1639
 7965SOL     OW35353   0.504   4.101  17.636 -0.6430  0.0169  0.0437
 7965SOL    HW135354   0.473   4.025   0.006 -0.8978 -0.4795 -0.8933
 7965SOL    HW235355   0.464   4.076  17.552 -0.3067  1.6257 -0.6039
 7966SOL     OW35356   4.669   2.799   3.145 -0.5779 -0.2214 -0.0167
 7966SOL    HW135357   4.700   2.888   3.126 -1.7035  0.0645 -0.4880
 7966SOL    HW235358   0.006   2.784   3.222  0.8792  2.2558 -0.5912
 7967SOL     OW35359   4.673   0.250   4.420 -0.1649 -0.2676  0.1628
 7967SOL    HW135360   4.652   0.299   4.499  1.2588  1.2108 -0.3759
 7967SOL    HW235361   4.600   0.283   4.367  1.0373  2.6158  0.2884
 7968SOL     OW35362   2.239   3.420  15.483  0.5273 -0.5148  0.5016
 7968SOL    HW135363   2.214   3.505  15.449  2.3061 -0.5365 -0.8344
 7968SOL    HW235364   2.209   3.381  15.401 -0.8179  1.3694  0.0978
 7969SOL     OW35365   3.044   1.991   0.237  0.3661  0.2452 -0.1882
 7969SOL    HW135366   3.031   2.070   0.290  0.2189 -0.4554  0.8230
 7969SOL    HW235367   3.125   2.005   0.188 -0.7754 -0.4780 -2.2964
 7970SOL     OW35368   2.948   1.248   3.652  0.1388 -0.2959 -0.0868
 7970SOL    HW135369   2.858   1.220   3.669  0.3458 -1.9582 -1.7137
 7970SOL    HW235370   2.946   1.339   3.681 -0.3775  0.7776 -3.4643
 7971SOL     OW35371   0.852   2.671   3.942 -0.4071 -0.1220  0.5834
 7971SOL    HW135372   0.923   2.685   4.004  0.1092 -2.0714  0.4302
 7971SOL    HW235373   0.802   2.605   3.990  2.0397 -1.3161  1.4886
 7972SOL     OW35374   3.331   4.261   6.142 -0.2461 -0.1281 -0.3618
 7972SOL    HW135375   3.299   4.256   6.233 -1.2456  2.9756 -0.5240
 7972SOL    HW235376   3.289   4.345   6.121  3.1397  1.0929 -2.1387
 7973SOL     OW35377   1.684   1.624   0.965 -0.4955 -0.0867 -0.0235
 7973SOL    HW135378   1.776   1.619   0.940 -1.2032 -1.9978 -2.3008
 7973SOL    HW235379   1.686   1.587   1.053 -0.7846 -0.2859 -0.0996
 7974SOL     OW35380   4.438   3.516   5.444  0.2537  0.1104 -0.2498
 7974SOL    HW135381   4.495   3.593   5.451  1.2318 -0.6644  0.3104
 7974SOL    HW235382   4.502   3.444   5.440  0.0711  0.1119 -2.9827
 7975SOL     OW35383   1.419   1.131  15.823 -0.0522 -0.1812  0.3900
 7975SOL    HW135384   1.471   1.062  15.783 -1.2403 -0.3337 -0.8808
 7975SOL    HW235385   1.390   1.094  15.907 -3.0854  0.3711 -0.4204
 7976SOL     OW35386   0.127   4.063   4.865 -0.0350 -0.3481 -0.8383
 7976SOL    HW135387   0.104   4.156   4.865 -1.8221 -0.7853 -0.5952
 7976SOL    HW235388   0.165   4.056   4.778 -1.8309 -1.6231 -1.5418
 7977SOL     OW35389   2.158   4.377  10.315  0.0053 -0.0324 -0.0112
 7977SOL    HW135390   2.220   4.401  10.246  0.8516 -1.1308  0.3606
 7977SOL    HW235391   2.223   4.334  10.371 -0.4923 -1.1908 -0.3070
 7978SOL     OW35392   2.107   4.149   0.654  0.4877  0.6048  0.6153
 7978SOL    HW135393   2.015   4.156   0.677  0.4786 -1.2326  1.1916
 7978SOL    HW235394   2.109   4.102   0.570  2.0035  2.0216 -0.1419
 7979SOL     OW35395   4.534   2.065  16.940 -0.2568  0.2013  0.6941
 7979SOL    HW135396   4.443   2.085  16.918 -0.0182  0.0209 -0.4573
 7979SOL    HW235397   4.529   2.048  17.035  0.2869 -2.7463  0.1796
 7980SOL     OW35398   4.628   2.453   8.252 -0.8071  0.3702  0.1997
 7980SOL    HW135399   4.587   2.382   8.301 -0.5612  0.3578  0.3936
 7980SOL    HW235400   4.690   2.495   8.313  0.0976  0.2644 -0.6444
 7981SOL     OW35401   0.678   0.937   8.247 -0.1471 -0.6491  0.0983
 7981SOL    HW135402   0.668   1.013   8.304 -3.4819 -1.0457  0.0414
 7981SOL    HW235403   0.587   0.913   8.234 -0.4559  1.5745 -1.7693
 7982SOL     OW35404   0.339   0.594   4.834 -0.3668  0.3761 -0.0244
 7982SOL    HW135405   0.385   0.673   4.806  0.1363 -0.1918 -0.8008
 7982SOL    HW235406   0.390   0.527   4.789  1.8781  1.8029  0.3883
 7983SOL     OW35407   1.527   1.141   3.282 -0.8938 -0.2703 -0.1912
 7983SOL    HW135408   1.488   1.143   3.195 -0.2321 -0.1034 -0.4863
 7983SOL    HW235409   1.613   1.102   3.264  0.2573  2.4797 -0.7318
 7984SOL     OW35410   4.536   2.277   9.616 -0.1294 -0.2695  0.1562
 7984SOL    HW135411   4.526   2.308   9.526 -3.3828  0.2815  0.7266
 7984SOL    HW235412   4.612   2.220   9.601  0.0226 -0.2182  0.7342
 7985SOL     OW35413   0.942   0.174  11.175  0.2757 -0.1552  0.1831
 7985SOL    HW135414   0.915   0.097  11.125  2.0351  0.4058 -1.6137
 7985SOL    HW235415   0.904   0.155  11.261  1.2313 -0.2838  0.5771
 7986SOL     OW35416   2.866   4.475  17.231  0.3086  0.4087 -0.2846
 7986SOL    HW135417   2.842   4.430  17.150  0.7571 -0.0734 -0.1541
 7986SOL    HW235418   2.806   4.549  17.231 -0.7313 -0.4396  0.2139
 7987SOL     OW35419   3.501   2.169   4.102 -0.1502 -0.2189  0.4319
 7987SOL    HW135420   3.490   2.165   4.197  0.0881 -0.2480  0.4566
 7987SOL    HW235421   3.582   2.220   4.096  1.4626 -2.7090  1.1629
 7988SOL     OW35422   0.364   4.122  11.796  0.2762 -0.2585 -0.3619
 7988SOL    HW135423   0.431   4.178  11.835  0.7512 -0.8542 -0.3294
 7988SOL    HW235424   0.302   4.128  11.869 -0.3596 -0.2207 -0.9057
 7989SOL     OW35425   1.203   4.176   1.009 -0.1042  0.2969 -0.3534
 7989SOL    HW135426   1.204   4.082   1.025  0.5346  0.2026 -0.9710
 7989SOL    HW235427   1.118   4.196   1.049  1.1428 -0.4291  2.7126
 7990SOL     OW35428   0.813   3.060   5.310 -0.4545 -0.2426 -0.0690
 7990SOL    HW135429   0.744   3.040   5.373  1.2017 -0.9011  1.5541
 7990SOL    HW235430   0.775   3.029   5.228 -0.1364 -0.2198 -0.2258
 7991SOL     OW35431   1.687   0.089   4.913  0.0599 -0.6282 -0.7567
 7991SOL    HW135432   1.675   0.042   4.996 -0.4578 -0.1000 -0.5348
 7991SOL    HW235433   1.598   0.090   4.877 -0.4717  0.6532  0.6446
 7992SOL     OW35434   3.024   3.833   5.722 -0.7584  0.2147  0.4831
 7992SOL    HW135435   2.947   3.829   5.665  1.6875  0.3055 -2.8010
 7992SOL    HW235436   3.089   3.876   5.667 -0.9533 -1.5378 -1.1288
 7993SOL     OW35437   3.730   2.579   5.998 -0.1465 -0.0341  0.1413
 7993SOL    HW135438   3.657   2.550   5.942  1.8306 -0.3547 -2.2784
 7993SOL    HW235439   3.687   2.661   6.024 -0.0298 -0.2090  0.8735
 7994SOL     OW35440   2.256   4.372   3.477 -0.5703 -0.1477  0.0242
 7994SOL    HW135441   2.244   4.446   3.537  3.3371  0.7440 -0.2917
 7994SOL    HW235442   2.186   4.389   3.414  0.4103 -0.6687 -1.1858
 7995SOL     OW35443   4.577   0.628  11.011 -0.0578  0.5076  0.2678
 7995SOL    HW135444   4.576   0.694  10.941  0.2439 -1.2338 -1.3714
 7995SOL    HW235445   4.665   0.641  11.044  0.0484  3.0387 -1.0174
 7996SOL     OW35446   2.185   4.021   9.269 -0.3846  0.3026 -0.0653
 7996SOL    HW135447   2.116   3.958   9.250  1.9776 -2.2829 -0.0572
 7996SOL    HW235448   2.243   4.009   9.194 -0.8189 -1.0711 -0.1762
 7997SOL     OW35449   0.190   3.780  16.279 -0.6919  0.4864  0.2215
 7997SOL    HW135450   0.271   3.814  16.241 -1.3844  1.4972 -0.3651
 7997SOL    HW235451   0.227   3.733  16.354 -2.0865  0.4181  0.8760
 7998SOL     OW35452   0.504   3.218   6.959 -0.2358 -0.7212 -0.2356
 7998SOL    HW135453   0.455   3.268   7.024 -0.7709 -2.9524  1.0763
 7998SOL    HW235454   0.470   3.128   6.958 -0.2572 -0.7054 -0.7638
 7999SOL     OW35455   0.875   1.306   7.687 -0.0237  0.4326 -0.2765
 7999SOL    HW135456   0.883   1.340   7.776 -0.9919 -1.9803  0.7391
 7999SOL    HW235457   0.902   1.215   7.699 -0.1530  0.5183  0.6316
 8000SOL     OW35458   3.685   0.937  16.900 -0.1912 -0.0478 -0.3794
 8000SOL    HW135459   3.729   0.995  16.837 -1.7864  1.3405 -0.2010
 8000SOL    HW235460   3.596   0.970  16.908 -0.2099  0.1130 -1.2494
 8001SOL     OW35461   1.188   3.920   6.545 -0.0947 -0.9543  0.5086
 8001SOL    HW135462   1.180   3.826   6.531  0.0528 -0.7683 -0.8675
 8001SOL    HW235463   1.188   3.919   6.640  1.3284 -1.5495  0.5078
 8002SOL     OW35464   0.567   0.737   1.737 -0.2738  0.0158 -0.1321
 8002SOL    HW135465   0.616   0.817   1.753 -0.4224 -0.1163  0.9836
 8002SOL    HW235466   0.566   0.691   1.821 -1.5298 -0.0319 -0.1711
 8003SOL     OW35467   4.441   1.949   7.861 -0.2063  0.2918  0.1519
 8003SOL    HW135468   4.373   1.936   7.795 -1.5001  0.5070  1.4325
 8003SOL    HW235469   4.405   2.022   7.913  1.4238  0.8345  0.5204
 8004SOL     OW35470   2.332   1.869   4.734  0.3399  0.4451 -0.4566
 8004SOL    HW135471   2.242   1.839   4.725  0.6024 -0.5279  0.1804
 8004SOL    HW235472   2.356   1.872   4.641  0.5883  0.4603 -0.3919
 8005SOL     OW35473   2.985   4.158   5.122 -0.1995 -0.7718  0.0923
 8005SOL    HW135474   2.923   4.197   5.183  2.0772  2.8770  0.0694
 8005SOL    HW235475   2.990   4.225   5.054 -1.0164 -0.2118  0.5776
 8006SOL     OW35476   1.205   2.645   8.824 -0.4105 -0.0197  0.4336
 8006SOL    HW135477   1.128   2.701   8.833  0.1257  0.8863 -0.6803
 8006SOL    HW235478   1.270   2.713   8.807 -0.9549  1.0687  2.6167
 8007SOL     OW35479   4.583   2.742   5.947  0.8640 -0.2141  0.0438
 8007SOL    HW135480   4.556   2.651   5.932 -1.8669  0.1479  2.8015
 8007SOL    HW235481   4.665   2.748   5.897 -1.2402  2.3399 -3.1519
 8008SOL     OW35482   0.852   1.936   5.082 -0.3116  0.6552  0.0531
 8008SOL    HW135483   0.937   1.907   5.049 -0.4475  0.2452  0.0590
 8008SOL    HW235484   0.875   2.026   5.104 -1.7355  0.9515  0.3238
 8009SOL     OW35485   3.823   3.750  17.327 -0.3472  0.2476 -0.3858
 8009SOL    HW135486   3.734   3.744  17.293  0.6128 -0.9851 -2.6784
 8009SOL    HW235487   3.819   3.667  17.376 -1.3675 -0.5587 -1.8236
 8010SOL     OW35488   4.552   1.339   2.317  0.7479  0.4332 -0.0112
 8010SOL    HW135489   4.629   1.333   2.373 -0.1195  0.0492  1.1298
 8010SOL    HW235490   4.589   1.382   2.240  2.5176 -0.9911  0.0320
 8011SOL     OW35491   0.002   3.361   2.603 -0.0753 -0.4420  0.4338
 8011SOL    HW135492   4.685   3.432   2.549 -0.0924 -0.2691  0.6686
 8011SOL    HW235493   4.642   3.317   2.634  0.2618 -1.2132  0.1938
 8012SOL     OW35494   3.671   4.613  11.781  0.3371 -0.1305 -0.3122
 8012SOL    HW135495   3.600   4.550  11.771  2.3862 -2.1319 -2.4420
 8012SOL    HW235496   3.711   4.589  11.697  0.7285  0.1874 -0.2216
 8013SOL     OW35497   2.816   2.195   4.492  0.3558  0.2963 -0.1072
 8013SOL    HW135498   2.851   2.191   4.403 -1.3325  2.2190 -0.8533
 8013SOL    HW235499   2.725   2.203   4.463  0.4337 -0.9262 -0.6780
 8014SOL     OW35500   1.132   4.432  12.662 -0.2478  0.2780  0.0580
 8014SOL    HW135501   1.218   4.404  12.693 -0.0173 -0.1508 -0.9950
 8014SOL    HW235502   1.120   4.397  12.574  1.6133  0.0800 -0.1255
 8015SOL     OW35503   0.698   0.428   3.811  0.7536 -0.0192  0.1870
 8015SOL    HW135504   0.659   0.366   3.750  3.6406 -0.7342 -0.9468
 8015SOL    HW235505   0.626   0.485   3.836  0.2684 -0.3483 -0.4797
 8016SOL     OW35506   3.293   2.569   6.726 -0.6384 -0.1538 -0.2011
 8016SOL    HW135507   3.223   2.563   6.660 -1.7448 -0.5820  1.0055
 8016SOL    HW235508   3.294   2.480   6.762  0.3920  0.5007  1.3692
 8017SOL     OW35509   0.587   0.040   4.983 -0.1114 -0.0020 -0.2062
 8017SOL    HW135510   0.628   4.674   5.002 -0.8015  0.2440  2.5096
 8017SOL    HW235511   0.665   0.095   4.979 -1.0407  1.4303  1.3069
 8018SOL     OW35512   1.537   1.842   8.526  0.2165 -0.2188 -0.3235
 8018SOL    HW135513   1.490   1.783   8.585 -1.9476  1.1581 -0.6812
 8018SOL    HW235514   1.615   1.789   8.507  0.1945 -0.0675 -0.8237
 8019SOL     OW35515   0.175   0.508   5.377  0.2276  0.1896  0.0089
 8019SOL    HW135516   0.234   0.561   5.431 -0.3573  1.8339 -0.9932
 8019SOL    HW235517   0.231   0.515   5.299 -0.1094  0.6006 -0.1922
 8020SOL     OW35518   3.686   0.862   6.169 -0.0883 -0.3646  0.3784
 8020SOL    HW135519   3.593   0.878   6.153 -0.3923  0.3844  2.9625
 8020SOL    HW235520   3.681   0.832   6.260  1.5096 -1.5712  0.0755
 8021SOL     OW35521   3.236   2.939   5.883  0.3145  0.3868 -0.0661
 8021SOL    HW135522   3.141   2.949   5.872 -0.0821 -1.1894  1.9466
 8021SOL    HW235523   3.245   2.845   5.873 -1.0041  0.2914 -0.3899
 8022SOL     OW35524   2.599   3.836   5.707  0.6988 -0.2356  0.4299
 8022SOL    HW135525   2.626   3.927   5.697 -1.8300  0.4597  0.0562
 8022SOL    HW235526   2.507   3.841   5.681  0.9276 -3.8104 -1.1455
 8023SOL     OW35527   3.680   0.071   0.484  0.2976  0.3432 -0.1209
 8023SOL    HW135528   3.615   0.041   0.421 -0.9470 -0.5774  1.5967
 8023SOL    HW235529   3.715   0.132   0.418 -1.0525  1.1427 -0.0946
 8024SOL     OW35530   0.209   3.008   0.967  0.0119  0.6783 -0.0646
 8024SOL    HW135531   0.128   3.051   0.941 -0.5208 -0.6204 -0.5562
 8024SOL    HW235532   0.272   3.049   0.907  0.8203 -0.0473  0.2980
 8025SOL     OW35533   2.975   3.474   2.258  1.0737 -0.1467 -0.3561
 8025SOL    HW135534   2.927   3.465   2.340 -0.4400 -3.0815 -1.5755
 8025SOL    HW235535   3.046   3.532   2.285  1.2999 -0.4407 -0.3284
 8026SOL     OW35536   0.661   3.064   0.661 -0.7798 -0.0310  0.4885
 8026SOL    HW135537   0.738   3.035   0.611  1.3011  0.6674  3.2793
 8026SOL    HW235538   0.700   3.137   0.709 -0.8607 -0.7918  1.6893
 8027SOL     OW35539   3.324   4.019   4.882 -0.2116 -0.3290  0.7215
 8027SOL    HW135540   3.300   4.003   4.973  1.7841  1.3991  1.5429
 8027SOL    HW235541   3.245   3.991   4.835  0.2312  2.5459 -1.7856
 8028SOL     OW35542   2.064   4.575  17.412 -0.9726 -0.8513  0.6185
 8028SOL    HW135543   2.111   4.561  17.330 -2.5683 -1.4380 -0.1744
 8028SOL    HW235544   2.124   4.611  17.478 -0.5829 -0.6753  0.1651
 8029SOL     OW35545   3.112   3.631   3.176 -0.1231  0.2797 -0.5753
 8029SOL    HW135546   3.160   3.601   3.099  0.3005 -0.2026 -0.1304
 8029SOL    HW235547   3.091   3.722   3.155 -0.6588  0.3343  0.1892
 8030SOL     OW35548   3.619   2.787  13.053 -0.0782 -0.3793 -0.4942
 8030SOL    HW135549   3.539   2.736  13.042  0.8693 -1.7187 -1.1373
 8030SOL    HW235550   3.678   2.737  12.996  1.3354  1.4826 -0.6592
 8031SOL     OW35551   3.344   0.491  15.729 -0.7408 -0.2527  0.2073
 8031SOL    HW135552   3.278   0.436  15.688  1.2368 -0.9886 -2.0296
 8031SOL    HW235553   3.411   0.428  15.757  0.2479  1.3071  1.4325
 8032SOL     OW35554   2.166   1.446   4.779  0.0697  0.6598 -0.0305
 8032SOL    HW135555   2.104   1.471   4.848  0.6401  0.5135  0.5396
 8032SOL    HW235556   2.126   1.481   4.699  1.9480  1.7973 -0.4774
 8033SOL     OW35557   1.402   2.834   3.363 -0.3701  0.0621 -0.4527
 8033SOL    HW135558   1.483   2.799   3.400 -2.2245 -0.5874  3.0316
 8033SOL    HW235559   1.420   2.913   3.313  1.2981 -0.7774 -1.1808
 8034SOL     OW35560   1.369   2.367   4.904 -0.0714  0.0816  0.4166
 8034SOL    HW135561   1.372   2.374   4.808  1.8830  0.9168  0.5510
 8034SOL    HW235562   1.372   2.272   4.913 -2.8704  0.0012  0.6918
 8035SOL     OW35563   4.240   0.100  13.321 -0.2717 -0.5171 -0.3150
 8035SOL    HW135564   4.229   0.134  13.232 -0.0703 -1.9663 -0.9004
 8035SOL    HW235565   4.328   0.066  13.305  0.8477  2.2344  0.1602
 8036SOL     OW35566   2.935   1.231   3.346 -0.1890 -0.2287  0.0799
 8036SOL    HW135567   2.934   1.310   3.291 -0.4953 -0.9441 -0.9498
 8036SOL    HW235568   2.860   1.245   3.403  0.3370  2.5741  0.0882
 8037SOL     OW35569   2.920   3.638   1.036 -0.1734  0.3457  0.0610
 8037SOL    HW135570   3.002   3.649   1.085  0.3184  0.1282 -0.7234
 8037SOL    HW235571   2.947   3.568   0.977  5.2063  0.1820  2.7514
 8038SOL     OW35572   2.095   4.386   7.810  0.2861  0.7445  0.5327
 8038SOL    HW135573   2.017   4.399   7.756  1.1062 -1.3584 -1.1565
 8038SOL    HW235574   2.053   4.360   7.892 -0.0244  0.8519  0.4083
 8039SOL     OW35575   4.290   0.680   4.136  0.1843 -0.0716  0.3588
 8039SOL    HW135576   4.303   0.648   4.047  2.3071 -0.1625  0.7103
 8039SOL    HW235577   4.200   0.650   4.149 -1.0469  3.2311 -0.5153
 8040SOL     OW35578   2.668   1.109   4.379 -0.2526  0.1645 -0.1588
 8040SOL    HW135579   2.704   1.158   4.453  1.0892  0.1346 -0.8075
 8040SOL    HW235580   2.747   1.100   4.326 -1.1316 -0.6127 -1.3277
 8041SOL     OW35581   0.274   0.928  15.089 -0.5437 -0.3412 -0.1710
 8041SOL    HW135582   0.210   0.994  15.061  1.7059  2.5233  1.4346
 8041SOL    HW235583   0.308   0.952  15.175 -1.3525  0.7481 -0.1563
 8042SOL     OW35584   1.526   4.066  11.608 -0.0551  0.7943  0.5954
 8042SOL    HW135585   1.580   4.144  11.599 -0.0309  0.6833 -0.1576
 8042SOL    HW235586   1.536   4.027  11.521  1.6182 -0.0769  1.1790
 8043SOL     OW35587   0.846   1.252  14.544  0.0675  0.1645 -0.7358
 8043SOL    HW135588   0.765   1.289  14.507  0.5734  1.6781 -0.3006
 8043SOL    HW235589   0.840   1.285  14.634  0.4120 -1.8323  0.0092
 8044SOL     OW35590   4.383   2.082   6.732  0.6343  0.1390 -0.0561
 8044SOL    HW135591   4.430   2.068   6.650  1.5972 -1.8128  0.8264
 8044SOL    HW235592   4.406   1.999   6.775 -2.9084 -0.9788 -0.3486
 8045SOL     OW35593   2.669   1.955   4.071 -0.5700  0.7776 -0.0063
 8045SOL    HW135594   2.745   2.007   4.043 -1.7260  2.8216  0.6707
 8045SOL    HW235595   2.720   1.876   4.091 -2.4725 -0.7028 -0.9584
 8046SOL     OW35596   4.119   0.249   7.017 -0.0184 -0.5645 -0.9032
 8046SOL    HW135597   4.207   0.222   6.988  0.5430  0.3234 -0.0364
 8046SOL    HW235598   4.087   0.290   6.937 -1.3633  1.5067  0.7080
 8047SOL     OW35599   0.941   2.363  15.452  0.1935 -0.5303 -0.1594
 8047SOL    HW135600   0.949   2.458  15.443 -1.1932 -0.5378 -1.4520
 8047SOL    HW235601   0.847   2.359  15.474 -0.1156  1.4302 -1.1325
 8048SOL     OW35602   0.622   0.100   5.742  0.3308 -0.4368 -0.4811
 8048SOL    HW135603   0.548   0.128   5.797  2.0234  0.9158  1.0884
 8048SOL    HW235604   0.574   0.060   5.670 -0.5936 -2.3490  1.1873
 8049SOL     OW35605   4.607   1.395   7.150 -0.0953 -0.0982 -0.1992
 8049SOL    HW135606   4.667   1.369   7.080 -0.1823  0.4731 -0.4872
 8049SOL    HW235607   4.533   1.335   7.139  1.8477 -2.3692 -0.8391
 8050SOL     OW35608   0.983   3.453   8.320  0.9706 -0.3233 -0.4376
 8050SOL    HW135609   1.039   3.445   8.243  2.2066  2.5593  0.1941
 8050SOL    HW235610   0.915   3.387   8.306  0.7440  0.1153 -1.3530
 8051SOL     OW35611   2.847   3.746   5.483  0.4171  0.1745  0.1464
 8051SOL    HW135612   2.754   3.749   5.505  0.9464  2.9459  1.8750
 8051SOL    HW235613   2.833   3.796   5.402 -0.6125  1.3615  1.0703
 8052SOL     OW35614   0.687   4.055   6.913  0.8543  0.6753  0.1587
 8052SOL    HW135615   0.764   4.101   6.880  1.2947  1.3195  2.0856
 8052SOL    HW235616   0.641   4.126   6.959 -0.1492  0.8740 -1.1344
 8053SOL     OW35617   2.322   2.982   4.945 -0.1434 -0.0209 -0.0091
 8053SOL    HW135618   2.316   2.915   5.013  0.0135  2.7758  2.7261
 8053SOL    HW235619   2.315   3.065   4.992  1.7658  0.1070  0.0193
 8054SOL     OW35620   2.039   0.683   5.070 -0.4793  0.9205  0.1471
 8054SOL    HW135621   2.019   0.599   5.030  1.7291  1.5004 -2.1801
 8054SOL    HW235622   2.127   0.695   5.034 -0.4680 -0.0368 -0.1456
 8055SOL     OW35623   0.249   2.896   1.463  0.3449  0.1850  0.1610
 8055SOL    HW135624   0.246   2.800   1.458  0.8563  0.2693 -1.9288
 8055SOL    HW235625   0.248   2.912   1.368 -2.8400 -0.7432  0.0092
 8056SOL     OW35626   1.342   3.686   4.205 -0.6655  0.4568  0.1883
 8056SOL    HW135627   1.417   3.697   4.263 -0.6400  0.4474  0.1576
 8056SOL    HW235628   1.368   3.728   4.122 -0.0903  1.6060  0.9579
 8057SOL     OW35629   4.270   2.679   5.985  0.4899  0.3260 -0.7931
 8057SOL    HW135630   4.224   2.644   6.061 -2.9076  1.6711 -2.2664
 8057SOL    HW235631   4.362   2.657   6.003  0.1447 -1.5251 -1.2310
 8058SOL     OW35632   0.005   1.477   5.076 -0.3339 -0.2233  0.2401
 8058SOL    HW135633   0.082   1.431   5.043 -1.2611  0.3539 -2.7026
 8058SOL    HW235634   4.719   1.548   5.012  2.9984 -3.2664 -3.4194
 8059SOL     OW35635   4.125   0.494  11.316 -0.1207 -0.3779  0.0929
 8059SOL    HW135636   4.101   0.405  11.293 -0.1172 -0.3437 -0.0404
 8059SOL    HW235637   4.217   0.506  11.291 -0.1722 -3.0878 -1.3629
 8060SOL     OW35638   1.920   1.676   9.484 -0.3276  0.4322 -0.2038
 8060SOL    HW135639   1.844   1.630   9.520  1.2786 -0.4764  2.0588
 8060SOL    HW235640   1.937   1.740   9.553 -1.7837  3.9159 -3.0785
 8061SOL     OW35641   4.544   3.470   4.839 -0.5217 -0.2343 -0.4925
 8061SOL    HW135642   4.509   3.559   4.839 -2.3163 -0.9478  0.6651
 8061SOL    HW235643   4.598   3.482   4.761  0.9889 -0.8456  0.4659
 8062SOL     OW35644   3.623   2.420   5.038  0.2530  0.1642  0.3808
 8062SOL    HW135645   3.637   2.378   5.122  0.4048 -0.0526  0.2488
 8062SOL    HW235646   3.687   2.491   5.032 -0.2461  0.6898  1.4244
 8063SOL     OW35647   1.131   4.620   8.673 -0.6148  0.0446  0.0704
 8063SOL    HW135648   1.172   4.551   8.622  2.0781  0.7528  1.2987
 8063SOL    HW235649   1.210   4.671   8.691 -0.4360 -0.1357 -0.2055
 8064SOL     OW35650   4.617   4.213   7.565 -0.3358 -0.5211 -0.0496
 8064SOL    HW135651   4.697   4.189   7.612  0.4142 -1.5045 -1.8306
 8064SOL    HW235652   4.625   4.304   7.593 -1.2998 -0.1079 -1.1234
 8065SOL     OW35653   1.413   3.127   5.325  0.7351 -0.4745 -0.3609
 8065SOL    HW135654   1.414   3.055   5.387 -2.4158  0.4672  0.7497
 8065SOL    HW235655   1.504   3.156   5.338 -0.3074  2.1580  1.1357
 8066SOL     OW35656   2.542   3.002   8.368 -0.2462  0.1431 -0.3876
 8066SOL    HW135657   2.590   3.060   8.309  3.0392 -1.0808  1.0525
 8066SOL    HW235658   2.584   2.919   8.346 -1.1718 -0.2989 -0.4861
 8067SOL     OW35659   4.529   2.239  12.677  0.0193  0.1488  0.2098
 8067SOL    HW135660   4.532   2.291  12.597  3.1579 -2.5213 -1.4324
 8067SOL    HW235661   4.566   2.305  12.735 -2.4270  1.5076  0.1857
 8068SOL     OW35662   0.546   1.928   4.068  0.6529  0.1158  0.3074
 8068SOL    HW135663   0.633   1.915   4.031  1.3648  2.1666  1.2445
 8068SOL    HW235664   0.566   2.010   4.114  0.3642  0.1058  0.4562
 8069SOL     OW35665   0.815   4.087   2.421 -0.0281  0.3461 -0.0652
 8069SOL    HW135666   0.785   4.177   2.408 -0.2261  0.6194  2.2060
 8069SOL    HW235667   0.876   4.080   2.347 -2.8028  2.5854 -2.5834
 8070SOL     OW35668   1.263   0.758  17.301  0.0705 -0.5887 -0.1470
 8070SOL    HW135669   1.286   0.851  17.296 -2.3880 -0.0494 -1.2515
 8070SOL    HW235670   1.252   0.736  17.393  1.8719 -1.8282 -0.2170
 8071SOL     OW35671   4.198   3.804  14.784 -0.0956  0.0755 -0.2847
 8071SOL    HW135672   4.205   3.717  14.825 -1.2164  0.3665  0.5395
 8071SOL    HW235673   4.113   3.843  14.806 -0.7651 -0.9243 -1.0730
 8072SOL     OW35674   0.420   2.783   4.334 -0.1629 -0.0600 -0.3017
 8072SOL    HW135675   0.406   2.877   4.344  0.5561  0.0386 -0.2360
 8072SOL    HW235676   0.348   2.755   4.391  1.0990  2.4057  2.4944
 8073SOL     OW35677   0.919   1.486  15.073  0.0164  0.5443  0.1181
 8073SOL    HW135678   0.988   1.435  15.030  1.4559  0.7463  2.1644
 8073SOL    HW235679   0.860   1.417  15.102 -0.5714  1.6104  1.4642
 8074SOL     OW35680   0.708   0.742   1.994 -0.1623 -0.4338 -0.0157
 8074SOL    HW135681   0.788   0.740   1.941  1.0171  1.6893  1.6853
 8074SOL    HW235682   0.734   0.808   2.058  0.0909  0.1493 -0.7188
 8075SOL     OW35683   0.430   0.377   2.435 -0.6688 -0.1833  0.2564
 8075SOL    HW135684   0.521   0.360   2.413 -0.9445 -1.6848  0.2693
 8075SOL    HW235685   0.430   0.334   2.520 -1.7495  1.4426  1.0732
 8076SOL     OW35686   2.570   2.642   3.976 -0.0059 -0.1920 -0.0252
 8076SOL    HW135687   2.531   2.648   4.063  0.7804  0.2420  0.2987
 8076SOL    HW235688   2.655   2.687   3.983  0.4129 -0.6030 -2.5312
 8077SOL     OW35689   2.462   2.184  10.268  0.0558 -0.4932  0.3555
 8077SOL    HW135690   2.428   2.272  10.283  0.6968 -0.1871  0.0482
 8077SOL    HW235691   2.483   2.167  10.359  1.4370 -0.9289 -0.0334
 8078SOL     OW35692   3.905   4.635   8.309  0.1988  0.0827 -0.7479
 8078SOL    HW135693   3.994   4.637   8.343 -0.6963  0.3582  1.5451
 8078SOL    HW235694   3.926   4.643   8.216 -0.2815 -0.6671 -0.9257
 8079SOL     OW35695   4.407   4.242   4.887 -0.3763 -0.2432 -0.2023
 8079SOL    HW135696   4.319   4.210   4.907 -0.5436 -0.5237 -1.3924
 8079SOL    HW235697   4.456   4.187   4.948 -0.7422  0.5447  0.8196
 8080SOL     OW35698   1.339   1.527   7.862  0.0487  0.1274  0.0684
 8080SOL    HW135699   1.414   1.550   7.916 -2.3801  0.8277  3.1380
 8080SOL    HW235700   1.378   1.565   7.783  0.9904 -1.3702 -0.1809
 8081SOL     OW35701   4.059   1.393   2.845  0.2938  0.1327  0.0663
 8081SOL    HW135702   4.072   1.399   2.750 -1.1194  1.7177 -0.0296
 8081SOL    HW235703   3.964   1.387   2.852  0.3145  0.2620  0.4294
 8082SOL     OW35704   2.645   0.413  12.679 -0.5819  0.3167 -0.1064
 8082SOL    HW135705   2.571   0.464  12.713  0.1476  2.0221 -1.0247
 8082SOL    HW235706   2.716   0.477  12.680  0.2437 -0.5719 -2.3505
 8083SOL     OW35707   3.038   2.686   8.546  0.0483 -0.4849 -0.1274
 8083SOL    HW135708   3.081   2.767   8.575  0.0896 -0.6299  0.2181
 8083SOL    HW235709   3.027   2.644   8.631 -2.1400 -1.8869 -1.0930
 8084SOL     OW35710   4.187   0.120  12.067 -0.7557  0.4796 -0.0901
 8084SOL    HW135711   4.247   0.169  12.011  1.7058 -0.1422  2.0111
 8084SOL    HW235712   4.112   0.178  12.054 -0.5451  1.6709  4.0866
 8085SOL     OW35713   0.694   1.795   2.616 -0.4578 -0.0692  0.1795
 8085SOL    HW135714   0.680   1.889   2.611 -1.8494 -0.3415 -0.8684
 8085SOL    HW235715   0.785   1.782   2.590 -1.5117 -1.2737 -2.8283
 8086SOL     OW35716   2.705   0.991   8.962 -0.1827 -0.8647 -0.1338
 8086SOL    HW135717   2.746   0.970   8.877 -0.8943 -1.4164 -0.3363
 8086SOL    HW235718   2.615   0.999   8.931 -0.1808 -1.0975 -0.2045
 8087SOL     OW35719   0.070   1.285   2.762  0.4819 -0.0781 -0.1568
 8087SOL    HW135720   4.700   1.298   2.729  1.5277  0.5343 -2.7236
 8087SOL    HW235721   0.070   1.191   2.780 -4.0367  0.6349  3.4949
 8088SOL     OW35722   3.732   4.313   6.496  0.5549 -0.6328  1.0853
 8088SOL    HW135723   3.791   4.267   6.437  0.0278  2.2989 -1.7615
 8088SOL    HW235724   3.701   4.389   6.446  2.4287 -0.5196  0.1128
 8089SOL     OW35725   4.441   4.380   0.626  0.1290  0.0234  0.6631
 8089SOL    HW135726   4.384   4.401   0.699  0.1566  2.0596  0.0975
 8089SOL    HW235727   4.377   4.381   0.555  0.9461  0.7732 -0.0735
 8090SOL     OW35728   0.574   3.933   2.487 -0.1672  0.3639  0.0098
 8090SOL    HW135729   0.538   4.009   2.532  1.4305  0.8137  0.5039
 8090SOL    HW235730   0.667   3.946   2.471 -0.4625 -0.6613 -2.4497
 8091SOL     OW35731   2.654   4.644   8.651  0.1525  0.1926  0.0261
 8091SOL    HW135732   2.669   0.002   8.706 -0.2322  2.5204 -3.1159
 8091SOL    HW235733   2.734   4.639   8.598  0.8094  2.0768  0.8335
 8092SOL     OW35734   3.084   2.335   3.531  0.4931 -0.0223  0.0177
 8092SOL    HW135735   3.171   2.299   3.540  0.5317 -0.3605 -1.7805
 8092SOL    HW235736   3.048   2.257   3.491 -0.9651  1.1616 -0.9790
 8093SOL     OW35737   2.608   1.561   3.173  0.3283 -0.1813  0.1252
 8093SOL    HW135738   2.531   1.605   3.208 -0.0263 -0.4864 -0.2607
 8093SOL    HW235739   2.627   1.619   3.099 -2.1595 -0.3509 -0.6396
 8094SOL     OW35740   0.590   4.240  13.571 -0.4176  0.0275 -0.2705
 8094SOL    HW135741   0.555   4.214  13.486  0.8293 -0.2761 -0.6907
 8094SOL    HW235742   0.524   4.199  13.626  0.9553 -2.5290 -0.5202
 8095SOL     OW35743   3.481   1.567  10.366  0.0650  0.5055 -0.0837
 8095SOL    HW135744   3.529   1.575  10.449 -0.1017  1.1334 -0.0481
 8095SOL    HW235745   3.462   1.661  10.357 -1.6117  0.1774 -0.0453
 8096SOL     OW35746   0.150   1.576   6.240  0.0396  0.0351 -0.5277
 8096SOL    HW135747   0.170   1.569   6.146 -0.5750  0.7988 -0.7192
 8096SOL    HW235748   0.136   1.489   6.275 -0.1482  0.4300  0.3786
 8097SOL     OW35749   2.268   0.091   2.291  0.5371 -0.0106  0.2943
 8097SOL    HW135750   2.320   0.024   2.334  1.1406 -0.8667 -1.7546
 8097SOL    HW235751   2.188   0.038   2.302  1.2328 -1.4944 -1.7092
 8098SOL     OW35752   2.147   1.827   0.537 -0.2361 -0.1723  0.3563
 8098SOL    HW135753   2.208   1.900   0.534 -0.7435  0.2409  0.0437
 8098SOL    HW235754   2.184   1.789   0.458  1.2842  3.0776 -0.5053
 8099SOL     OW35755   4.452   0.853   2.393 -0.7888  0.3930  0.0111
 8099SOL    HW135756   4.375   0.817   2.348 -1.5447  1.3693  0.5201
 8099SOL    HW235757   4.510   0.858   2.316 -1.2424  0.8906 -0.3011
 8100SOL     OW35758   3.177   2.804   3.386  0.2739  0.5512  0.0592
 8100SOL    HW135759   3.177   2.855   3.306 -0.4942 -2.4266 -1.8344
 8100SOL    HW235760   3.245   2.846   3.438 -0.1251  0.7826  0.3963
 8101SOL     OW35761   0.776   2.601   6.327  0.0751 -0.3538  0.0347
 8101SOL    HW135762   0.810   2.608   6.237  0.5193  1.3530  0.3289
 8101SOL    HW235763   0.728   2.681   6.347 -0.2766 -0.1461 -1.6458
 8102SOL     OW35764   0.878   4.202   5.349 -0.1094 -0.2650  0.5303
 8102SOL    HW135765   0.927   4.137   5.400  0.2160  0.0073  0.5662
 8102SOL    HW235766   0.878   4.167   5.260  0.7516  0.8345  0.0972
 8103SOL     OW35767   4.623   1.673   8.365 -0.1126 -0.4229 -0.0262
 8103SOL    HW135768   4.673   1.654   8.444 -0.5660  0.9237  0.5831
 8103SOL    HW235769   4.548   1.616   8.381 -0.6620  0.4285  0.4196
 8104SOL     OW35770   4.619   1.275   3.071 -0.4362 -0.4262 -0.3608
 8104SOL    HW135771   4.676   1.350   3.054 -1.2662 -0.1958 -2.1053
 8104SOL    HW235772   4.533   1.301   3.040  0.1597  0.5805 -1.1692
 8105SOL     OW35773   2.350   0.647   5.275 -0.1408  0.1007  0.5714
 8105SOL    HW135774   2.340   0.722   5.217  1.5975 -0.3866 -0.3739
 8105SOL    HW235775   2.438   0.613   5.261  0.3306  0.6615  2.1286
 8106SOL     OW35776   2.598   2.402   8.940 -0.2486 -0.6057 -0.4994
 8106SOL    HW135777   2.574   2.458   9.013 -0.6812  0.9506 -1.8185
 8106SOL    HW235778   2.692   2.409   8.952 -0.3621 -0.9927  0.6042
 8107SOL     OW35779   0.117   2.600   7.001  0.3694  0.4536  0.2738
 8107SOL    HW135780   0.118   2.592   6.906  1.9567 -1.6923  0.4731
 8107SOL    HW235781   0.205   2.572   7.024 -0.3311 -2.3935 -0.4295
 8108SOL     OW35782   0.865   0.061   2.425 -0.3993  0.0945 -0.6373
 8108SOL    HW135783   0.790   0.112   2.395 -0.0121  2.2444  2.0047
 8108SOL    HW235784   0.818   4.705   2.463 -1.7595  0.8765 -0.7805
 8109SOL     OW35785   1.782   1.338  16.249  0.3244  0.5129 -0.1875
 8109SOL    HW135786   1.752   1.277  16.316 -0.0532  0.0210 -0.8018
 8109SOL    HW235787   1.708   1.337  16.188 -0.7135  3.3488  1.0173
 8110SOL     OW35788   3.605   0.724   3.677 -0.2098 -0.6736  0.1457
 8110SOL    HW135789   3.688   0.679   3.660  0.6557  1.8364 -2.2249
 8110SOL    HW235790   3.621   0.813   3.648  0.1442 -1.3471 -1.7071
 8111SOL     OW35791   4.598   2.500   7.719  0.0720 -0.1426 -0.6263
 8111SOL    HW135792   4.579   2.469   7.807 -0.6563 -1.8756 -1.4053
 8111SOL    HW235793   4.541   2.456   7.657 -0.8996  0.8012 -0.3945
 8112SOL     OW35794   1.095   0.789   3.467 -0.6626 -0.1570  0.0509
 8112SOL    HW135795   1.164   0.742   3.513 -1.6280  0.4119  2.0888
 8112SOL    HW235796   1.133   0.787   3.379  0.9941  0.6764  0.7417
 8113SOL     OW35797   2.111   3.238   7.507 -0.1684  0.0634  0.0690
 8113SOL    HW135798   2.204   3.257   7.516 -0.3518  0.3407  1.3264
 8113SOL    HW235799   2.081   3.294   7.435 -0.6486 -1.4080 -0.8892
 8114SOL     OW35800   3.105   0.462   3.044 -0.3978 -0.0463  0.3170
 8114SOL    HW135801   3.055   0.393   3.000 -1.9863  1.1850  0.2054
 8114SOL    HW235802   3.030   0.505   3.085  0.1247  1.1748 -0.0069
 8115SOL     OW35803   2.514   0.587  15.068 -0.3091 -0.2865 -0.0586
 8115SOL    HW135804   2.472   0.605  14.985 -3.5121 -2.7894  1.0193
 8115SOL    HW235805   2.433   0.593  15.119 -1.3743 -1.4266 -1.6363
 8116SOL     OW35806   4.195   1.091  13.272  0.0830  0.2204  0.0016
 8116SOL    HW135807   4.239   1.131  13.197  0.8516  0.7616  0.7308
 8116SOL    HW235808   4.114   1.141  13.275 -0.9283 -1.3965 -0.0546
 8117SOL     OW35809   0.408   1.477   2.311 -0.4895 -0.2714 -0.6310
 8117SOL    HW135810   0.488   1.425   2.320  0.0067  0.2903 -1.8302
 8117SOL    HW235811   0.436   1.560   2.350 -1.1358  0.6822 -2.2389
 8118SOL     OW35812   3.963   4.477   0.864  0.3162 -0.1697  0.0854
 8118SOL    HW135813   3.896   4.524   0.815 -0.7348 -1.1277  0.5971
 8118SOL    HW235814   4.031   4.468   0.798  0.0830  0.7124 -0.2765
 8119SOL     OW35815   0.559   0.779   2.250  0.0519 -0.1058  0.2881
 8119SOL    HW135816   0.469   0.759   2.276  0.5557  0.8760  2.7722
 8119SOL    HW235817   0.581   0.704   2.194 -1.9698 -1.4267  1.2812
 8120SOL     OW35818   2.341   0.998  10.635 -0.0543 -0.0266  0.3619
 8120SOL    HW135819   2.361   0.976  10.726 -0.2664 -1.6268  0.0112
 8120SOL    HW235820   2.298   1.082  10.654 -2.9653 -1.4575  0.0786
 8121SOL     OW35821   4.307   2.242   5.244  0.0769  0.6845  0.4480
 8121SOL    HW135822   4.400   2.218   5.248  0.0491  0.5434  0.2194
 8121SOL    HW235823   4.315   2.336   5.231 -1.6830  0.5670 -1.4222
 8122SOL     OW35824   0.832   3.652   0.635  0.1252  0.3240 -0.7174
 8122SOL    HW135825   0.905   3.673   0.577 -0.7431  0.2761 -1.8306
 8122SOL    HW235826   0.772   3.721   0.606 -0.3623  0.3164  0.2717
 8123SOL     OW35827   3.178   1.523  11.929  0.2252  0.3703  0.0029
 8123SOL    HW135828   3.232   1.455  11.969  1.7257  0.6148 -1.6470
 8123SOL    HW235829   3.120   1.534  12.005  0.0654  1.4083 -0.2660
 8124SOL     OW35830   2.686   2.990   9.023  0.0736 -0.0419  0.2863
 8124SOL    HW135831   2.670   2.899   8.997  1.1798  0.0407 -0.6976
 8124SOL    HW235832   2.756   3.021   8.965  1.0112  0.6021  1.7518
 8125SOL     OW35833   0.151   2.166  10.984  0.0128 -0.1195  0.8152
 8125SOL    HW135834   0.176   2.236  10.924 -1.7987 -0.0088  0.2086
 8125SOL    HW235835   0.110   2.219  11.052  0.2179  2.1127 -0.7917
 8126SOL     OW35836   3.997   4.190  10.844 -0.4155  0.1913  0.1903
 8126SOL    HW135837   4.006   4.271  10.894  1.0002  0.6543 -0.8077
 8126SOL    HW235838   3.902   4.202  10.835 -0.5020 -1.6943 -1.4049
 8127SOL     OW35839   2.255   0.444  14.009 -0.2849  0.2511  0.3611
 8127SOL    HW135840   2.262   0.351  13.990 -0.3211  0.7446 -2.1101
 8127SOL    HW235841   2.162   0.465  14.009 -0.1968  0.6260  1.0057
 8128SOL     OW35842   2.506   4.475   4.360 -0.4623  0.6833  0.4232
 8128SOL    HW135843   2.417   4.451   4.386 -0.8709  1.7416 -0.0295
 8128SOL    HW235844   2.542   4.387   4.349  1.5642  1.2090  2.9834
 8129SOL     OW35845   0.712   1.745   6.784  0.7125  0.1559 -0.5474
 8129SOL    HW135846   0.708   1.831   6.742  0.3990  1.1973  1.6562
 8129SOL    HW235847   0.655   1.767   6.858  1.2776  1.0930 -0.4005
 8130SOL     OW35848   1.132   1.399   1.314  0.3060 -0.0784 -0.1714
 8130SOL    HW135849   1.049   1.445   1.324 -0.3567 -1.5535  1.0045
 8130SOL    HW235850   1.133   1.366   1.224  2.9888 -1.9887  0.5468
 8131SOL     OW35851   1.975   2.580   0.918 -0.6419 -0.3091  0.2556
 8131SOL    HW135852   1.888   2.580   0.958 -0.6620  1.8710  0.2239
 8131SOL    HW235853   2.010   2.667   0.939 -0.2363 -0.6148  0.8433
 8132SOL     OW35854   3.875   1.752   0.964 -0.1423  0.2641  0.2606
 8132SOL    HW135855   3.943   1.815   0.988  1.0832 -0.7432 -0.5886
 8132SOL    HW235856   3.914   1.711   0.887 -2.7868 -1.2769 -0.2464
 8133SOL     OW35857   3.889   2.544  14.819  0.0101  0.1356  0.0686
 8133SOL    HW135858   3.894   2.631  14.861  0.7333 -0.0518  0.3865
 8133SOL    HW235859   3.972   2.505  14.846 -0.7658 -1.1264  0.6297
 8134SOL     OW35860   2.872   4.277   0.315 -0.1183 -0.0332 -0.5118
 8134SOL    HW135861   2.858   4.310   0.226 -1.0849  1.8252  0.3361
 8134SOL    HW235862   2.794   4.303   0.363  0.3170 -1.0067  0.7105
 8135SOL     OW35863   2.468   0.159   5.445  0.2817  0.8120 -0.3004
 8135SOL    HW135864   2.540   0.135   5.504  1.5998  1.0380 -1.8162
 8135SOL    HW235865   2.488   0.252   5.437  1.5864  0.7423  2.3342
 8136SOL     OW35866   0.830   0.125  16.755 -0.7070  1.0018 -0.5027
 8136SOL    HW135867   0.924   0.107  16.748 -0.8619 -0.0523  0.1708
 8136SOL    HW235868   0.832   0.218  16.776 -0.9426  0.9348 -0.1858
 8137SOL     OW35869   2.949   1.953  13.893  0.2748  0.1725 -0.2722
 8137SOL    HW135870   3.000   2.009  13.952 -0.8077  1.5382 -0.6418
 8137SOL    HW235871   2.928   2.015  13.823  2.7421  0.3765 -0.8228
 8138SOL     OW35872   0.609   0.871   2.695 -0.0737 -0.4900 -0.1274
 8138SOL    HW135873   0.562   0.835   2.770 -0.8876 -1.1934 -0.9815
 8138SOL    HW235874   0.541   0.883   2.628 -0.0738 -0.1352 -0.0616
 8139SOL     OW35875   3.512   0.370   3.106  0.0710 -0.1511 -0.1859
 8139SOL    HW135876   3.435   0.362   3.163 -0.0674 -1.7907 -0.6003
 8139SOL    HW235877   3.485   0.440   3.047  4.5276  0.4755 -1.4696
 8140SOL     OW35878   1.319   3.955  13.155 -0.3487  0.1893 -0.2846
 8140SOL    HW135879   1.401   4.004  13.161 -0.6696  0.7549 -0.4929
 8140SOL    HW235880   1.265   4.003  13.092  1.1329  0.4529 -1.3393
 8141SOL     OW35881   2.646   3.284   3.513 -0.4413 -0.0388  0.3041
 8141SOL    HW135882   2.554   3.275   3.537 -0.1665 -0.0636  1.3833
 8141SOL    HW235883   2.665   3.205   3.463 -3.0213 -0.3907 -0.0946
 8142SOL     OW35884   0.629   3.789  13.924  0.3983  0.5637 -0.5081
 8142SOL    HW135885   0.549   3.837  13.946  0.7921  1.3734 -0.8605
 8142SOL    HW235886   0.695   3.826  13.983 -2.0366  2.2979  1.1251
 8143SOL     OW35887   0.080   1.755  15.094  0.2101  0.6287  0.3230
 8143SOL    HW135888   0.048   1.683  15.040 -1.8964  0.1821  2.2016
 8143SOL    HW235889   0.162   1.707  15.108  0.3152  0.3789 -1.0759
 8144SOL     OW35890   3.287   1.614   7.674 -0.0428 -0.0281 -0.1006
 8144SOL    HW135891   3.232   1.620   7.596  0.3948  0.4467 -0.3745
 8144SOL    HW235892   3.361   1.670   7.651  0.1605  0.5916  2.0393
 8145SOL     OW35893   3.811   4.406   6.187 -0.1080  0.4645  0.3312
 8145SOL    HW135894   3.819   4.314   6.210 -1.5014  0.6969  1.7226
 8145SOL    HW235895   3.870   4.443   6.253 -1.2233  0.2303  1.4414
 8146SOL     OW35896   1.830   3.374  11.508  0.2840 -0.2896 -0.0290
 8146SOL    HW135897   1.899   3.433  11.537  1.3386 -0.9877 -1.1080
 8146SOL    HW235898   1.773   3.422  11.448  0.7038  1.1760  0.7592
 8147SOL     OW35899   3.296   2.689  15.898  0.1287  0.3807 -0.3603
 8147SOL    HW135900   3.283   2.746  15.823  0.4011  0.5929 -0.2503
 8147SOL    HW235901   3.335   2.762  15.947 -2.4561 -0.9839  3.7460
 8148SOL     OW35902   2.553   3.840   3.601  0.1297 -0.2425 -0.1695
 8148SOL    HW135903   2.537   3.911   3.539 -0.7192  0.2865  0.6467
 8148SOL    HW235904   2.648   3.844   3.606  0.1126 -0.8396  0.6232
 8149SOL     OW35905   4.617   0.126   7.645 -0.1143 -0.0782 -0.2246
 8149SOL    HW135906   4.631   0.042   7.689 -0.0885  0.9794  1.8171
 8149SOL    HW235907   4.530   0.146   7.680 -0.2463  2.2907 -1.8872
 8150SOL     OW35908   4.070   2.482   5.428 -0.1230 -0.2725  0.1557
 8150SOL    HW135909   4.161   2.457   5.444  0.1152 -0.4707 -1.4812
 8150SOL    HW235910   4.079   2.570   5.391  1.8467 -1.9251 -3.2607
 8151SOL     OW35911   4.376   1.927   1.644  0.5608  0.1373  0.1806
 8151SOL    HW135912   4.356   1.997   1.706 -0.3287  0.0989 -0.0702
 8151SOL    HW235913   4.347   1.852   1.695  2.9978 -1.2531 -0.4608
 8152SOL     OW35914   2.756   0.105   8.175 -0.0348 -0.0170 -0.1992
 8152SOL    HW135915   2.759   0.192   8.216  1.5333  1.4949 -3.4861
 8152SOL    HW235916   2.677   0.065   8.211 -0.5372  2.1703  1.1272
 8153SOL     OW35917   1.531   2.111   6.399  0.3114  0.5042 -0.0896
 8153SOL    HW135918   1.565   2.144   6.482  0.5086 -1.6171  0.6780
 8153SOL    HW235919   1.439   2.134   6.410  0.0613  0.5797 -2.2703
 8154SOL     OW35920   2.473   0.635   3.964  0.7105 -0.1296  0.0160
 8154SOL    HW135921   2.414   0.561   3.980 -0.7300  0.7895 -1.0972
 8154SOL    HW235922   2.544   0.607   4.022  0.0033  0.2154  1.0486
 8155SOL     OW35923   1.826   0.408   2.451 -0.3267 -0.5378  0.0943
 8155SOL    HW135924   1.901   0.466   2.462 -1.1229  0.3882  0.6551
 8155SOL    HW235925   1.778   0.453   2.381  1.4802  2.0227  0.4944
 8156SOL     OW35926   3.208   3.335   4.854 -0.3424 -0.2612  0.0676
 8156SOL    HW135927   3.123   3.376   4.839 -0.6998 -1.6226 -1.6218
 8156SOL    HW235928   3.192   3.241   4.841  1.3435 -0.6762  0.9583
 8157SOL     OW35929   3.211   1.018  11.027 -0.2454 -0.0602 -0.2407
 8157SOL    HW135930   3.239   0.958  11.097 -1.0570 -0.8008 -0.5447
 8157SOL    HW235931   3.186   1.102  11.064 -0.4691  0.0852 -0.7215
 8158SOL     OW35932   2.076   4.164  13.810 -0.2899 -0.4195  0.0717
 8158SOL    HW135933   2.010   4.139  13.746 -0.6033  1.1029 -0.1766
 8158SOL    HW235934   2.012   4.188  13.877 -1.3527  0.1710 -1.1632
 8159SOL     OW35935   3.838   3.630   6.243 -0.1811 -0.3979 -0.4801
 8159SOL    HW135936   3.798   3.707   6.284 -0.0956  0.8241 -2.6891
 8159SOL    HW235937   3.895   3.603   6.314  0.1081  5.1266  1.3879
 8160SOL     OW35938   1.696   3.195   8.273 -0.0198 -0.0849  0.5444
 8160SOL    HW135939   1.748   3.259   8.321  0.4420 -1.0612  1.3688
 8160SOL    HW235940   1.719   3.120   8.329 -2.3958 -1.2850 -0.0654
 8161SOL     OW35941   1.331   1.711   2.441  1.0226 -0.1538 -0.1645
 8161SOL    HW135942   1.260   1.708   2.377 -0.8283 -0.7087  1.9546
 8161SOL    HW235943   1.381   1.631   2.421  0.9992 -0.3601  0.6193
 8162SOL     OW35944   2.683   0.541   4.100 -0.0437 -0.6189  0.3630
 8162SOL    HW135945   2.776   0.562   4.109  0.1105 -0.8898 -0.5987
 8162SOL    HW235946   2.671   0.488   4.179 -1.7232 -0.8696 -0.0703
 8163SOL     OW35947   2.664   2.957   2.932  0.7295 -0.2876 -0.2493
 8163SOL    HW135948   2.710   3.035   2.901  0.2213  0.1015 -0.0148
 8163SOL    HW235949   2.722   2.898   2.883  0.3231  1.0354 -2.2890
 8164SOL     OW35950   2.169   2.321   7.906 -0.4208  0.5748 -0.0456
 8164SOL    HW135951   2.147   2.247   7.849  1.3364 -0.2581  0.3788
 8164SOL    HW235952   2.133   2.291   7.990 -0.9317 -1.0830 -0.8493
 8165SOL     OW35953   3.155   3.925  17.520  0.4451 -0.8547  0.0042
 8165SOL    HW135954   3.233   3.872  17.503 -1.8374 -3.9676 -0.7454
 8165SOL    HW235955   3.117   3.862  17.582 -1.0952  0.0150 -0.0653
 8166SOL     OW35956   3.755   1.797   6.136 -0.4964  0.0548 -0.4089
 8166SOL    HW135957   3.818   1.726   6.129 -0.7221 -0.3082  1.1932
 8166SOL    HW235958   3.785   1.843   6.058  0.4799  2.4013  1.3504
 8167SOL     OW35959   1.530   1.218   3.534 -0.1623  0.0037 -0.6975
 8167SOL    HW135960   1.528   1.200   3.440 -1.0747  1.4222 -0.9337
 8167SOL    HW235961   1.477   1.143   3.561 -0.3030  0.8574  1.3782
 8168SOL     OW35962   1.625   4.432   5.950 -0.1244  0.1513 -0.1848
 8168SOL    HW135963   1.659   4.521   5.939 -0.0124  0.2414  0.9160
 8168SOL    HW235964   1.647   4.419   6.042 -1.1530 -0.0638  0.0222
 8169SOL     OW35965   3.512   0.780  16.278  0.5967 -0.2071 -0.1547
 8169SOL    HW135966   3.427   0.817  16.254  0.6933  0.4062  0.4408
 8169SOL    HW235967   3.569   0.850  16.246  0.0580  0.1560 -0.3229
 8170SOL     OW35968   0.485   2.553  13.974 -0.1071 -0.0388 -0.3838
 8170SOL    HW135969   0.550   2.616  13.945  0.4231  0.2682  1.4991
 8170SOL    HW235970   0.459   2.520  13.887  0.1150 -0.2228 -0.3788
 8171SOL     OW35971   3.910   1.088   4.087  0.0554 -0.4211 -0.3850
 8171SOL    HW135972   3.950   1.137   4.015  1.4038 -0.1044  0.5842
 8171SOL    HW235973   3.944   0.998   4.090  2.4818  0.5251  0.6344
 8172SOL     OW35974   3.130   0.930   5.389 -0.3597  0.2513  0.1511
 8172SOL    HW135975   3.100   0.912   5.478  1.2864  0.8188  0.8108
 8172SOL    HW235976   3.047   0.952   5.346  0.2516  3.1577  0.4129
 8173SOL     OW35977   2.887   3.820   1.502 -0.1373 -0.4331 -0.0703
 8173SOL    HW135978   2.975   3.785   1.490  0.0417 -0.2001  0.5579
 8173SOL    HW235979   2.901   3.907   1.465 -0.3399  0.4543  1.9759
 8174SOL     OW35980   1.876   3.552   3.010 -0.0709  0.3949 -0.0371
 8174SOL    HW135981   1.863   3.457   3.002 -1.5938  0.2745  3.6349
 8174SOL    HW235982   1.880   3.572   2.916  1.3860 -0.5814 -0.1839
 8175SOL     OW35983   4.569   1.019  13.546 -0.0577 -0.7865 -0.5743
 8175SOL    HW135984   4.548   0.929  13.568  0.0463 -0.9287 -1.0702
 8175SOL    HW235985   4.663   1.002  13.536 -0.5352 -2.2722 -2.5047
 8176SOL     OW35986   3.683   0.320   5.606 -0.1897  0.3712  0.2822
 8176SOL    HW135987   3.778   0.329   5.613 -0.2442  1.1231  0.0777
 8176SOL    HW235988   3.664   0.227   5.614  0.9841  0.1051  0.0542
 8177SOL     OW35989   1.886   1.124  16.949 -0.0908 -0.1487 -0.0297
 8177SOL    HW135990   1.857   1.188  17.014 -2.6667 -1.2604 -0.0620
 8177SOL    HW235991   1.958   1.174  16.912 -1.5286  1.7082 -0.3383
 8178SOL     OW35992   2.251   4.657   3.437  0.5359 -0.1435  0.0290
 8178SOL    HW135993   2.288   0.020   3.470  0.5050 -0.1934  0.1909
 8178SOL    HW235994   2.318   4.625   3.377  1.0342  1.8578 -0.4589
 8179SOL     OW35995   1.030   1.422  17.417  0.0195  1.0288 -0.1070
 8179SOL    HW135996   1.005   1.339  17.377  1.6992  0.0848  0.7686
 8179SOL    HW235997   0.970   1.424  17.491  0.5542 -2.1257  0.4289
 8180SOL     OW35998   3.347   0.597   3.037  0.6660  0.4999  0.0086
 8180SOL    HW135999   3.328   0.690   3.048 -3.9796 -0.3723 -0.7917
 8180SOL    HW236000   3.255   0.571   3.034  0.9449 -0.4531 -0.0991
 8181SOL     OW36001   2.602   2.588   7.445 -0.6144 -0.2104 -1.0036
 8181SOL    HW136002   2.538   2.610   7.513  1.8874 -1.4244  1.6799
 8181SOL    HW236003   2.571   2.643   7.372  0.9141  2.6861  0.5142
 8182SOL     OW36004   0.073   1.017   4.626  0.4530 -0.0573  0.0446
 8182SOL    HW136005   0.160   1.004   4.588  0.0333  0.7595 -1.2197
 8182SOL    HW236006   0.072   1.112   4.617  1.7361 -0.0925 -0.4216
 8183SOL     OW36007   3.884   4.457   6.730  0.8156  0.9892 -0.2502
 8183SOL    HW136008   3.975   4.445   6.704  1.0106  3.9831 -0.8991
 8183SOL    HW236009   3.835   4.425   6.654 -0.6703  1.9257  0.3217
 8184SOL     OW36010   2.618   4.466   2.511  0.4070  0.0931 -0.0973
 8184SOL    HW136011   2.709   4.434   2.509  0.3688  0.0729 -1.3148
 8184SOL    HW236012   2.587   4.434   2.596  0.6409 -1.8634 -0.7569
 8185SOL     OW36013   2.148   4.498  11.285 -0.5248  0.2705  0.2554
 8185SOL    HW136014   2.189   4.526  11.366  2.8666 -1.1484 -0.9601
 8185SOL    HW236015   2.102   4.580  11.266  1.9169  1.3995 -0.7071
 8186SOL     OW36016   1.128   1.325   3.645 -0.4906 -0.0629  0.1154
 8186SOL    HW136017   1.206   1.362   3.604 -0.1912 -0.2947  0.4743
 8186SOL    HW236018   1.125   1.242   3.598 -1.1809  0.8203 -1.3992
 8187SOL     OW36019   4.040   3.960   4.146  0.3880  0.8044  0.0684
 8187SOL    HW136020   3.962   3.972   4.091  1.3318 -1.1153 -1.7062
 8187SOL    HW236021   4.002   3.904   4.214  1.5997  1.4372  1.2520
 8188SOL     OW36022   2.968   2.343  10.885  0.3827  0.1297 -0.1891
 8188SOL    HW136023   3.005   2.258  10.912  1.3459  0.8466  0.7876
 8188SOL    HW236024   3.047   2.397  10.883  0.3207  0.3154  1.7534
 8189SOL     OW36025   2.078   1.345   3.652 -1.0248 -0.5460 -0.0144
 8189SOL    HW136026   2.089   1.396   3.732 -1.7381 -0.4687  0.0366
 8189SOL    HW236027   2.162   1.362   3.610 -0.8152 -3.5620 -0.8610
 8190SOL     OW36028   3.785   3.906   6.154 -0.1743  0.3935 -0.1671
 8190SOL    HW136029   3.701   3.878   6.191 -0.4943  2.7755  0.9079
 8190SOL    HW236030   3.743   3.941   6.075  1.4452  0.4815 -0.9824
 8191SOL     OW36031   0.702   1.493   3.490  0.6729 -0.3700 -0.0303
 8191SOL    HW136032   0.647   1.419   3.462 -0.5725  0.3347  0.5406
 8191SOL    HW236033   0.676   1.567   3.435 -1.8983 -0.5222  0.9565
 8192SOL     OW36034   4.620   3.141   3.711 -0.2340  0.3818  0.2624
 8192SOL    HW136035   4.704   3.179   3.684 -0.4249  0.0758 -0.7453
 8192SOL    HW236036   4.565   3.185   3.647 -0.7561 -1.2557 -0.4001
 8193SOL     OW36037   3.933   3.818   4.343 -0.5461 -0.2143 -0.0679
 8193SOL    HW136038   3.844   3.843   4.316  0.4210  0.0906 -3.0133
 8193SOL    HW236039   3.903   3.753   4.406  0.3905 -1.7903 -1.2654
 8194SOL     OW36040   0.660   0.172   7.148 -0.5773 -0.2250  0.6893
 8194SOL    HW136041   0.743   0.195   7.188  0.3323 -3.2296  0.5301
 8194SOL    HW236042   0.618   0.118   7.215 -0.0275  0.7150  1.7858
 8195SOL     OW36043   4.602   1.914  16.141 -0.3164 -0.4267  0.4352
 8195SOL    HW136044   4.622   1.865  16.061 -0.4019 -0.1721  0.2548
 8195SOL    HW236045   4.622   2.006  16.123  0.3373 -0.5441  0.5738
 8196SOL     OW36046   3.281   2.184   0.510 -0.2548 -0.7267  0.7298
 8196SOL    HW136047   3.231   2.120   0.561  0.1555 -2.4535 -1.0094
 8196SOL    HW236048   3.285   2.258   0.571 -2.2524 -0.3166  0.3688
 8197SOL     OW36049   0.923   3.401  11.923 -0.4549 -0.0907 -0.0906
 8197SOL    HW136050   0.877   3.317  11.928 -1.4555  0.5696  2.0103
 8197SOL    HW236051   0.918   3.431  12.014 -0.3229  0.1683 -0.1701
 8198SOL     OW36052   1.976   2.699   4.833  0.5990 -0.4410  0.2963
 8198SOL    HW136053   1.960   2.676   4.924 -0.2866  1.7412  0.6764
 8198SOL    HW236054   1.891   2.730   4.801  0.1643 -1.7929  0.1121
 8199SOL     OW36055   2.441   0.195  16.991  0.1091  0.1079  0.1899
 8199SOL    HW136056   2.424   0.260  16.922  2.5315  0.4692 -0.0497
 8199SOL    HW236057   2.472   0.246  17.065 -0.5716  2.4209 -1.1137
 8200SOL     OW36058   1.217   3.853   0.291 -0.1667  0.6224 -0.4349
 8200SOL    HW136059   1.283   3.836   0.358 -0.2694 -0.4267 -0.6128
 8200SOL    HW236060   1.267   3.887   0.217  2.3380 -0.8789  0.5729
 8201SOL     OW36061   3.145   2.968  11.541  1.0000  0.6281 -0.3189
 8201SOL    HW136062   3.209   2.902  11.567  1.0965  1.7057  2.1599
 8201SOL    HW236063   3.165   3.033  11.608  1.9151 -1.4053  1.3729
 8202SOL     OW36064   4.637   3.300   4.527  0.1473 -0.1288  0.3576
 8202SOL    HW136065   4.546   3.325   4.543 -0.5352 -2.1809 -0.3251
 8202SOL    HW236066   4.628   3.257   4.442  1.5270  1.1897 -0.4554
 8203SOL     OW36067   4.256   2.897   1.053  0.4429  0.1050  0.2442
 8203SOL    HW136068   4.312   2.874   1.127  1.3455  1.5520  0.0068
 8203SOL    HW236069   4.274   2.834   0.983 -2.3054 -0.5703  0.1474
 8204SOL     OW36070   2.835   4.637   7.872  0.4033  0.2179  0.4958
 8204SOL    HW136071   2.801   4.605   7.956  0.1732  0.2430  0.4133
 8204SOL    HW236072   2.929   4.630   7.887  0.3655 -1.4725 -0.0617
 8205SOL     OW36073   3.422   0.898   6.240 -0.3010  0.0308  0.1470
 8205SOL    HW136074   3.383   0.895   6.327  0.7093 -0.6312  0.5736
 8205SOL    HW236075   3.385   0.976   6.198  1.0425  0.3534 -0.4624
 8206SOL     OW36076   0.284   2.793   2.203  0.3179  0.0528  0.1403
 8206SOL    HW136077   0.274   2.884   2.230  0.5709  0.5218 -1.3418
 8206SOL    HW236078   0.297   2.762   2.293  1.6884 -0.6781 -0.3059
 8207SOL     OW36079   0.380   4.544   8.885  0.2953  0.0270 -0.4342
 8207SOL    HW136080   0.324   4.615   8.855  0.2906  0.2738  0.1520
 8207SOL    HW236081   0.313   4.476   8.898  0.4830 -0.5127 -2.2406
 8208SOL     OW36082   0.226   3.718   8.616 -0.1951 -0.0977  0.2812
 8208SOL    HW136083   0.175   3.688   8.691  0.7351 -1.7826  0.2275
 8208SOL    HW236084   0.165   3.791   8.605  0.2402  0.4084  1.2278
 8209SOL     OW36085   1.755   1.446   9.033  0.4508 -0.0469 -0.2558
 8209SOL    HW136086   1.782   1.358   9.057  1.5182  0.1311 -0.8324
 8209SOL    HW236087   1.660   1.440   9.049  0.2842 -1.1265 -1.6510
 8210SOL     OW36088   1.974   2.348   1.411  0.4539  0.1831 -0.0773
 8210SOL    HW136089   1.918   2.279   1.375  0.0422  0.7217 -0.4783
 8210SOL    HW236090   1.952   2.412   1.343  0.9097  0.7474  0.3045
 8211SOL     OW36091   3.167   1.569   0.337  0.0888  0.1097 -0.3169
 8211SOL    HW136092   3.238   1.572   0.273 -0.0344 -2.4255 -0.5742
 8211SOL    HW236093   3.184   1.488   0.384 -1.2516 -0.7271 -1.2709
 8212SOL     OW36094   2.724   2.865  16.594 -0.3739 -0.1011  0.2424
 8212SOL    HW136095   2.784   2.798  16.562 -2.8821 -1.6355 -1.2135
 8212SOL    HW236096   2.662   2.854  16.522 -0.3636  0.0973  0.2040
 8213SOL     OW36097   3.739   1.743   9.288  0.4672 -0.4760 -0.4919
 8213SOL    HW136098   3.802   1.693   9.340  0.8693  1.4183  0.8401
 8213SOL    HW236099   3.667   1.684   9.308  0.3703 -0.7030 -1.5279
 8214SOL     OW36100   1.158   1.890  17.621 -0.1690 -0.8065  0.4111
 8214SOL    HW136101   1.222   1.922  17.557 -0.0318  1.2576  1.5763
 8214SOL    HW236102   1.209   1.886   0.023 -0.1201  0.7789  0.4631
 8215SOL     OW36103   1.202   2.130  12.625  0.4038  0.6283 -0.5038
 8215SOL    HW136104   1.212   2.064  12.693  1.1989  2.1061  0.8141
 8215SOL    HW236105   1.269   2.100  12.564  1.1471 -1.6735  1.4633
 8216SOL     OW36106   0.635   1.102   0.366 -0.5428 -0.1409 -0.8758
 8216SOL    HW136107   0.541   1.096   0.380 -0.3357  0.2708  0.6732
 8216SOL    HW236108   0.655   1.196   0.375  0.9302 -0.4425 -1.0381
 8217SOL     OW36109   4.541   3.729   6.542 -0.5318  0.4346  0.7533
 8217SOL    HW136110   4.632   3.714   6.567 -0.4032  1.9208  1.1764
 8217SOL    HW236111   4.544   3.706   6.449 -1.2190  0.9230  0.6096
 8218SOL     OW36112   4.440   4.650  12.643  0.7331  0.4526  0.0384
 8218SOL    HW136113   4.387   4.591  12.696  0.5147  0.2429 -0.4171
 8218SOL    HW236114   4.381   0.007  12.647  1.3213  0.9375 -0.4203
 8219SOL     OW36115   0.330   1.716   2.849 -0.0321  1.0437 -0.2388
 8219SOL    HW136116   0.264   1.690   2.785  0.5808  0.1965 -0.5455
 8219SOL    HW236117   0.294   1.784   2.904 -0.1446  0.4754  0.3854
 8220SOL     OW36118   0.763   1.229  16.737 -0.5607 -0.0102  0.0881
 8220SOL    HW136119   0.732   1.162  16.676 -0.4700  1.8075 -1.9447
 8220SOL    HW236120   0.709   1.307  16.727  0.4787  0.7655  0.5437
 8221SOL     OW36121   1.670   0.073   6.324  0.2266 -0.2270  0.4788
 8221SOL    HW136122   1.721   0.153   6.309  0.5009 -0.2362  1.3607
 8221SOL    HW236123   1.634   0.098   6.409  2.3141  1.8986  0.7471
 8222SOL     OW36124   3.000   1.630  16.433  0.3387  0.0833  0.6439
 8222SOL    HW136125   2.935   1.656  16.498  1.1167 -0.7382  1.7361
 8222SOL    HW236126   2.965   1.542  16.415 -1.0792  0.8245 -0.3171
 8223SOL     OW36127   0.392   2.450   9.458 -0.0574 -0.4533 -0.8120
 8223SOL    HW136128   0.335   2.526   9.447  2.5188  1.4682 -1.0444
 8223SOL    HW236129   0.334   2.375   9.452  0.2101 -0.8247  1.2609
 8224SOL     OW36130   0.733   2.559  10.804 -0.0508  0.1066 -0.3786
 8224SOL    HW136131   0.646   2.543  10.767  0.7401 -0.9591 -1.8049
 8224SOL    HW236132   0.708   2.643  10.842 -0.4654 -0.2040  0.0276
 8225SOL     OW36133   2.321   4.250  17.336  0.0346  0.2269 -0.6408
 8225SOL    HW136134   2.291   4.285  17.420  1.5719  1.7745 -0.7593
 8225SOL    HW236135   2.241   4.239  17.284 -1.7009 -1.4626  2.3479
 8226SOL     OW36136   2.409   3.066   4.373 -0.5288  0.3093 -0.2147
 8226SOL    HW136137   2.473   3.052   4.303  0.9254 -1.3641  1.4591
 8226SOL    HW236138   2.421   2.995   4.437  0.4238  1.0761  0.4556
 8227SOL     OW36139   3.790   1.885   5.782 -0.3225 -0.2647 -0.0037
 8227SOL    HW136140   3.765   1.917   5.696  2.0683 -0.9021 -0.9333
 8227SOL    HW236141   3.865   1.943   5.793  0.8109 -1.6547 -0.4944
 8228SOL     OW36142   0.203   3.089   3.415  0.1779  0.1220  0.4661
 8228SOL    HW136143   0.270   3.129   3.470  1.4361 -0.1300 -0.8894
 8228SOL    HW236144   0.172   3.156   3.354 -0.4021 -0.9671 -0.4325
 8229SOL     OW36145   3.720   2.281   2.851  0.2281 -0.2050  0.2829
 8229SOL    HW136146   3.702   2.317   2.765 -0.3841  0.0014  0.4962
 8229SOL    HW236147   3.667   2.201   2.849 -1.3267  0.8076  0.7381
 8230SOL     OW36148   0.777   3.380  14.110  0.2257  0.0316  0.4479
 8230SOL    HW136149   0.686   3.355  14.124 -0.0373  1.7847  1.8216
 8230SOL    HW236150   0.778   3.443  14.182  1.5193 -0.3305  0.7521
 8231SOL     OW36151   0.957   2.435  17.149  0.3669 -0.2403  0.3241
 8231SOL    HW136152   0.870   2.395  17.137  1.8015 -2.7504 -1.7558
 8231SOL    HW236153   0.949   2.511  17.092 -0.2170 -0.2638  0.3655
 8232SOL     OW36154   3.546   0.003   3.281  0.4700  0.0270 -0.2497
 8232SOL    HW136155   3.641   0.012   3.279  0.4777 -0.0876 -0.5699
 8232SOL    HW236156   3.534   0.040   3.193  0.7848  0.1052 -0.2606
 8233SOL     OW36157   4.108   1.465   8.722 -0.2737 -0.4250  0.0146
 8233SOL    HW136158   4.187   1.421   8.692 -0.1041 -0.1858  0.1034
 8233SOL    HW236159   4.092   1.427   8.809 -1.1892 -1.1413 -0.4699
 8234SOL     OW36160   0.591   0.891  13.995 -0.2815 -0.1707 -0.7684
 8234SOL    HW136161   0.587   0.796  14.006  1.1664  0.0091  1.2739
 8234SOL    HW236162   0.686   0.886  13.979 -0.2328 -0.0701 -0.5112
 8235SOL     OW36163   0.034   4.342   0.408 -0.2661 -0.2111  0.3406
 8235SOL    HW136164   4.690   4.273   0.390  0.2626 -0.7351  0.5208
 8235SOL    HW236165   0.019   4.394   0.329  1.1166  0.3761  0.4553
 8236SOL     OW36166   3.604   1.867   3.283 -0.0017 -0.5144  0.4376
 8236SOL    HW136167   3.577   1.832   3.368  1.1218  0.2152  1.1017
 8236SOL    HW236168   3.691   1.829   3.271  0.3061 -0.0818  1.2879
 8237SOL     OW36169   0.097   2.027   8.308 -0.1737  0.3839 -0.1666
 8237SOL    HW136170   0.173   2.036   8.251 -0.7399  0.9260 -0.8361
 8237SOL    HW236171   0.111   1.949   8.362  1.9720 -0.1738 -1.5274
 8238SOL     OW36172   0.452   3.038   1.551 -0.5249 -0.4977 -0.5312
 8238SOL    HW136173   0.373   3.003   1.510 -0.7621 -1.9516  1.1938
 8238SOL    HW236174   0.467   3.129   1.524  0.5364 -1.1825 -2.2788
 8239SOL     OW36175   4.188   3.168   1.040  0.1300  1.0482  0.7022
 8239SOL    HW136176   4.201   3.090   1.094 -2.7141  0.0284 -0.0726
 8239SOL    HW236177   4.228   3.142   0.957 -1.0560 -0.2629  0.5329
 8240SOL     OW36178   2.761   1.410  12.250 -0.2967  0.6881  0.1000
 8240SOL    HW136179   2.782   1.458  12.330  0.6597 -1.2017  1.0052
 8240SOL    HW236180   2.684   1.357  12.272  0.9997 -0.8158  1.0519
 8241SOL     OW36181   4.326   0.092  10.752  0.0001 -0.2791  0.4653
 8241SOL    HW136182   4.333   0.019  10.690 -1.1197 -0.0159  0.0216
 8241SOL    HW236183   4.387   0.156  10.716 -1.6505  1.3786  0.6137
 8242SOL     OW36184   1.858   2.131   1.282  0.2992 -0.1697 -0.6179
 8242SOL    HW136185   1.854   2.038   1.306 -0.1353 -0.3361 -1.3709
 8242SOL    HW236186   1.769   2.149   1.251 -0.1669  0.5099  1.1141
 8243SOL     OW36187   1.429   1.182  11.874 -0.5017  0.6776 -0.7284
 8243SOL    HW136188   1.516   1.219  11.855 -0.0724  1.7851  3.4229
 8243SOL    HW236189   1.402   1.164  11.784 -0.1244 -1.9926 -0.2768
 8244SOL     OW36190   2.144   0.493   2.736  0.2296 -0.3084 -0.3176
 8244SOL    HW136191   2.057   0.525   2.758  0.8411  0.3973  1.0815
 8244SOL    HW236192   2.178   0.472   2.823 -1.9889  0.8532  0.8378
 8245SOL     OW36193   3.785   0.393  16.238  0.0623  0.5886  0.6891
 8245SOL    HW136194   3.823   0.382  16.150  0.1536  0.4960  0.7401
 8245SOL    HW236195   3.698   0.417  16.206  0.4217  0.3620 -0.4888
 8246SOL     OW36196   2.631   3.772   2.339  0.2090  0.0044  0.0011
 8246SOL    HW136197   2.578   3.702   2.302  0.8848 -1.0020  0.9414
 8246SOL    HW236198   2.658   3.812   2.256 -0.2054 -0.4954 -0.3770
 8247SOL     OW36199   2.933   2.753   8.204 -0.1875 -0.9090  0.1614
 8247SOL    HW136200   2.925   2.693   8.129 -0.7413 -1.2970  0.5263
 8247SOL    HW236201   3.024   2.747   8.234 -0.4515 -1.0913  0.9236
 8248SOL     OW36202   1.638   2.964   3.115  0.3100  0.0777  0.0487
 8248SOL    HW136203   1.722   3.000   3.143  1.2152 -2.4125  0.4736
 8248SOL    HW236204   1.661   2.886   3.066 -0.2022  0.7600 -1.2835
 8249SOL     OW36205   0.098   1.238  10.369 -0.2467 -0.1326  0.4133
 8249SOL    HW136206   0.174   1.197  10.328 -1.0101 -0.1622 -0.9735
 8249SOL    HW236207   0.135   1.326  10.380 -0.1783 -0.2970  1.4804
 8250SOL     OW36208   0.984   2.805   8.843 -0.2295 -0.1495 -0.2860
 8250SOL    HW136209   0.943   2.799   8.757 -0.5063 -1.1741 -0.0827
 8250SOL    HW236210   0.984   2.897   8.867  0.5129  0.0481 -1.0246
 8251SOL     OW36211   0.314   0.922   4.551 -0.2077 -0.0387  0.2856
 8251SOL    HW136212   0.381   0.853   4.553 -0.1495  0.0380  0.7782
 8251SOL    HW236213   0.362   0.990   4.504 -1.5500  1.9618  1.8616
 8252SOL     OW36214   1.919   3.071   6.468  0.2765  0.0102  0.7649
 8252SOL    HW136215   1.858   3.115   6.527  1.5976  2.8060  0.0920
 8252SOL    HW236216   1.886   2.982   6.481  0.1347 -0.0292  0.1415
 8253SOL     OW36217   0.775   2.002  12.626  0.2467  0.1769  0.2864
 8253SOL    HW136218   0.785   2.062  12.552  1.3852  0.1709  0.4224
 8253SOL    HW236219   0.824   1.925  12.595  1.1446  0.7862  0.1860
 8254SOL     OW36220   2.272   2.313   3.794 -0.2734  0.0616 -0.1881
 8254SOL    HW136221   2.303   2.294   3.706 -1.1859  1.5632 -0.8435
 8254SOL    HW236222   2.196   2.367   3.770  0.4277  0.8899 -0.5340
 8255SOL     OW36223   3.417   2.363   5.717  0.2413  0.1585 -0.0515
 8255SOL    HW136224   3.453   2.361   5.806  0.0947 -5.0130 -0.1529
 8255SOL    HW236225   3.433   2.456   5.699 -3.0972  0.4536 -1.4674
 8256SOL     OW36226   3.001   3.337   4.570 -0.1603  0.4472 -0.4983
 8256SOL    HW136227   2.922   3.285   4.554  0.8560 -0.6557 -1.9248
 8256SOL    HW236228   3.005   3.341   4.665  2.1467  0.0405 -0.5831
 8257SOL     OW36229   4.344   3.313   4.538  0.6233 -0.2521  0.1216
 8257SOL    HW136230   4.265   3.325   4.591  0.9773  0.7042  0.4424
 8257SOL    HW236231   4.321   3.388   4.482  1.0867 -2.4611 -2.9808
 8258SOL     OW36232   3.735   1.953   9.117  0.1691  0.4208 -0.1800
 8258SOL    HW136233   3.770   2.013   9.183  1.6156  0.4026 -0.9150
 8258SOL    HW236234   3.731   1.874   9.170  1.1277  0.0547 -0.6629
 8259SOL     OW36235   4.055   2.820   2.703 -0.2706  0.5536  0.1954
 8259SOL    HW136236   4.079   2.825   2.611 -1.8980  0.5877 -0.2170
 8259SOL    HW236237   4.001   2.741   2.701  0.1328  0.2151  1.9988
 8260SOL     OW36238   1.060   0.872   5.994 -0.2315 -0.3149 -0.0403
 8260SOL    HW136239   1.117   0.948   5.992 -1.7420  0.7693 -2.1838
 8260SOL    HW236240   1.027   0.870   5.904 -1.5177 -0.2511  0.4261
 8261SOL     OW36241   0.065   0.715   3.805  0.0427  0.5765  0.3314
 8261SOL    HW136242   0.144   0.749   3.765 -0.5705  0.3234 -1.0804
 8261SOL    HW236243   0.099   0.626   3.818 -0.9502  0.3320  1.3179
 8262SOL     OW36244   0.642   3.716   7.765  0.6897  0.8727  0.0560
 8262SOL    HW136245   0.566   3.725   7.823  0.9894  3.2960  0.0474
 8262SOL    HW236246   0.707   3.693   7.831  1.2737  2.1591 -0.0781
 8263SOL     OW36247   3.628   1.255   3.528 -0.0010 -0.3612 -0.9907
 8263SOL    HW136248   3.637   1.286   3.438 -0.9094 -0.5826 -1.1543
 8263SOL    HW236249   3.549   1.300   3.559  1.1057 -0.0584  1.4528
 8264SOL     OW36250   0.478   1.855   0.264 -0.1740  0.1398  0.3481
 8264SOL    HW136251   0.497   1.797   0.190 -1.0664 -0.7028  0.7722
 8264SOL    HW236252   0.396   1.900   0.242 -0.8599 -0.3209  1.9150
 8265SOL     OW36253   0.901   2.667   9.052 -0.4558  0.1609  0.2629
 8265SOL    HW136254   0.907   2.725   8.976  0.3974 -0.0860  0.1382
 8265SOL    HW236255   0.977   2.688   9.107  0.8307 -0.9951 -1.0356
 8266SOL     OW36256   3.271   0.223   5.199  0.0156  0.0918  0.0187
 8266SOL    HW136257   3.260   0.235   5.105  1.3473  0.4777 -0.0909
 8266SOL    HW236258   3.221   0.298   5.228 -0.5365 -0.4606  0.4943
 8267SOL     OW36259   0.377   4.321   2.974 -0.3317  0.1924  0.1824
 8267SOL    HW136260   0.308   4.372   3.015 -0.4641 -1.9005  2.5667
 8267SOL    HW236261   0.456   4.352   3.017 -0.1339  1.0313 -0.7845
 8268SOL     OW36262   1.531   1.760   3.675 -0.1367 -0.3523  0.1052
 8268SOL    HW136263   1.586   1.829   3.711 -0.8556  0.4962 -0.4069
 8268SOL    HW236264   1.602   1.718   3.626  1.5337  0.7036  1.6308
 8269SOL     OW36265   0.412   2.478   7.436  0.2043 -0.8329 -0.2432
 8269SOL    HW136266   0.328   2.450   7.474 -0.1316 -0.6703 -0.8561
 8269SOL    HW236267   0.394   2.568   7.412  1.2629 -0.3897  0.6360
 8270SOL     OW36268   1.152   0.261  10.220 -0.6478 -0.1218 -0.8641
 8270SOL    HW136269   1.089   0.190  10.231 -1.9360  1.4086  1.5112
 8270SOL    HW236270   1.228   0.207  10.199 -1.0974 -1.0051 -0.2199
 8271SOL     OW36271   1.121   1.890   5.033 -0.4535  0.0483  0.5413
 8271SOL    HW136272   1.135   1.869   4.940  0.1113 -0.4344  0.7413
 8271SOL    HW236273   1.202   1.864   5.077 -2.3618 -0.4413  3.6944
 8272SOL     OW36274   2.226   2.767   5.073  0.2866  0.0241  0.6286
 8272SOL    HW136275   2.245   2.773   5.166 -2.9129 -1.0254  1.3739
 8272SOL    HW236276   2.207   2.674   5.058  1.1414 -0.3517  1.9689
 8273SOL     OW36277   3.340   4.265   3.054 -0.1434  0.0180 -0.9359
 8273SOL    HW136278   3.413   4.303   3.102  1.1909 -2.8715 -0.6814
 8273SOL    HW236279   3.302   4.329   2.993  0.3429 -0.3086 -1.5690
 8274SOL     OW36280   0.060   4.015   9.323 -0.1445 -0.0441 -0.4230
 8274SOL    HW136281   0.023   3.988   9.407 -2.5937  2.7807 -0.6132
 8274SOL    HW236282   4.716   4.082   9.297 -0.1312 -0.3830 -1.3389
 8275SOL     OW36283   1.476   1.922   1.400  0.2596 -0.2112 -0.3837
 8275SOL    HW136284   1.568   1.910   1.375  0.1553 -1.1433 -0.3147
 8275SOL    HW236285   1.436   1.869   1.332  0.2365 -1.2665  0.4543
 8276SOL     OW36286   4.167   0.900   5.691 -0.0409 -0.7141 -0.0862
 8276SOL    HW136287   4.171   0.872   5.783  1.0154 -0.9741 -0.2079
 8276SOL    HW236288   4.216   0.834   5.642  1.2094  1.1617 -1.4006
 8277SOL     OW36289   3.352   4.256   8.923 -0.2881  0.3761 -0.3899
 8277SOL    HW136290   3.311   4.305   8.994  2.4605 -1.3277  2.3537
 8277SOL    HW236291   3.277   4.219   8.877  0.5874 -2.0324  0.1143
 8278SOL     OW36292   1.383   2.521  14.146 -0.3415  0.0704  0.3603
 8278SOL    HW136293   1.463   2.492  14.191  0.3452  1.0426 -0.2463
 8278SOL    HW236294   1.323   2.556  14.212 -0.9336 -0.3556  0.0436
 8279SOL     OW36295   0.633   4.684   2.232 -0.0836 -0.4360  0.2358
 8279SOL    HW136296   0.550   4.698   2.186  1.1981 -0.0751 -1.9256
 8279SOL    HW236297   0.614   4.716   2.320 -1.5909 -0.9505  0.0946
 8280SOL     OW36298   4.130   2.453  16.418  0.4378  0.3062 -0.1879
 8280SOL    HW136299   4.038   2.473  16.399  0.4054  0.7482  0.4357
 8280SOL    HW236300   4.140   2.463  16.512  0.3346 -1.9211  0.0543
 8281SOL     OW36301   3.242   2.523   0.408  0.1209  0.0313 -0.1184
 8281SOL    HW136302   3.204   2.446   0.364 -1.7952 -0.0596  1.6790
 8281SOL    HW236303   3.330   2.513   0.371  1.1561  1.7853  1.9156
 8282SOL     OW36304   0.374   1.107  17.607  0.4173 -0.6675 -0.5535
 8282SOL    HW136305   0.395   1.196  17.577  0.5283 -0.1600  0.9959
 8282SOL    HW236306   0.410   1.057  17.534  0.5253  0.1875 -1.0944
 8283SOL     OW36307   1.130   4.639   5.293  0.3397 -0.4425  0.1643
 8283SOL    HW136308   1.135   0.015   5.299 -4.8313 -0.1921  0.3074
 8283SOL    HW236309   1.217   4.616   5.325 -0.0652 -0.5203  1.2142
 8284SOL     OW36310   3.101   3.777   4.087  0.0761  0.7756  0.1502
 8284SOL    HW136311   3.171   3.840   4.065  0.3842  0.9948  1.7975
 8284SOL    HW236312   3.141   3.696   4.056 -0.7409  0.7419 -0.8292
 8285SOL     OW36313   1.046   1.070  15.379 -0.2260 -0.3049  0.1621
 8285SOL    HW136314   1.008   1.010  15.314  2.5632 -0.0747 -1.6879
 8285SOL    HW236315   1.017   1.034  15.463  0.2659 -0.3002  0.3338
 8286SOL     OW36316   2.493   0.097  13.992 -0.4448 -0.2884  0.1250
 8286SOL    HW136317   2.556   0.118  14.061 -0.8186  1.7938 -0.1554
 8286SOL    HW236318   2.416   0.137  14.034 -0.2703  0.9475 -0.7386
 8287SOL     OW36319   2.948   0.907   8.135  0.3257 -0.2817 -0.1516
 8287SOL    HW136320   2.986   0.979   8.085 -1.1426 -0.5206 -1.6147
 8287SOL    HW236321   2.999   0.837   8.094 -1.7991 -2.7148  1.3580
 8288SOL     OW36322   1.340   3.654   8.221 -0.1800  0.7506  0.3073
 8288SOL    HW136323   1.426   3.614   8.213 -1.3264 -1.8643  0.9378
 8288SOL    HW236324   1.331   3.709   8.143 -2.4549  0.0789  0.0982
 8289SOL     OW36325   1.146   2.362   3.884 -0.1169 -0.3280  0.0093
 8289SOL    HW136326   1.116   2.374   3.794 -0.4785 -1.3340  0.0018
 8289SOL    HW236327   1.160   2.268   3.890  2.4140  0.0607  0.0941
 8290SOL     OW36328   2.287   2.448   8.471 -0.4632  0.3696 -0.5260
 8290SOL    HW136329   2.347   2.522   8.465 -0.8983  0.7580 -0.1569
 8290SOL    HW236330   2.208   2.476   8.517 -0.2510  0.6168 -0.3108
 8291SOL     OW36331   2.217   1.411  16.671 -0.1934 -0.1445  0.1598
 8291SOL    HW136332   2.228   1.472  16.744 -0.0866  1.3238 -1.0846
 8291SOL    HW236333   2.158   1.350  16.716 -1.6806  0.6451 -0.7023
 8292SOL     OW36334   0.052   2.604  12.377 -0.0673 -0.5980 -0.3620
 8292SOL    HW136335   0.032   2.641  12.291  0.8732  2.1774  0.6062
 8292SOL    HW236336   0.147   2.595  12.375  0.1366  2.1498 -2.6912
 8293SOL     OW36337   1.529   2.544   3.048  0.0202  0.0090  0.2802
 8293SOL    HW136338   1.589   2.616   3.066  2.0337 -1.0017 -2.2914
 8293SOL    HW236339   1.530   2.482   3.120  0.3841 -0.1055  0.1766
 8294SOL     OW36340   4.645   1.923   7.167 -0.5662  0.2740  0.3703
 8294SOL    HW136341   0.010   1.915   7.212 -0.0850 -0.9125 -0.7431
 8294SOL    HW236342   4.629   1.834   7.138  1.8912 -0.0232 -0.0802
 8295SOL     OW36343   3.739   4.297  11.212  0.4479  0.0959  0.3692
 8295SOL    HW136344   3.735   4.231  11.142  0.3760  1.2434 -0.7216
 8295SOL    HW236345   3.791   4.366  11.171  0.5068  0.9814  1.9244
 8296SOL     OW36346   2.398   1.876  14.213 -0.6635 -0.0822 -0.5528
 8296SOL    HW136347   2.470   1.928  14.178 -1.7679  0.8823 -1.3619
 8296SOL    HW236348   2.431   1.790  14.240 -0.2086 -0.2215 -1.5804
 8297SOL     OW36349   3.851   2.213   3.118 -0.3733 -0.0322 -0.3952
 8297SOL    HW136350   3.803   2.187   3.197  0.4669  3.3846  1.2199
 8297SOL    HW236351   3.785   2.257   3.065 -2.2187 -2.3419 -0.0163
 8298SOL     OW36352   2.754   0.767   6.372  0.0070  0.5637  0.3529
 8298SOL    HW136353   2.667   0.727   6.370 -0.2480  1.1212  0.4349
 8298SOL    HW236354   2.733   0.860   6.369 -0.2263  0.4893 -0.3138
 8299SOL     OW36355   0.805   0.898   6.934 -0.3346  0.2330 -0.0317
 8299SOL    HW136356   0.888   0.935   6.962  0.7806 -0.7077 -2.1149
 8299SOL    HW236357   0.766   0.917   7.019 -1.7154 -2.2102 -0.1178
 8300SOL     OW36358   2.619   1.078   5.869 -0.6851 -0.4017 -0.3032
 8300SOL    HW136359   2.689   1.129   5.909 -1.9337  0.4830  0.7618
 8300SOL    HW236360   2.633   0.988   5.897  1.1496  0.4568  1.5169
 8301SOL     OW36361   0.356   1.882   6.482  0.1395  0.1854  0.3907
 8301SOL    HW136362   0.374   1.976   6.489  0.0509  0.2873 -0.7980
 8301SOL    HW236363   0.349   1.876   6.387  0.0508  0.3354  0.3884
 8302SOL     OW36364   1.930   1.053   8.988 -0.1286  0.0942 -0.2479
 8302SOL    HW136365   1.942   1.050   8.893  2.5221  2.3101  0.0208
 8302SOL    HW236366   1.902   0.963   9.007 -1.6319  1.0471  2.0573
 8303SOL     OW36367   0.546   1.802   5.748  0.0782 -0.6122 -0.3307
 8303SOL    HW136368   0.626   1.776   5.702  0.4985 -1.6867  1.0253
 8303SOL    HW236369   0.572   1.780   5.837  1.6861  0.5269 -0.5047
 8304SOL     OW36370   0.092   1.489   8.016 -0.3325 -0.0774  0.1668
 8304SOL    HW136371   0.005   1.459   8.040 -0.5345 -0.9736 -1.7069
 8304SOL    HW236372   0.146   1.472   8.094 -0.6663  0.6871  0.5678
 8305SOL     OW36373   3.842   4.197   7.758  0.3717  0.1955  0.9131
 8305SOL    HW136374   3.910   4.263   7.751  2.4239 -1.9280  0.8794
 8305SOL    HW236375   3.806   4.223   7.843  1.1507  4.0637  0.0605
 8306SOL     OW36376   1.438   2.555  14.831  0.6921  0.1699  0.1111
 8306SOL    HW136377   1.378   2.563  14.906 -1.2656 -5.1873 -0.8488
 8306SOL    HW236378   1.487   2.481  14.868  0.1899  0.8133  2.0829
 8307SOL     OW36379   2.673   2.027   5.368 -0.5534 -0.3891 -0.1462
 8307SOL    HW136380   2.586   1.996   5.344 -0.1004 -0.5321 -1.6213
 8307SOL    HW236381   2.643   2.117   5.372 -0.2127 -0.3126  0.6221
 8308SOL     OW36382   2.018   0.021   0.319  0.4963  0.1652 -0.9092
 8308SOL    HW136383   2.022   4.677   0.392 -1.1033 -1.1083 -1.9217
 8308SOL    HW236384   2.105   0.003   0.283  0.4875 -1.5273 -0.1453
 8309SOL     OW36385   3.538   3.218   9.461 -0.1141 -0.1175  0.0495
 8309SOL    HW136386   3.554   3.260   9.546 -0.9841  0.4248 -0.0539
 8309SOL    HW236387   3.621   3.252   9.426 -0.6582  0.2469 -0.8885
 8310SOL     OW36388   2.491   4.174   7.177  0.0079 -0.2317  0.4367
 8310SOL    HW136389   2.516   4.096   7.226 -0.4527 -1.1184 -0.7455
 8310SOL    HW236390   2.402   4.181   7.213 -0.2311 -1.4156  0.0716
 8311SOL     OW36391   2.711   3.695   7.822  0.0656  0.8962 -0.9066
 8311SOL    HW136392   2.708   3.725   7.731 -3.4649  0.0259 -1.0629
 8311SOL    HW236393   2.803   3.672   7.831 -0.8511 -1.8736  1.2650
 8312SOL     OW36394   3.572   4.050   4.115  0.4343  0.0504  0.1095
 8312SOL    HW136395   3.557   4.144   4.118 -4.3919 -0.7015 -0.6281
 8312SOL    HW236396   3.549   4.031   4.206  0.3202 -1.6043 -0.2635
 8313SOL     OW36397   0.614   4.312   6.977 -0.2432  0.7096  0.2214
 8313SOL    HW136398   0.690   4.352   7.018  0.0214  0.8631 -0.4232
 8313SOL    HW236399   0.604   4.379   6.909 -0.5817  0.5039  0.0681
 8314SOL     OW36400   4.152   2.110   9.775  0.3769  1.2599 -0.5725
 8314SOL    HW136401   4.162   2.202   9.749  2.8850  1.3306  0.6451
 8314SOL    HW236402   4.221   2.066   9.725  0.3384  2.4503 -1.6818
 8315SOL     OW36403   3.442   3.916   6.784 -0.0561  0.1915 -0.5676
 8315SOL    HW136404   3.464   3.887   6.873 -3.0756 -0.4552 -0.0259
 8315SOL    HW236405   3.522   3.965   6.763  1.4292 -1.3409  1.4561
 8316SOL     OW36406   1.626   4.043   2.753  0.5005  0.7683 -0.2572
 8316SOL    HW136407   1.679   3.965   2.767 -1.2635 -0.8443 -2.4531
 8316SOL    HW236408   1.540   4.003   2.745  2.1058 -2.3679 -1.6960
 8317SOL     OW36409   0.608   1.725   2.126 -0.0128 -0.0013  0.8570
 8317SOL    HW136410   0.702   1.736   2.138  0.0208  2.0372 -1.3848
 8317SOL    HW236411   0.575   1.788   2.190 -2.1040 -0.6805  0.4468
 8318SOL     OW36412   2.942   2.931   1.233  0.8750  0.0327 -0.5944
 8318SOL    HW136413   2.847   2.929   1.242  1.0387 -1.4255  0.9458
 8318SOL    HW236414   2.962   2.931   1.140 -0.1086 -1.2524 -0.7991
 8319SOL     OW36415   1.425   0.569  11.424  0.1683  0.0073  0.5736
 8319SOL    HW136416   1.434   0.622  11.504 -2.1007 -1.6817  1.9457
 8319SOL    HW236417   1.431   0.476  11.444 -1.4330 -0.1939  0.0275
 8320SOL     OW36418   2.091   1.759  14.479 -0.1895  0.4983 -0.5300
 8320SOL    HW136419   2.067   1.668  14.498  2.5560 -0.1989 -0.4576
 8320SOL    HW236420   2.125   1.754  14.389  2.5523  0.2565  0.5362
 8321SOL     OW36421   1.280   1.900   6.588 -0.3944 -0.0181  0.3710
 8321SOL    HW136422   1.280   1.939   6.675  0.6690  0.8352 -0.0093
 8321SOL    HW236423   1.188   1.875   6.579 -1.0130  2.8984 -1.4683
 8322SOL     OW36424   0.585   3.835   6.822  0.1150 -0.0627  0.3038
 8322SOL    HW136425   0.641   3.842   6.744  1.4425  2.1867  1.4543
 8322SOL    HW236426   0.611   3.920   6.859  1.2446 -0.4472  0.3764
 8323SOL     OW36427   3.812   0.021   6.799 -0.3355  0.4687 -0.0467
 8323SOL    HW136428   3.878   0.080   6.763  0.0546 -0.8321 -1.4782
 8323SOL    HW236429   3.816   0.052   6.889  0.8055 -0.0805  0.0884
 8324SOL     OW36430   1.938   1.639   9.158 -0.2321  0.2005  0.6393
 8324SOL    HW136431   1.898   1.565   9.113 -0.5499  1.4539 -1.1059
 8324SOL    HW236432   1.889   1.639   9.240 -0.3124 -0.7781  0.5881
 8325SOL     OW36433   3.192   0.633   3.377 -0.4648 -0.2819 -0.4056
 8325SOL    HW136434   3.182   0.687   3.300 -1.9019  0.7131  0.4815
 8325SOL    HW236435   3.241   0.701   3.422  0.2264 -1.0543  0.0241
 8326SOL     OW36436   2.510   2.175   9.742 -0.2270  0.4420 -0.1475
 8326SOL    HW136437   2.535   2.161   9.833 -2.2588  1.1818  0.5126
 8326SOL    HW236438   2.559   2.107   9.695 -1.7228 -0.2287 -0.7525
 8327SOL     OW36439   3.811   3.622  10.679 -0.1771  0.0510 -0.0010
 8327SOL    HW136440   3.768   3.643  10.596  0.5207  0.7185 -0.1914
 8327SOL    HW236441   3.824   3.528  10.670  0.0189 -0.0085  0.8918
 8328SOL     OW36442   2.201   2.025   4.274 -0.4283 -0.6598  0.3076
 8328SOL    HW136443   2.276   2.038   4.216 -0.6053  2.5119  0.8038
 8328SOL    HW236444   2.134   1.973   4.230 -0.7893  1.2291 -1.3464
 8329SOL     OW36445   3.386   1.521   1.460  0.4774  0.2111  0.1272
 8329SOL    HW136446   3.400   1.507   1.366  0.0874 -2.4335  0.4644
 8329SOL    HW236447   3.475   1.507   1.492  0.4720  1.1865  0.5659
 8330SOL     OW36448   0.799   1.096   2.738 -0.0942 -0.0962  0.4528
 8330SOL    HW136449   0.734   1.025   2.738 -0.9176  0.6551  0.4498
 8330SOL    HW236450   0.753   1.160   2.684  0.3018 -0.2230 -0.0249
 8331SOL     OW36451   1.532   2.456   9.268 -0.2367 -0.3505  0.0982
 8331SOL    HW136452   1.562   2.374   9.229  2.4629  0.1834  1.0435
 8331SOL    HW236453   1.578   2.516   9.209 -1.2181  0.9806  0.6939
 8332SOL     OW36454   2.307   2.032   0.539  0.6137  0.2668  0.1135
 8332SOL    HW136455   2.285   2.114   0.583  1.2277  0.8302 -0.6178
 8332SOL    HW236456   2.390   2.011   0.582 -0.1407 -0.0316  1.3962
 8333SOL     OW36457   1.463   0.610   5.174  0.7316 -0.7211  0.2109
 8333SOL    HW136458   1.511   0.632   5.254 -0.5116  2.9314 -0.1016
 8333SOL    HW236459   1.512   0.528   5.168 -1.0265 -1.6657 -1.3898
 8334SOL     OW36460   3.279   0.521   1.335 -0.7983 -0.2638 -0.2372
 8334SOL    HW136461   3.294   0.430   1.310 -1.5167 -0.2520 -0.6907
 8334SOL    HW236462   3.281   0.515   1.431 -2.5212  2.9761  0.0011
 8335SOL     OW36463   0.884   4.035   2.657 -0.0641 -0.3582  0.2200
 8335SOL    HW136464   0.854   4.048   2.567  2.8340 -0.3765 -0.7254
 8335SOL    HW236465   0.815   4.074   2.711  0.1979 -0.6986  0.7988
 8336SOL     OW36466   3.574   4.572   7.023 -0.0071 -0.2715  0.3792
 8336SOL    HW136467   3.487   4.535   7.037 -0.0322 -0.4305 -0.2111
 8336SOL    HW236468   3.587   4.630   7.098 -0.6032  1.5812 -0.9468
 8337SOL     OW36469   2.202   3.193   3.306  0.0454  0.4680  0.0711
 8337SOL    HW136470   2.261   3.185   3.380 -0.3995 -2.5031  0.1071
 8337SOL    HW236471   2.265   3.170   3.238 -0.6269 -2.3072  0.3701
 8338SOL     OW36472   3.609   4.548   2.765 -0.3498 -0.0426  0.2935
 8338SOL    HW136473   3.541   4.519   2.826 -0.8604 -0.1424 -0.3284
 8338SOL    HW236474   3.664   4.470   2.765  0.1789  0.3270  1.2542
 8339SOL     OW36475   3.221   1.084   2.310  0.1219 -0.1983 -0.1437
 8339SOL    HW136476   3.254   1.013   2.366 -0.6727  0.4466  1.1317
 8339SOL    HW236477   3.258   1.070   2.222  0.8430 -0.4113  0.1972
 8340SOL     OW36478   2.436   4.232  14.572  0.0973 -0.8416 -0.2647
 8340SOL    HW136479   2.527   4.206  14.558  0.4285 -0.8363  1.9347
 8340SOL    HW236480   2.435   4.316  14.618  3.7308 -0.7478 -0.2814
 8341SOL     OW36481   2.192   0.879  10.458 -0.0505  0.2742  0.2627
 8341SOL    HW136482   2.218   0.954  10.512  0.6183 -0.3487  0.8151
 8341SOL    HW236483   2.096   0.881  10.463 -0.0459  0.6445  0.1133
 8342SOL     OW36484   2.796   4.200  10.694 -0.1807 -0.1839  0.0334
 8342SOL    HW136485   2.805   4.135  10.624  0.4074  0.1237 -0.1793
 8342SOL    HW236486   2.830   4.269  10.637 -1.9892  1.6278  1.1867
 8343SOL     OW36487   0.322   2.371   8.792  0.1291 -0.7404  0.4081
 8343SOL    HW136488   0.392   2.310   8.814 -1.8880 -3.1707  0.0050
 8343SOL    HW236489   0.357   2.458   8.813 -1.9243 -0.4501  2.5568
 8344SOL     OW36490   1.902   3.038   4.426  0.3369 -0.2432  0.0163
 8344SOL    HW136491   1.928   2.959   4.471 -1.7967 -1.6119 -1.1477
 8344SOL    HW236492   1.977   3.070   4.375 -2.3436  1.0304 -3.1478
 8345SOL     OW36493   1.969   3.994   7.798  0.1651 -0.1597  0.6283
 8345SOL    HW136494   1.955   4.019   7.889 -2.4431 -2.4820  0.8691
 8345SOL    HW236495   1.988   3.900   7.805  0.2252 -0.2253 -0.2989
 8346SOL     OW36496   2.592   3.980  16.081 -0.2438 -0.5514  0.2975
 8346SOL    HW136497   2.681   3.960  16.109 -0.2965 -0.5952  0.4382
 8346SOL    HW236498   2.571   3.890  16.059 -1.4964 -0.2542  0.2824
 8347SOL     OW36499   2.991   1.517   3.299  0.6000 -0.2292  0.2457
 8347SOL    HW136500   3.037   1.485   3.377 -1.3040  0.0436  1.4852
 8347SOL    HW236501   2.942   1.596   3.325  0.4169 -0.2052 -0.1821
 8348SOL     OW36502   2.406   2.568  12.300  0.2945 -0.4845 -0.2380
 8348SOL    HW136503   2.499   2.570  12.320 -0.0951  1.3099  1.4039
 8348SOL    HW236504   2.400   2.472  12.298  1.9299 -0.6333  2.3537
 8349SOL     OW36505   4.126   4.152   8.987 -0.2671  0.1027  0.0403
 8349SOL    HW136506   4.173   4.118   8.911  0.0774  0.2090  0.2078
 8349SOL    HW236507   4.062   4.085   9.015  1.0562 -0.7905  0.9416
 8350SOL     OW36508   1.742   2.449  11.756 -0.0687  0.2498 -0.4868
 8350SOL    HW136509   1.789   2.371  11.726 -1.7138 -1.0004  0.1980
 8350SOL    HW236510   1.728   2.429  11.848 -0.4441  0.1583 -0.5657
 8351SOL     OW36511   2.209   4.103  11.526  0.0075 -0.2659  0.0091
 8351SOL    HW136512   2.290   4.155  11.529 -0.5724  0.6608 -0.4941
 8351SOL    HW236513   2.170   4.130  11.443  1.1185  1.5038  0.0669
 8352SOL     OW36514   2.699   1.272   8.287  0.0996  0.5971 -0.4002
 8352SOL    HW136515   2.748   1.343   8.245  4.2585 -1.3907  1.1094
 8352SOL    HW236516   2.666   1.215   8.217 -3.0455  1.1436  0.6257
 8353SOL     OW36517   0.807   3.531  14.493  0.0611 -0.3906 -0.3604
 8353SOL    HW136518   0.717   3.563  14.495 -0.6099 -2.3975  2.0366
 8353SOL    HW236519   0.835   3.578  14.415  2.0369 -0.6204  0.1994
 8354SOL     OW36520   3.060   3.843   2.696 -0.0170 -0.5451 -0.0166
 8354SOL    HW136521   3.111   3.890   2.761  0.3188  0.7441 -1.2227
 8354SOL    HW236522   3.130   3.820   2.636  0.7639  0.1546  0.6304
 8355SOL     OW36523   4.128   0.074  13.581  0.1974 -0.4723  0.1153
 8355SOL    HW136524   4.107   0.118  13.498  6.9509  1.1584 -0.7053
 8355SOL    HW236525   4.107   0.142  13.645  1.7070 -0.1730  0.3016
 8356SOL     OW36526   0.164   1.813   7.270  0.0724  0.0092 -0.6647
 8356SOL    HW136527   0.181   1.723   7.299 -0.9478  0.2532  0.6824
 8356SOL    HW236528   0.227   1.823   7.198 -1.1119  1.8350 -1.4549
 8357SOL     OW36529   3.589   3.933   5.669 -0.1266 -0.1309 -0.1929
 8357SOL    HW136530   3.526   3.994   5.706 -0.1243 -0.2589  0.0217
 8357SOL    HW236531   3.548   3.847   5.683 -0.3613  0.1487  0.7807
 8358SOL     OW36532   3.155   3.446   4.184 -0.3120 -0.1779 -0.5497
 8358SOL    HW136533   3.071   3.456   4.229  0.2103 -1.8142  0.8003
 8358SOL    HW236534   3.206   3.397   4.248  3.8822  2.0814 -2.1618
 8359SOL     OW36535   4.181   3.414  10.289 -0.0363 -0.5442 -0.4972
 8359SOL    HW136536   4.242   3.486  10.302 -1.0754  0.0480  1.2364
 8359SOL    HW236537   4.135   3.403  10.373 -0.1830  0.5973 -0.4292
 8360SOL     OW36538   3.387   0.667   1.150  0.3727  0.1628  0.7866
 8360SOL    HW136539   3.340   0.631   1.224  0.2761 -2.4254 -0.5478
 8360SOL    HW236540   3.400   0.600   1.083  0.1017  0.4179  0.4755
 8361SOL     OW36541   2.817   0.056   0.991  0.0983 -0.0305  0.3202
 8361SOL    HW136542   2.750   0.005   0.945  1.9214  0.0539 -2.4009
 8361SOL    HW236543   2.786   0.031   1.078 -2.8865 -1.1468 -1.0598
 8362SOL     OW36544   3.406   2.857   1.261  0.3842  0.1769 -0.2103
 8362SOL    HW136545   3.342   2.811   1.207 -0.7725  1.2105  0.2803
 8362SOL    HW236546   3.366   2.854   1.348 -0.9823  1.9071 -0.7693
 8363SOL     OW36547   1.955   3.536  13.138  0.3819  0.0642  0.7959
 8363SOL    HW136548   1.954   3.594  13.062 -2.1455  0.7299  1.3490
 8363SOL    HW236549   2.027   3.477  13.114  0.9930  0.9346  0.4921
 8364SOL     OW36550   2.952   2.641   0.099 -0.2733  0.3168  0.2864
 8364SOL    HW136551   2.972   2.717   0.044 -0.5313 -0.0793 -0.3555
 8364SOL    HW236552   2.895   2.583   0.047  1.0363 -1.6047  0.9757
 8365SOL     OW36553   1.500   3.379   9.142 -0.0112 -0.2436  0.1506
 8365SOL    HW136554   1.497   3.452   9.081  2.0294  1.0908  1.6471
 8365SOL    HW236555   1.592   3.356   9.133 -0.4035 -1.7771  0.0660
 8366SOL     OW36556   0.914   1.590   3.649  0.2595 -0.1505  0.1553
 8366SOL    HW136557   0.976   1.521   3.627 -0.1306 -0.6809  0.7109
 8366SOL    HW236558   0.837   1.564   3.597  0.9584 -0.4651 -0.7168
 8367SOL     OW36559   0.220   3.851   7.675  0.1186  0.1213  0.3082
 8367SOL    HW136560   0.168   3.889   7.604  0.4034  0.1133  0.0982
 8367SOL    HW236561   0.269   3.783   7.629  1.0351  0.8032  0.2875
 8368SOL     OW36562   4.468   2.894   3.711  0.3725  0.2661 -0.0893
 8368SOL    HW136563   4.526   2.818   3.711  1.1605  0.8730  0.8167
 8368SOL    HW236564   4.527   2.969   3.712  0.9994 -0.2574  1.9194
 8369SOL     OW36565   1.159   1.746  12.932 -0.2528 -0.7761 -0.0522
 8369SOL    HW136566   1.153   1.814  13.000 -0.1763 -0.3177 -0.5049
 8369SOL    HW236567   1.155   1.664  12.981  0.5518 -1.1039 -0.5270
 8370SOL     OW36568   0.070   3.890  10.081  0.2743 -0.0184 -0.1345
 8370SOL    HW136569   0.043   3.980  10.102  0.0879  0.3894 -2.1825
 8370SOL    HW236570   0.090   3.849  10.165  0.7556  0.3059 -0.0959
 8371SOL     OW36571   3.883   3.246  13.951  0.8674  0.3294  0.4421
 8371SOL    HW136572   3.822   3.317  13.971 -0.5060 -0.6514 -0.1862
 8371SOL    HW236573   3.824   3.170  13.952 -1.4871  2.1880  1.9115
 8372SOL     OW36574   0.555   2.074   7.088  0.2856 -0.2354  0.3157
 8372SOL    HW136575   0.503   2.132   7.144  1.7522 -0.9654  2.4202
 8372SOL    HW236576   0.548   1.983   7.115  0.2553 -0.3804 -0.1816
 8373SOL     OW36577   3.240   0.898   2.948  0.1472 -0.2385 -0.0331
 8373SOL    HW136578   3.192   0.906   2.866 -1.0294 -0.2044  0.6528
 8373SOL    HW236579   3.315   0.954   2.930 -0.8337  0.8777 -0.6371
 8374SOL     OW36580   3.428   3.053   3.027  0.0251 -0.0393 -0.1856
 8374SOL    HW136581   3.470   3.086   3.106 -1.5938 -0.5424  0.8806
 8374SOL    HW236582   3.363   3.122   3.016  1.1241  1.2432  1.3524
 8375SOL     OW36583   4.539   3.152   7.403  0.0281  0.5660  0.0182
 8375SOL    HW136584   4.511   3.155   7.312 -1.3914 -0.4147  0.4201
 8375SOL    HW236585   4.628   3.186   7.398  0.6874 -0.8632  1.7192
 8376SOL     OW36586   0.114   4.471   8.172 -0.5899 -0.0155  0.3175
 8376SOL    HW136587   0.190   4.415   8.187  0.2042  0.5127 -1.6040
 8376SOL    HW236588   0.146   4.526   8.100 -4.0580 -1.1961 -2.0910
 8377SOL     OW36589   2.394   3.694  12.886 -0.0341 -0.4612  0.2688
 8377SOL    HW136590   2.478   3.740  12.884 -1.6739  2.5557  0.6727
 8377SOL    HW236591   2.329   3.757  12.915 -0.4084 -0.5196 -0.4497
 8378SOL     OW36592   1.084   3.607  14.542 -0.4427  1.1491  0.6865
 8378SOL    HW136593   1.086   3.619  14.447 -0.7722  1.2950  0.6953
 8378SOL    HW236594   0.995   3.572  14.541  1.3693 -3.2688 -2.9751
 8379SOL     OW36595   0.428   1.281  13.149  0.0861 -0.2697  0.1924
 8379SOL    HW136596   0.371   1.355  13.128  1.9240  1.6804  2.1353
 8379SOL    HW236597   0.379   1.211  13.106 -1.5956  1.5173 -0.8678
 8380SOL     OW36598   4.710   3.122   6.463  0.0080  0.1028 -0.4445
 8380SOL    HW136599   4.618   3.149   6.470  0.8812  2.3213  2.5418
 8380SOL    HW236600   4.688   3.030   6.449  1.0943 -0.0330 -1.2207
 8381SOL     OW36601   2.957   4.307   6.757  0.0066 -0.3390  0.1795
 8381SOL    HW136602   2.928   4.336   6.843 -0.4019 -0.0482 -0.0518
 8381SOL    HW236603   2.971   4.390   6.711 -2.1236  0.6882  1.3611
 8382SOL     OW36604   4.474   3.271   2.681 -0.1073  0.5583 -0.0333
 8382SOL    HW136605   4.429   3.196   2.641 -2.7207  1.8593  0.4770
 8382SOL    HW236606   4.407   3.330   2.649 -2.4637 -3.3699 -2.3819
 8383SOL     OW36607   4.614   1.383   7.420  0.7125  0.0943  0.0385
 8383SOL    HW136608   4.695   1.338   7.443 -0.2593 -2.0124 -0.6236
 8383SOL    HW236609   4.620   1.377   7.324  0.2766  0.0201  0.0138
 8384SOL     OW36610   4.329   4.568   3.530  0.0321 -0.0533  0.2830
 8384SOL    HW136611   4.238   4.543   3.510  0.2505 -0.8072  0.2166
 8384SOL    HW236612   4.311   4.580   3.623 -0.6709  1.2438 -0.0212
 8385SOL     OW36613   1.393   4.130   5.523 -0.4711 -0.1390 -0.1868
 8385SOL    HW136614   1.310   4.116   5.478 -0.0113 -1.2544 -0.6761
 8385SOL    HW236615   1.374   4.127   5.616  1.3016 -0.8140  0.1514
 8386SOL     OW36616   2.304   0.492   2.963 -0.1313  0.8287  0.2521
 8386SOL    HW136617   2.248   0.455   3.031 -0.2299  1.7065  0.6504
 8386SOL    HW236618   2.380   0.535   3.003  0.2827  1.2633 -0.9875
 8387SOL     OW36619   4.316   2.661   1.253  0.1249 -0.7527  0.3229
 8387SOL    HW136620   4.271   2.628   1.175 -0.8964  2.6351 -0.5300
 8387SOL    HW236621   4.384   2.598   1.274  1.7428  0.7752 -0.3703
 8388SOL     OW36622   3.686   2.997   8.254 -0.3880  0.1907 -0.5741
 8388SOL    HW136623   3.751   3.020   8.188  1.6235  2.7606  2.2764
 8388SOL    HW236624   3.727   3.028   8.335 -1.7184 -2.4128  1.1165
 8389SOL     OW36625   1.258   0.255   7.074 -0.4664 -0.0913 -0.3020
 8389SOL    HW136626   1.278   0.347   7.086  0.7954 -0.6847  2.1424
 8389SOL    HW236627   1.194   0.242   7.144 -0.8169  1.1738 -0.3961
 8390SOL     OW36628   3.553   2.500   0.357 -0.0940 -0.6042  0.3660
 8390SOL    HW136629   3.558   2.466   0.446 -0.8914  1.0454  1.0384
 8390SOL    HW236630   3.584   2.589   0.371  0.8381 -0.9418  0.4013
 8391SOL     OW36631   4.561   3.032   6.006 -0.4984 -0.5815  0.8005
 8391SOL    HW136632   4.564   2.936   6.006  0.1310 -0.5712 -2.3181
 8391SOL    HW236633   4.570   3.051   6.100  3.2006  1.1402  0.1047
 8392SOL     OW36634   2.424   2.279   4.011 -0.9023  0.1357 -0.2624
 8392SOL    HW136635   2.506   2.302   3.967  1.2042 -1.4110  2.7668
 8392SOL    HW236636   2.363   2.284   3.938 -0.7778 -2.1817 -0.5281
 8393SOL     OW36637   2.947   3.362  14.224  0.0306  0.3666  0.0230
 8393SOL    HW136638   2.969   3.409  14.304  0.4173  2.0152 -1.0384
 8393SOL    HW236639   2.973   3.272  14.240  0.1463  0.2320 -0.9114
 8394SOL     OW36640   1.368   4.036  15.448  0.5833  0.2317  0.4451
 8394SOL    HW136641   1.378   4.078  15.363  0.0721  2.7687  1.6499
 8394SOL    HW236642   1.438   4.081  15.497  2.3850 -1.1999 -0.7932
 8395SOL     OW36643   4.171   3.171   9.343  0.2818  0.3819  0.2477
 8395SOL    HW136644   4.147   3.229   9.415  3.1767  2.2738 -0.3028
 8395SOL    HW236645   4.234   3.111   9.382  0.8904  0.2480 -0.9612
 8396SOL     OW36646   2.123   0.294  11.890  0.3204  0.0478 -0.4698
 8396SOL    HW136647   2.114   0.359  11.960  0.0193  1.3974 -1.7433
 8396SOL    HW236648   2.177   0.350  11.834  2.8872 -0.4348  1.5702
 8397SOL     OW36649   2.724   1.763   6.018 -0.7033  0.0429 -0.0421
 8397SOL    HW136650   2.807   1.780   6.064  1.0942 -2.5795 -2.3280
 8397SOL    HW236651   2.747   1.782   5.927  0.1336 -0.1101  0.1336
 8398SOL     OW36652   2.463   1.916  17.204  0.0800  0.0689  0.2835
 8398SOL    HW136653   2.468   2.011  17.198 -2.2066  0.2762  1.9510
 8398SOL    HW236654   2.489   1.903  17.295  2.6561 -1.8791 -0.7036
 8399SOL     OW36655   0.861   1.548  14.284  0.3673 -0.9512 -0.1855
 8399SOL    HW136656   0.941   1.530  14.234 -0.7416 -1.5940 -1.7382
 8399SOL    HW236657   0.901   1.556  14.371  0.3569 -0.0737 -0.2562
 8400SOL     OW36658   4.543   1.178   4.371 -0.1166  0.2855 -0.3226
 8400SOL    HW136659   4.539   1.145   4.281 -1.5281  1.3879 -0.6695
 8400SOL    HW236660   4.542   1.099   4.424  1.5877 -0.4605 -1.4104
 8401SOL     OW36661   0.651   3.638   5.392 -0.4904 -0.4033 -0.1074
 8401SOL    HW136662   0.734   3.680   5.415 -0.3856  0.1374 -1.4990
 8401SOL    HW236663   0.596   3.647   5.470  0.6166 -0.0219  0.6316
 8402SOL     OW36664   4.683   2.703   4.309 -0.2307 -0.5035  0.1366
 8402SOL    HW136665   4.609   2.764   4.313  0.9601  0.7368  2.8251
 8402SOL    HW236666   4.639   2.624   4.342  1.3160 -0.6433  1.8628
 8403SOL     OW36667   1.712   2.385   5.860 -0.4157  0.2508 -0.0070
 8403SOL    HW136668   1.656   2.308   5.867  2.7719 -2.0245  0.3325
 8403SOL    HW236669   1.796   2.345   5.884 -0.8989 -2.6391 -3.0437
 8404SOL     OW36670   3.886   3.924  16.473 -0.6079  0.0544 -0.4402
 8404SOL    HW136671   3.889   3.864  16.547  0.6265  3.4895  2.2533
 8404SOL    HW236672   3.791   3.929  16.461 -1.1767 -3.9896  2.3423
 8405SOL     OW36673   3.182   4.621   7.603 -0.1473  0.1853 -0.1945
 8405SOL    HW136674   3.251   4.687   7.613  0.8832 -0.7173 -1.3415
 8405SOL    HW236675   3.117   4.670   7.554 -0.2434  0.0508 -0.2034
 8406SOL     OW36676   1.123   1.674   1.526 -0.0197 -0.5373 -0.1880
 8406SOL    HW136677   1.155   1.739   1.587  2.3130 -2.0201  0.1492
 8406SOL    HW236678   1.033   1.704   1.509 -0.0700 -1.1547 -1.0124
 8407SOL     OW36679   2.115   4.174  17.167 -0.0374  0.0582  0.1479
 8407SOL    HW136680   2.155   4.104  17.116  1.1746  1.1470 -0.3966
 8407SOL    HW236681   2.044   4.204  17.111  1.7816  0.1366 -2.1066
 8408SOL     OW36682   3.321   2.621  16.808  0.4472 -0.1104  0.2018
 8408SOL    HW136683   3.266   2.615  16.886 -0.1486 -2.7996 -0.4562
 8408SOL    HW236684   3.398   2.567  16.829 -0.0233 -0.0229  2.1887
 8409SOL     OW36685   4.048   1.348   8.968  0.1140 -0.2267 -1.0088
 8409SOL    HW136686   4.127   1.343   9.023  0.5983  2.5200 -1.4848
 8409SOL    HW236687   3.978   1.363   9.031  0.6477 -0.1471 -0.4208
 8410SOL     OW36688   0.334   3.162   0.759 -0.3321 -0.2627  0.0481
 8410SOL    HW136689   0.326   3.245   0.712 -1.2683 -0.1689  0.3798
 8410SOL    HW236690   0.323   3.096   0.690  1.1826 -0.7688  0.3040
 8411SOL     OW36691   3.970   1.040   3.104  0.1581 -0.0064  0.2047
 8411SOL    HW136692   3.934   0.972   3.162  1.0498 -1.5343 -1.0237
 8411SOL    HW236693   4.062   1.039   3.130 -0.3008  0.0891  1.8186
 8412SOL     OW36694   4.157   3.614   2.941 -0.1368  0.0128 -0.1276
 8412SOL    HW136695   4.144   3.677   3.011  0.0884 -2.0277  1.7435
 8412SOL    HW236696   4.067   3.601   2.912 -0.4242  0.0650  0.7529
 8413SOL     OW36697   0.013   2.217   7.788  0.0516 -0.2101  0.1293
 8413SOL    HW136698   4.641   2.227   7.762 -0.3251 -2.1166  0.7437
 8413SOL    HW236699   0.017   2.123   7.769  1.5238 -0.2892  0.8172
 8414SOL     OW36700   2.693   1.600   9.711 -0.5742 -0.1723  0.1958
 8414SOL    HW136701   2.689   1.527   9.773 -1.7849 -0.0856  0.2101
 8414SOL    HW236702   2.722   1.560   9.629  2.3755 -1.5677  1.9187
 8415SOL     OW36703   2.282   3.969   6.419 -0.2272  0.2955 -0.2851
 8415SOL    HW136704   2.312   3.900   6.479  1.5866  1.1611 -0.2017
 8415SOL    HW236705   2.291   4.048   6.472 -0.5368  0.2096 -0.1043
 8416SOL     OW36706   2.898   4.576   4.395  0.1920  0.2912  0.6953
 8416SOL    HW136707   2.952   4.542   4.466  0.2833  0.1232  0.5465
 8416SOL    HW236708   2.893   4.502   4.335 -2.1954  1.8138 -0.9881
 8417SOL     OW36709   0.247   3.704  14.875  0.1000 -0.5729  0.2802
 8417SOL    HW136710   0.167   3.725  14.827 -0.3014 -0.7584  0.8530
 8417SOL    HW236711   0.233   3.612  14.894  0.4203 -0.9387 -1.2706
 8418SOL     OW36712   1.074   1.630   4.617 -0.0700 -0.3719 -0.5020
 8418SOL    HW136713   1.119   1.684   4.683  0.5778 -0.6359 -0.7338
 8418SOL    HW236714   1.018   1.571   4.667  1.6393 -0.9832  0.7079
 8419SOL     OW36715   0.802   2.300   3.815  0.5745  0.4461 -0.3169
 8419SOL    HW136716   0.781   2.207   3.810  0.1276  0.3991  2.2890
 8419SOL    HW236717   0.738   2.319   3.885 -0.3134  0.2034 -1.0623
 8420SOL     OW36718   2.991   3.046   3.487 -0.9876  0.2884 -0.2371
 8420SOL    HW136719   3.041   2.980   3.440  0.7158  0.9182  0.6624
 8420SOL    HW236720   2.910   3.037   3.437 -0.3536 -2.6497 -0.7396
 8421SOL     OW36721   2.914   2.368   9.393 -0.2357  0.3387  0.4932
 8421SOL    HW136722   2.878   2.451   9.363  1.3757  1.3846  1.4435
 8421SOL    HW236723   2.838   2.321   9.430 -0.0604  0.2978  0.8035
 8422SOL     OW36724   4.000   3.445  10.071 -0.4873  0.1377  0.0250
 8422SOL    HW136725   4.033   3.529  10.041 -0.2080 -0.0441 -0.1863
 8422SOL    HW236726   4.052   3.420  10.147 -2.1199 -1.0299  0.7631
 8423SOL     OW36727   0.573   3.514  12.412 -0.6724 -0.1670 -0.1370
 8423SOL    HW136728   0.599   3.505  12.504 -0.4451 -1.6171 -0.3436
 8423SOL    HW236729   0.484   3.544  12.430  0.2651  1.9440  0.9722
 8424SOL     OW36730   2.899   2.763  15.944  0.1484 -0.2036  0.0334
 8424SOL    HW136731   2.873   2.679  15.906  1.0255 -0.8745  0.9056
 8424SOL    HW236732   2.852   2.828  15.892  1.4949 -0.3134 -1.2959
 8425SOL     OW36733   4.437   3.276   3.553  0.1529 -0.2174 -0.3013
 8425SOL    HW136734   4.356   3.281   3.604 -0.0330 -0.5067 -0.5742
 8425SOL    HW236735   4.421   3.346   3.490  2.1701 -0.0048 -0.5922
 8426SOL     OW36736   3.967   0.616   2.458  0.0050  0.4342 -0.1138
 8426SOL    HW136737   3.910   0.542   2.478 -0.4339  0.7587 -0.1716
 8426SOL    HW236738   3.917   0.666   2.393  0.1756  0.2849 -0.3600
 8427SOL     OW36739   0.275   0.129  16.793 -0.2801 -0.3687  0.8814
 8427SOL    HW136740   0.317   0.215  16.793 -0.5284 -0.2464 -0.1053
 8427SOL    HW236741   0.222   0.138  16.872 -1.2878  2.1522 -0.0977
 8428SOL     OW36742   0.809   4.037   1.265 -0.2563 -0.0085 -0.2606
 8428SOL    HW136743   0.890   4.042   1.316 -0.7900 -0.2352  0.6073
 8428SOL    HW236744   0.820   3.949   1.228 -0.0523 -0.3674  0.6690
 8429SOL     OW36745   1.294   2.887   5.687  0.2432 -0.0735  0.3378
 8429SOL    HW136746   1.331   2.975   5.682  1.3700 -0.6540 -1.3754
 8429SOL    HW236747   1.202   2.896   5.664  0.6635 -1.2348 -1.7550
 8430SOL     OW36748   4.504   2.294   4.615  0.8491  0.4575 -0.8969
 8430SOL    HW136749   4.526   2.293   4.708 -0.4173  0.6743 -0.5900
 8430SOL    HW236750   4.581   2.256   4.574  0.9700 -0.9334  0.5814
 8431SOL     OW36751   1.265   0.439   5.290  0.1678 -0.1551  0.5226
 8431SOL    HW136752   1.340   0.493   5.265 -0.3078  0.2115 -0.1410
 8431SOL    HW236753   1.239   0.471   5.376 -1.2445 -0.2172  0.1128
 8432SOL     OW36754   0.526   1.786  10.352 -0.1213 -0.2414  0.0186
 8432SOL    HW136755   0.453   1.807  10.294  0.4417 -1.9773 -1.3258
 8432SOL    HW236756   0.473   1.769  10.430  0.3845  0.4483  0.5126
 8433SOL     OW36757   4.072   0.609   8.269 -0.2085  0.1875  0.3584
 8433SOL    HW136758   4.015   0.682   8.291 -1.9882 -0.9142 -0.6315
 8433SOL    HW236759   4.151   0.662   8.257 -0.1953 -0.3020 -1.6749
 8434SOL     OW36760   1.706   3.292   3.980 -0.3189  0.5635 -0.2224
 8434SOL    HW136761   1.633   3.230   3.977  0.9298 -0.9231  0.8821
 8434SOL    HW236762   1.675   3.349   3.909 -0.1850 -1.5268 -1.9699
 8435SOL     OW36763   4.244   1.028   3.034  0.4967 -0.2157  0.1040
 8435SOL    HW136764   4.278   1.116   3.016  0.6396 -0.7493 -2.2169
 8435SOL    HW236765   4.326   0.981   3.021  1.1022  1.1513 -1.0695
 8436SOL     OW36766   2.674   1.848  11.661  0.0124 -0.2961  0.4092
 8436SOL    HW136767   2.730   1.847  11.583  1.5513 -0.5783  1.5145
 8436SOL    HW236768   2.702   1.927  11.708  1.8007 -0.5717 -0.1741
 8437SOL     OW36769   1.013   3.507   2.691 -0.4796 -0.4005 -0.3472
 8437SOL    HW136770   1.011   3.597   2.723  0.2555 -0.0933 -1.1910
 8437SOL    HW236771   0.926   3.485   2.658 -0.8463  1.7070 -0.7750
 8438SOL     OW36772   0.373   1.342  17.431 -0.1899  0.4940 -0.0098
 8438SOL    HW136773   0.395   1.266  17.378 -1.6500 -1.1972  1.7892
 8438SOL    HW236774   0.439   1.400  17.393  0.0999  0.8103  0.9824
 8439SOL     OW36775   2.789   2.699   3.674  0.2519  0.3107  0.1042
 8439SOL    HW136776   2.786   2.617   3.625  2.4164 -0.5954  1.5182
 8439SOL    HW236777   2.883   2.705   3.690  0.5262  0.7807 -1.6831
 8440SOL     OW36778   3.157   1.775  11.313  0.2040 -0.0713 -0.1714
 8440SOL    HW136779   3.240   1.727  11.322 -0.5079 -1.1553  0.6909
 8440SOL    HW236780   3.123   1.727  11.238 -0.7441 -0.8072  0.7328
 8441SOL     OW36781   1.260   3.907  15.674  0.0310 -0.0170  0.9057
 8441SOL    HW136782   1.258   3.812  15.658  1.5958  0.5244 -2.5968
 8441SOL    HW236783   1.294   3.946  15.593 -0.2756 -0.1277  0.7195
 8442SOL     OW36784   1.560   3.978   0.257  0.1875 -0.0477  0.1436
 8442SOL    HW136785   1.648   3.951   0.230  0.8024 -1.8795  3.9874
 8442SOL    HW236786   1.558   3.941   0.345  0.3783 -3.5364 -1.3183
 8443SOL     OW36787   4.101   4.363  13.401  0.0892 -0.1916 -0.6073
 8443SOL    HW136788   4.047   4.429  13.445  0.3240 -0.2684 -0.2076
 8443SOL    HW236789   4.192   4.394  13.405  0.2297 -0.8560  1.4433
 8444SOL     OW36790   0.571   3.891   0.581 -0.5990  0.5943  0.1837
 8444SOL    HW136791   0.504   3.828   0.607  0.1881 -0.5182 -0.5120
 8444SOL    HW236792   0.520   3.971   0.564  1.0357  0.9542 -3.0923
 8445SOL     OW36793   1.374   0.199   6.568 -0.4992 -0.4185 -0.1310
 8445SOL    HW136794   1.289   0.179   6.528 -0.7684 -0.6482  0.5504
 8445SOL    HW236795   1.354   0.241   6.652  2.5540  2.7261 -0.9633
 8446SOL     OW36796   3.912   3.636   2.844  0.3270  0.0025  0.2108
 8446SOL    HW136797   3.858   3.691   2.901 -0.8065  0.2655 -1.1294
 8446SOL    HW236798   3.840   3.588   2.803  0.1243  2.4057 -2.2390
 8447SOL     OW36799   3.731   3.840   2.622  0.2519 -0.6823  0.5642
 8447SOL    HW136800   3.650   3.879   2.655 -0.8997 -2.1676 -0.5443
 8447SOL    HW236801   3.710   3.834   2.529 -1.0598  1.7198  0.6863
 8448SOL     OW36802   3.077   2.230   8.912 -0.1786  0.5435  0.4390
 8448SOL    HW136803   3.154   2.208   8.963 -0.1902  0.7469  0.5439
 8448SOL    HW236804   3.015   2.161   8.936 -0.5607  0.4879 -0.7171
 8449SOL     OW36805   1.517   4.407  17.155  0.3298 -0.2509  0.1196
 8449SOL    HW136806   1.577   4.460  17.102 -1.3498  1.5137  0.0229
 8449SOL    HW236807   1.557   4.428  17.240 -0.8987 -0.7533  0.8092
 8450SOL     OW36808   0.748   4.486   4.945  0.3129 -0.1456 -0.4742
 8450SOL    HW136809   0.692   4.434   4.888  1.0154 -0.8227 -0.5455
 8450SOL    HW236810   0.813   4.507   4.878 -1.7498 -1.2520 -2.7872
 8451SOL     OW36811   3.523   0.042  13.268 -0.5672  0.3791 -0.2973
 8451SOL    HW136812   3.611   0.076  13.249  0.4545 -2.0485  0.0219
 8451SOL    HW236813   3.465   0.114  13.245 -0.0817  1.4495  1.8403
 8452SOL     OW36814   0.616   3.679   3.113 -0.3859  0.7102  0.4977
 8452SOL    HW136815   0.560   3.696   3.037  3.1107  0.4560 -2.1511
 8452SOL    HW236816   0.555   3.706   3.182 -0.9410  0.5095  0.0828
 8453SOL     OW36817   3.163   0.036   5.924  0.3098 -0.3102  0.5268
 8453SOL    HW136818   3.246   0.004   5.960  2.5149  2.9485 -1.7076
 8453SOL    HW236819   3.199   0.074   5.844 -0.8801  0.8644  0.5620
 8454SOL     OW36820   1.165   2.614   3.309 -0.0409 -0.8445 -0.1854
 8454SOL    HW136821   1.089   2.571   3.270  0.3918 -0.7510 -1.1127
 8454SOL    HW236822   1.223   2.607   3.234  0.1579 -0.9940 -0.0182
 8455SOL     OW36823   4.610   0.842  11.295  0.6094 -0.0734  0.3400
 8455SOL    HW136824   4.661   0.781  11.242  0.4408  1.8110 -1.9895
 8455SOL    HW236825   4.549   0.891  11.240  0.8134 -0.5252 -0.2938
 8456SOL     OW36826   2.364   1.435   0.919 -0.3345  0.4795 -0.1200
 8456SOL    HW136827   2.312   1.484   0.855 -2.4824 -0.3623  0.9957
 8456SOL    HW236828   2.293   1.391   0.965  0.6091 -1.1679 -0.2693
 8457SOL     OW36829   1.475   2.878   4.614 -0.1549 -0.3611  0.1499
 8457SOL    HW136830   1.459   2.807   4.551  1.6902 -0.0572 -0.6538
 8457SOL    HW236831   1.447   2.956   4.566  0.9859  1.1822  1.9827
 8458SOL     OW36832   1.932   0.463  15.286  0.3463  0.1944 -0.2278
 8458SOL    HW136833   1.918   0.555  15.305 -1.2908 -0.2771  0.8851
 8458SOL    HW236834   1.853   0.435  15.333  0.5965  0.2039  0.1934
 8459SOL     OW36835   1.788   1.200   4.279  0.0017 -0.9164 -0.4230
 8459SOL    HW136836   1.815   1.187   4.188  3.0764 -0.5157  0.4145
 8459SOL    HW236837   1.843   1.269   4.315 -1.8927  1.6414 -2.4924
 8460SOL     OW36838   4.631   2.458  16.463  0.4350 -0.6139  0.3797
 8460SOL    HW136839   4.559   2.510  16.427  0.0889 -0.5584  1.1724
 8460SOL    HW236840   4.595   2.418  16.542  0.7322 -1.3879  0.1220
 8461SOL     OW36841   4.649   4.491   6.007  0.1456  0.1021 -0.0969
 8461SOL    HW136842   0.002   4.457   5.953 -2.0435 -1.3790 -2.0716
 8461SOL    HW236843   4.683   4.557   6.069 -1.2631  0.5585  0.1778
 8462SOL     OW36844   1.281   4.251   8.905 -0.0397  0.1208 -0.0514
 8462SOL    HW136845   1.234   4.247   8.822 -2.2544 -2.3700  1.3108
 8462SOL    HW236846   1.212   4.245   8.971  0.9655 -1.5843  0.8573
 8463SOL     OW36847   1.308   3.899   4.900 -0.1109  0.1447 -0.4068
 8463SOL    HW136848   1.313   3.828   4.837  0.7033 -0.0716 -0.0986
 8463SOL    HW236849   1.387   3.878   4.950  1.5582  0.7905 -2.7926
 8464SOL     OW36850   3.666   1.651   4.870  0.3307 -0.2745 -0.5497
 8464SOL    HW136851   3.747   1.613   4.904 -0.2305 -1.6864 -0.7618
 8464SOL    HW236852   3.664   1.728   4.927  1.1124 -0.0812 -0.7847
 8465SOL     OW36853   2.139   0.302   9.505  0.1686 -0.0025 -0.3572
 8465SOL    HW136854   2.160   0.387   9.468 -0.7442  2.0507  3.8472
 8465SOL    HW236855   2.214   0.284   9.562 -0.2567  2.3235  0.9108
 8466SOL     OW36856   3.890   0.219   4.695  0.2097 -0.2808 -0.3895
 8466SOL    HW136857   3.815   0.262   4.735  0.5989  1.3552 -1.3985
 8466SOL    HW236858   3.924   0.300   4.657 -1.1981  0.6290  0.2766
 8467SOL     OW36859   1.712   3.237   5.136  0.1730 -0.1589 -0.0622
 8467SOL    HW136860   1.663   3.222   5.217  0.4180 -0.4910  0.0206
 8467SOL    HW236861   1.794   3.266   5.174  0.5501  0.2187 -1.1601
 8468SOL     OW36862   0.751   2.852  12.965 -0.4368  0.0845 -0.0684
 8468SOL    HW136863   0.767   2.904  12.886 -0.7508  2.1205  1.1859
 8468SOL    HW236864   0.670   2.888  13.000 -0.1696  0.5160  0.1050
 8469SOL     OW36865   1.262   0.521   7.107 -0.3325 -0.0260 -0.3854
 8469SOL    HW136866   1.304   0.504   7.191 -0.4689  1.3214 -0.0553
 8469SOL    HW236867   1.266   0.616   7.108 -2.1606 -0.0096  3.0697
 8470SOL     OW36868   2.910   1.901  12.246 -0.2280 -0.0754 -0.0919
 8470SOL    HW136869   2.957   1.817  12.252 -1.0726 -0.5246  0.2181
 8470SOL    HW236870   2.820   1.885  12.216  0.0486 -2.8948  0.5781
 8471SOL     OW36871   3.091   2.443   8.737 -0.7012  0.5673  0.6228
 8471SOL    HW136872   3.126   2.497   8.808 -0.8625 -0.0211  1.1421
 8471SOL    HW236873   3.063   2.366   8.786 -2.1061  0.7703  0.1614
 8472SOL     OW36874   4.256   2.103  16.941  0.0085 -0.0987  0.1679
 8472SOL    HW136875   4.268   2.188  16.983  1.0421  0.8331 -2.0063
 8472SOL    HW236876   4.169   2.076  16.972 -0.4037  0.3440 -0.6123
 8473SOL     OW36877   4.051   0.577   4.165  0.2581  0.3193  0.8494
 8473SOL    HW136878   4.026   0.486   4.151  1.4594  0.1421 -0.1630
 8473SOL    HW236879   3.974   0.616   4.205  0.9137  1.9418  0.5220
 8474SOL     OW36880   3.741   3.796  16.919  0.7515  0.4343  0.3116
 8474SOL    HW136881   3.671   3.736  16.947  2.2830 -0.7419  1.6945
 8474SOL    HW236882   3.708   3.885  16.911 -0.2237  0.0679  0.2269
 8475SOL     OW36883   4.022   3.847   3.811  0.9984  0.1028 -0.3705
 8475SOL    HW136884   4.059   3.934   3.822 -1.5066  0.7077  3.2849
 8475SOL    HW236885   4.087   3.787   3.849  0.3054 -0.5504 -0.2024
 8476SOL     OW36886   2.117   2.591   7.952 -0.0567 -0.1983 -0.9881
 8476SOL    HW136887   2.100   2.502   7.920 -1.3272 -1.6589  3.7412
 8476SOL    HW236888   2.138   2.580   8.045 -0.1100 -0.4672 -1.0091
 8477SOL     OW36889   0.131   1.305   7.531 -0.4531  0.7077 -0.2385
 8477SOL    HW136890   0.099   1.283   7.618  1.2080  0.1130  0.2161
 8477SOL    HW236891   0.223   1.318   7.554 -0.0481 -0.5366 -1.1366
 8478SOL     OW36892   2.856   2.630   8.869  0.6213 -0.1719  0.3413
 8478SOL    HW136893   2.764   2.655   8.877  0.4547 -0.5288 -0.4645
 8478SOL    HW236894   2.860   2.553   8.925 -2.6415  1.0349  2.2152
 8479SOL     OW36895   3.996   2.542   8.498  0.2923  0.1238 -0.3163
 8479SOL    HW136896   3.957   2.629   8.497 -0.1620 -0.0761 -0.0089
 8479SOL    HW236897   3.920   2.492   8.467 -0.5899  0.5827  1.1259
 8480SOL     OW36898   2.621   3.681  16.040  0.1024 -0.6133  0.5228
 8480SOL    HW136899   2.698   3.624  16.036  1.3195  1.1506 -1.5434
 8480SOL    HW236900   2.576   3.657  15.959  0.7268  2.8010 -0.8108
 8481SOL     OW36901   4.269   1.473   4.386 -0.0046  0.6103  0.0851
 8481SOL    HW136902   4.235   1.414   4.320  0.8152 -1.1082  1.2056
 8481SOL    HW236903   4.363   1.452   4.386  0.0350  0.7835  0.2508
 8482SOL     OW36904   2.888   3.620   8.423  0.4628 -0.5304 -0.1327
 8482SOL    HW136905   2.903   3.542   8.475 -2.4896 -1.5089 -0.7331
 8482SOL    HW236906   2.974   3.639   8.387  0.4566 -1.4190 -0.6111
 8483SOL     OW36907   4.064   0.675   4.502  0.5038 -0.1907 -0.4519
 8483SOL    HW136908   4.124   0.741   4.537 -1.4461  1.4527 -0.1448
 8483SOL    HW236909   4.032   0.712   4.420 -0.9257 -0.1594  0.1173
 8484SOL     OW36910   1.328   2.065   0.080 -0.2888 -0.1796 -0.3471
 8484SOL    HW136911   1.389   2.119   0.130 -0.1191  0.4002 -1.1725
 8484SOL    HW236912   1.274   2.023   0.147 -0.4522 -2.1190 -1.6995
 8485SOL     OW36913   3.166   0.919   9.462 -0.3105  0.5411  0.4261
 8485SOL    HW136914   3.124   0.844   9.422  0.2787 -0.8575  2.4693
 8485SOL    HW236915   3.202   0.958   9.382  0.7942  3.6463  2.4273
 8486SOL     OW36916   0.766   2.559   1.063 -0.5196  0.4662  0.3166
 8486SOL    HW136917   0.854   2.548   1.099 -0.9975 -0.8210  1.0819
 8486SOL    HW236918   0.785   2.628   0.999 -1.3018  0.7763  0.4088
 8487SOL     OW36919   0.278   2.804   1.915  0.1166  0.4656 -0.0272
 8487SOL    HW136920   0.261   2.803   2.009 -0.8079  2.0987 -0.1785
 8487SOL    HW236921   0.349   2.740   1.906 -1.8898 -1.9889  1.7199
 8488SOL     OW36922   4.074   2.780   5.515  0.2807  0.1456 -0.0241
 8488SOL    HW136923   4.060   2.805   5.606  5.6221  2.0908  0.2413
 8488SOL    HW236924   4.058   2.868   5.480  0.3454 -0.0341 -0.5111
 8489SOL     OW36925   0.482   1.654   5.437 -0.4539 -0.7980 -0.1150
 8489SOL    HW136926   0.518   1.742   5.444  1.0383 -1.4714  0.6841
 8489SOL    HW236927   0.398   1.682   5.400 -0.4306 -0.9033 -0.2457
 8490SOL     OW36928   2.727   3.237  15.824 -0.2068 -0.8268 -0.0937
 8490SOL    HW136929   2.806   3.277  15.789 -1.1392  1.5152  0.4802
 8490SOL    HW236930   2.770   3.159  15.859  0.5982  0.2885  1.4108
 8491SOL     OW36931   3.226   0.134  15.962  0.0789  0.5442  0.6476
 8491SOL    HW136932   3.167   0.080  16.015  0.4210 -0.1497  0.3181
 8491SOL    HW236933   3.159   0.184  15.915  0.6475  2.7373  2.1562
 8492SOL     OW36934   3.857   0.475   6.224  0.0426 -0.5621  0.2270
 8492SOL    HW136935   3.880   0.565   6.248  4.2202 -1.1050 -1.5965
 8492SOL    HW236936   3.936   0.421   6.222  0.7405  0.4999 -1.0213
 8493SOL     OW36937   3.229   1.754  14.197 -0.1098 -0.3910 -0.2049
 8493SOL    HW136938   3.225   1.798  14.282  0.7948  0.8474 -0.8010
 8493SOL    HW236939   3.322   1.734  14.187 -0.1425 -0.7584  0.1988
 8494SOL     OW36940   0.865   2.709  17.163  0.0526  0.2401 -0.1970
 8494SOL    HW136941   0.836   2.655  17.236 -3.5345  1.4555 -0.6996
 8494SOL    HW236942   0.782   2.751  17.140  0.2001  0.5467 -0.1690
 8495SOL     OW36943   3.852   2.727   4.406 -0.1880  0.2437  0.3710
 8495SOL    HW136944   3.864   2.822   4.410 -0.3300  0.2759 -0.0220
 8495SOL    HW236945   3.941   2.701   4.382  0.4316  3.8411 -1.2274
 8496SOL     OW36946   1.411   0.043   3.756  0.7349 -0.0524  0.4124
 8496SOL    HW136947   1.369   4.676   3.752  1.3184 -0.2681 -0.9692
 8496SOL    HW236948   1.403   0.058   3.851 -1.7402 -0.1355  0.2304
 8497SOL     OW36949   4.532   3.192   8.580 -0.4459 -0.2009  0.1214
 8497SOL    HW136950   4.480   3.251   8.524 -1.3333  0.6349  1.8324
 8497SOL    HW236951   4.551   3.120   8.520  5.1423 -0.4015  2.0886
 8498SOL     OW36952   3.390   0.604   7.829 -0.5150  0.1612 -0.4840
 8498SOL    HW136953   3.401   0.698   7.814 -0.2779  0.3673  0.9251
 8498SOL    HW236954   3.437   0.591   7.911 -1.4070  0.1111  0.0224
 8499SOL     OW36955   1.645   3.166   7.801  0.4473  0.7471 -0.1383
 8499SOL    HW136956   1.616   3.110   7.873 -1.7606 -0.6137 -2.0836
 8499SOL    HW236957   1.604   3.242   7.841  1.2800  0.5574  1.0748
 8500SOL     OW36958   3.020   1.725   6.816 -0.1738 -0.1357  0.3850
 8500SOL    HW136959   3.094   1.735   6.757 -0.8488  2.0500 -0.0594
 8500SOL    HW236960   2.969   1.805   6.810 -2.0213 -1.3758 -0.5060
 8501SOL     OW36961   0.025   2.171  12.371 -0.0108  0.1305  0.3766
 8501SOL    HW136962   4.697   2.246  12.408 -0.4703 -0.6289  1.3304
 8501SOL    HW236963   4.666   2.129  12.333  0.0545  0.3866 -0.0401
 8502SOL     OW36964   2.374   2.838   0.066 -0.1881 -0.2043 -0.1457
 8502SOL    HW136965   2.432   2.852   0.140 -0.3560  1.2168 -0.2869
 8502SOL    HW236966   2.396   2.920   0.021 -1.6291  0.3183  0.1164
 8503SOL     OW36967   0.694   3.824  14.705  0.2385  0.4873 -0.6620
 8503SOL    HW136968   0.677   3.802  14.613  1.8943 -2.5315 -0.2469
 8503SOL    HW236969   0.625   3.771  14.745  0.1692  1.3894  0.3959
 8504SOL     OW36970   0.754   3.271  15.746  0.3069  0.0801  0.2327
 8504SOL    HW136971   0.779   3.220  15.822 -0.7467 -1.0017 -0.1521
 8504SOL    HW236972   0.802   3.223  15.678  1.0141  0.0121  0.7793
 8505SOL     OW36973   1.391   1.748   2.949  0.0136  0.1540  0.5281
 8505SOL    HW136974   1.478   1.722   2.918 -0.6540 -1.9523  0.4204
 8505SOL    HW236975   1.331   1.681   2.918 -0.4682  0.2245  1.2914
 8506SOL     OW36976   3.826   4.487   6.976  0.0983  0.1376 -0.1792
 8506SOL    HW136977   3.848   4.493   6.883 -1.4648 -0.3399 -0.5804
 8506SOL    HW236978   3.736   4.519   6.978 -0.1396 -0.5179 -0.3747
 8507SOL     OW36979   4.062   1.769  12.430  0.3994  0.1070 -0.4375
 8507SOL    HW136980   4.026   1.800  12.512  0.9151  0.4960 -0.3589
 8507SOL    HW236981   4.155   1.768  12.453  0.5961 -1.5062 -1.2732
 8508SOL     OW36982   1.150   3.857   5.905 -0.1869 -0.2833  0.6909
 8508SOL    HW136983   1.066   3.886   5.870 -1.0944 -2.2862  1.1688
 8508SOL    HW236984   1.179   3.939   5.944  3.0561 -1.2258  0.2585
 8509SOL     OW36985   0.566   0.385  11.228 -0.0928  0.7571 -0.1328
 8509SOL    HW136986   0.548   0.300  11.267 -0.9347  0.7809 -0.4576
 8509SOL    HW236987   0.599   0.369  11.140 -0.5563  0.9234 -0.3408
 8510SOL     OW36988   3.235   3.620   3.885  0.4663  0.3234  0.3343
 8510SOL    HW136989   3.218   3.527   3.903 -1.0783 -0.0312 -3.0403
 8510SOL    HW236990   3.331   3.625   3.880  0.5817 -2.1714 -0.2433
 8511SOL     OW36991   4.479   3.442   3.339 -0.4885 -0.1330 -0.6204
 8511SOL    HW136992   4.462   3.447   3.245 -0.9615  0.1179 -0.5192
 8511SOL    HW236993   4.563   3.488   3.335 -0.0725 -0.9669 -1.6627
 8512SOL     OW36994   3.802   3.469  10.278 -0.5847 -0.1775  0.5861
 8512SOL    HW136995   3.888   3.479  10.319 -0.6350  0.9906  0.3996
 8512SOL    HW236996   3.825   3.476  10.185  1.0732 -0.9747  0.9239
 8513SOL     OW36997   3.303   3.992   5.166  0.2176  0.2710  0.1426
 8513SOL    HW136998   3.323   3.899   5.166 -0.9662  0.0250 -1.3064
 8513SOL    HW236999   3.373   4.033   5.218  0.3373 -1.2840  1.2109
 8514SOL     OW37000   3.838   4.340   8.756  0.4189 -0.0362  0.3302
 8514SOL    HW137001   3.747   4.366   8.763 -0.3800 -3.4314  2.8365
 8514SOL    HW237002   3.866   4.365   8.844 -1.5572 -0.0250  0.9484
 8515SOL     OW37003   3.386   0.483   8.474  0.3837 -0.2936 -0.0358
 8515SOL    HW137004   3.413   0.426   8.402  0.1178 -1.2178  0.5995
 8515SOL    HW237005   3.293   0.505   8.466  0.3697 -0.2993  0.1122
 8516SOL     OW37006   4.675   0.505  11.933  0.5156  0.1448  1.0919
 8516SOL    HW137007   4.668   0.588  11.980 -1.5572  0.8517 -0.4740
 8516SOL    HW237008   4.621   0.526  11.857  1.1228  1.2878  0.9720
 8517SOL     OW37009   0.591   2.028  15.477 -0.0161  0.7276  0.7284
 8517SOL    HW137010   0.520   2.057  15.534  0.6234 -0.9269  2.3700
 8517SOL    HW237011   0.582   1.935  15.497  0.7828  0.2115 -1.3358
 8518SOL     OW37012   2.763   0.364   0.014 -0.2654  0.1973 -0.6195
 8518SOL    HW137013   2.691   0.376   0.076  1.1890  1.0268  0.9191
 8518SOL    HW237014   2.825   0.398   0.079  1.3899  0.1600 -2.1933
 8519SOL     OW37015   0.461   4.607   4.288 -0.4747 -0.3097 -0.8020
 8519SOL    HW137016   0.458   4.527   4.235  1.9259  0.2522 -1.8006
 8519SOL    HW237017   0.377   4.590   4.330 -1.0114  1.6919 -1.0395
 8520SOL     OW37018   0.118   1.726   7.582  0.4729  0.0254  0.1980
 8520SOL    HW137019   0.163   1.679   7.511  1.9954  0.6238  0.7798
 8520SOL    HW237020   0.157   1.685   7.659  1.1715  0.6150  0.1530
 8521SOL     OW37021   1.471   1.149   2.028 -0.0176 -0.5174  0.0088
 8521SOL    HW137022   1.404   1.097   1.982  1.2081  0.6739 -3.1175
 8521SOL    HW237023   1.530   1.083   2.065  1.0280  0.2867 -0.2464
 8522SOL     OW37024   0.216   3.879  13.527  0.2846 -0.7356  0.4069
 8522SOL    HW137025   0.299   3.837  13.502 -0.6030 -1.6037 -1.0823
 8522SOL    HW237026   0.233   3.892  13.620 -0.8727 -0.0848  0.5178
 8523SOL     OW37027   0.148   3.159   8.687 -0.1667 -0.5570 -0.5120
 8523SOL    HW137028   0.151   3.249   8.657  1.4335  0.3807  2.4231
 8523SOL    HW237029   0.171   3.114   8.606  0.2528  0.7106 -1.0978
 8524SOL     OW37030   2.987   0.906   8.665 -0.2484  0.1435  0.1155
 8524SOL    HW137031   2.982   0.994   8.703  0.1424 -0.0221  0.5568
 8524SOL    HW237032   2.966   0.923   8.573 -1.0441  0.3767  0.3478
 8525SOL     OW37033   3.979   4.156   4.999 -0.3315 -0.1750  0.1190
 8525SOL    HW137034   3.980   4.194   4.911  0.0673  0.8152  0.5486
 8525SOL    HW237035   4.052   4.095   4.989 -1.1992 -0.9839 -1.1927
 8526SOL     OW37036   4.034   4.673   3.063 -0.4139  0.0836 -0.2864
 8526SOL    HW137037   4.065   4.708   2.980  0.6545 -0.9666 -0.3376
 8526SOL    HW237038   4.116   4.651   3.108  0.0829 -0.8547 -1.6625
 8527SOL     OW37039   3.055   2.871   6.463 -0.1671 -0.7409 -0.6921
 8527SOL    HW137040   3.085   2.783   6.444  0.6737 -0.5120 -0.4579
 8527SOL    HW237041   3.027   2.896   6.375 -1.2457  1.5261  0.2774
 8528SOL     OW37042   4.386   2.856   8.727  0.6425 -0.3450 -0.5836
 8528SOL    HW137043   4.325   2.912   8.678  1.0433 -0.3667 -1.1082
 8528SOL    HW237044   4.386   2.886   8.818 -3.1448  0.3572 -0.7869
 8529SOL     OW37045   1.528   0.392   3.604 -1.0357  0.1746  0.8049
 8529SOL    HW137046   1.496   0.301   3.605 -1.6967  0.3940 -0.7024
 8529SOL    HW237047   1.531   0.415   3.697 -1.6678 -0.7614  1.0613
 8530SOL     OW37048   0.108   4.503  10.235  0.6402 -0.2113  0.3534
 8530SOL    HW137049   0.153   4.440  10.291  0.9863 -0.9319 -0.7432
 8530SOL    HW237050   0.102   4.457  10.151  0.8735  1.2809 -0.4966
 8531SOL     OW37051   1.884   4.272  12.786  0.1917 -0.6722  0.2770
 8531SOL    HW137052   1.950   4.229  12.732  0.1699  0.5067 -0.7201
 8531SOL    HW237053   1.865   4.346  12.727  0.0336 -1.9971 -1.3313
 8532SOL     OW37054   3.603   2.407   3.116  0.4305  0.5932  0.3480
 8532SOL    HW137055   3.616   2.417   3.022 -0.3462  0.6359  0.2480
 8532SOL    HW237056   3.508   2.398   3.126  0.1458  1.7403 -1.3846
 8533SOL     OW37057   0.983   3.737  10.017 -0.2886  0.2662  0.0740
 8533SOL    HW137058   0.903   3.784  10.043  0.1619  1.1038 -0.0490
 8533SOL    HW237059   0.950   3.717   9.929  0.5053  2.5451 -0.7572
 8534SOL     OW37060   2.709   3.276   8.526  0.3656  0.4401  0.2140
 8534SOL    HW137061   2.659   3.240   8.598 -0.7783 -2.4166 -2.0130
 8534SOL    HW237062   2.771   3.329   8.576  3.0689 -1.9531 -0.6149
 8535SOL     OW37063   0.681   0.222   7.500  0.3081 -0.4636 -0.6662
 8535SOL    HW137064   0.761   0.211   7.448  0.4588  2.6447 -1.1309
 8535SOL    HW237065   0.702   0.155   7.565  2.9358 -0.6764 -1.7477
 8536SOL     OW37066   1.242   3.582   3.550  0.0404  0.0920 -0.1793
 8536SOL    HW137067   1.190   3.655   3.516  0.2322 -0.3089 -1.3594
 8536SOL    HW237068   1.325   3.620   3.576 -0.9705 -0.6288  4.1423
 8537SOL     OW37069   3.580   1.676   8.438 -0.1554 -0.0898  0.3893
 8537SOL    HW137070   3.533   1.621   8.375 -1.7762  1.2358  0.4461
 8537SOL    HW237071   3.613   1.753   8.392  0.3482 -1.5147 -1.6340
 8538SOL     OW37072   3.663   3.276  11.381 -0.1480  0.4220  0.8565
 8538SOL    HW137073   3.667   3.312  11.469  1.0018  0.1735  0.9091
 8538SOL    HW237074   3.596   3.215  11.413  1.9266 -3.0802 -1.3654
 8539SOL     OW37075   1.360   2.279   8.667  0.2220 -0.2046 -0.0330
 8539SOL    HW137076   1.410   2.240   8.739  2.3042  1.4760 -0.5748
 8539SOL    HW237077   1.347   2.204   8.609  2.6204 -0.6976  0.0463
 8540SOL     OW37078   3.192   1.165   5.618  0.0353  0.0161  0.2942
 8540SOL    HW137079   3.118   1.105   5.621  0.1580 -0.1869 -1.2130
 8540SOL    HW237080   3.143   1.246   5.631  3.5987  2.0854  0.8053
 8541SOL     OW37081   1.462   0.514  15.784  0.3155 -0.1610  1.2185
 8541SOL    HW137082   1.519   0.590  15.794  1.2957 -0.8316  0.8427
 8541SOL    HW237083   1.494   0.479  15.700  2.2907 -1.2006  2.3860
 8542SOL     OW37084   2.324   3.738   6.589  0.2034  0.5102  0.8515
 8542SOL    HW137085   2.299   3.646   6.599 -0.8138  0.2481 -4.5516
 8542SOL    HW237086   2.410   3.728   6.629  1.3008  3.9418 -0.7318
 8543SOL     OW37087   1.961   1.616  10.911 -0.3042 -0.3671  0.1078
 8543SOL    HW137088   1.923   1.690  10.959  1.5697 -0.3964  1.6420
 8543SOL    HW237089   1.931   1.638  10.823  1.6510 -1.8185 -0.9266
 8544SOL     OW37090   2.199   1.802   6.155 -0.4488 -0.0146  0.2628
 8544SOL    HW137091   2.201   1.770   6.246 -1.9213 -0.5716  0.1073
 8544SOL    HW237092   2.159   1.735   6.099 -1.5834  0.8939 -0.0090
 8545SOL     OW37093   1.884   1.471   4.390  0.7182 -0.6662  0.8935
 8545SOL    HW137094   1.970   1.480   4.430  1.8600 -2.2967 -1.1768
 8545SOL    HW237095   1.828   1.466   4.467 -0.9774  0.2649 -0.2778
 8546SOL     OW37096   2.930   2.535   2.632 -0.1656  0.5710  0.5153
 8546SOL    HW137097   2.838   2.519   2.653 -0.4140 -0.7389 -1.5307
 8546SOL    HW237098   2.916   2.620   2.589  1.1054  1.4935  1.9462
 8547SOL     OW37099   0.415   1.731   1.583  0.3555  0.3016 -0.4902
 8547SOL    HW137100   0.404   1.638   1.561 -1.1615  0.0262  1.4196
 8547SOL    HW237101   0.376   1.740   1.669 -0.7986  2.4813 -1.2580
 8548SOL     OW37102   1.275   2.278  17.581 -0.2678 -0.6005 -0.5690
 8548SOL    HW137103   1.278   2.194  17.626 -0.2929 -0.7825 -0.9058
 8548SOL    HW237104   1.282   2.250  17.490  1.8986  1.6769 -1.0965
 8549SOL     OW37105   2.748   4.153  15.680 -0.0811 -0.4575 -0.4786
 8549SOL    HW137106   2.754   4.138  15.586  3.7472 -1.1531 -0.1063
 8549SOL    HW237107   2.784   4.241  15.690  1.1367 -0.9789 -0.2246
 8550SOL     OW37108   2.587   0.107   5.158  0.5209 -0.1641 -0.3398
 8550SOL    HW137109   2.639   0.055   5.219  2.5910  1.1424 -0.9765
 8550SOL    HW237110   2.516   0.046   5.142  0.2942  0.2437 -0.8870
 8551SOL     OW37111   0.083   2.406   7.984 -0.0405  0.5627  0.7577
 8551SOL    HW137112   4.707   2.422   7.980 -0.0952  0.0754 -0.0199
 8551SOL    HW237113   0.089   2.359   7.900 -0.8738  2.9899 -0.6744
 8552SOL     OW37114   3.305   3.975   8.663  0.1614 -0.1995  0.4062
 8552SOL    HW137115   3.225   4.025   8.680  0.5051 -0.2484  2.1936
 8552SOL    HW237116   3.255   3.902   8.628  0.2966  0.7133 -1.7090
 8553SOL     OW37117   1.175   2.437   8.345 -0.0995  0.7215 -0.4510
 8553SOL    HW137118   1.094   2.385   8.345 -0.6545  1.6229  2.6920
 8553SOL    HW237119   1.249   2.377   8.338 -0.0089  0.8202 -0.3521
 8554SOL     OW37120   3.096   2.600  10.666  0.4213  0.2568  0.7581
 8554SOL    HW137121   3.121   2.689  10.642  1.0979 -0.0877  0.2182
 8554SOL    HW237122   3.022   2.618  10.724 -0.5665 -0.7176 -0.1934
 8555SOL     OW37123   3.463   2.969  10.565 -0.6345  0.3057 -0.6111
 8555SOL    HW137124   3.371   2.971  10.588 -0.2684  0.7292  0.7782
 8555SOL    HW237125   3.470   2.899  10.499  1.4606 -0.7613  0.7518
 8556SOL     OW37126   0.127   2.451   4.065 -0.2666 -0.4376  0.0772
 8556SOL    HW137127   0.098   2.542   4.071  2.1464  0.2120  1.8572
 8556SOL    HW237128   0.221   2.459   4.055  0.0771 -1.0497  2.7690
 8557SOL     OW37129   0.329   4.375   3.601 -0.6938  0.2871  0.2095
 8557SOL    HW137130   0.351   4.348   3.512 -1.4285  2.2765 -0.5814
 8557SOL    HW237131   0.384   4.449   3.624 -0.4963  0.1421  0.1982
 8558SOL     OW37132   3.897   3.490   3.849  0.5098  0.1155  0.1462
 8558SOL    HW137133   3.836   3.563   3.839  2.8977  1.7963 -2.1101
 8558SOL    HW237134   3.865   3.419   3.793 -1.8203  0.7080  0.7543
 8559SOL     OW37135   4.016   0.474   8.486 -0.1132  0.4333 -0.2502
 8559SOL    HW137136   4.095   0.421   8.489 -0.5700 -0.2445 -0.2032
 8559SOL    HW237137   4.023   0.523   8.404  2.7835  3.9769  2.1412
 8560SOL     OW37138   4.145   3.625  12.107 -0.6930 -0.3926  0.1564
 8560SOL    HW137139   4.231   3.636  12.068 -1.6084 -0.1170 -1.7609
 8560SOL    HW237140   4.097   3.606  12.026 -2.6789  0.3082  1.1548
 8561SOL     OW37141   2.749   0.628  12.088 -0.2675 -0.3197 -0.4140
 8561SOL    HW137142   2.750   0.534  12.070 -0.6380 -0.6564  1.3363
 8561SOL    HW237143   2.709   0.638  12.174 -1.5296 -1.3556 -0.8738
 8562SOL     OW37144   1.252   0.111   3.523  0.4319 -0.5144  0.0591
 8562SOL    HW137145   1.294   0.102   3.608 -0.4395  0.8605  0.6398
 8562SOL    HW237146   1.205   0.028   3.532 -2.6006  1.1897  0.1716
 8563SOL     OW37147   0.106   0.511   1.539 -0.1972 -0.1031  0.2175
 8563SOL    HW137148   0.031   0.528   1.483  1.9359 -0.0733 -2.6046
 8563SOL    HW237149   0.072   0.541   1.624 -2.1166  2.0826 -1.3304
 8564SOL     OW37150   4.457   1.996  12.572  0.0545 -0.4442  0.1139
 8564SOL    HW137151   4.481   2.065  12.633  0.2874  0.6615 -1.2296
 8564SOL    HW237152   4.421   2.053  12.504 -0.3566  0.0115  0.7043
 8565SOL     OW37153   0.188   2.326   6.660 -0.4630 -0.2831  0.2393
 8565SOL    HW137154   0.148   2.405   6.623 -1.1510 -0.8184 -0.1635
 8565SOL    HW237155   0.152   2.325   6.748  0.5629  1.6852  0.6752
 8566SOL     OW37156   3.408   0.691   6.976 -0.7278 -0.1765  0.5840
 8566SOL    HW137157   3.500   0.665   6.972 -0.3739  1.2319 -0.4411
 8566SOL    HW237158   3.384   0.669   6.886  0.7089  0.4103  0.0630
 8567SOL     OW37159   4.082   0.553   4.853 -0.1558  0.1177 -0.4163
 8567SOL    HW137160   4.056   0.498   4.927 -0.4276 -0.2437 -0.7849
 8567SOL    HW237161   4.003   0.599   4.827  0.1816 -0.2423 -2.0567
 8568SOL     OW37162   1.822   0.320   7.168 -0.5426  0.3582  0.3306
 8568SOL    HW137163   1.790   0.240   7.126  0.9006  0.5763 -1.1973
 8568SOL    HW237164   1.880   0.282   7.235 -0.8599  3.2638  2.2375
 8569SOL     OW37165   1.850   1.295  12.144  0.4730 -0.9650 -0.1386
 8569SOL    HW137166   1.911   1.362  12.113 -0.3496 -0.3570 -0.4769
 8569SOL    HW237167   1.781   1.310  12.079  0.2704  1.0375  0.5188
 8570SOL     OW37168   1.622   1.862  12.762  0.6416  0.6166 -0.7579
 8570SOL    HW137169   1.655   1.863  12.673  1.5995  0.6249 -0.4009
 8570SOL    HW237170   1.604   1.769  12.773 -1.2332  0.9966 -0.5456
 8571SOL     OW37171   1.404   0.638   4.036  0.4734  0.3615 -0.0297
 8571SOL    HW137172   1.394   0.732   4.021 -0.7459  0.5364  1.8296
 8571SOL    HW237173   1.321   0.596   4.013  1.1578  0.4706 -2.7061
 8572SOL     OW37174   2.122   2.765   8.207  0.3848 -0.4550 -0.5768
 8572SOL    HW137175   2.062   2.760   8.282  0.0205 -0.3658 -0.8595
 8572SOL    HW237176   2.066   2.797   8.136 -0.9693 -2.4850 -0.4247
 8573SOL     OW37177   4.434   2.523  16.771 -0.2057  0.0558  0.3649
 8573SOL    HW137178   4.475   2.600  16.732 -2.5767 -0.3365 -2.8780
 8573SOL    HW237179   4.504   2.481  16.821  0.8479  0.6751 -0.5972
 8574SOL     OW37180   4.010   2.635  15.783  0.3188 -0.0149 -0.1741
 8574SOL    HW137181   3.989   2.722  15.816  0.0740 -0.0676 -0.1893
 8574SOL    HW237182   4.090   2.645  15.732  0.9730 -0.0094  0.8563
 8575SOL     OW37183   3.078   4.235   9.629 -0.6349  0.0184  0.2571
 8575SOL    HW137184   3.005   4.268   9.576  1.1373  1.5822 -1.2198
 8575SOL    HW237185   3.140   4.220   9.558  1.4448 -0.8642  2.2743
 8576SOL     OW37186   3.175   1.843   1.527  0.0111 -0.6125  0.7148
 8576SOL    HW137187   3.240   1.858   1.459  1.6278  0.7668  2.5991
 8576SOL    HW237188   3.151   1.934   1.542 -0.5714 -0.0456 -3.5615
 8577SOL     OW37189   2.368   2.546   0.610 -0.2715 -0.1072  0.2291
 8577SOL    HW137190   2.357   2.459   0.649  0.9725  0.3322  1.5457
 8577SOL    HW237191   2.282   2.578   0.638 -0.6864  0.6682 -1.9430
 8578SOL     OW37192   2.354   3.963   6.102  1.0106 -0.0419  0.1679
 8578SOL    HW137193   2.404   4.041   6.077  1.1187 -0.6259 -1.4277
 8578SOL    HW237194   2.402   3.883   6.079  1.2252  0.2639 -0.4587
 8579SOL     OW37195   0.002   1.140  14.250  0.1325  0.1671 -0.2686
 8579SOL    HW137196   4.686   1.206  14.190 -0.3703 -1.1570 -1.4341
 8579SOL    HW237197   0.003   1.062  14.194  0.7242 -0.2737  0.3566
 8580SOL     OW37198   1.814   4.466   7.700 -0.0873 -0.5342  0.2037
 8580SOL    HW137199   1.802   4.550   7.744  1.8279 -0.5104  0.6972
 8580SOL    HW237200   1.736   4.471   7.645 -0.9845 -1.9599  1.3620
 8581SOL     OW37201   1.307   2.695   6.869 -0.9838  0.9743 -0.2044
 8581SOL    HW137202   1.320   2.672   6.961 -1.9037  2.1003  0.2120
 8581SOL    HW237203   1.226   2.651   6.845 -0.8434  1.2195 -1.0980
 8582SOL     OW37204   1.055   3.299   5.994  0.2837 -0.4310  0.8831
 8582SOL    HW137205   1.068   3.394   5.993  0.9813 -0.5191  1.6598
 8582SOL    HW237206   0.973   3.285   6.041 -0.5298  0.5016 -0.2472
 8583SOL     OW37207   0.035   0.806   5.817 -0.0021  0.4932 -0.1528
 8583SOL    HW137208   0.055   0.735   5.878 -1.2534 -1.7517 -2.3476
 8583SOL    HW237209   0.031   0.884   5.872  0.8027  0.3778  0.0679
 8584SOL     OW37210   0.938   1.658  10.674  0.3903 -0.0469 -0.0581
 8584SOL    HW137211   1.031   1.668  10.697  0.2622 -2.2335  1.3399
 8584SOL    HW237212   0.914   1.579  10.722 -0.3612  0.3256  0.1692
 8585SOL     OW37213   1.278   4.536   9.000  0.1473 -0.1442  0.2543
 8585SOL    HW137214   1.271   4.442   9.014  2.1291 -0.2861  0.3142
 8585SOL    HW237215   1.368   4.556   9.025  1.4394  0.3346 -4.7055
 8586SOL     OW37216   4.559   3.727   9.511 -1.3444 -0.6074 -0.0407
 8586SOL    HW137217   4.510   3.679   9.578 -2.0595 -1.6144 -1.3098
 8586SOL    HW237218   4.636   3.676   9.488 -1.3863 -0.1055 -1.3042
 8587SOL     OW37219   2.574   2.065  14.100  0.6582  0.2919  0.6128
 8587SOL    HW137220   2.589   2.102  14.013 -1.7415  2.9386  1.3100
 8587SOL    HW237221   2.661   2.053  14.138  1.5501  0.8138 -1.2868
 8588SOL     OW37222   2.955   0.447   0.207 -0.0697  0.4051 -0.1121
 8588SOL    HW137223   2.924   0.494   0.284 -4.6656  0.5722 -2.0993
 8588SOL    HW237224   3.036   0.414   0.247 -0.5835 -0.1556  0.4635
 8589SOL     OW37225   1.426   3.399   5.570  0.4941 -0.1542  0.0214
 8589SOL    HW137226   1.518   3.411   5.548 -0.1208  1.0360 -1.9103
 8589SOL    HW237227   1.425   3.303   5.570  1.6596 -0.1646 -0.2190
 8590SOL     OW37228   3.118   4.521   7.843 -0.3694  0.0481  0.2298
 8590SOL    HW137229   3.155   4.543   7.757  1.5034 -0.1181  1.0012
 8590SOL    HW237230   3.129   4.426   7.841 -0.9987 -0.0280  0.3364
 8591SOL     OW37231   2.148   0.425   5.210 -0.0178  0.2688  0.3776
 8591SOL    HW137232   2.241   0.430   5.187 -0.4278  1.0647 -1.0745
 8591SOL    HW237233   2.107   0.422   5.123 -1.1476  3.9392  0.7984
 8592SOL     OW37234   2.606   0.859   4.472 -0.5913 -0.2825 -0.3041
 8592SOL    HW137235   2.666   0.837   4.543  2.5014 -0.5729 -2.9918
 8592SOL    HW237236   2.632   0.950   4.455 -1.5127 -0.1778 -1.1821
 8593SOL     OW37237   1.170   0.513   7.575 -0.3575 -0.2819 -0.2522
 8593SOL    HW137238   1.232   0.545   7.510  0.3224  1.3397  1.2008
 8593SOL    HW237239   1.233   0.487   7.644 -0.3020  0.4626 -0.0247
 8594SOL     OW37240   0.777   2.479   3.481 -0.5080 -0.0599  0.0748
 8594SOL    HW137241   0.838   2.428   3.534  0.3580  2.2513  1.2866
 8594SOL    HW237242   0.692   2.464   3.524 -1.7331  0.8926 -2.0248
 8595SOL     OW37243   3.161   2.816   8.789  0.4726 -0.7224  0.4801
 8595SOL    HW137244   3.179   2.730   8.827 -0.2364 -0.7643  0.7063
 8595SOL    HW237245   3.137   2.858   8.872 -0.3275 -3.6294  1.7127
 8596SOL     OW37246   0.693   1.830  17.064  0.7700 -0.0938  0.4948
 8596SOL    HW137247   0.783   1.808  17.037  0.8730  1.9066 -0.7879
 8596SOL    HW237248   0.711   1.899  17.127 -0.2920 -0.3644  1.0948
 8597SOL     OW37249   3.470   0.943   8.464 -0.6756  0.2433 -0.2147
 8597SOL    HW137250   3.378   0.926   8.445 -0.9647  2.3036 -0.6445
 8597SOL    HW237251   3.493   0.870   8.522 -1.7272  1.2873  1.5312
 8598SOL     OW37252   3.364   1.945   3.976 -0.4070  0.2258 -0.3272
 8598SOL    HW137253   3.311   2.010   3.928 -0.3407  0.0649 -0.6138
 8598SOL    HW237254   3.418   2.004   4.029 -0.6402  0.8987 -0.8436
 8599SOL     OW37255   2.097   0.774   9.069  0.0601 -0.0018  0.3164
 8599SOL    HW137256   2.009   0.795   9.040  0.2546 -0.0485 -0.3136
 8599SOL    HW237257   2.086   0.805   9.159  1.4220 -0.2157  0.5572
 8600SOL     OW37258   4.439   1.265   4.745 -0.3478  0.0366  0.1092
 8600SOL    HW137259   4.462   1.216   4.824  0.4287 -0.8586 -0.6717
 8600SOL    HW237260   4.417   1.203   4.676 -1.8249  0.5511  0.1206
 8601SOL     OW37261   2.303   2.296   4.829  0.3729  0.0982  0.8597
 8601SOL    HW137262   2.244   2.360   4.788 -0.5841 -0.3347  1.5391
 8601SOL    HW237263   2.344   2.352   4.895  0.3786 -0.1644  1.0783
 8602SOL     OW37264   1.299   3.313   5.131 -0.2167  0.4256 -0.0208
 8602SOL    HW137265   1.352   3.256   5.187 -0.5727  0.2677  0.1521
 8602SOL    HW237266   1.249   3.358   5.198  0.4335 -0.6193  1.1733
 8603SOL     OW37267   3.404   0.681  12.312  0.3550 -0.6209  0.5193
 8603SOL    HW137268   3.496   0.658  12.329  0.7721  0.0199 -0.8310
 8603SOL    HW237269   3.365   0.598  12.337  1.3424 -0.8607  1.2596
 8604SOL     OW37270   2.851   0.636  17.029  0.0243 -0.3561  0.1444
 8604SOL    HW137271   2.901   0.609  17.107 -1.2993  0.7164  1.3592
 8604SOL    HW237272   2.898   0.588  16.961 -0.6653 -2.0975  0.8855
 8605SOL     OW37273   2.084   4.134   7.045  0.5770  0.5697  0.1210
 8605SOL    HW137274   2.130   4.130   7.129 -0.2964  1.6660  0.6548
 8605SOL    HW237275   1.997   4.145   7.083  0.1600 -3.3679  0.2879
 8606SOL     OW37276   0.038   1.052   7.723  0.3925 -0.1065 -0.2637
 8606SOL    HW137277   0.021   1.008   7.806 -1.1820  1.3184  0.1667
 8606SOL    HW237278   0.083   1.132   7.751  0.8993 -0.7049  0.6282
 8607SOL     OW37279   0.094   1.995   7.501  0.1592 -0.2631 -0.2088
 8607SOL    HW137280   0.109   1.922   7.560  0.0970  0.4720  0.7056
 8607SOL    HW237281   0.136   1.956   7.424 -1.5146 -0.9197 -0.7953
 8608SOL     OW37282   4.179   0.992   7.024 -0.6779  0.2166  1.2887
 8608SOL    HW137283   4.259   0.944   6.999 -0.7334 -0.2042  1.9316
 8608SOL    HW237284   4.129   0.918   7.060  0.7007 -0.9474  0.8153
 8609SOL     OW37285   2.187   0.260   5.713  0.2268  0.4370  0.8372
 8609SOL    HW137286   2.251   0.198   5.748 -1.2922 -2.1534 -1.0645
 8609SOL    HW237287   2.217   0.257   5.622  1.4613 -1.9128  1.3250
 8610SOL     OW37288   3.844   4.510   2.440  0.0692 -0.0489  0.1112
 8610SOL    HW137289   3.894   4.439   2.481 -1.1249 -3.3253 -4.1153
 8610SOL    HW237290   3.867   4.520   2.347  0.3406  0.9075  0.2791
 8611SOL     OW37291   0.597   2.470   8.188 -0.1018 -0.3600 -0.3023
 8611SOL    HW137292   0.538   2.415   8.238  1.7320  0.2287  2.5080
 8611SOL    HW237293   0.613   2.541   8.250  1.0691 -1.7267  0.9611
 8612SOL     OW37294   3.619   1.628  10.608  0.2840 -0.3553  0.0686
 8612SOL    HW137295   3.695   1.595  10.656  1.4805  2.6203  0.2033
 8612SOL    HW237296   3.596   1.710  10.652  1.4772  1.3561 -2.5423
 8613SOL     OW37297   0.723   3.629   9.760  0.3702  0.0286 -0.7049
 8613SOL    HW137298   0.650   3.670   9.715  0.1676  1.0497  0.5548
 8613SOL    HW237299   0.697   3.537   9.755  1.3045 -0.3400  1.1401
 8614SOL     OW37300   1.691   1.947  14.926 -0.2914  0.4261  0.0008
 8614SOL    HW137301   1.743   2.025  14.907 -1.6170  1.4123  0.4539
 8614SOL    HW237302   1.739   1.907  14.998 -1.5390 -0.7176  0.1976
 8615SOL     OW37303   1.612   2.873   0.441  0.0683 -0.2017  0.1451
 8615SOL    HW137304   1.575   2.789   0.468 -0.8959  0.7667  1.8175
 8615SOL    HW237305   1.684   2.885   0.502  1.7746 -3.1494 -1.2626
 8616SOL     OW37306   2.836   1.790  16.906  0.2295  0.1385 -0.5799
 8616SOL    HW137307   2.872   1.731  16.973 -0.9557 -2.2460 -2.0507
 8616SOL    HW237308   2.745   1.767  16.927  1.3521 -2.5052  1.4381
 8617SOL     OW37309   2.240   3.003   6.173 -0.3396  0.1247  0.1287
 8617SOL    HW137310   2.319   3.052   6.151  0.7447 -1.4234  0.5899
 8617SOL    HW237311   2.173   3.069   6.156 -1.1934 -0.8453 -0.3138
 8618SOL     OW37312   0.502   2.714   0.759 -0.3904  0.5560  0.0790
 8618SOL    HW137313   0.436   2.667   0.810  0.6180 -0.4952  0.4125
 8618SOL    HW237314   0.511   2.664   0.678  1.0091 -0.3660  0.7978
 8619SOL     OW37315   4.131   2.718   6.443  0.0961 -0.5922 -0.4692
 8619SOL    HW137316   4.185   2.724   6.522  2.1307 -0.6986 -1.8530
 8619SOL    HW237317   4.065   2.786   6.460 -2.2200 -2.1648 -3.1024
 8620SOL     OW37318   2.266   1.382   5.243  0.8599  0.3917  0.3362
 8620SOL    HW137319   2.182   1.337   5.231  0.6072  1.1102 -0.5512
 8620SOL    HW237320   2.314   1.352   5.166  0.5972  0.2700  0.2207
 8621SOL     OW37321   2.411   4.382   5.021 -0.8154  0.4396 -0.0861
 8621SOL    HW137322   2.441   4.313   4.962 -0.5759 -1.0970  1.8315
 8621SOL    HW237323   2.380   4.442   4.953  0.5053 -0.6077 -1.6133
 8622SOL     OW37324   3.347   2.287   3.235  0.2085  0.1952 -0.0693
 8622SOL    HW137325   3.332   2.225   3.306  1.6461 -0.2103 -0.1154
 8622SOL    HW237326   3.294   2.358   3.271  1.5714  0.4123  1.5124
 8623SOL     OW37327   4.156   1.975   8.623 -0.6793  0.1539 -0.0104
 8623SOL    HW137328   4.123   1.888   8.597 -2.1297  0.7334 -0.1056
 8623SOL    HW237329   4.250   1.963   8.610 -1.0586 -0.9570 -1.8036
 8624SOL     OW37330   1.376   2.925   6.249 -0.4736 -0.2034 -0.1089
 8624SOL    HW137331   1.457   2.882   6.222 -0.5292 -0.9899  0.9577
 8624SOL    HW237332   1.368   2.880   6.333 -1.7216  2.6381  1.3026
 8625SOL     OW37333   0.875   1.473   8.529  0.0417 -0.7049  0.3153
 8625SOL    HW137334   0.843   1.467   8.619  2.8323 -1.7044  1.2287
 8625SOL    HW237335   0.968   1.468   8.547  0.3102  2.1349 -0.3964
 8626SOL     OW37336   0.697   2.239   6.947  0.3923 -0.3402 -0.0564
 8626SOL    HW137337   0.722   2.267   7.035  0.0444 -3.1400  0.9528
 8626SOL    HW237338   0.654   2.159   6.977 -1.8901  0.7761 -0.3954
 8627SOL     OW37339   3.472   3.405   4.794 -0.2145  0.8461  0.1777
 8627SOL    HW137340   3.476   3.501   4.795  0.8650  0.7833  1.4100
 8627SOL    HW237341   3.392   3.388   4.844 -1.2261 -0.1477 -1.8030
 8628SOL     OW37342   1.796   1.374   6.314 -0.0261 -0.6248  0.2759
 8628SOL    HW137343   1.760   1.287   6.296  1.3163 -1.0169 -0.4672
 8628SOL    HW237344   1.844   1.347   6.393  0.8245 -0.1204 -0.0694
 8629SOL     OW37345   2.839   2.200   0.389  0.4054 -0.7253 -0.3292
 8629SOL    HW137346   2.850   2.155   0.473  2.2785  1.1498  0.4324
 8629SOL    HW237347   2.792   2.278   0.417  1.1561 -0.1944 -0.5449
 8630SOL     OW37348   2.355   4.009   7.920  0.4021 -0.2669 -0.3777
 8630SOL    HW137349   2.345   4.103   7.904  3.5673 -0.3580 -2.7601
 8630SOL    HW237350   2.319   4.001   8.008  0.5391  0.2304 -0.2762
 8631SOL     OW37351   0.258   0.639   3.339 -0.0095  0.3009  0.1705
 8631SOL    HW137352   0.257   0.720   3.288 -3.0488 -1.6018 -2.7537
 8631SOL    HW237353   0.351   0.620   3.350  0.0714  1.6162  1.8705
 8632SOL     OW37354   2.864   3.345   8.055  0.1176  0.9513 -0.2841
 8632SOL    HW137355   2.778   3.338   8.097  0.0335  1.9015 -0.2994
 8632SOL    HW237356   2.882   3.255   8.082  1.0671  1.4132  0.6167
 8633SOL     OW37357   2.527   3.783  13.534  0.4229 -0.3260  0.2630
 8633SOL    HW137358   2.461   3.836  13.579  0.4658 -1.9920  2.2474
 8633SOL    HW237359   2.613   3.810  13.567 -0.2934 -0.1422  1.9671
 8634SOL     OW37360   4.300   3.122   9.811 -0.1550  0.2071 -0.2491
 8634SOL    HW137361   4.310   3.199   9.755  0.4373  0.5849  0.3874
 8634SOL    HW237362   4.274   3.057   9.745 -2.7927  1.1160 -0.1426
 8635SOL     OW37363   1.339   3.902   8.346 -0.5962 -0.2316  0.3410
 8635SOL    HW137364   1.339   3.817   8.300  0.1061  0.2984 -0.6377
 8635SOL    HW237365   1.298   3.880   8.429  1.7923  0.2072  1.6167
 8636SOL     OW37366   3.348   2.227   2.822  0.4491  0.4002  0.0400
 8636SOL    HW137367   3.306   2.283   2.757  0.3210  1.5524  1.1192
 8636SOL    HW237368   3.401   2.161   2.777 -1.3062 -1.0492  0.1086
 8637SOL     OW37369   2.372   0.581  17.201 -0.0072 -0.0195 -0.4607
 8637SOL    HW137370   2.431   0.506  17.214  0.4794  0.2254 -1.2436
 8637SOL    HW237371   2.380   0.591  17.106 -1.7050  1.0196 -0.4983
 8638SOL     OW37372   1.806   1.858  15.150 -0.2558 -0.5323  0.8302
 8638SOL    HW137373   1.889   1.853  15.197 -0.7538 -3.1372  1.4194
 8638SOL    HW237374   1.740   1.856  15.220  0.1593  0.5391  1.2607
 8639SOL     OW37375   2.994   4.043   1.410 -0.6630 -0.3260  0.6511
 8639SOL    HW137376   2.983   4.118   1.468 -0.5483  0.4557 -0.3480
 8639SOL    HW237377   3.089   4.036   1.416 -0.7284 -1.8983 -0.0830
 8640SOL     OW37378   2.222   2.915   2.818 -0.6716  0.0608 -0.2135
 8640SOL    HW137379   2.309   2.891   2.786 -0.8050 -0.8414  0.1025
 8640SOL    HW237380   2.175   2.850   2.766 -1.5074  0.0413  0.5714
 8641SOL     OW37381   3.674   2.213   1.311 -0.1429  0.6354  0.7569
 8641SOL    HW137382   3.589   2.185   1.346 -0.4702 -0.6875 -1.1165
 8641SOL    HW237383   3.726   2.135   1.328  0.6599  1.0441  0.1829
 8642SOL     OW37384   2.528   0.045   3.011 -0.0767 -0.4114 -0.3129
 8642SOL    HW137385   2.493   0.121   2.966  1.8298 -0.7448 -2.3772
 8642SOL    HW237386   2.447   0.004   3.040  0.3168 -0.6337  0.4988
 8643SOL     OW37387   2.110   3.416   0.521 -0.3353 -0.0126 -0.2207
 8643SOL    HW137388   2.140   3.443   0.434 -0.9902  1.2577 -0.0674
 8643SOL    HW237389   2.191   3.426   0.571  1.0340 -2.8356 -1.9174
 8644SOL     OW37390   0.660   2.907  14.150  0.0605  0.7607  0.0820
 8644SOL    HW137391   0.710   2.834  14.186 -0.4516  0.3189 -0.0915
 8644SOL    HW237392   0.721   2.977  14.130 -0.2804  0.9149 -0.4194
 8645SOL     OW37393   3.317   3.854   3.487  0.0464 -0.6108 -0.0277
 8645SOL    HW137394   3.275   3.768   3.492  1.6212 -1.3952 -0.2916
 8645SOL    HW237395   3.318   3.870   3.581  1.1160 -2.0201  0.1939
 8646SOL     OW37396   1.099   3.093  15.625  0.0241  0.2685 -0.1879
 8646SOL    HW137397   1.100   3.183  15.592  1.3631 -0.6293 -2.6326
 8646SOL    HW237398   1.013   3.060  15.601  1.0027 -1.2799 -1.5325
 8647SOL     OW37399   0.693   1.616  12.089 -0.4628  0.2153 -0.1387
 8647SOL    HW137400   0.708   1.683  12.156  0.0778 -1.8984  1.8646
 8647SOL    HW237401   0.694   1.543  12.151  1.5885  1.1011  0.8794
 8648SOL     OW37402   1.436   0.156   7.568  0.4691  0.3469 -0.5641
 8648SOL    HW137403   1.424   0.061   7.556 -0.2876  0.5847 -1.7161
 8648SOL    HW237404   1.518   0.151   7.617 -0.4950 -1.0423  0.9076
 8649SOL     OW37405   2.331   4.182   0.232  0.0001 -0.2584 -0.0529
 8649SOL    HW137406   2.410   4.133   0.208  0.3825 -0.5736  1.8683
 8649SOL    HW237407   2.328   4.181   0.328 -0.4648 -1.2087 -0.0845
 8650SOL     OW37408   1.449   3.453  12.131 -0.0570  0.3928  0.5838
 8650SOL    HW137409   1.363   3.477  12.165 -0.9855 -0.4363 -1.1443
 8650SOL    HW237410   1.476   3.405  12.209 -1.7961  2.6702  2.5803
 8651SOL     OW37411   2.209   1.988   3.258 -0.6086 -0.1532 -0.0192
 8651SOL    HW137412   2.187   2.067   3.209  1.9068  0.7851  0.3453
 8651SOL    HW237413   2.228   1.925   3.188  1.0102  0.3444 -0.0254
 8652SOL     OW37414   2.790   1.607   5.288 -0.1997  0.0976  0.1614
 8652SOL    HW137415   2.763   1.639   5.202  0.1757 -0.0911 -0.0228
 8652SOL    HW237416   2.816   1.688   5.332 -0.3693 -0.4922  1.3494
 8653SOL     OW37417   2.480   0.646  14.359  0.3158  0.0490  0.1294
 8653SOL    HW137418   2.575   0.647  14.374  0.2025 -0.4950  0.8996
 8653SOL    HW237419   2.462   0.705  14.432 -2.2360  0.5524 -0.9235
 8654SOL     OW37420   1.113   3.318   7.462  0.0209  0.1874  0.0265
 8654SOL    HW137421   1.050   3.317   7.534 -0.9816  3.6901 -0.8005
 8654SOL    HW237422   1.190   3.350   7.509  1.0520 -0.4300 -1.2416
 8655SOL     OW37423   4.139   4.132   6.253 -0.5209  0.2826  0.1851
 8655SOL    HW137424   4.190   4.149   6.332 -2.2462 -0.2412  1.4100
 8655SOL    HW237425   4.150   4.037   6.244  0.3131  0.0384  3.8323
 8656SOL     OW37426   3.717   2.995   2.330 -0.2374 -0.0021  0.3836
 8656SOL    HW137427   3.678   3.028   2.250  1.1785 -1.4176 -0.9060
 8656SOL    HW237428   3.717   2.899   2.319 -1.3530 -0.0660  0.9898
 8657SOL     OW37429   3.368   2.023   5.205 -0.1416  0.4148 -0.3799
 8657SOL    HW137430   3.460   1.998   5.200 -0.4319 -0.4161 -1.7307
 8657SOL    HW237431   3.371   2.095   5.268  1.7969 -0.2735  0.3117
 8658SOL     OW37432   1.054   1.179   2.721 -0.5076 -0.2666 -0.1978
 8658SOL    HW137433   0.968   1.142   2.742  0.1780 -0.9476  1.4086
 8658SOL    HW237434   1.029   1.238   2.650 -1.3163  0.2943  0.5429
 8659SOL     OW37435   3.447   3.171   2.668 -0.0110  0.4143 -0.3586
 8659SOL    HW137436   3.367   3.219   2.692  0.4461  1.7878 -1.5999
 8659SOL    HW237437   3.451   3.172   2.573  0.8101  0.2483 -0.3232
 8660SOL     OW37438   0.464   4.091   7.880 -0.1482  0.0106  0.2050
 8660SOL    HW137439   0.512   4.105   7.798 -1.5066 -0.9389 -0.7598
 8660SOL    HW237440   0.442   4.183   7.896 -0.3700 -0.1752  0.9612
 8661SOL     OW37441   3.797   1.442   8.228  0.3502  0.0460  0.4921
 8661SOL    HW137442   3.881   1.464   8.268 -0.3831  0.0844  1.9911
 8661SOL    HW237443   3.754   1.526   8.215 -0.5265 -0.3384  0.8929
 8662SOL     OW37444   2.604   1.186   9.248  0.0440 -0.0363  0.0680
 8662SOL    HW137445   2.613   1.136   9.167 -1.1865 -0.8308  0.4253
 8662SOL    HW237446   2.678   1.143   9.290 -0.4615 -0.7031  0.2630
 8663SOL     OW37447   3.192   3.212   0.125 -0.2284 -0.5291  0.2011
 8663SOL    HW137448   3.205   3.195   0.218 -1.8455 -0.3960  0.4471
 8663SOL    HW237449   3.120   3.151   0.111 -0.3709 -0.6111  1.3077
 8664SOL     OW37450   1.379   3.545   5.826  0.1060 -0.0416 -0.0659
 8664SOL    HW137451   1.445   3.488   5.867  0.1751 -0.4839 -0.7961
 8664SOL    HW237452   1.384   3.526   5.733  0.0556 -2.7289  0.4865
 8665SOL     OW37453   0.463   2.719   5.628 -0.9096  0.7956  1.0249
 8665SOL    HW137454   0.429   2.789   5.685 -2.0151 -0.1961  1.6021
 8665SOL    HW237455   0.476   2.649   5.692 -2.2671 -0.1599  0.2576
 8666SOL     OW37456   4.606   2.743   8.929 -0.3882  0.0649  0.1132
 8666SOL    HW137457   4.645   2.743   9.017  0.9245  1.7133 -0.4762
 8666SOL    HW237458   4.530   2.687   8.947 -1.8616  2.0502 -0.0013
 8667SOL     OW37459   0.040   2.246   8.927 -0.2603 -0.5733 -0.1634
 8667SOL    HW137460   0.062   2.189   9.001 -1.1852 -0.7872 -0.0495
 8667SOL    HW237461   4.663   2.243   8.938  0.1159 -1.8848  2.8037
 8668SOL     OW37462   0.845   0.702   4.358  1.2230  1.1965  0.5461
 8668SOL    HW137463   0.825   0.625   4.411  5.0650 -0.5816 -0.5656
 8668SOL    HW237464   0.927   0.669   4.321 -0.4861 -1.2086 -1.0477
 8669SOL     OW37465   1.884   0.221   3.385 -0.0838 -0.1657 -0.0599
 8669SOL    HW137466   1.971   0.259   3.379 -0.2751  0.3616  0.6223
 8669SOL    HW237467   1.842   0.295   3.427 -1.1836 -0.0561 -1.3433
 8670SOL     OW37468   4.406   2.387   3.540  0.3843 -0.4369 -0.0863
 8670SOL    HW137469   4.487   2.429   3.512 -0.6306  0.3227 -1.9747
 8670SOL    HW237470   4.364   2.445   3.604  0.1235 -0.5791 -0.1275
 8671SOL     OW37471   0.974   4.674  17.307  0.4909  0.0849  0.0315
 8671SOL    HW137472   1.049   4.617  17.323 -0.0788 -0.9424 -0.9434
 8671SOL    HW237473   0.997   0.047  17.321  0.2688 -0.1477  2.0038
 8672SOL     OW37474   3.087   2.799   9.061  0.0570 -0.1843  0.7017
 8672SOL    HW137475   3.010   2.758   9.021  0.8599  3.0539 -4.1142
 8672SOL    HW237476   3.124   2.720   9.099  1.3608 -0.3857 -1.0137
 8673SOL     OW37477   4.114   0.011  10.230 -0.0347  0.0652 -0.1832
 8673SOL    HW137478   4.133   0.009  10.137 -1.8042 -1.9159 -0.5205
 8673SOL    HW237479   4.201   0.030  10.266  0.5239 -1.6358 -0.6386
 8674SOL     OW37480   2.824   4.168   7.802 -0.4219 -0.2367  0.1646
 8674SOL    HW137481   2.796   4.259   7.794  1.5410  0.2818 -0.8672
 8674SOL    HW237482   2.741   4.124   7.820 -0.4801 -0.6796 -1.2422
 8675SOL     OW37483   3.043   0.359  16.331  0.2323  0.2075  0.1123
 8675SOL    HW137484   3.107   0.391  16.267  0.2287 -0.2953 -0.1393
 8675SOL    HW237485   3.083   0.408  16.403  0.4356 -1.7006  1.2987
 8676SOL     OW37486   4.343   0.483   7.384 -0.1558  0.0422  0.7358
 8676SOL    HW137487   4.265   0.459   7.334  0.5248  0.8399 -0.7044
 8676SOL    HW237488   4.307   0.547   7.445 -1.4257  0.6561 -0.6494
 8677SOL     OW37489   3.437   0.865   0.181  0.0183  0.2116 -0.6655
 8677SOL    HW137490   3.457   0.933   0.244  0.1392 -0.1473 -0.3189
 8677SOL    HW237491   3.493   0.887   0.106 -0.0545  1.0503 -0.4729
 8678SOL     OW37492   3.347   0.342  14.077 -0.5804 -0.4030 -0.4870
 8678SOL    HW137493   3.424   0.331  14.021 -0.9493 -0.1296 -1.0391
 8678SOL    HW237494   3.310   0.254  14.090 -0.3553 -0.3981  0.2184
 8679SOL     OW37495   0.104   3.645   2.359  0.6645  0.1670 -0.2905
 8679SOL    HW137496   0.175   3.660   2.421  0.2479  0.7417  0.0354
 8679SOL    HW237497   0.037   3.699   2.401 -1.0368 -1.4914 -0.8854
 8680SOL     OW37498   3.260   3.859  11.247  0.4793 -0.8395 -0.1763
 8680SOL    HW137499   3.352   3.886  11.243 -0.0638  0.6408 -2.7457
 8680SOL    HW237500   3.263   3.767  11.219 -1.0379 -1.0600  0.3908
 8681SOL     OW37501   4.103   2.437   7.659  0.3132 -0.0918 -0.4608
 8681SOL    HW137502   4.152   2.515   7.632  1.4942 -1.0025 -0.9268
 8681SOL    HW237503   4.086   2.459   7.750 -0.3291  1.1114 -0.8633
 8682SOL     OW37504   2.533   1.529  13.463 -0.5556  1.3078  1.0971
 8682SOL    HW137505   2.560   1.479  13.540  1.3822 -0.6874 -0.8774
 8682SOL    HW237506   2.449   1.488  13.445  1.2554 -1.8871 -0.0723
 8683SOL     OW37507   0.015   0.058   8.065  0.1945 -0.0213 -0.3981
 8683SOL    HW137508   0.066   0.094   7.993 -0.7264  1.7156 -0.1738
 8683SOL    HW237509   4.645   0.069   8.030 -0.6256  0.6248  1.8898
 8684SOL     OW37510   1.813   1.730   1.753 -0.5475  0.2411  0.0381
 8684SOL    HW137511   1.741   1.670   1.775 -0.0058 -0.9974 -1.5057
 8684SOL    HW237512   1.772   1.815   1.766  0.6044  0.7028  0.6659
 8685SOL     OW37513   4.482   3.359   5.717  0.1085  0.2136  0.5740
 8685SOL    HW137514   4.492   3.401   5.631 -0.4068  2.2509  1.5113
 8685SOL    HW237515   4.467   3.267   5.694  0.5942  1.0093 -2.9043
 8686SOL     OW37516   0.766   1.373  17.527 -0.7795 -0.2068  0.5899
 8686SOL    HW137517   0.711   1.380  17.449  0.0770  0.2896  0.0393
 8686SOL    HW237518   0.729   1.318  17.597 -1.3571 -0.3577  0.1711
 8687SOL     OW37519   4.291   0.789   5.096 -0.3275  0.6815  0.5861
 8687SOL    HW137520   4.237   0.723   5.139  2.2251 -2.2683 -0.7233
 8687SOL    HW237521   4.244   0.872   5.101  2.0035  1.9642  1.3978
 8688SOL     OW37522   2.672   0.396   2.943  0.1525  0.0263 -0.2539
 8688SOL    HW137523   2.623   0.313   2.946  1.3348 -0.5803  2.3371
 8688SOL    HW237524   2.696   0.407   2.851 -1.3947  0.8732 -0.5617
 8689SOL     OW37525   2.895   0.546   8.187 -0.9149  0.1105 -0.3294
 8689SOL    HW137526   2.836   0.477   8.216 -2.6258  1.1361 -1.3663
 8689SOL    HW237527   2.923   0.592   8.266 -0.7312  0.6295 -0.6929
 8690SOL     OW37528   3.792   1.295   6.418 -0.3994 -0.1320  0.6282
 8690SOL    HW137529   3.717   1.252   6.377 -1.8976  3.1305 -0.0936
 8690SOL    HW237530   3.738   1.363   6.458 -1.2863 -0.5075  0.0735
 8691SOL     OW37531   2.064   2.812   4.478 -0.2730 -0.8124 -0.2557
 8691SOL    HW137532   2.015   2.732   4.501  0.3952 -0.9194  0.8088
 8691SOL    HW237533   2.110   2.832   4.560 -0.6058 -1.2901  0.0551
 8692SOL     OW37534   3.690   0.216  16.839  0.2039  0.4687  0.0484
 8692SOL    HW137535   3.704   0.125  16.864 -0.1788  0.2985 -0.3621
 8692SOL    HW237536   3.780   0.242  16.819 -0.4434  0.8832 -2.2484
 8693SOL     OW37537   1.058   2.900   3.413 -0.4759  0.3366 -0.4892
 8693SOL    HW137538   0.987   2.929   3.470 -1.7898 -0.1890 -1.8532
 8693SOL    HW237539   1.044   2.963   3.341  2.5090  0.5394 -0.9115
 8694SOL     OW37540   4.087   4.624   6.853  0.2280 -0.3411 -0.1893
 8694SOL    HW137541   4.091   4.544   6.905  3.1132 -0.0011  0.1410
 8694SOL    HW237542   3.992   4.632   6.841  0.1903 -0.3210  0.1207
 8695SOL     OW37543   3.512   1.579  11.724  0.3072 -0.1912  0.0157
 8695SOL    HW137544   3.457   1.500  11.726  0.8348 -0.5719 -0.3499
 8695SOL    HW237545   3.585   1.548  11.779  1.3997 -0.1612 -1.4081
 8696SOL     OW37546   1.969   1.188   1.809 -0.1363 -0.0080 -0.1815
 8696SOL    HW137547   1.945   1.276   1.838 -0.8810 -0.2664 -0.0032
 8696SOL    HW237548   1.990   1.151   1.895  0.2593  0.6700  0.0141
 8697SOL     OW37549   1.199   3.306   3.162 -0.4886  0.6913  0.2192
 8697SOL    HW137550   1.248   3.318   3.081 -0.6050 -2.2258 -0.2798
 8697SOL    HW237551   1.117   3.352   3.146 -1.1426 -0.8630 -0.9571
 8698SOL     OW37552   3.289   2.476   7.704 -0.3152  0.3421 -0.5781
 8698SOL    HW137553   3.255   2.537   7.769 -0.0969 -0.3152  0.1509
 8698SOL    HW237554   3.208   2.446   7.664 -0.0778 -1.0856  0.0194
 8699SOL     OW37555   4.649   2.161   8.146 -0.3499 -0.7728  0.1064
 8699SOL    HW137556   4.686   2.110   8.218 -0.9855 -1.4079 -0.0145
 8699SOL    HW237557   4.718   2.216   8.109  0.0644 -1.1344  0.3402
 8700SOL     OW37558   4.350   4.145  13.391  0.2606  0.6849  0.0616
 8700SOL    HW137559   4.341   4.222  13.447  0.1571  0.7823 -0.0910
 8700SOL    HW237560   4.263   4.104  13.391 -1.2591  4.0062 -2.4641
 8701SOL     OW37561   0.014   1.994   3.725  0.0686  0.0355  0.1498
 8701SOL    HW137562   4.676   2.068   3.745  0.4103  0.5331 -0.6953
 8701SOL    HW237563   0.057   1.968   3.806 -1.3742 -2.1261  0.2367
 8702SOL     OW37564   3.915   2.203   7.254  0.1868 -0.0351  1.3071
 8702SOL    HW137565   3.982   2.164   7.310  1.3132 -1.4748 -1.0280
 8702SOL    HW237566   3.944   2.292   7.235 -1.1719 -0.2402 -1.8722
 8703SOL     OW37567   1.928   4.596   2.714 -0.4554 -0.3492  0.5293
 8703SOL    HW137568   1.998   4.596   2.780  1.3228 -1.3932 -1.3630
 8703SOL    HW237569   1.953   4.682   2.679 -0.6138  0.1908  1.7519
 8704SOL     OW37570   3.697   2.116   5.951 -0.3404 -0.8903  0.4395
 8704SOL    HW137571   3.611   2.141   5.986 -0.3016 -0.5861  0.3164
 8704SOL    HW237572   3.682   2.049   5.883  0.4112  0.5550 -1.1369
 8705SOL     OW37573   3.941   2.127   8.515  0.3431 -0.1993  0.7348
 8705SOL    HW137574   3.958   2.120   8.421 -1.1248  0.5886  0.4072
 8705SOL    HW237575   4.012   2.073   8.547  2.7382  1.9012 -0.9807
 8706SOL     OW37576   4.464   0.390  11.506 -0.0305 -0.0530 -0.1725
 8706SOL    HW137577   4.529   0.422  11.568  0.4386  0.9653 -1.1925
 8706SOL    HW237578   4.511   0.385  11.422 -0.2727 -2.6883 -0.1760
 8707SOL     OW37579   1.010   1.914   6.587 -0.1749 -0.0297  0.1937
 8707SOL    HW137580   0.959   1.962   6.522  0.3841 -1.1456 -1.0729
 8707SOL    HW237581   0.978   1.826   6.567 -1.0294 -0.2066  2.2707
 8708SOL     OW37582   3.525   1.128  11.521  0.6554 -0.0515 -0.0772
 8708SOL    HW137583   3.601   1.088  11.480 -1.6620 -2.8470 -1.6515
 8708SOL    HW237584   3.557   1.145  11.610  2.5590  0.8199 -0.9274
 8709SOL     OW37585   2.546   1.842   2.174 -0.1360  0.2937 -0.0815
 8709SOL    HW137586   2.487   1.875   2.106 -0.8302 -1.1839 -0.1838
 8709SOL    HW237587   2.537   1.903   2.248 -0.2639  0.5972 -0.3464
 8710SOL     OW37588   0.123   2.064   4.904  0.1323  0.2122  0.3658
 8710SOL    HW137589   0.074   2.016   4.836  3.0770 -2.0698 -0.1209
 8710SOL    HW237590   0.211   2.081   4.870  0.0935  0.8648  0.5959
 8711SOL     OW37591   0.114   2.296   4.299  0.2069 -0.2004  0.2438
 8711SOL    HW137592   0.179   2.240   4.255  0.0147 -0.6724  0.5622
 8711SOL    HW237593   0.121   2.372   4.241 -3.9158  0.8422  1.1514
 8712SOL     OW37594   1.760   0.677  14.407  0.1030  0.2146  0.0473
 8712SOL    HW137595   1.752   0.583  14.392 -0.1522  0.2736 -0.1965
 8712SOL    HW237596   1.726   0.679  14.496  1.6107 -1.1324  0.6383
 8713SOL     OW37597   3.586   0.079  12.501  0.4102  0.3519 -0.5860
 8713SOL    HW137598   3.625   0.077  12.589  0.7352 -0.6764 -0.7518
 8713SOL    HW237599   3.575   4.704  12.488 -0.5607  0.7357 -2.5460
 8714SOL     OW37600   3.858   2.994   5.290  0.3503  0.1544 -0.3555
 8714SOL    HW137601   3.883   3.029   5.376  0.5592  0.5070 -0.5621
 8714SOL    HW237602   3.871   3.070   5.233 -0.2027  1.3503  1.0805
 8715SOL     OW37603   3.367   3.793  11.823 -0.6162  0.5942 -0.5427
 8715SOL    HW137604   3.330   3.719  11.775 -0.5577  0.7708 -0.8593
 8715SOL    HW237605   3.341   3.769  11.912  1.1107  1.8359  0.2905
 8716SOL     OW37606   0.278   1.190   5.271 -0.1333 -0.0090  0.0177
 8716SOL    HW137607   0.201   1.198   5.328  0.0693  1.2372  0.1132
 8716SOL    HW237608   0.278   1.278   5.233  2.6864  0.8179  1.9582
 8717SOL     OW37609   3.026   2.682   9.351 -0.1403 -0.6891 -0.9178
 8717SOL    HW137610   2.999   2.675   9.442  0.8871 -0.4735 -0.5956
 8717SOL    HW237611   2.964   2.750   9.322 -1.3614 -0.3490  2.5588
 8718SOL     OW37612   1.906   2.005   6.714 -0.0002  0.2302  0.1001
 8718SOL    HW137613   1.848   1.935   6.686 -1.2525  0.9966  0.8064
 8718SOL    HW237614   1.969   1.940   6.746  0.0129  0.0312 -0.3367
 8719SOL     OW37615   3.983   1.378   4.157  0.0928 -0.5329  0.1003
 8719SOL    HW137616   4.037   1.324   4.215  0.1338 -0.0328  0.5314
 8719SOL    HW237617   3.998   1.326   4.078  0.1081 -0.3209 -0.0363
 8720SOL     OW37618   1.036   2.659  13.979  0.2178  0.0319 -0.0736
 8720SOL    HW137619   0.980   2.652  13.902 -2.7007 -1.6743  2.2181
 8720SOL    HW237620   1.068   2.572  14.003  1.5134  0.4953 -0.0926
 8721SOL     OW37621   0.450   3.040  13.808  0.2878 -0.5480 -0.3783
 8721SOL    HW137622   0.412   2.956  13.784  0.8274 -0.3093 -2.0610
 8721SOL    HW237623   0.376   3.076  13.857  0.8378  0.4001 -0.2464
 8722SOL     OW37624   3.850   4.113   9.966  0.1143 -0.1521  0.0617
 8722SOL    HW137625   3.868   4.133   9.874  1.8935  0.7496  0.5988
 8722SOL    HW237626   3.935   4.081   9.997  0.6662  0.0085 -1.2619
 8723SOL     OW37627   3.392   1.134   6.087  0.3555  0.1148 -0.2562
 8723SOL    HW137628   3.362   1.111   5.999  0.0075 -1.1205  0.1834
 8723SOL    HW237629   3.376   1.228   6.084  0.5318  0.2298  2.3530
 8724SOL     OW37630   4.040   4.055   8.147 -0.1104  0.5831  0.4673
 8724SOL    HW137631   4.025   4.067   8.240  2.1642  1.5811  0.7072
 8724SOL    HW237632   4.025   4.146   8.121  0.8483  0.8799  0.9397
 8725SOL     OW37633   3.184   3.750   8.594  0.0246 -0.5049  0.2268
 8725SOL    HW137634   3.237   3.681   8.555  2.7436  1.4331  0.5092
 8725SOL    HW237635   3.151   3.702   8.669  0.4201  0.0883  0.7751
 8726SOL     OW37636   0.485   0.072   4.062  0.1019 -0.3679  0.2754
 8726SOL    HW137637   0.478   0.151   4.115  0.4752  0.6742 -1.2432
 8726SOL    HW237638   0.467   0.013   4.135 -2.2490 -2.1832 -1.7409
 8727SOL     OW37639   1.150   1.503  13.068  0.2758  0.2692 -0.1884
 8727SOL    HW137640   1.060   1.471  13.068  0.1896  0.4895 -1.8509
 8727SOL    HW237641   1.193   1.460  12.994  0.6768 -0.1892  0.3046
 8728SOL     OW37642   4.080   3.800   2.629 -0.4664  0.1407  0.1534
 8728SOL    HW137643   4.052   3.752   2.707 -0.2835  0.7296  0.5759
 8728SOL    HW237644   3.994   3.834   2.603 -0.0397  0.7233 -0.4943
 8729SOL     OW37645   2.427   1.108   9.653  0.2938 -0.0675 -0.1287
 8729SOL    HW137646   2.389   1.175   9.710 -0.3034 -0.6805  0.1814
 8729SOL    HW237647   2.487   1.056   9.705 -0.1263 -1.1107 -0.6902
 8730SOL     OW37648   0.453   1.907  12.287 -0.5146 -0.4743 -0.3423
 8730SOL    HW137649   0.413   1.837  12.236 -2.1037  0.2000  0.0045
 8730SOL    HW237650   0.545   1.880  12.280 -0.0228  1.3014 -0.8412
 8731SOL     OW37651   1.608   4.166   4.659  0.1644  0.3949  0.4779
 8731SOL    HW137652   1.550   4.095   4.633 -2.1066  1.8346  1.5979
 8731SOL    HW237653   1.545   4.235   4.638 -0.1632 -0.3793 -1.0140
 8732SOL     OW37654   4.091   3.328  14.129 -0.3380  0.5640 -0.3553
 8732SOL    HW137655   4.048   3.330  14.214  1.1763 -0.3543  0.4240
 8732SOL    HW237656   4.020   3.303  14.069  0.4850  1.2916 -1.6365
 8733SOL     OW37657   1.295   3.817   8.844 -0.1805  0.1189 -0.0838
 8733SOL    HW137658   1.299   3.891   8.905  0.7188 -0.3970  0.4807
 8733SOL    HW237659   1.256   3.753   8.903  0.9382 -2.2556 -1.9461
 8734SOL     OW37660   4.486   1.838   6.795 -0.0511  0.1801 -0.0796
 8734SOL    HW137661   4.484   1.765   6.857 -0.0737  0.5219  0.3219
 8734SOL    HW237662   4.546   1.897   6.842  1.0133 -0.8099 -0.2003
 8735SOL     OW37663   0.442   4.077  15.765 -0.3993 -0.1489  0.1047
 8735SOL    HW137664   0.388   4.076  15.844  0.9280 -1.3360  0.9965
 8735SOL    HW237665   0.383   4.125  15.707  0.1148 -0.4241 -0.6563
 8736SOL     OW37666   1.058   1.680   8.242  0.1123  0.0099 -0.1310
 8736SOL    HW137667   1.061   1.585   8.240  2.3336  0.0478  1.2627
 8736SOL    HW237668   1.095   1.698   8.155  0.5172 -1.0797 -0.1838
 8737SOL     OW37669   0.828   2.749   8.603 -0.4177  0.4513  0.8251
 8737SOL    HW137670   0.892   2.678   8.598  0.5269  1.1875  2.4032
 8737SOL    HW237671   0.872   2.808   8.542 -1.2674  0.6356  0.3960
 8738SOL     OW37672   0.598   1.541  15.777 -0.3485 -0.3714 -0.1510
 8738SOL    HW137673   0.684   1.506  15.752 -1.7756 -1.7054 -3.1112
 8738SOL    HW237674   0.601   1.523  15.871  1.5893 -1.3474 -0.4045
 8739SOL     OW37675   0.761   2.086  11.026  0.0036  0.2754 -0.4741
 8739SOL    HW137676   0.710   2.048  11.098 -1.5203 -0.4319 -1.9211
 8739SOL    HW237677   0.787   2.009  10.975  1.0903  2.3203 -2.9814
 8740SOL     OW37678   1.609   3.329  14.346  0.0405  0.6988 -0.4364
 8740SOL    HW137679   1.577   3.306  14.258  1.5867  1.2875 -1.1472
 8740SOL    HW237680   1.699   3.348  14.319  0.4607  0.6294  0.9190
 8741SOL     OW37681   3.217   4.146   5.919 -0.0474 -0.5638 -0.0169
 8741SOL    HW137682   3.133   4.179   5.952  0.4350  0.8707 -0.1938
 8741SOL    HW237683   3.274   4.196   5.977  0.6080 -0.0267 -1.1117
 8742SOL     OW37684   3.371   3.410   8.171 -0.2033  0.2720 -0.2766
 8742SOL    HW137685   3.423   3.439   8.096  0.4506 -0.3950 -0.0823
 8742SOL    HW237686   3.429   3.338   8.196  0.7655  0.6988 -1.2959
 8743SOL     OW37687   0.262   3.003  17.150  0.0914  0.0510 -0.3546
 8743SOL    HW137688   0.185   3.021  17.204 -0.4268 -4.1908  0.3135
 8743SOL    HW237689   0.328   3.014  17.219 -0.3785  0.2493  0.0640
 8744SOL     OW37690   2.062   1.278   9.069  0.0346  0.6468  0.3986
 8744SOL    HW137691   2.007   1.290   9.147  0.2165 -0.6520  0.7220
 8744SOL    HW237692   2.020   1.201   9.029 -0.5909 -0.5332  3.2924
 8745SOL     OW37693   0.780   4.170   0.109  0.1142  0.2213  0.2537
 8745SOL    HW137694   0.806   4.084   0.077 -0.8930  0.0508 -0.1049
 8745SOL    HW237695   0.730   4.144   0.187 -0.1625 -0.8799 -0.2919
 8746SOL     OW37696   1.320   1.588  14.512  0.0313  0.3976 -0.1557
 8746SOL    HW137697   1.399   1.638  14.529  0.8282 -0.8821 -0.0883
 8746SOL    HW237698   1.343   1.521  14.447 -1.4867  1.6233 -1.9708
 8747SOL     OW37699   0.986   4.074   2.185 -0.0923 -0.0369 -0.1179
 8747SOL    HW137700   0.993   4.131   2.108 -0.1851 -1.2355 -1.0342
 8747SOL    HW237701   0.919   4.008   2.166 -0.9461  0.8124 -0.0042
 8748SOL     OW37702   1.427   3.232   4.792  0.1602  0.1591  0.8024
 8748SOL    HW137703   1.415   3.313   4.841  1.4424  0.5499  0.4709
 8748SOL    HW237704   1.522   3.226   4.793  0.2432  1.7061  1.9456
 8749SOL     OW37705   4.363   3.496   6.297  0.1330 -0.8505  0.1220
 8749SOL    HW137706   4.428   3.565   6.281  0.2509 -0.6613  1.3848
 8749SOL    HW237707   4.389   3.442   6.222  1.8893  1.0772 -0.6596
 8750SOL     OW37708   4.479   0.930   2.985 -0.1002 -0.0427 -0.1749
 8750SOL    HW137709   4.485   0.836   3.004 -1.2675  0.3605  2.1899
 8750SOL    HW237710   4.512   0.932   2.895 -1.8028  1.3972 -0.7654
 8751SOL     OW37711   2.659   1.514   9.133  0.1230  0.2951 -0.5653
 8751SOL    HW137712   2.598   1.508   9.207 -0.7775  1.2524 -1.2380
 8751SOL    HW237713   2.597   1.484   9.067 -1.3783 -2.3964  2.0380
 8752SOL     OW37714   3.790   1.843   2.599  0.1677  0.6897 -0.2036
 8752SOL    HW137715   3.822   1.933   2.606  0.8715  0.6839 -3.5031
 8752SOL    HW237716   3.768   1.816   2.688  0.9029 -2.4432 -0.9934
 8753SOL     OW37717   3.104   0.425   3.754 -0.3952  0.0263  0.2534
 8753SOL    HW137718   3.017   0.452   3.782  1.0455  2.9314  1.8757
 8753SOL    HW237719   3.079   0.336   3.730  0.7985 -0.5758  1.2965
 8754SOL     OW37720   1.439   0.992  12.926 -0.2073  0.3009 -0.1341
 8754SOL    HW137721   1.515   1.001  12.869  0.3485  2.9174  1.0384
 8754SOL    HW237722   1.377   0.954  12.863  0.2208 -0.8910  0.1534
 8755SOL     OW37723   1.439   3.440   4.943 -0.0099 -0.4141  0.6568
 8755SOL    HW137724   1.359   3.487   4.921  0.5148 -0.0809 -0.5617
 8755SOL    HW237725   1.422   3.407   5.031 -2.9951 -0.8008 -0.0817
 8756SOL     OW37726   4.186   0.600   3.146 -0.3232 -0.1594 -0.3513
 8756SOL    HW137727   4.226   0.609   3.232 -0.2994 -0.6995 -0.3055
 8756SOL    HW237728   4.125   0.533   3.175 -0.7925 -1.1993 -3.7094
 8757SOL     OW37729   0.801   2.063   8.715  0.1299  0.0158  0.5127
 8757SOL    HW137730   0.878   2.047   8.770 -0.7780 -1.5429  1.3592
 8757SOL    HW237731   0.761   1.976   8.723 -1.3527  0.8054  1.7222
 8758SOL     OW37732   2.547   0.975   2.979 -0.3059  0.4218  0.1222
 8758SOL    HW137733   2.479   0.977   3.047  0.3258 -0.0579  0.7646
 8758SOL    HW237734   2.620   1.006   3.033 -1.0300 -0.5379  1.6638
 8759SOL     OW37735   0.006   0.822   0.080  0.5196  0.5547  0.5996
 8759SOL    HW137736   4.663   0.896   0.079 -3.9911 -3.2478 -1.2831
 8759SOL    HW237737   0.066   0.841   0.009  1.7403 -2.1243  0.9187
 8760SOL     OW37738   0.938   3.447   8.973  0.5866 -0.5940  0.0348
 8760SOL    HW137739   0.854   3.404   8.958 -0.0051  0.3215  0.7316
 8760SOL    HW237740   0.915   3.540   8.967 -2.9967 -1.4140  1.1433
 8761SOL     OW37741   0.960   2.402  10.857  0.3662  0.4461 -0.4172
 8761SOL    HW137742   0.937   2.346  10.783 -0.1211  0.7124 -0.4742
 8761SOL    HW237743   0.883   2.458  10.844  0.7971  1.4657  1.4835
 8762SOL     OW37744   0.301   4.085   6.921  0.9006  0.0678  0.4679
 8762SOL    HW137745   0.208   4.099   6.935  0.1330 -2.2581 -2.2247
 8762SOL    HW237746   0.341   4.111   7.004 -0.9717  1.2369  0.9845
 8763SOL     OW37747   1.046   2.770   5.578  0.2315 -0.0951 -0.1777
 8763SOL    HW137748   1.082   2.688   5.545  1.0210 -0.8363  2.5245
 8763SOL    HW237749   1.010   2.758   5.666 -0.5753 -1.2277 -0.6737
 8764SOL     OW37750   1.591   0.173   9.336 -0.3497 -0.4177  0.0108
 8764SOL    HW137751   1.496   0.175   9.331 -0.3134 -0.0318 -0.5300
 8764SOL    HW237752   1.618   0.129   9.417  2.0251  2.0074  0.5384
 8765SOL     OW37753   3.851   2.113   0.642  0.2382 -0.7503 -0.3100
 8765SOL    HW137754   3.910   2.046   0.610 -3.4102 -3.5884 -1.1632
 8765SOL    HW237755   3.914   2.152   0.702 -0.4482 -0.7518  0.4242
 8766SOL     OW37756   3.389   0.167  12.814  0.9152 -0.7448  0.8049
 8766SOL    HW137757   3.332   0.171  12.737 -1.8441 -1.0737  2.8195
 8766SOL    HW237758   3.348   0.237  12.865  1.7926  0.7115 -0.5122
 8767SOL     OW37759   0.626   0.399   6.719 -0.8269  0.2913  0.1229
 8767SOL    HW137760   0.603   0.310   6.693  0.9474  0.1187 -0.9133
 8767SOL    HW237761   0.627   0.393   6.814 -0.0153 -2.2712 -0.0402
 8768SOL     OW37762   3.013   3.456  13.363 -0.6020 -0.4139  0.3496
 8768SOL    HW137763   3.005   3.369  13.401 -2.3428  0.1994  1.3824
 8768SOL    HW237764   3.109   3.455  13.371 -0.5686 -1.0610 -0.1058
 8769SOL     OW37765   0.217   1.346   6.385 -0.6984 -0.3001 -0.2236
 8769SOL    HW137766   0.249   1.261   6.355 -0.7095  0.1521 -1.5074
 8769SOL    HW237767   0.264   1.346   6.469 -1.2578 -0.4818  0.0932
 8770SOL     OW37768   0.551   1.607   0.392  0.6454  0.0713  0.7925
 8770SOL    HW137769   0.530   1.700   0.385  3.2072  0.5288 -0.8846
 8770SOL    HW237770   0.461   1.580   0.408  0.2520  0.4884 -0.6942
 8771SOL     OW37771   4.350   0.994  11.179  0.3714 -0.0194 -0.5929
 8771SOL    HW137772   4.305   0.996  11.095  0.7797  0.2618 -0.8047
 8771SOL    HW237773   4.369   1.087  11.193 -1.1861  0.4978 -1.8878
 8772SOL     OW37774   1.455   2.697   3.939  0.6259  0.1211 -0.0075
 8772SOL    HW137775   1.400   2.639   3.992  0.1543  1.2337  0.7042
 8772SOL    HW237776   1.517   2.733   4.002 -0.8352 -0.6274  1.8398
 8773SOL     OW37777   1.872   2.717  11.763 -0.3524  0.1372 -0.3193
 8773SOL    HW137778   1.964   2.699  11.780 -0.4516 -0.5544 -0.5468
 8773SOL    HW237779   1.842   2.627  11.757 -0.9306  0.2873  0.2848
 8774SOL     OW37780   2.220   2.008   5.463  0.0885  0.2261 -0.8474
 8774SOL    HW137781   2.286   1.995   5.530  1.4759  1.5125 -1.9619
 8774SOL    HW237782   2.273   1.984   5.387  0.1683  0.3173 -0.8196
 8775SOL     OW37783   3.432   2.404   7.403 -0.0016 -0.0778 -0.2267
 8775SOL    HW137784   3.349   2.426   7.360  0.9304  2.4130 -0.7651
 8775SOL    HW237785   3.445   2.310   7.406 -0.5322 -0.1546 -0.4245
 8776SOL     OW37786   4.512   3.370   6.526 -0.4878  0.7554  0.3976
 8776SOL    HW137787   4.604   3.389   6.514 -0.0265 -1.2932  0.6925
 8776SOL    HW237788   4.473   3.438   6.472 -1.9286  1.1576  1.9316
 8777SOL     OW37789   1.062   0.118   3.215  0.0102  0.0125  0.2361
 8777SOL    HW137790   1.056   0.159   3.128  1.8293 -0.4422 -0.0918
 8777SOL    HW237791   1.118   0.044   3.190 -1.3004 -0.0701 -2.4872
 8778SOL     OW37792   0.535   3.824   1.879 -0.3451 -0.0632 -0.5225
 8778SOL    HW137793   0.624   3.849   1.857 -0.2164  0.3455  0.4595
 8778SOL    HW237794   0.526   3.887   1.951  1.5717  0.3456 -0.6380
 8779SOL     OW37795   1.392   1.559   6.455 -0.0893 -0.5184 -0.0926
 8779SOL    HW137796   1.391   1.649   6.423 -0.3043 -0.1649  0.9132
 8779SOL    HW237797   1.304   1.540   6.487  0.7496 -1.4161  1.6758
 8780SOL     OW37798   1.297   4.052   6.054 -0.6469  0.1904 -0.0856
 8780SOL    HW137799   1.360   4.013   6.115  0.1182  0.5325 -0.6640
 8780SOL    HW237800   1.353   4.081   5.983 -3.3794 -1.7393 -3.0184
 8781SOL     OW37801   1.766   1.843   4.465  0.6057 -0.1072 -0.3446
 8781SOL    HW137802   1.783   1.877   4.553 -0.0900 -0.5155 -0.0474
 8781SOL    HW237803   1.763   1.927   4.419  0.7955  0.6298  0.9755
 8782SOL     OW37804   2.062   1.469   9.540 -0.4910 -0.1311  0.8388
 8782SOL    HW137805   2.147   1.500   9.509  0.5560 -0.7432  3.1689
 8782SOL    HW237806   2.011   1.549   9.525 -0.6434 -0.5273 -0.8089
 8783SOL     OW37807   3.694   0.221  14.802  0.4796 -0.9139  0.4244
 8783SOL    HW137808   3.737   0.236  14.718 -1.0066 -1.9840 -0.5387
 8783SOL    HW237809   3.765   0.193  14.859 -1.1457 -1.4002  2.1916
 8784SOL     OW37810   3.059   3.876   3.074  0.1781 -0.0261  0.2622
 8784SOL    HW137811   3.105   3.922   3.003 -0.1342  0.4726  0.3817
 8784SOL    HW237812   2.999   3.834   3.013  1.0172  1.0342 -1.3054
 8785SOL     OW37813   0.986   4.639   6.156 -0.1673  0.0122  0.5140
 8785SOL    HW137814   0.942   4.567   6.111  0.3977  1.2962 -2.1141
 8785SOL    HW237815   1.066   4.590   6.176  0.2362  1.1328  1.6575
 8786SOL     OW37816   4.669   1.260   1.679 -0.0936  0.0214  0.3302
 8786SOL    HW137817   4.633   1.247   1.767  0.6385 -3.3034  0.1387
 8786SOL    HW237818   0.000   1.341   1.687 -1.1624  0.4538  2.5915
 8787SOL     OW37819   0.689   1.434   8.824  0.4349  0.4689 -0.1073
 8787SOL    HW137820   0.630   1.365   8.795  1.4368 -0.1918 -0.5812
 8787SOL    HW237821   0.728   1.383   8.895  1.1045  2.7590  1.1745
 8788SOL     OW37822   3.719   2.159   8.016 -0.2586 -0.0924 -0.0216
 8788SOL    HW137823   3.814   2.157   8.022 -0.3547 -1.9618  0.9728
 8788SOL    HW237824   3.710   2.252   8.036 -2.0844 -0.4955  1.1002
 8789SOL     OW37825   1.860   3.438  14.275  0.5840 -0.5125 -0.1504
 8789SOL    HW137826   1.939   3.411  14.323 -0.5713 -0.0488  2.0217
 8789SOL    HW237827   1.899   3.426  14.188  0.8629  2.3616 -0.4008
 8790SOL     OW37828   2.251   3.972   3.970 -0.4290 -0.7864  0.3488
 8790SOL    HW137829   2.264   3.947   3.879  1.3153  1.4979 -0.0109
 8790SOL    HW237830   2.344   3.971   3.990 -0.6487  1.0369  1.4204
 8791SOL     OW37831   2.098   3.886   5.344  0.3120  0.0682 -0.1923
 8791SOL    HW137832   2.092   3.938   5.424  0.0232  1.5595 -1.1795
 8791SOL    HW237833   2.076   3.948   5.274  2.4195 -0.1377 -1.0405
 8792SOL     OW37834   0.532   0.342   6.959 -0.3971  0.2497  0.4055
 8792SOL    HW137835   0.445   0.307   6.977 -1.1552  2.1084  0.3426
 8792SOL    HW237836   0.569   0.302   7.037 -0.1578  1.9656  1.1656
 8793SOL     OW37837   3.699   1.970  17.296 -0.0093  0.0078  0.1233
 8793SOL    HW137838   3.636   2.029  17.254 -0.1639  0.3874  0.8956
 8793SOL    HW237839   3.760   1.948  17.225 -2.4935 -0.3806 -1.8698
 8794SOL     OW37840   1.655   3.600   2.686  0.4562 -0.4734  0.4726
 8794SOL    HW137841   1.628   3.616   2.777  1.2547  3.1097  0.0957
 8794SOL    HW237842   1.657   3.690   2.653 -0.6101 -0.4416  0.4796
 8795SOL     OW37843   3.135   3.951  11.478  0.3965  0.0487 -0.5465
 8795SOL    HW137844   3.186   4.032  11.482  1.6813 -0.8190  0.9299
 8795SOL    HW237845   3.176   3.918  11.398  1.8245  0.4917 -0.0056
 8796SOL     OW37846   4.197   4.161   4.320 -0.3492  0.6205 -0.2283
 8796SOL    HW137847   4.280   4.129   4.283 -1.6026 -0.9118 -1.7384
 8796SOL    HW237848   4.165   4.080   4.360  1.8507 -1.2667 -2.2833
 8797SOL     OW37849   3.659   0.386   3.476  0.0482  0.0870  0.1535
 8797SOL    HW137850   3.575   0.403   3.432  1.3079 -1.4460 -2.8109
 8797SOL    HW237851   3.647   0.294   3.496 -1.3865  0.0316 -0.9223
 8798SOL     OW37852   1.857   1.095   8.591 -0.0687  0.2416  0.7828
 8798SOL    HW137853   1.909   1.036   8.645 -2.7537 -1.3567  1.6573
 8798SOL    HW237854   1.926   1.151   8.555 -2.2919  3.2127  1.1506
 8799SOL     OW37855   3.180   2.958   2.728  0.1802 -0.1517  0.3971
 8799SOL    HW137856   3.088   2.938   2.712 -0.0853  0.8890  0.6150
 8799SOL    HW237857   3.181   3.054   2.737  1.1802 -0.1428  0.2562
 8800SOL     OW37858   3.412   0.763   8.240 -0.2981  0.1362  0.0661
 8800SOL    HW137859   3.398   0.858   8.239  0.7190  0.2891  1.2183
 8800SOL    HW237860   3.362   0.747   8.319  0.3611 -1.3217  0.1982
 8801SOL     OW37861   3.848   2.093   9.318  0.1957 -0.1332  0.2199
 8801SOL    HW137862   3.803   2.030   9.373  0.8188 -0.2498  0.5912
 8801SOL    HW237863   3.940   2.092   9.345  0.5822 -1.0983 -1.0988
 8802SOL     OW37864   0.735   4.658   6.510 -0.1764  0.0128  0.4659
 8802SOL    HW137865   0.791   4.609   6.571 -1.4230 -3.1519 -0.9407
 8802SOL    HW237866   0.665   4.596   6.488 -2.8460  3.1479  0.2740
 8803SOL     OW37867   0.032   0.277   5.980 -0.2907 -0.5866  0.1067
 8803SOL    HW137868   0.043   0.237   5.894  2.9633  0.4004  0.0651
 8803SOL    HW237869   0.083   0.214   6.031 -1.6209 -2.5842 -1.0641
 8804SOL     OW37870   3.698   2.784   9.345  0.3484  0.0500 -0.1910
 8804SOL    HW137871   3.622   2.812   9.293  0.3199  0.1240 -0.1091
 8804SOL    HW237872   3.738   2.869   9.363 -1.7764  0.7850  1.0189
 8805SOL     OW37873   0.601   1.988   6.668  0.0479  0.1699 -0.1524
 8805SOL    HW137874   0.640   2.058   6.616  1.2028 -1.8627 -2.0079
 8805SOL    HW237875   0.513   2.013   6.698  0.9270  2.7455  0.3032
 8806SOL     OW37876   0.125   1.745   0.475  0.0944 -0.3891 -0.0176
 8806SOL    HW137877   0.089   1.793   0.401 -1.5199 -2.1931 -0.4050
 8806SOL    HW237878   0.047   1.746   0.529 -0.0808  3.2578 -0.3302
 8807SOL     OW37879   4.472   0.957  13.300  0.3821 -0.7794 -0.8452
 8807SOL    HW137880   4.422   0.877  13.317 -0.5289 -0.1073 -0.3687
 8807SOL    HW237881   4.514   0.974  13.384  0.5326  1.1290 -1.3069
 8808SOL     OW37882   2.644   2.785   3.374  0.4293  0.1511 -0.1976
 8808SOL    HW137883   2.735   2.777   3.347  0.6933 -1.0515  1.0702
 8808SOL    HW237884   2.598   2.827   3.301  0.0927 -0.5048 -0.3637
 8809SOL     OW37885   3.958   2.569   5.857  0.2330  0.2190 -0.1600
 8809SOL    HW137886   3.976   2.663   5.849 -1.1119  0.4402 -0.5022
 8809SOL    HW237887   3.866   2.576   5.881  0.1388 -3.7194  0.6279
 8810SOL     OW37888   2.560   4.073  15.234 -0.5029  0.3814  0.4316
 8810SOL    HW137889   2.620   4.006  15.202 -0.5629  0.6268 -0.1860
 8810SOL    HW237890   2.473   4.036  15.218  0.3035 -0.5233 -1.8782
 8811SOL     OW37891   0.610   3.844   2.849 -0.0065  0.5163  0.0387
 8811SOL    HW137892   0.697   3.878   2.873 -0.0948  1.3198 -0.8017
 8811SOL    HW237893   0.551   3.919   2.857  0.6222  1.0081  0.1547
 8812SOL     OW37894   1.545   1.047   8.123  0.6486  0.5558 -0.1154
 8812SOL    HW137895   1.610   1.102   8.167  0.7591 -1.1836  1.8752
 8812SOL    HW237896   1.581   0.960   8.140 -1.0104 -0.4214 -1.6627
 8813SOL     OW37897   4.379   0.172   9.978 -0.1870  0.0363 -0.3626
 8813SOL    HW137898   4.355   0.239   9.914 -2.4961 -1.3003 -0.8729
 8813SOL    HW237899   4.293   0.133   9.989  0.8864 -1.3036  3.0388
 8814SOL     OW37900   0.367   0.807   4.073 -0.5855  0.3955 -0.2926
 8814SOL    HW137901   0.296   0.859   4.036 -1.7271 -0.7587  0.3179
 8814SOL    HW237902   0.329   0.756   4.144 -1.0557 -0.2399 -1.0065
 8815SOL     OW37903   3.855   2.760   8.507 -0.1558  0.6835 -0.7408
 8815SOL    HW137904   3.882   2.848   8.481  1.2464 -0.4276 -3.1070
 8815SOL    HW237905   3.771   2.774   8.551  0.7267 -0.7235  1.3524
 8816SOL     OW37906   1.268   1.771   4.161  0.5053  0.0597  0.1841
 8816SOL    HW137907   1.334   1.739   4.223  0.2584 -0.2995  0.2611
 8816SOL    HW237908   1.218   1.691   4.143  0.4679  0.0635  0.2730
 8817SOL     OW37909   2.646   3.158   9.274  0.1129 -0.3707  0.0554
 8817SOL    HW137910   2.651   3.097   9.201 -0.5684  1.1696 -1.2859
 8817SOL    HW237911   2.638   3.238   9.222 -2.0405 -0.0685  0.8429
 8818SOL     OW37912   2.925   1.807  13.059  0.1003  0.0605 -0.4636
 8818SOL    HW137913   2.918   1.846  12.972 -0.7038 -0.2440 -0.5384
 8818SOL    HW237914   2.894   1.884  13.106 -0.5557  0.0154 -0.8105
 8819SOL     OW37915   0.009   1.550   5.364 -0.3401 -0.3651 -0.2601
 8819SOL    HW137916   4.703   1.465   5.401  2.5822 -1.1895 -0.1958
 8819SOL    HW237917   0.017   1.529   5.271 -0.3141  1.2052 -0.6132
 8820SOL     OW37918   1.142   3.176   3.731 -0.1170 -0.2847 -0.2875
 8820SOL    HW137919   1.143   3.229   3.811  0.5640  0.9956 -1.1436
 8820SOL    HW237920   1.102   3.245   3.677 -1.4736  0.5079  1.7445
 8821SOL     OW37921   0.581   0.523  17.433 -0.1598  0.1123 -0.3553
 8821SOL    HW137922   0.649   0.588  17.418  1.7117 -1.7269  0.2386
 8821SOL    HW237923   0.631   0.469  17.494 -1.2198 -0.0462  0.3864
 8822SOL     OW37924   1.434   3.820   6.731 -0.0290 -0.3412 -0.0749
 8822SOL    HW137925   1.527   3.832   6.751 -0.0022 -0.7380  0.0404
 8822SOL    HW237926   1.433   3.838   6.637  0.1000 -2.6240 -0.5209
 8823SOL     OW37927   0.418   3.343   0.966  0.6321  0.5098  0.4364
 8823SOL    HW137928   0.441   3.268   1.020 -3.4113 -1.0084 -0.0051
 8823SOL    HW237929   0.374   3.307   0.889  0.4433  3.1993 -0.7268
 8824SOL     OW37930   2.398   1.921   5.281  0.0286  0.2158  0.3532
 8824SOL    HW137931   2.368   1.833   5.256  1.1282  0.1599 -0.7550
 8824SOL    HW237932   2.415   1.953   5.192 -0.8546  2.2335  0.8986
 8825SOL     OW37933   3.449   1.749   7.482 -0.0594 -0.0157  0.2261
 8825SOL    HW137934   3.421   1.715   7.397  1.6017 -0.0745 -0.2939
 8825SOL    HW237935   3.539   1.721   7.470 -0.5278 -1.1796 -0.5275
 8826SOL     OW37936   0.822   2.088   1.621  0.0540 -0.1265  0.4649
 8826SOL    HW137937   0.728   2.086   1.604 -0.0506 -2.7141  1.3390
 8826SOL    HW237938   0.847   2.141   1.545  1.4359  0.1964  1.1209
 8827SOL     OW37939   0.864   0.601  11.614  0.3924 -0.3588  0.0863
 8827SOL    HW137940   0.926   0.545  11.662  0.8779 -0.9533 -1.2570
 8827SOL    HW237941   0.901   0.594  11.526  0.0066  0.2680 -0.1198
 8828SOL     OW37942   1.556   2.069   2.524 -0.2866 -0.4124 -0.0711
 8828SOL    HW137943   1.524   2.070   2.614 -0.1270  0.6627 -0.0266
 8828SOL    HW237944   1.625   2.004   2.536 -1.9582 -2.3008 -0.8477
 8829SOL     OW37945   0.651   3.698   2.607  0.2688 -0.1922 -0.2254
 8829SOL    HW137946   0.658   3.723   2.699  2.0924 -0.6804 -0.2264
 8829SOL    HW237947   0.598   3.768   2.570 -0.2964  0.4823  1.8308
 8830SOL     OW37948   4.256   0.467   4.371  0.4310  0.5305  0.4183
 8830SOL    HW137949   4.298   0.509   4.446  3.7341  2.0669 -2.3060
 8830SOL    HW237950   4.304   0.516   4.304  1.2744 -0.4084  0.3360
 8831SOL     OW37951   0.322   0.807   6.371  0.0984 -0.1023  0.3698
 8831SOL    HW137952   0.372   0.816   6.290  0.2379  1.1401  0.5991
 8831SOL    HW237953   0.334   0.712   6.383 -1.7905 -0.6789 -2.2945
 8832SOL     OW37954   1.369   4.252   3.006  0.0648 -0.4853 -0.6068
 8832SOL    HW137955   1.417   4.315   3.060  0.1842 -0.2502 -0.9899
 8832SOL    HW237956   1.396   4.277   2.918 -1.6747 -1.0367 -1.2944
 8833SOL     OW37957   2.161   2.290  13.258  0.2498 -1.3323  0.2145
 8833SOL    HW137958   2.221   2.307  13.331 -0.6388  2.0639  0.1430
 8833SOL    HW237959   2.197   2.206  13.230 -1.2873 -2.3734  1.3497
 8834SOL     OW37960   1.210   0.105  11.087 -0.4536 -0.2372  0.7491
 8834SOL    HW137961   1.127   0.150  11.103 -0.1335  1.1753 -1.5358
 8834SOL    HW237962   1.263   0.160  11.145  0.8898  0.5047 -1.1705
 8835SOL     OW37963   4.109   3.437   4.054 -0.3243 -0.7666 -0.5454
 8835SOL    HW137964   4.128   3.524   4.090 -3.9781 -1.2142  2.3919
 8835SOL    HW237965   4.049   3.456   3.983 -1.1138 -0.9020  0.0913
 8836SOL     OW37966   3.990   2.806   3.879 -0.1386  0.4446  0.3359
 8836SOL    HW137967   3.974   2.786   3.787  1.0095  0.8042  0.0683
 8836SOL    HW237968   3.964   2.723   3.919 -0.5374 -0.2493 -1.3498
 8837SOL     OW37969   3.853   4.642   2.712  0.0798  0.6411 -0.5644
 8837SOL    HW137970   3.764   4.608   2.723 -0.2841  1.9468  0.5783
 8837SOL    HW237971   3.883   4.580   2.646 -2.4413 -1.2423  0.0576
 8838SOL     OW37972   1.974   3.458   2.222 -0.2848 -0.1571  0.1344
 8838SOL    HW137973   1.911   3.529   2.231  0.6377  1.1204 -3.6190
 8838SOL    HW237974   1.945   3.387   2.280  0.6573 -0.0347  0.7682
 8839SOL     OW37975   2.278   1.319   4.383  0.7474 -0.3165  0.0358
 8839SOL    HW137976   2.328   1.307   4.303  1.0485  3.0167 -0.2752
 8839SOL    HW237977   2.208   1.255   4.371 -1.0657  1.5971  0.5160
 8840SOL     OW37978   4.255   1.564   2.973 -0.1311 -0.4232  0.5790
 8840SOL    HW137979   4.265   1.645   2.923 -1.2755  1.1970  2.9602
 8840SOL    HW237980   4.170   1.535   2.939 -1.1287  1.0462  1.8259
 8841SOL     OW37981   2.273   3.487   6.678  0.0318 -0.5019  0.4247
 8841SOL    HW137982   2.289   3.419   6.744 -0.8183 -0.6911  0.4306
 8841SOL    HW237983   2.240   3.437   6.604  2.9828  0.7668 -1.7831
 8842SOL     OW37984   1.235   3.364   2.726  0.0866  0.5079 -1.0587
 8842SOL    HW137985   1.270   3.304   2.659  1.4446 -1.0382  1.0429
 8842SOL    HW237986   1.156   3.408   2.695 -1.2615 -0.8326  0.5012
 8843SOL     OW37987   4.063   2.953   8.854 -0.2356  0.3445  0.3355
 8843SOL    HW137988   4.004   3.027   8.867  0.0566  0.0650  3.3006
 8843SOL    HW237989   4.116   2.992   8.785 -0.7361  0.5675  0.0738
 8844SOL     OW37990   3.345   2.043   7.717 -0.0514  0.0255  0.6197
 8844SOL    HW137991   3.400   1.979   7.763 -0.9017 -0.4307  1.0114
 8844SOL    HW237992   3.265   2.034   7.769 -1.2912 -0.6486 -1.4192
 8845SOL     OW37993   0.278   1.512  16.970  0.2192 -0.0464 -0.2673
 8845SOL    HW137994   0.312   1.443  16.914  0.3008  0.6466 -1.0687
 8845SOL    HW237995   0.352   1.572  16.974 -0.2566  0.6194 -1.5396
 8846SOL     OW37996   0.787   0.977  14.956 -0.3177 -0.2565  0.0648
 8846SOL    HW137997   0.801   0.959  14.863  2.1895  0.8458  0.2550
 8846SOL    HW237998   0.701   1.020  14.956 -0.7003 -1.0152  0.5930
 8847SOL     OW37999   0.088   2.823  15.554 -0.0995  0.8195 -0.0178
 8847SOL    HW138000   0.093   2.853  15.645  3.9296 -0.9650  0.3264
 8847SOL    HW238001   0.015   2.878  15.524  0.0612 -0.1387 -2.1560
 8848SOL     OW38002   0.307   4.553  17.457  0.5069  0.0605  0.0657
 8848SOL    HW138003   0.295   4.504  17.375  0.3624  0.9106 -0.4205
 8848SOL    HW238004   0.249   4.624  17.429 -2.1135 -2.1907 -0.2320
 8849SOL     OW38005   1.246   2.130   7.970  0.2063 -0.1718  0.1240
 8849SOL    HW138006   1.331   2.103   7.936  0.0787 -0.5636  0.1151
 8849SOL    HW238007   1.199   2.047   7.955 -2.2618  0.7949  2.6109
 8850SOL     OW38008   2.956   4.503  10.811 -0.3224  0.0038  0.1067
 8850SOL    HW138009   2.923   4.465  10.729 -2.1762  0.4541  0.6518
 8850SOL    HW238010   2.959   4.596  10.790 -0.6214 -0.6079 -2.7385
 8851SOL     OW38011   3.042   0.186  10.214 -0.7667 -0.9232 -0.2485
 8851SOL    HW138012   3.132   0.189  10.247 -1.2198 -2.4107  1.0963
 8851SOL    HW238013   3.050   0.110  10.156  0.3658  0.3492 -1.7806
 8852SOL     OW38014   0.953   1.938   6.883 -0.3994 -0.0117 -0.0285
 8852SOL    HW138015   0.974   1.848   6.861 -1.8285  0.0438 -1.6073
 8852SOL    HW238016   0.904   1.952   6.802 -2.2572 -0.0308  1.0813
 8853SOL     OW38017   2.801   1.654  13.591 -0.5549  0.4270  0.2741
 8853SOL    HW138018   2.880   1.680  13.639 -0.2921 -0.0294  0.0914
 8853SOL    HW238019   2.744   1.621  13.661 -0.3709 -0.7455 -0.1289
 8854SOL     OW38020   3.174   1.170   3.979 -0.4824  0.4573  0.5348
 8854SOL    HW138021   3.125   1.106   3.928 -0.7747  0.2567  1.0733
 8854SOL    HW238022   3.248   1.199   3.925 -0.2001 -1.7682 -0.2661
 8855SOL     OW38023   2.605   1.333  14.507 -0.1159 -0.6638 -0.1519
 8855SOL    HW138024   2.699   1.339  14.490 -0.2661  2.2111  0.0425
 8855SOL    HW238025   2.588   1.427  14.506 -0.6605 -0.7664 -0.4493
 8856SOL     OW38026   3.628   2.234   2.276 -0.1008  0.0968 -0.1859
 8856SOL    HW138027   3.709   2.276   2.304 -0.1812  0.1904 -0.0952
 8856SOL    HW238028   3.608   2.298   2.209 -1.8546  0.0525  0.3111
 8857SOL     OW38029   4.198   2.057   2.972  0.2695 -0.0500 -0.0298
 8857SOL    HW138030   4.190   2.150   2.953  2.0956  0.0847 -0.1788
 8857SOL    HW238031   4.121   2.026   2.924 -0.8399 -0.3210  1.9162
 8858SOL     OW38032   4.188   2.563   9.219  0.0652  0.6941 -0.2696
 8858SOL    HW138033   4.131   2.505   9.169  0.5262 -1.3347  1.5504
 8858SOL    HW238034   4.266   2.543   9.168  2.0374  0.8203  2.6696
 8859SOL     OW38035   0.354   3.860  10.700  0.3184 -0.5495 -0.2780
 8859SOL    HW138036   0.392   3.947  10.705  0.6158 -0.6452 -0.8490
 8859SOL    HW238037   0.354   3.835  10.792 -2.9784 -0.3353 -0.2217
 8860SOL     OW38038   0.169   1.078   2.501 -0.2594  0.1707 -0.8318
 8860SOL    HW138039   0.109   1.106   2.570 -0.0914  0.8062 -0.9498
 8860SOL    HW238040   0.123   1.009   2.453 -1.3562  0.8075 -0.6857
 8861SOL     OW38041   2.296   4.046   5.104 -0.4777 -0.0654  0.0421
 8861SOL    HW138042   2.362   4.113   5.085  2.3035 -2.5246  1.2082
 8861SOL    HW238043   2.217   4.100   5.098  0.0339  0.3030 -2.9690
 8862SOL     OW38044   4.232   4.034   5.991 -0.4514 -0.2946  0.8319
 8862SOL    HW138045   4.265   4.094   6.058  1.0200 -0.4124  0.1959
 8862SOL    HW238046   4.216   4.097   5.921 -1.2220 -0.1394  1.1431
 8863SOL     OW38047   1.142   1.361   0.711  1.0543  0.5803 -0.3845
 8863SOL    HW138048   1.206   1.409   0.659  3.0436  0.4336  1.9505
 8863SOL    HW238049   1.202   1.307   0.762 -1.9436 -0.6373  1.8644
 8864SOL     OW38050   2.495   3.582   7.344  0.2251 -0.7696 -0.2318
 8864SOL    HW138051   2.573   3.549   7.389 -0.0419  0.8713  1.4610
 8864SOL    HW238052   2.447   3.633   7.410 -0.5147 -2.2559  0.3685
 8865SOL     OW38053   1.809   2.232   7.813 -0.2127  0.7411  0.9605
 8865SOL    HW138054   1.826   2.314   7.861  1.8512  0.6087  0.4258
 8865SOL    HW238055   1.774   2.262   7.729  0.6162  0.8369  0.6529
 8866SOL     OW38056   3.633   2.110   0.032 -0.3883  0.0767  0.4825
 8866SOL    HW138057   3.574   2.127   0.104 -1.3076  1.7053 -0.6557
 8866SOL    HW238058   3.576   2.107  17.634 -0.4176 -0.9152  0.5455
 8867SOL     OW38059   1.982   1.305   7.260  0.1479 -0.1212  0.2740
 8867SOL    HW138060   1.958   1.372   7.323 -1.1814  1.5481 -2.0265
 8867SOL    HW238061   2.057   1.347   7.217  0.7694 -0.3472  1.1352
 8868SOL     OW38062   2.224   3.802  13.636 -0.0609 -0.2793  0.0643
 8868SOL    HW138063   2.275   3.723  13.654 -0.1964 -0.5704 -0.8315
 8868SOL    HW238064   2.154   3.793  13.702  1.0847  1.5898  1.5299
 8869SOL     OW38065   3.646   4.488   9.072 -0.2926 -0.1202 -0.6908
 8869SOL    HW138066   3.641   4.456   8.982  1.7962 -2.6621  0.1005
 8869SOL    HW238067   3.657   4.406   9.121  0.8303  0.0648 -0.6484
 8870SOL     OW38068   4.228   4.546   4.809 -0.0511  0.1554  0.5831
 8870SOL    HW138069   4.161   4.568   4.873  1.1142  1.9951  1.1840
 8870SOL    HW238070   4.239   4.633   4.769 -0.1685  0.6748  1.6928
 8871SOL     OW38071   4.372   4.709   0.512 -0.2311 -0.2781  0.7900
 8871SOL    HW138072   4.391   4.651   0.586  1.7419  0.5103  0.8900
 8871SOL    HW238073   4.277   4.715   0.522 -0.1534  2.6588 -0.2841
 8872SOL     OW38074   1.710   2.362   7.585  0.7896 -0.2925 -0.6142
 8872SOL    HW138075   1.717   2.419   7.509  1.0823  1.9075  1.0601
 8872SOL    HW238076   1.616   2.351   7.571  0.6390 -0.3924  0.4470
 8873SOL     OW38077   1.933   4.691   8.446  0.1410  0.7939  0.3407
 8873SOL    HW138078   1.863   4.697   8.510 -0.7924  1.1572 -0.7176
 8873SOL    HW238079   1.998   4.657   8.508  0.4561  1.7968  0.5606
 8874SOL     OW38080   0.882   3.481   7.546  0.1664 -0.4481 -0.2335
 8874SOL    HW138081   0.937   3.548   7.506 -1.4026  0.3191 -1.1323
 8874SOL    HW238082   0.875   3.418   7.473 -2.8433  0.8828 -1.0830
 8875SOL     OW38083   1.417   3.968  10.132 -0.0627  0.0824 -0.6063
 8875SOL    HW138084   1.342   3.932  10.084  0.6225  0.2965 -1.8443
 8875SOL    HW238085   1.453   3.889  10.173 -1.0696 -0.1884 -0.2232
 8876SOL     OW38086   4.628   0.474  13.049 -0.2210 -0.5820 -0.1720
 8876SOL    HW138087   4.698   0.472  13.114  0.0926 -0.3551 -0.4993
 8876SOL    HW238088   4.560   0.520  13.097  2.6409  2.4918  1.0151
 8877SOL     OW38089   1.420   0.059   4.863 -0.8429 -0.3291 -0.3642
 8877SOL    HW138090   1.403   0.117   4.788  0.2549  0.3307 -0.0974
 8877SOL    HW238091   1.389   0.109   4.938  0.9381  0.6545 -0.2945
 8878SOL     OW38092   3.284   4.070  12.486  0.6011 -0.2093  0.1895
 8878SOL    HW138093   3.322   4.027  12.409 -2.6442  0.8903 -2.0675
 8878SOL    HW238094   3.306   4.011  12.558 -2.6044 -1.5620  0.0617
 8879SOL     OW38095   3.142   3.103   6.529 -0.2106  0.4124 -0.3856
 8879SOL    HW138096   3.189   3.068   6.605 -1.9839 -1.1459 -0.0136
 8879SOL    HW238097   3.108   3.020   6.495  2.1639  0.0069 -1.7621
 8880SOL     OW38098   4.489   4.492   4.843  0.1761  0.4569  0.0369
 8880SOL    HW138099   4.478   4.397   4.835 -2.7028  0.5513  2.7821
 8880SOL    HW238100   4.396   4.517   4.839  0.4441  1.6942  1.5767
 8881SOL     OW38101   4.604   2.640  14.575 -0.8577  0.1849  0.0780
 8881SOL    HW138102   4.556   2.680  14.503 -2.5290  0.9466  1.5974
 8881SOL    HW238103   4.574   2.549  14.583 -2.7194  0.8960  1.2964
 8882SOL     OW38104   3.611   1.277   5.673 -0.6795 -0.3647  0.4125
 8882SOL    HW138105   3.687   1.290   5.730  0.0974 -1.1833 -0.4598
 8882SOL    HW238106   3.646   1.290   5.585  0.1021 -1.8278  0.5058
 8883SOL     OW38107   1.843   0.759  15.631  0.4662 -0.1023 -0.2417
 8883SOL    HW138108   1.914   0.694  15.624  1.4459  0.9652 -0.3082
 8883SOL    HW238109   1.878   0.813  15.703 -0.8496  0.4780 -0.0509
 8884SOL     OW38110   0.778   2.571   9.313  0.4849  0.2662 -0.1705
 8884SOL    HW138111   0.829   2.496   9.284 -1.3079 -1.4218  1.0743
 8884SOL    HW238112   0.724   2.592   9.237 -1.7914  1.2385  1.7249
 8885SOL     OW38113   0.904   1.833  15.620  0.2549  0.4874 -0.2550
 8885SOL    HW138114   0.923   1.748  15.659  2.8114  0.4611 -1.5578
 8885SOL    HW238115   0.814   1.834  15.653 -0.4371  1.8461 -2.1972
 8886SOL     OW38116   2.833   0.559  12.855 -0.8293 -0.3649 -0.1979
 8886SOL    HW138117   2.768   0.625  12.877 -0.0926 -1.0258  3.8479
 8886SOL    HW238118   2.889   0.610  12.796  1.5241 -1.2436  1.3072
 8887SOL     OW38119   3.383   1.593   5.815  0.2688  0.0129 -0.0664
 8887SOL    HW138120   3.384   1.626   5.726  1.9117  0.8028  0.2498
 8887SOL    HW238121   3.291   1.586   5.840  1.2519 -1.3741  3.2150
 8888SOL     OW38122   3.876   1.269  13.569  0.5192  0.0824  0.0759
 8888SOL    HW138123   3.821   1.205  13.613  0.1612  1.2984  1.3720
 8888SOL    HW238124   3.921   1.213  13.505 -0.4961  1.3552 -1.7409
 8889SOL     OW38125   2.894   1.636   3.012  0.4938  0.5409 -0.5326
 8889SOL    HW138126   2.825   1.629   2.946 -0.3960 -1.2628  0.5872
 8889SOL    HW238127   2.856   1.675   3.091  0.5467 -0.4003 -0.0503
 8890SOL     OW38128   4.643   0.829   5.245 -0.1839  0.1448  0.8263
 8890SOL    HW138129   0.019   0.839   5.248 -0.3192  1.0669  1.9074
 8890SOL    HW238130   4.638   0.773   5.168 -0.0770 -0.6020  1.3619
 8891SOL     OW38131   1.193   1.809   2.642 -0.2199  0.0555  0.1238
 8891SOL    HW138132   1.261   1.787   2.578  1.5328  1.2797  1.5860
 8891SOL    HW238133   1.190   1.741   2.709 -0.6855  0.4174  0.4774
 8892SOL     OW38134   1.744   3.593  10.417 -0.3473  0.1200 -0.1690
 8892SOL    HW138135   1.743   3.653  10.343  1.6948 -1.0946 -1.1915
 8892SOL    HW238136   1.825   3.618  10.463 -0.4106  2.1311 -1.1462
 8893SOL     OW38137   1.862   2.403   5.065 -0.1040 -0.0221  1.1456
 8893SOL    HW138138   1.847   2.497   5.055  1.0815 -0.0728 -1.1622
 8893SOL    HW238139   1.869   2.363   4.978 -3.2015  0.0631  0.8580
 8894SOL     OW38140   2.384   2.358  15.799 -0.0468  0.4164  0.1326
 8894SOL    HW138141   2.415   2.289  15.740 -0.2649 -1.1897  1.9136
 8894SOL    HW238142   2.293   2.364  15.771 -0.3380 -2.1389  0.5682
 8895SOL     OW38143   0.701   2.746  15.749 -0.5402  0.1210  0.2684
 8895SOL    HW138144   0.791   2.720  15.769 -0.2714  1.3865  0.7039
 8895SOL    HW238145   0.686   2.776  15.839 -0.2662  1.1090 -0.0209
 8896SOL     OW38146   0.086   1.754  14.773 -0.3902 -0.6580  0.5525
 8896SOL    HW138147   0.035   1.704  14.837  0.3962 -2.7054 -0.4007
 8896SOL    HW238148   0.152   1.791  14.831  0.4713 -1.7653  0.2830
 8897SOL     OW38149   3.935   0.007   4.295 -0.2750 -0.1818 -0.0441
 8897SOL    HW138150   4.007   4.696   4.350 -0.4417  0.7427  0.6577
 8897SOL    HW238151   3.856   4.714   4.348  1.1197  0.8902  2.2544
 8898SOL     OW38152   0.630   2.407   9.077  0.0447 -0.7335  0.8294
 8898SOL    HW138153   0.721   2.387   9.055  0.2554 -0.2349  1.2413
 8898SOL    HW238154   0.626   2.500   9.054 -0.3124 -0.9684 -0.0713
 8899SOL     OW38155   0.769   1.859   0.303 -0.2299 -0.1824 -0.0605
 8899SOL    HW138156   0.683   1.826   0.330  0.6400 -2.8107 -0.4604
 8899SOL    HW238157   0.752   1.953   0.301  0.6544 -0.1012 -2.8374
 8900SOL     OW38158   4.365   1.621   5.898  0.0794  0.0221  0.6374
 8900SOL    HW138159   4.355   1.562   5.824 -0.5655  0.9563 -0.0254
 8900SOL    HW238160   4.284   1.610   5.948 -0.9376 -1.1826 -1.2653
 8901SOL     OW38161   0.671   4.633   4.476  0.1080 -0.5797 -0.0133
 8901SOL    HW138162   0.629   4.581   4.545 -0.4953 -3.0070 -2.2015
 8901SOL    HW238163   0.609   4.630   4.404 -0.5559 -1.6873  0.5985
 8902SOL     OW38164   1.144   1.334   5.045  0.1057  0.8363  0.2478
 8902SOL    HW138165   1.067   1.282   5.070  0.4750  0.7413  1.2007
 8902SOL    HW238166   1.209   1.265   5.033  0.5723  0.9140  2.1766
 8903SOL     OW38167   1.519   2.583   4.956 -0.6215  0.1807 -0.5060
 8903SOL    HW138168   1.445   2.626   4.913 -0.6405 -1.0522 -1.6795
 8903SOL    HW238169   1.490   2.492   4.947 -0.2917  0.2291 -2.0691
 8904SOL     OW38170   0.939   0.502   2.321  0.5227 -0.1154 -0.5834
 8904SOL    HW138171   0.989   0.471   2.397  0.7339 -0.8653 -1.0269
 8904SOL    HW238172   0.991   0.464   2.250 -0.0353 -0.7999 -0.6227
 8905SOL     OW38173   0.799   4.354   8.070 -0.3651  0.1205 -0.1825
 8905SOL    HW138174   0.788   4.439   8.113 -3.0485 -1.1749  1.7171
 8905SOL    HW238175   0.792   4.299   8.148  0.4806 -0.3450 -0.4442
 8906SOL     OW38176   2.553   1.299   1.095 -0.6963  0.7045 -0.2873
 8906SOL    HW138177   2.522   1.217   1.058 -0.3766  1.7420 -2.8338
 8906SOL    HW238178   2.502   1.360   1.042 -1.5124 -1.1391 -1.5970
 8907SOL     OW38179   0.559   4.669   0.058  0.4966 -0.3021 -0.0697
 8907SOL    HW138180   0.634   4.617   0.088  0.3463 -0.1144  0.6419
 8907SOL    HW238181   0.564   0.021   0.123 -1.5468 -1.3613  1.2687
 8908SOL     OW38182   1.492   3.343  12.376  0.3403  0.0446 -0.5698
 8908SOL    HW138183   1.476   3.349  12.470  0.2252 -0.7606 -0.5334
 8908SOL    HW238184   1.489   3.248  12.360  0.2128 -0.6381  3.4327
 8909SOL     OW38185   3.006   2.066  10.129 -0.1615 -0.0878 -0.5185
 8909SOL    HW138186   3.039   2.034  10.045 -1.6886 -0.9826 -0.7588
 8909SOL    HW238187   2.940   2.001  10.153  0.8638 -0.6618  0.7784
 8910SOL     OW38188   1.533   3.209  14.087  0.2410  0.8488  0.2808
 8910SOL    HW138189   1.505   3.119  14.101  0.2558  0.7123 -0.5391
 8910SOL    HW238190   1.580   3.191  14.006  0.3641 -0.3165  0.6192
 8911SOL     OW38191   1.270   2.068   4.334  0.7743  0.1960 -0.9634
 8911SOL    HW138192   1.192   2.016   4.314  1.3288 -1.9296  2.2550
 8911SOL    HW238193   1.330   2.002   4.369 -1.1958 -0.5769  0.9356
 8912SOL     OW38194   0.508   2.019   3.040 -0.4572  0.2265  0.0015
 8912SOL    HW138195   0.459   2.088   3.084 -0.0780 -1.1415  2.5814
 8912SOL    HW238196   0.431   1.975   3.003 -0.5078  1.9701 -1.9929
 8913SOL     OW38197   0.541   4.038  12.012 -0.3078  0.0688 -0.9648
 8913SOL    HW138198   0.624   4.085  12.002 -0.9677  1.2377 -0.8930
 8913SOL    HW238199   0.581   3.951  12.024  1.6096  0.9262 -1.1248
 8914SOL     OW38200   1.224   2.220   9.107  0.3305 -0.7344 -0.0885
 8914SOL    HW138201   1.300   2.273   9.133  0.3952 -1.1883  0.6519
 8914SOL    HW238202   1.208   2.257   9.020  2.3436  1.6008  0.5466
 8915SOL     OW38203   0.569   2.572   4.308 -0.0144 -0.5698 -0.0277
 8915SOL    HW138204   0.529   2.658   4.297 -1.2115 -0.8252  2.1834
 8915SOL    HW238205   0.549   2.555   4.400 -0.7895 -1.0829 -0.2969
 8916SOL     OW38206   4.506   3.278   1.692  1.0230 -0.1382 -0.0739
 8916SOL    HW138207   4.494   3.254   1.601 -0.6969  1.0861 -0.1821
 8916SOL    HW238208   4.594   3.244   1.704  1.7135  0.8982 -2.3449
 8917SOL     OW38209   3.562   3.111  13.336 -0.9784 -0.3646  0.4393
 8917SOL    HW138210   3.637   3.110  13.394 -0.3406  1.2645 -0.3584
 8917SOL    HW238211   3.599   3.111  13.247 -3.5339  0.6868 -0.6321
 8918SOL     OW38212   1.321   1.274   4.459 -0.6341  0.2745 -0.3534
 8918SOL    HW138213   1.379   1.282   4.383  2.1215 -0.6429  1.6780
 8918SOL    HW238214   1.289   1.185   4.444  1.0996 -0.4829  0.4244
 8919SOL     OW38215   1.051   2.031  17.327  0.3503  0.3753  0.3393
 8919SOL    HW138216   1.041   2.099  17.394  1.5776  1.4178 -0.5427
 8919SOL    HW238217   1.088   2.075  17.250  0.7158  1.7082  1.2657
 8920SOL     OW38218   2.946   3.358   7.237 -0.0261  0.1011 -0.2039
 8920SOL    HW138219   2.953   3.271   7.199  1.8554 -0.1219  0.6525
 8920SOL    HW238220   3.011   3.362   7.307  1.2742 -1.2472 -1.3578
 8921SOL     OW38221   4.627   4.615   5.251  0.4560  0.2733 -0.5313
 8921SOL    HW138222   4.625   4.583   5.341  0.0441 -0.4963 -0.8084
 8921SOL    HW238223   4.656   4.704   5.271  1.3803 -0.2383  0.3822
 8922SOL     OW38224   4.223   4.268   3.805  0.3526 -0.1007  0.0279
 8922SOL    HW138225   4.308   4.238   3.774  0.2863 -0.0717 -0.1790
 8922SOL    HW238226   4.194   4.187   3.848  0.0822 -0.1048 -0.1606
 8923SOL     OW38227   1.498   3.237   6.353 -0.3829 -0.0381 -0.4927
 8923SOL    HW138228   1.506   3.172   6.423 -0.4444 -0.6645 -1.0751
 8923SOL    HW238229   1.408   3.230   6.322 -0.9081  0.8842  0.8103
 8924SOL     OW38230   0.155   2.240   8.515  0.8994  0.4786 -0.2992
 8924SOL    HW138231   0.242   2.272   8.490  0.6203  2.3518  1.0970
 8924SOL    HW238232   0.149   2.165   8.456 -1.0913  1.4399 -1.3608
 8925SOL     OW38233   0.288   2.333  12.267 -0.2257 -0.0213  0.0613
 8925SOL    HW138234   0.213   2.281  12.297  0.8858 -1.6318  0.0523
 8925SOL    HW238235   0.335   2.258  12.230 -0.1373  1.1410 -2.2067
 8926SOL     OW38236   1.307   4.454  13.848  0.4834  0.0453  0.8076
 8926SOL    HW138237   1.337   4.363  13.851  0.7193  0.1509  1.5339
 8926SOL    HW238238   1.212   4.442  13.857  0.2269  1.6031  0.2142
 8927SOL     OW38239   4.656   4.310   6.489 -0.3244 -0.7731  0.5816
 8927SOL    HW138240   4.709   4.253   6.545 -0.5961 -1.1732  0.4306
 8927SOL    HW238241   4.577   4.258   6.473 -1.0786 -0.2996  2.7525
 8928SOL     OW38242   4.608   0.085   3.228  0.3388 -0.1403 -0.6345
 8928SOL    HW138243   4.646   0.128   3.151  0.0039  0.3919 -0.5074
 8928SOL    HW238244   4.604   0.163   3.284 -3.7720 -1.2352  0.5670
 8929SOL     OW38245   3.673   3.364  13.091  0.1932  0.3199 -0.2965
 8929SOL    HW138246   3.595   3.317  13.064  1.8820 -2.9141  0.3884
 8929SOL    HW238247   3.669   3.336  13.183 -0.2884 -0.1830 -0.4709
 8930SOL     OW38248   4.391   3.987   7.519 -0.3010 -0.1897  0.1409
 8930SOL    HW138249   4.469   3.975   7.574 -1.6548  0.3250  2.1949
 8930SOL    HW238250   4.411   4.066   7.469 -2.3972  0.7179  0.7179
 8931SOL     OW38251   2.526   0.915  16.581  0.2376  0.3153 -0.1902
 8931SOL    HW138252   2.519   0.997  16.532  1.5045 -0.6490 -1.9795
 8931SOL    HW238253   2.607   0.932  16.629 -0.5155  1.2054  0.7632
 8932SOL     OW38254   3.334   0.484  14.305 -0.1366 -0.1712  0.9018
 8932SOL    HW138255   3.417   0.444  14.330  0.5646  1.3244  0.9694
 8932SOL    HW238256   3.316   0.430  14.228  1.1165  0.4381  0.1686
 8933SOL     OW38257   1.142   0.144   1.470 -0.1121 -0.1686 -0.0800
 8933SOL    HW138258   1.207   0.147   1.399  2.6905  1.4448  2.5715
 8933SOL    HW238259   1.199   0.145   1.547  0.4025  0.1723 -0.4582
 8934SOL     OW38260   2.891   0.692   6.641  0.1265 -0.0783 -0.0757
 8934SOL    HW138261   2.865   0.729   6.557  1.1178  1.9233  0.5028
 8934SOL    HW238262   2.892   0.770   6.695  0.9670 -1.2950  1.6598
 8935SOL     OW38263   2.435   4.029   9.521 -0.2222  0.5961  0.3400
 8935SOL    HW138264   2.439   3.962   9.453  0.4068 -0.7394  1.7176
 8935SOL    HW238265   2.347   4.066   9.515 -0.5324 -0.0414  0.9875
 8936SOL     OW38266   4.486   0.056   7.259  0.2470  0.1208 -0.3862
 8936SOL    HW138267   4.410   0.036   7.315  1.0873 -1.7155  0.0860
 8936SOL    HW238268   4.496   0.150   7.275 -2.5399  0.4429 -0.4221
 8937SOL     OW38269   4.475   1.274   0.198 -0.2439  0.1020  0.1605
 8937SOL    HW138270   4.450   1.290   0.289 -1.1696 -1.0475  0.1058
 8937SOL    HW238271   4.557   1.225   0.205 -0.7393 -0.7718 -0.2131
 8938SOL     OW38272   2.578   1.476  17.645  0.6316 -0.0798 -0.2812
 8938SOL    HW138273   2.589   1.396  17.594 -0.3587 -1.4204  1.6582
 8938SOL    HW238274   2.601   1.531  17.570 -0.9417  1.9435  0.7180
 8939SOL     OW38275   1.617   4.490   4.500  0.3471 -0.4849  0.3341
 8939SOL    HW138276   1.586   4.560   4.444 -0.8083  0.1925  1.7985
 8939SOL    HW238277   1.533   4.449   4.521  2.2429 -3.6893  1.7778
 8940SOL     OW38278   2.156   4.192   4.392 -0.2476 -0.5895  0.0455
 8940SOL    HW138279   2.076   4.180   4.444 -1.6561  0.7523 -1.8140
 8940SOL    HW238280   2.116   4.194   4.305  1.6815  1.0571 -0.7787
 8941SOL     OW38281   4.562   4.442   5.636  0.2832  0.3753 -0.2809
 8941SOL    HW138282   4.553   4.371   5.573 -0.1150 -0.4302  0.6801
 8941SOL    HW238283   4.485   4.431   5.692 -0.6498 -1.1194 -1.8688
 8942SOL     OW38284   0.763   1.855   4.756 -0.0970  0.5090  0.6191
 8942SOL    HW138285   0.740   1.772   4.797  1.0120  1.0843  2.4341
 8942SOL    HW238286   0.707   1.859   4.679 -0.5948  0.9028  0.9997
 8943SOL     OW38287   0.592   1.432  17.225  0.6723  0.1744 -0.0678
 8943SOL    HW138288   0.551   1.444  17.140  0.4275 -0.7585 -0.0872
 8943SOL    HW238289   0.636   1.516  17.233 -1.2657  0.9742  2.0561
 8944SOL     OW38290   4.279   0.897  14.791 -0.7141  0.2362  0.0366
 8944SOL    HW138291   4.335   0.825  14.820 -0.2603  0.0931 -1.2143
 8944SOL    HW238292   4.209   0.843  14.754  0.5684 -0.2859 -1.6481
 8945SOL     OW38293   1.136   0.986   7.548 -0.7464 -1.3124 -0.0735
 8945SOL    HW138294   1.192   1.062   7.563 -0.8555 -0.9419 -1.5064
 8945SOL    HW238295   1.208   0.926   7.528 -0.1939 -0.7234  0.1394
 8946SOL     OW38296   2.636   2.203   6.426  0.1245 -0.1785  0.1714
 8946SOL    HW138297   2.557   2.163   6.461  0.4172 -0.9170 -0.0208
 8946SOL    HW238298   2.618   2.252   6.345 -0.8224  2.4932  2.0118
 8947SOL     OW38299   4.715   0.067   0.537 -0.7088  0.0468 -0.3866
 8947SOL    HW138300   0.081   0.045   0.498  0.1864 -0.1771  1.6898
 8947SOL    HW238301   4.701   4.701   0.578 -0.2993  0.2006  0.0719
 8948SOL     OW38302   2.596   3.094  15.603  0.0039  0.4761  0.2826
 8948SOL    HW138303   2.507   3.124  15.589 -0.6426 -0.9218  1.3889
 8948SOL    HW238304   2.630   3.163  15.660  2.6447 -0.5842  0.0183
 8949SOL     OW38305   4.511   0.335  15.520 -0.4180 -0.4598 -0.1844
 8949SOL    HW138306   4.509   0.425  15.487  0.7161 -0.6435 -0.7683
 8949SOL    HW238307   4.538   0.359  15.609  1.0020  4.1180 -1.8088
 8950SOL     OW38308   4.394   3.805   5.758  0.0701  0.5032 -0.3921
 8950SOL    HW138309   4.382   3.857   5.838  1.9412  0.9963 -0.4340
 8950SOL    HW238310   4.455   3.740   5.793 -1.4013  0.1861  1.5888
 8951SOL     OW38311   0.678   0.627   5.968  0.5165  0.4882  0.1305
 8951SOL    HW138312   0.721   0.621   6.053 -1.4738  0.5598  1.1414
 8951SOL    HW238313   0.707   0.709   5.930 -3.4869  0.8983 -2.0813
 8952SOL     OW38314   2.456   3.477   1.230 -0.3364  0.1233  0.0406
 8952SOL    HW138315   2.479   3.390   1.197  0.6433  0.4502 -0.1364
 8952SOL    HW238316   2.532   3.533   1.213  1.7125 -1.8710  2.5636
 8953SOL     OW38317   1.032   4.651  16.963 -0.1722  0.1912  0.0793
 8953SOL    HW138318   1.079   4.701  16.897 -0.9741 -0.3544 -0.9105
 8953SOL    HW238319   1.078   4.666  17.045  0.0920  0.2835 -0.0875
 8954SOL     OW38320   3.206   0.288   7.007  0.2326  0.3523  0.0494
 8954SOL    HW138321   3.175   0.210   6.961 -0.4657  2.6954 -3.4010
 8954SOL    HW238322   3.272   0.245   7.063  0.3076  0.7414  0.2586
 8955SOL     OW38323   2.584   2.867   3.648 -0.3604 -0.0546 -0.0163
 8955SOL    HW138324   2.644   2.795   3.668  1.6926  1.3147 -1.1846
 8955SOL    HW238325   2.621   2.891   3.563  1.6431  0.1059  0.8816
 8956SOL     OW38326   1.133   3.395   5.348  0.4423  0.2578  0.6856
 8956SOL    HW138327   1.164   3.357   5.430  1.3623  0.5058  0.4640
 8956SOL    HW238328   1.060   3.336   5.329  0.4333  0.4140  0.2154
 8957SOL     OW38329   0.205   0.515   7.144 -0.0346 -0.2143 -0.7416
 8957SOL    HW138330   0.266   0.461   7.094  0.7485 -0.9636  1.0241
 8957SOL    HW238331   0.207   0.594   7.090  1.4196  1.7008  2.0979
 8958SOL     OW38332   1.665   0.372   0.646  0.0828  0.3594  0.5344
 8958SOL    HW138333   1.735   0.310   0.625  0.5915  1.7539 -1.8781
 8958SOL    HW238334   1.629   0.326   0.722  1.6399 -1.1108  0.3956
 8959SOL     OW38335   2.281   2.048   9.782  0.7240  0.1048  0.1461
 8959SOL    HW138336   2.363   2.097   9.771  0.1521  1.0790  0.2315
 8959SOL    HW238337   2.222   2.119   9.758 -0.7569 -1.0571  0.3349
 8960SOL     OW38338   3.494   1.638   3.032 -0.0521  0.0733  0.1053
 8960SOL    HW138339   3.458   1.550   3.044  0.7915 -0.1279  1.1887
 8960SOL    HW238340   3.542   1.644   3.114  2.2621  0.3791 -1.2979
 8961SOL     OW38341   1.415   0.754   1.934  0.0177  0.0046  0.6746
 8961SOL    HW138342   1.392   0.798   2.016  1.3945  2.1481 -0.0731
 8961SOL    HW238343   1.501   0.717   1.954 -0.0268 -0.5417 -0.1547
 8962SOL     OW38344   3.860   0.497  14.147 -0.4240 -0.1790 -0.2368
 8962SOL    HW138345   3.943   0.487  14.101 -1.9849 -0.6851 -2.9077
 8962SOL    HW238346   3.898   0.533  14.227  2.9080 -0.3451 -1.7766
 8963SOL     OW38347   1.756   4.177   7.705 -0.1073 -0.4905 -0.3934
 8963SOL    HW138348   1.829   4.147   7.760 -1.5451 -0.5307  1.4717
 8963SOL    HW238349   1.772   4.271   7.716 -0.7246 -0.6494  1.7390
 8964SOL     OW38350   3.752   3.186   3.157 -0.3016 -0.0821 -0.3412
 8964SOL    HW138351   3.691   3.251   3.193  0.2971  0.3015 -0.0186
 8964SOL    HW238352   3.779   3.243   3.085 -2.2789 -0.7272 -1.6006
 8965SOL     OW38353   0.070   4.402  10.733  0.0288 -0.1123 -0.1374
 8965SOL    HW138354   0.152   4.355  10.717 -0.8005 -0.5257 -3.1138
 8965SOL    HW238355   0.005   4.348  10.689  0.6814  1.1972 -2.7635
 8966SOL     OW38356   0.715   3.356   7.331 -0.4314 -0.0925  0.3354
 8966SOL    HW138357   0.677   3.432   7.287  0.6690  0.4443  0.2995
 8966SOL    HW238358   0.749   3.315   7.251 -0.7745  2.6426 -1.2222
 8967SOL     OW38359   3.384   2.326  15.357  0.0373 -0.2029  0.1147
 8967SOL    HW138360   3.480   2.331  15.359  0.0641 -0.6566  0.0475
 8967SOL    HW238361   3.368   2.355  15.267  0.0475 -1.3958 -0.2745
 8968SOL     OW38362   1.134   4.087  16.999  0.1571 -0.7116  0.2006
 8968SOL    HW138363   1.047   4.070  17.035  1.1342 -1.6434  2.1449
 8968SOL    HW238364   1.174   4.000  17.003  1.9005  0.1828  2.0813
 8969SOL     OW38365   2.086   1.181   3.386  0.2796 -0.0654 -0.1218
 8969SOL    HW138366   2.170   1.188   3.432 -0.3160 -0.5540  1.0331
 8969SOL    HW238367   2.095   1.103   3.331  0.8839  0.1290 -0.3007
 8970SOL     OW38368   4.076   2.613   6.160  0.0263 -0.3827  0.4066
 8970SOL    HW138369   4.024   2.577   6.088 -0.2190  1.1896 -0.1994
 8970SOL    HW238370   4.012   2.638   6.227 -0.2867  1.6231 -0.6340
 8971SOL     OW38371   3.791   0.327  12.946  0.5871  0.0122 -0.1062
 8971SOL    HW138372   3.756   0.416  12.953  1.0516  0.2734 -1.1858
 8971SOL    HW238373   3.850   0.315  13.020  0.5983 -3.3122 -0.6406
 8972SOL     OW38374   2.749   3.675   9.047  0.4070  0.0327 -0.0656
 8972SOL    HW138375   2.792   3.758   9.067  0.7258 -0.4816  1.3960
 8972SOL    HW238376   2.778   3.651   8.959  1.4315 -0.6741  0.4660
 8973SOL     OW38377   0.596   1.851   8.321  0.4283 -0.3904  0.3519
 8973SOL    HW138378   0.507   1.821   8.340  1.4635 -4.1018 -0.6822
 8973SOL    HW238379   0.657   1.786   8.357 -1.2589 -0.8318  2.4069
 8974SOL     OW38380   0.068   3.324   6.114  0.1486  0.0136 -0.0278
 8974SOL    HW138381   0.030   3.360   6.033  0.3066  1.0600  0.3688
 8974SOL    HW238382   0.096   3.406   6.155 -1.3328 -0.0730  1.1338
 8975SOL     OW38383   4.524   3.445   4.134 -0.3675  0.5296 -0.5815
 8975SOL    HW138384   4.446   3.395   4.158  0.0711 -1.3726 -3.0911
 8975SOL    HW238385   4.562   3.395   4.061 -0.8794 -3.3144  1.7358
 8976SOL     OW38386   4.406   4.418   5.883  0.2635  0.3864 -0.3404
 8976SOL    HW138387   4.493   4.436   5.919 -0.3201  0.0679  1.2204
 8976SOL    HW238388   4.378   4.352   5.946 -1.3681  0.4582 -0.9967
 8977SOL     OW38389   0.997   2.004  15.059 -0.4328 -0.3094  0.4784
 8977SOL    HW138390   1.003   2.006  15.154 -3.5362  0.0661  0.6887
 8977SOL    HW238391   1.003   1.910  15.043 -0.9836 -0.1981 -0.4306
 8978SOL     OW38392   1.169   2.485   5.786 -0.0382  0.1378  0.3100
 8978SOL    HW138393   1.226   2.555   5.816  0.1932  0.1230 -0.0942
 8978SOL    HW238394   1.217   2.433   5.721 -1.6961  2.8089 -3.0367
 8979SOL     OW38395   2.143   0.579   6.091  0.0933 -0.7069  0.9578
 8979SOL    HW138396   2.147   0.545   6.002  3.1433 -2.1281  1.6189
 8979SOL    HW238397   2.096   0.662   6.083 -0.5950 -1.1495  0.4850
 8980SOL     OW38398   3.847   3.639  14.831  0.0311 -0.1984  0.2473
 8980SOL    HW138399   3.917   3.598  14.882 -0.7753  0.6230  2.0067
 8980SOL    HW238400   3.874   3.730  14.821 -0.1266 -0.3760 -1.8488
 8981SOL     OW38401   0.560   2.141   6.041 -0.3797  0.1578  0.3936
 8981SOL    HW138402   0.565   2.172   6.132 -0.5866 -3.1734  1.5593
 8981SOL    HW238403   0.644   2.096   6.037 -1.4407 -1.7515 -0.3235
 8982SOL     OW38404   0.352   3.521   8.475  0.0479  0.4271 -0.4301
 8982SOL    HW138405   0.280   3.466   8.443  0.4670 -0.0683 -0.5119
 8982SOL    HW238406   0.303   3.575   8.538 -3.8914 -1.3590 -1.9345
 8983SOL     OW38407   1.864   1.262   6.546  0.0917 -0.4609 -0.5280
 8983SOL    HW138408   1.828   1.201   6.611  2.4651 -1.1644  0.1187
 8983SOL    HW238409   1.900   1.327   6.607  0.2873 -0.1750 -0.9529
 8984SOL     OW38410   0.664   1.292   7.520  0.0096  0.4962  0.7589
 8984SOL    HW138411   0.607   1.229   7.564 -0.7185 -0.1099 -1.0770
 8984SOL    HW238412   0.736   1.291   7.583  0.8697  2.3261 -0.1938
 8985SOL     OW38413   1.242   1.179   3.983 -0.0256 -0.4922  0.1762
 8985SOL    HW138414   1.171   1.155   4.041 -0.0301 -2.1385 -0.5243
 8985SOL    HW238415   1.200   1.259   3.950  0.9427 -0.2750 -0.5276
 8986SOL     OW38416   4.444   3.577  10.299  0.9190  0.5078 -0.4076
 8986SOL    HW138417   4.464   3.625  10.379 -2.8777 -1.5143  1.7622
 8986SOL    HW238418   4.459   3.644  10.232 -1.5624  0.7793 -0.6799
 8987SOL     OW38419   4.636   0.373   4.644 -0.1477  0.0087 -0.3391
 8987SOL    HW138420   4.707   0.432   4.668  1.8294 -2.0718 -1.1434
 8987SOL    HW238421   4.604   0.368   4.734  1.7498 -0.6537  0.2899
 8988SOL     OW38422   2.108   3.171   2.657 -0.5527  0.2235  0.2336
 8988SOL    HW138423   2.121   3.084   2.695 -1.6890 -0.0453  0.0109
 8988SOL    HW238424   2.013   3.174   2.658 -0.5946 -0.8984 -0.3342
 8989SOL     OW38425   4.415   2.939   2.235 -0.0612  0.4381  0.1313
 8989SOL    HW138426   4.435   2.846   2.228 -0.3282  0.4361 -0.5937
 8989SOL    HW238427   4.485   2.988   2.277  0.7418 -0.9281  0.3951
 8990SOL     OW38428   2.662   2.278   1.436  0.2327  0.1165  0.1087
 8990SOL    HW138429   2.595   2.295   1.503 -1.0244 -1.9654 -0.6087
 8990SOL    HW238430   2.622   2.212   1.379  1.1603  1.1826 -1.7702
 8991SOL     OW38431   1.044   4.170  13.178  0.4748  0.5148 -0.2223
 8991SOL    HW138432   0.959   4.183  13.221 -0.2800  3.0377 -2.4806
 8991SOL    HW238433   1.090   4.215  13.249  1.8403 -0.0505 -0.7593
 8992SOL     OW38434   0.607   3.390   8.534  0.4870  0.1844  0.0307
 8992SOL    HW138435   0.667   3.461   8.558  1.3513  0.1744 -2.0529
 8992SOL    HW238436   0.541   3.443   8.489 -1.0487 -0.6156  1.3564
 8993SOL     OW38437   2.930   2.885   4.481  0.2757  0.0832 -0.1291
 8993SOL    HW138438   3.011   2.873   4.431  0.6154 -0.8780  0.6647
 8993SOL    HW238439   2.890   2.806   4.445 -0.5416  0.3112  0.2810
 8994SOL     OW38440   3.058   2.777   5.280  0.5851 -0.3844 -0.6421
 8994SOL    HW138441   3.089   2.858   5.241  2.1533  0.3404  2.1466
 8994SOL    HW238442   2.965   2.782   5.257  0.5006 -1.7301 -0.6028
 8995SOL     OW38443   3.936   3.047   0.662  0.3935 -0.3811  0.2636
 8995SOL    HW138444   4.001   2.994   0.617 -1.7715 -2.6654 -0.1877
 8995SOL    HW238445   3.982   3.052   0.746 -1.8888  1.4164  1.4204
 8996SOL     OW38446   2.894   3.628   7.244  0.2191  0.1013 -0.4810
 8996SOL    HW138447   2.908   3.537   7.219  0.9306  0.5207 -1.6146
 8996SOL    HW238448   2.858   3.662   7.162  1.4364  2.7678  0.0877
 8997SOL     OW38449   1.399   0.857   5.083 -0.1658  0.0357 -0.1548
 8997SOL    HW138450   1.418   0.768   5.112  0.3964  0.6030  1.1962
 8997SOL    HW238451   1.303   0.859   5.087  0.0131  4.1851  2.8793
 8998SOL     OW38452   1.379   1.451   0.344 -0.3371  0.0838  0.2094
 8998SOL    HW138453   1.407   1.504   0.269  0.7503  1.4053  1.5455
 8998SOL    HW238454   1.301   1.409   0.306  0.9059 -0.5380 -1.6709
 8999SOL     OW38455   2.974   4.056  15.831 -0.0807  0.4232 -0.4049
 8999SOL    HW138456   2.881   4.072  15.812 -0.7310 -1.1793  1.3805
 8999SOL    HW238457   2.996   4.138  15.873 -2.9111  1.3127 -0.6308
 9000SOL     OW38458   3.004   1.231   8.077  0.2840 -0.5940 -0.0907
 9000SOL    HW138459   2.916   1.246   8.111 -0.2929 -3.3995 -0.2976
 9000SOL    HW238460   3.000   1.255   7.984 -1.1035  2.0461  0.6633
 9001SOL     OW38461   4.041   0.015  12.897 -0.7190 -0.0098 -0.0435
 9001SOL    HW138462   3.969   4.674  12.876 -1.5968  0.6259  1.1300
 9001SOL    HW238463   4.110   4.668  12.888 -0.5882 -0.2722  2.8605
 9002SOL     OW38464   3.718   2.240  17.033 -0.2231 -0.1978 -0.2792
 9002SOL    HW138465   3.729   2.152  16.996 -1.2498 -0.8503  0.9690
 9002SOL    HW238466   3.646   2.224  17.093  0.9349  0.6687  1.3511
 9003SOL     OW38467   2.869   4.060   7.367  0.1988 -0.1881  0.2516
 9003SOL    HW138468   2.805   4.130   7.351  1.0398  0.9000  1.6286
 9003SOL    HW238469   2.858   4.011   7.286  0.3676  0.4882 -0.1807
 9004SOL     OW38470   1.971   1.916  15.640 -0.8170 -0.4804 -0.1819
 9004SOL    HW138471   2.012   1.899  15.555  3.0219  1.1064  1.3427
 9004SOL    HW238472   1.943   2.008  15.637 -0.2587 -0.2264  2.1367
 9005SOL     OW38473   3.128   2.606   5.489 -0.2085  0.1336  0.1499
 9005SOL    HW138474   3.078   2.644   5.417  1.2470 -0.3391 -1.1057
 9005SOL    HW238475   3.176   2.539   5.440  1.6672  0.6138  1.3156
 9006SOL     OW38476   2.538   3.630   5.316  0.1843  0.2415 -0.7203
 9006SOL    HW138477   2.600   3.665   5.251 -0.2927  1.0917 -0.7137
 9006SOL    HW238478   2.468   3.695   5.313  0.2060  0.3355  0.7051
 9007SOL     OW38479   2.798   1.507   8.153 -0.1801 -0.6856  0.3951
 9007SOL    HW138480   2.832   1.582   8.202 -3.0890  0.3336  0.8251
 9007SOL    HW238481   2.851   1.511   8.074 -1.2416 -2.6130 -0.3938
 9008SOL     OW38482   0.088   0.324   7.813 -0.1734 -0.0978 -0.1645
 9008SOL    HW138483   0.118   0.415   7.811 -0.2193 -0.0899 -0.5915
 9008SOL    HW238484   0.005   0.338   7.767 -0.5281  1.0426  0.8188
 9009SOL     OW38485   2.041   0.514   3.104 -0.0227  0.0618 -0.0487
 9009SOL    HW138486   1.958   0.550   3.136 -0.4188 -1.9937  1.2135
 9009SOL    HW238487   2.001   0.448   3.048 -2.5738  0.3745  1.4119
 9010SOL     OW38488   1.306   0.986   4.593  0.6901 -0.1328  0.2544
 9010SOL    HW138489   1.219   0.961   4.563  1.2630 -1.3372 -0.4332
 9010SOL    HW238490   1.282   1.039   4.669  1.2812 -0.9646  1.0215
 9011SOL     OW38491   2.125   1.380  17.162  0.6198  0.0373  0.2180
 9011SOL    HW138492   2.096   1.313  17.224  0.7480  0.9360  1.2511
 9011SOL    HW238493   2.221   1.373  17.160  0.6126 -0.3038  1.1989
 9012SOL     OW38494   0.604   4.259  11.516 -0.3761 -0.3801 -0.3908
 9012SOL    HW138495   0.655   4.287  11.440  1.3085  0.2750  0.9919
 9012SOL    HW238496   0.518   4.235  11.480 -0.8173 -2.1072  1.8530
 9013SOL     OW38497   4.213   1.264   1.216 -0.0698  0.1325  0.2495
 9013SOL    HW138498   4.261   1.251   1.297 -1.8428 -0.6268  1.1694
 9013SOL    HW238499   4.162   1.183   1.220 -1.1527  0.8234  0.5062
 9014SOL     OW38500   0.262   2.865   2.818  0.0990  0.1879  0.2659
 9014SOL    HW138501   0.240   2.845   2.727  2.6999  0.6381 -0.4838
 9014SOL    HW238502   0.322   2.940   2.815 -1.3588  1.3944  1.1886
 9015SOL     OW38503   0.013   3.182   8.246 -0.1498  0.3666  0.3462
 9015SOL    HW138504   4.705   3.113   8.306 -0.6929  0.0700 -0.2411
 9015SOL    HW238505   4.714   3.139   8.163 -1.3951  2.6623 -0.5625
 9016SOL     OW38506   2.576   1.767   3.440 -0.6427  0.4051 -0.6967
 9016SOL    HW138507   2.507   1.739   3.379 -0.6409 -0.8634 -0.1215
 9016SOL    HW238508   2.530   1.840   3.482 -1.2075 -0.8535  0.8739
 9017SOL     OW38509   1.920   2.825  11.102  0.3998  0.9690  0.2299
 9017SOL    HW138510   1.983   2.822  11.030  0.8580 -0.4484  0.6962
 9017SOL    HW238511   1.975   2.818  11.180  0.9049 -3.2282 -0.5366
 9018SOL     OW38512   3.739   0.949   8.117  0.0292 -0.0690 -0.2066
 9018SOL    HW138513   3.754   0.855   8.125  1.5699  0.0530 -1.6095
 9018SOL    HW238514   3.725   0.962   8.211  1.1997  0.8094 -0.1541
 9019SOL     OW38515   0.594   1.300   7.268 -0.3933 -0.0395 -0.6715
 9019SOL    HW138516   0.629   1.274   7.354 -1.5405  0.0165 -0.1940
 9019SOL    HW238517   0.504   1.276   7.289 -0.5881  1.5222  0.2918
 9020SOL     OW38518   3.593   1.615   6.324  0.5296  0.3543 -0.0851
 9020SOL    HW138519   3.632   1.576   6.246  0.2258  0.5286 -0.3235
 9020SOL    HW238520   3.615   1.708   6.319 -0.2752  0.5724  0.4650
 9021SOL     OW38521   2.133   3.316  13.034 -0.2544 -0.8905 -0.4365
 9021SOL    HW138522   2.106   3.226  13.015 -0.4738 -0.9833  0.3442
 9021SOL    HW238523   2.134   3.353  12.945 -1.1785 -1.0097 -0.4944
 9022SOL     OW38524   3.262   2.318   6.826  0.7251 -0.1055 -0.4416
 9022SOL    HW138525   3.341   2.329   6.879 -0.8556  0.0104  1.9285
 9022SOL    HW238526   3.298   2.246   6.774 -0.8540 -1.3519  0.1841
 9023SOL     OW38527   0.388   3.050   4.359 -0.1780 -0.4034 -0.5791
 9023SOL    HW138528   0.425   3.093   4.436  0.1681  0.7157 -1.3675
 9023SOL    HW238529   0.322   3.109   4.322  1.7336  1.2822 -1.3510
 9024SOL     OW38530   4.709   0.074  11.070  0.3659 -0.6883  0.2149
 9024SOL    HW138531   4.671   0.091  11.156  0.4629  2.4449 -0.3307
 9024SOL    HW238532   0.081   0.055  11.094 -0.5847 -1.6819  2.9142
 9025SOL     OW38533   4.008   4.131  13.062  0.3122  0.3245  0.1623
 9025SOL    HW138534   4.059   4.063  13.106  0.1169  0.0280 -0.0655
 9025SOL    HW238535   3.921   4.092  13.061  0.9924 -1.2240  1.5986
 9026SOL     OW38536   2.955   4.715   4.144  0.2163  0.2598  0.1297
 9026SOL    HW138537   2.956   4.664   4.225 -1.9330 -2.5840 -1.6339
 9026SOL    HW238538   2.876   0.048   4.150  0.0182  0.1077 -1.1683
 9027SOL     OW38539   1.706   1.840   6.593  0.4177 -0.0831 -0.8835
 9027SOL    HW138540   1.744   1.763   6.550 -0.1246 -1.8263  1.6749
 9027SOL    HW238541   1.638   1.800   6.648  1.0927 -0.2932 -0.1934
 9028SOL     OW38542   0.334   2.044   8.181  0.2035 -0.4340  0.7662
 9028SOL    HW138543   0.427   2.053   8.160  0.0532 -0.9135 -0.0863
 9028SOL    HW238544   0.305   2.028   8.092 -1.0791  1.2954  0.8619
 9029SOL     OW38545   0.412   0.500   1.981 -0.0658 -0.2299 -0.2243
 9029SOL    HW138546   0.365   0.437   2.036 -0.8979  0.8908  0.3517
 9029SOL    HW238547   0.499   0.478   2.015 -0.6900  0.1388  1.5935
 9030SOL     OW38548   2.723   1.327  10.117  0.1134 -0.2678  0.2384
 9030SOL    HW138549   2.647   1.269  10.117 -0.7462  0.8869 -0.2050
 9030SOL    HW238550   2.710   1.365  10.204  0.5958 -1.1564  0.7057
 9031SOL     OW38551   2.620   3.615  16.331 -0.2219 -0.1124  0.2660
 9031SOL    HW138552   2.628   3.521  16.314 -0.4264  0.0490 -0.7265
 9031SOL    HW238553   2.593   3.636  16.241 -1.8210 -2.0903  0.2855
 9032SOL     OW38554   2.651   1.643  17.425  0.3551  0.1435 -0.3640
 9032SOL    HW138555   2.643   1.663  17.332  0.2464 -1.5716 -0.7230
 9032SOL    HW238556   2.747   1.633  17.420  0.5024  0.9311  0.8933
 9033SOL     OW38557   2.526   2.875   3.163  0.5683 -0.0238 -0.5735
 9033SOL    HW138558   2.434   2.895   3.144  1.2672  2.0244 -1.8293
 9033SOL    HW238559   2.563   2.896   3.077 -1.7186  1.8665 -1.1232
 9034SOL     OW38560   0.372   4.237   2.058  0.0587  0.1422  0.0094
 9034SOL    HW138561   0.387   4.322   2.016  2.5984  1.1518  2.9640
 9034SOL    HW238562   0.394   4.267   2.146 -0.5516 -1.6410  0.7803
 9035SOL     OW38563   1.760   4.429  16.528  0.0619  0.0280 -0.0207
 9035SOL    HW138564   1.687   4.465  16.477  1.9641  0.3411 -2.5773
 9035SOL    HW238565   1.717   4.352  16.565  1.5351 -0.9599 -0.3610
 9036SOL     OW38566   3.569   3.999  14.159 -0.0149  0.1590  0.0345
 9036SOL    HW138567   3.611   3.997  14.245  2.0335 -0.1925 -0.9792
 9036SOL    HW238568   3.643   4.018  14.101 -0.3346  1.1729 -0.0389
 9037SOL     OW38569   3.637   2.523   1.956  0.5860 -0.2583  0.3638
 9037SOL    HW138570   3.603   2.515   2.046 -0.1963 -3.8113 -0.2397
 9037SOL    HW238571   3.691   2.602   1.963  1.5298 -0.9550  1.0603
 9038SOL     OW38572   0.486   4.521   2.782  0.1365  0.2089  0.4666
 9038SOL    HW138573   0.550   4.557   2.844 -0.7579 -1.2147  2.2252
 9038SOL    HW238574   0.459   4.443   2.831 -1.2049  0.0884 -0.4595
 9039SOL     OW38575   0.653   0.421  10.924 -0.0328 -0.1955 -0.0433
 9039SOL    HW138576   0.705   0.430  10.844 -1.5679  0.5385 -0.9457
 9039SOL    HW238577   0.689   0.497  10.971  0.0405 -1.4519  1.9619
 9040SOL     OW38578   2.508   4.424  15.682  0.1433  0.1478  0.3616
 9040SOL    HW138579   2.565   4.384  15.748 -0.4764  0.3586  1.0229
 9040SOL    HW238580   2.542   4.394  15.598  1.3369 -1.1695  1.3110
 9041SOL     OW38581   0.620   0.149   0.232  0.1969  0.2993 -0.1191
 9041SOL    HW138582   0.682   0.179   0.299  0.9537 -2.1470  0.2568
 9041SOL    HW238583   0.569   0.229   0.223 -1.9833 -0.9110  1.6544
 9042SOL     OW38584   2.108   3.886   0.214 -0.1418  0.1056  0.8235
 9042SOL    HW138585   2.048   3.812   0.207  0.7566 -0.5091 -0.3389
 9042SOL    HW238586   2.154   3.880   0.130 -0.0104  1.5172  0.8014
 9043SOL     OW38587   1.296   2.134  14.935 -0.0003  0.3780 -0.9189
 9043SOL    HW138588   1.330   2.092  15.014 -0.0846 -0.2273 -1.2073
 9043SOL    HW238589   1.205   2.106  14.922  0.2307  0.5238 -2.8526
 9044SOL     OW38590   2.809   0.899   4.910  0.4477  0.3091 -0.0061
 9044SOL    HW138591   2.808   0.995   4.918 -0.7034 -0.0241  4.0534
 9044SOL    HW238592   2.831   0.873   4.999  0.6519  0.5445  0.0122
 9045SOL     OW38593   0.041   1.086   9.125 -0.2728  0.3899 -0.0351
 9045SOL    HW138594   0.019   1.080   9.218  0.7081 -0.8125  0.1377
 9045SOL    HW238595   0.135   1.104   9.116 -0.2514 -0.8135 -2.1519
 9046SOL     OW38596   1.684   4.162   3.009  0.0996  0.6778 -0.5325
 9046SOL    HW138597   1.653   4.081   3.051 -0.2265  1.0748 -0.0152
 9046SOL    HW238598   1.680   4.139   2.916  0.8529 -1.2570 -0.0858
 9047SOL     OW38599   2.960   4.376   4.926  0.4394 -0.0137 -0.0785
 9047SOL    HW138600   2.958   4.466   4.960 -0.9885 -0.0837  0.0319
 9047SOL    HW238601   2.919   4.397   4.842  0.0679 -0.7283 -0.0724
 9048SOL     OW38602   1.913   4.227   4.512  0.0025  0.2275  0.2605
 9048SOL    HW138603   1.891   4.162   4.578  0.6627 -1.0028 -0.7262
 9048SOL    HW238604   1.852   4.213   4.439 -0.5741  4.8427 -0.1327
 9049SOL     OW38605   2.353   3.685   8.921  0.0936 -0.3425  0.2231
 9049SOL    HW138606   2.316   3.745   8.856  1.9180  2.3210  1.6445
 9049SOL    HW238607   2.358   3.741   8.998  1.8803  0.2317 -0.3057
 9050SOL     OW38608   1.277   0.309  11.268 -0.0141 -0.2873 -0.1260
 9050SOL    HW138609   1.334   0.303  11.345  0.3273 -0.7549 -0.4143
 9050SOL    HW238610   1.247   0.399  11.280  3.7898  0.6615  2.4545
 9051SOL     OW38611   0.060   0.845   2.443  0.0090 -0.4960 -0.1935
 9051SOL    HW138612   0.015   0.794   2.510  1.2855  0.0191  1.0489
 9051SOL    HW238613   0.029   0.804   2.363 -0.4423  1.4369 -1.0137
 9052SOL     OW38614   0.352   0.036  11.551 -0.3212 -0.1867  0.2015
 9052SOL    HW138615   0.370   0.080  11.634  0.9008  1.6979 -1.0536
 9052SOL    HW238616   0.318   4.677  11.593 -0.1378  0.0002  0.6965
 9053SOL     OW38617   1.972   3.515   2.694 -0.6399 -0.4584 -0.0385
 9053SOL    HW138618   1.880   3.505   2.668 -0.2298 -2.1229 -0.8386
 9053SOL    HW238619   2.003   3.577   2.627 -2.7626  0.7109  0.0639
 9054SOL     OW38620   2.321   4.287   7.718  0.7377  0.0472 -0.1960
 9054SOL    HW138621   2.262   4.216   7.693 -1.7156  1.6792  1.0519
 9054SOL    HW238622   2.252   4.342   7.753  0.1607 -0.2537 -0.8641
 9055SOL     OW38623   1.796   3.591   5.831 -0.2219  0.3947 -0.3726
 9055SOL    HW138624   1.884   3.560   5.851 -1.3281 -0.6058  2.8605
 9055SOL    HW238625   1.744   3.517   5.862  2.2946 -0.7065  1.2000
 9056SOL     OW38626   0.246   0.629   7.465  0.0003 -0.0349 -0.0635
 9056SOL    HW138627   0.324   0.631   7.410 -1.6483  0.1142 -2.3763
 9056SOL    HW238628   0.240   0.720   7.496 -2.9552  0.2911 -1.5748
 9057SOL     OW38629   0.242   2.882   6.025  0.1894 -0.0843  0.2687
 9057SOL    HW138630   0.197   2.816   6.079  1.3535 -1.5785 -0.5747
 9057SOL    HW238631   0.198   2.959   6.061  2.7260  1.4442  0.0314
 9058SOL     OW38632   1.562   4.550   6.800 -0.5808 -0.2456  0.1930
 9058SOL    HW138633   1.494   4.615   6.779 -0.3226 -0.5231 -1.4607
 9058SOL    HW238634   1.558   4.546   6.896  0.2799 -0.6943  0.2041
 9059SOL     OW38635   0.378   0.989   0.223 -0.0271 -0.5576 -0.2222
 9059SOL    HW138636   0.434   0.912   0.236  3.5324  1.8624 -0.9876
 9059SOL    HW238637   0.384   0.992   0.127 -0.4008  2.4171 -0.1564
 9060SOL     OW38638   2.759   2.233   6.006 -0.5172  0.8950  0.5955
 9060SOL    HW138639   2.799   2.312   6.042  1.0288  1.6368 -2.6589
 9060SOL    HW238640   2.791   2.167   6.067  1.2356 -1.4070 -2.8048
 9061SOL     OW38641   0.401   4.524   7.568 -0.3530 -0.1901 -0.7874
 9061SOL    HW138642   0.474   4.584   7.555  0.9719 -1.5350  0.3484
 9061SOL    HW238643   0.425   4.512   7.660 -1.5875  0.9606 -0.3197
 9062SOL     OW38644   1.137   0.935   1.323 -0.7552 -0.5683  0.7900
 9062SOL    HW138645   1.049   0.943   1.286 -1.3851  1.3321  2.7504
 9062SOL    HW238646   1.130   0.990   1.400 -1.5766  0.0165  0.2976
 9063SOL     OW38647   1.797   1.057   6.352 -0.0927  0.3246  0.1572
 9063SOL    HW138648   1.731   0.988   6.356 -0.0948  0.3550  0.7049
 9063SOL    HW238649   1.783   1.103   6.435  0.7759 -1.2730  1.1894
 9064SOL     OW38650   4.036   4.134   2.253  0.5167  0.3954  0.2757
 9064SOL    HW138651   4.067   4.219   2.286 -0.4993  1.0281 -0.3850
 9064SOL    HW238652   3.945   4.134   2.281  1.5595 -1.6055  3.6227
 9065SOL     OW38653   1.236   2.001   8.249  0.6326 -0.0716  0.1969
 9065SOL    HW138654   1.271   1.923   8.206 -0.0071 -0.4414  0.3389
 9065SOL    HW238655   1.273   2.068   8.193  0.0123 -0.4695 -0.6813
 9066SOL     OW38656   2.468   1.638   0.520 -0.4193  0.3443 -0.0654
 9066SOL    HW138657   2.523   1.677   0.588  1.7406  1.4700 -2.4865
 9066SOL    HW238658   2.492   1.545   0.516 -0.6269  0.1688  2.3534
 9067SOL     OW38659   3.072   1.524  11.460  0.2174  0.8124 -0.0782
 9067SOL    HW138660   3.167   1.527  11.455  0.1486  1.7046 -0.8788
 9067SOL    HW238661   3.047   1.569  11.540  1.9350 -1.4678  1.7076
 9068SOL     OW38662   1.890   2.487   3.976 -0.2017  0.0643 -0.4348
 9068SOL    HW138663   1.823   2.455   3.916 -2.0447  2.8020  0.1483
 9068SOL    HW238664   1.949   2.523   3.911  1.3099 -1.4333  0.1262
 9069SOL     OW38665   2.829   3.944   5.936  0.4211  0.1905  0.1083
 9069SOL    HW138666   2.851   4.005   5.865 -0.3906  2.2363  1.6256
 9069SOL    HW238667   2.914   3.910   5.963 -0.1283 -0.6635  0.7423
 9070SOL     OW38668   3.942   1.625  14.259  0.8549 -0.1588  0.7243
 9070SOL    HW138669   3.970   1.540  14.294 -1.6149 -1.3207 -0.1762
 9070SOL    HW238670   4.023   1.639  14.209  1.1646 -1.0023  0.9833
 9071SOL     OW38671   1.458   1.238   0.763 -0.0529 -0.1794  0.2155
 9071SOL    HW138672   1.552   1.253   0.773 -0.4136  1.0840  1.7682
 9071SOL    HW238673   1.447   1.309   0.700  2.4850 -0.4131 -0.4855
 9072SOL     OW38674   3.288   4.315   2.229  0.3694 -0.0166  0.8024
 9072SOL    HW138675   3.225   4.356   2.171  0.5567 -0.2228  0.4552
 9072SOL    HW238676   3.354   4.275   2.173  0.8779  2.4057 -0.3151
 9073SOL     OW38677   3.838   2.743   2.418 -0.2047  0.6472  0.2569
 9073SOL    HW138678   3.801   2.779   2.499  1.5300  1.0233  0.8927
 9073SOL    HW238679   3.924   2.784   2.416  0.6110 -0.9469  1.8513
 9074SOL     OW38680   4.238   2.171   6.922  0.3613 -0.1024  0.6932
 9074SOL    HW138681   4.299   2.142   6.853 -1.2332  0.5169 -0.9888
 9074SOL    HW238682   4.274   2.141   7.005 -0.2131  1.1053  1.3753
 9075SOL     OW38683   0.116   2.820   8.479 -0.2882  0.2343 -0.0155
 9075SOL    HW138684   0.057   2.836   8.553 -1.3067 -3.4745  0.0194
 9075SOL    HW238685   0.180   2.768   8.527 -2.1862 -0.7426  1.5062
 9076SOL     OW38686   2.252   2.778   3.239  0.1453 -0.3854  0.2985
 9076SOL    HW138687   2.199   2.822   3.306 -1.7210 -1.2630 -0.5904
 9076SOL    HW238688   2.334   2.786   3.287 -0.7914  0.1716  1.8374
 9077SOL     OW38689   3.545   0.171  16.303  0.0052 -0.1062  0.0494
 9077SOL    HW138690   3.597   0.245  16.271 -1.4718  1.3611  1.0365
 9077SOL    HW238691   3.528   0.210  16.389  1.5721  1.1281 -0.1992
 9078SOL     OW38692   3.087   2.551   4.540 -0.2010 -0.2787 -0.2667
 9078SOL    HW138693   3.118   2.641   4.532 -0.9790 -0.1406 -1.6937
 9078SOL    HW238694   3.098   2.526   4.632  1.3403 -2.0717 -0.9290
 9079SOL     OW38695   4.063   1.986   4.302 -0.1436  0.3682 -0.3839
 9079SOL    HW138696   4.115   1.943   4.235  1.1988 -0.7040  1.3433
 9079SOL    HW238697   4.074   2.077   4.275  2.2751  0.0694 -0.3652
 9080SOL     OW38698   4.296   2.357   5.869 -0.3492  0.2457  0.0734
 9080SOL    HW138699   4.261   2.376   5.782 -0.3032  0.0500  0.0112
 9080SOL    HW238700   4.219   2.315   5.907  0.3045 -0.5360  0.5405
 9081SOL     OW38701   3.594   2.525   7.220 -0.0650 -0.0408 -0.2898
 9081SOL    HW138702   3.561   2.472   7.292  0.3132  0.5935  0.3463
 9081SOL    HW238703   3.622   2.602   7.269 -1.3598  0.8474 -0.9460
 9082SOL     OW38704   2.519   0.193   7.318  0.3737  0.0381  0.1851
 9082SOL    HW138705   2.455   0.262   7.303  0.9022  0.6445  0.7267
 9082SOL    HW238706   2.541   0.185   7.225 -1.7196 -0.1452 -0.2923
 9083SOL     OW38707   2.227   1.426   0.300 -0.3621  0.3352 -0.3770
 9083SOL    HW138708   2.157   1.363   0.282 -0.7050  0.6225 -0.0541
 9083SOL    HW238709   2.208   1.495   0.236  1.9845  1.8385  0.5610
 9084SOL     OW38710   4.389   1.592   9.605 -0.2409  0.2775  0.5174
 9084SOL    HW138711   4.339   1.539   9.667  1.2748 -1.2624  0.4464
 9084SOL    HW238712   4.400   1.671   9.658 -0.1707  0.0773  0.8074
 9085SOL     OW38713   3.679   3.184   5.124  0.1919 -0.3791 -0.2979
 9085SOL    HW138714   3.696   3.182   5.029 -1.6893  0.1415 -0.6421
 9085SOL    HW238715   3.601   3.130   5.134 -0.3822  0.5257  0.1371
 9086SOL     OW38716   3.332   0.938   1.129  0.0950  0.4208  0.4458
 9086SOL    HW138717   3.400   1.005   1.136 -0.9995  1.4864  0.8514
 9086SOL    HW238718   3.372   0.867   1.079 -1.3477 -0.1991  0.1760
 9087SOL     OW38719   3.374   0.349   1.760  0.1453  0.1805  0.0461
 9087SOL    HW138720   3.313   0.276   1.759  2.3138 -1.5855 -2.0409
 9087SOL    HW238721   3.459   0.306   1.751  1.3063  1.6266  3.9777
 9088SOL     OW38722   1.502   1.791   0.079  0.0653  0.0922 -0.1444
 9088SOL    HW138723   1.503   1.863   0.016  1.0444 -0.1346 -0.3794
 9088SOL    HW238724   1.522   1.848   0.153 -0.5203  0.4063 -0.2289
 9089SOL     OW38725   3.448   4.323   5.433 -0.2380 -0.5056 -0.0596
 9089SOL    HW138726   3.416   4.272   5.508  0.6809 -1.3136 -0.2066
 9089SOL    HW238727   3.409   4.276   5.360  2.0159 -1.6866 -0.5120
 9090SOL     OW38728   2.386   4.316   8.416 -0.4684 -0.9040 -0.4374
 9090SOL    HW138729   2.428   4.398   8.443  0.5693 -1.0532 -1.6377
 9090SOL    HW238730   2.455   4.261   8.380 -1.0183 -1.2657 -0.9448
 9091SOL     OW38731   4.473   0.538   6.636  0.0951  0.3148 -0.3074
 9091SOL    HW138732   4.467   0.575   6.548  0.5885 -0.3962 -0.6376
 9091SOL    HW238733   4.568   0.538   6.650 -0.4015 -0.1518  3.1067
 9092SOL     OW38734   3.160   2.962   5.062 -0.1654 -0.1241  0.4105
 9092SOL    HW138735   3.162   2.929   4.973 -0.2723 -1.6485  0.9770
 9092SOL    HW238736   3.101   3.036   5.044  0.5046  0.2045 -0.4230
 9093SOL     OW38737   4.029   0.429   4.601  0.2428 -0.5600 -0.4081
 9093SOL    HW138738   4.042   0.458   4.691 -2.7206  0.0855 -0.2053
 9093SOL    HW238739   4.050   0.508   4.551  1.5282 -1.7717 -1.8015
 9094SOL     OW38740   1.051   4.691   4.068  0.4831  0.4621  0.2056
 9094SOL    HW138741   1.014   4.650   4.146 -2.0246  1.4370 -0.4898
 9094SOL    HW238742   1.121   0.024   4.107 -0.5347  0.9822  1.3380
 9095SOL     OW38743   3.685   4.151  15.163 -0.2779  0.1796 -0.6107
 9095SOL    HW138744   3.640   4.172  15.082  1.0838 -1.5237 -1.8149
 9095SOL    HW238745   3.685   4.242  15.193 -0.4732 -0.0191  0.0002
 9096SOL     OW38746   4.708   2.192   0.132  0.1109  0.3722 -0.4265
 9096SOL    HW138747   4.709   2.161   0.222  0.7193  0.4247 -0.4154
 9096SOL    HW238748   0.067   2.150   0.096 -0.1898  0.4247 -1.1613
 9097SOL     OW38749   1.649   3.893  14.508 -0.2844 -0.4120 -0.4153
 9097SOL    HW138750   1.665   3.803  14.479  0.4708 -0.7431  1.0349
 9097SOL    HW238751   1.739   3.914  14.532 -0.9175 -1.8978  3.2068
 9098SOL     OW38752   3.834   0.560   3.608 -0.1777  0.4267  0.3172
 9098SOL    HW138753   3.800   0.489   3.553  0.9017  1.7134 -2.0383
 9098SOL    HW238754   3.903   0.581   3.546  1.3019  0.1880  1.9064
 9099SOL     OW38755   2.988   0.966   6.040 -0.4029 -0.1619  0.0011
 9099SOL    HW138756   2.945   0.883   6.057  0.8792 -0.6709  0.7564
 9099SOL    HW238757   3.057   0.931   5.982 -0.0617  0.4912  0.0084
 9100SOL     OW38758   0.483   3.507   5.828 -0.3527 -0.4317 -0.0235
 9100SOL    HW138759   0.563   3.491   5.877  0.8761  0.9497 -1.5425
 9100SOL    HW238760   0.432   3.439   5.871  0.5420 -2.1165 -1.6252
 9101SOL     OW38761   1.758   1.899   7.057 -0.1009  0.2942 -0.0560
 9101SOL    HW138762   1.770   1.987   7.020  1.2467 -1.5871 -4.1272
 9101SOL    HW238763   1.723   1.845   6.986 -0.7636  1.8852 -0.9301
 9102SOL     OW38764   1.909   0.820  15.057  0.3226 -0.3520 -0.6392
 9102SOL    HW138765   1.909   0.733  15.097 -0.1446  1.0486  2.4660
 9102SOL    HW238766   1.995   0.849  15.088 -1.2519  2.9908  0.6236
 9103SOL     OW38767   1.497   2.388   6.212 -0.4049  0.2644 -0.1550
 9103SOL    HW138768   1.416   2.437   6.226  0.1451  1.0540  0.2479
 9103SOL    HW238769   1.462   2.303   6.186 -1.2866  1.2222 -2.0459
 9104SOL     OW38770   3.247   1.761   6.699  0.3411  0.0132  0.2841
 9104SOL    HW138771   3.286   1.812   6.628 -0.3270  0.8332  0.5034
 9104SOL    HW238772   3.300   1.682   6.699 -1.5284 -1.2466  0.0954
 9105SOL     OW38773   0.432   3.097   1.114 -0.4075 -0.3855  0.5221
 9105SOL    HW138774   0.482   3.019   1.137  1.0649 -0.0326 -1.4309
 9105SOL    HW238775   0.341   3.070   1.130 -0.4238  0.5364  1.9568
 9106SOL     OW38776   3.711   4.319   4.153 -0.0178 -0.2175 -0.2627
 9106SOL    HW138777   3.786   4.375   4.174  1.4774 -1.2867 -2.8404
 9106SOL    HW238778   3.634   4.374   4.171  0.6946  1.2829 -1.8353
 9107SOL     OW38779   1.699   3.878   5.963  0.1106 -0.1351  0.3780
 9107SOL    HW138780   1.652   3.885   6.046  0.4252  1.9153  0.3775
 9107SOL    HW238781   1.720   3.785   5.972 -0.7873 -0.3769  0.0194
 9108SOL     OW38782   4.352   3.257  10.162 -0.5441 -0.3177  0.3646
 9108SOL    HW138783   4.280   3.319  10.154  1.9018  2.7490  1.7682
 9108SOL    HW238784   4.320   3.192  10.224 -0.8690  0.3261  0.8702
 9109SOL     OW38785   1.605   2.979   1.458  0.4920 -0.3771 -0.3305
 9109SOL    HW138786   1.568   2.976   1.370 -0.7209  2.1956  0.0752
 9109SOL    HW238787   1.675   3.044   1.460 -2.5097  2.8835  0.4343
 9110SOL     OW38788   2.822   1.674  11.840 -0.0782  0.4678 -0.2924
 9110SOL    HW138789   2.757   1.675  11.910  0.5272  2.3799  0.2239
 9110SOL    HW238790   2.800   1.744  11.779  0.7407 -0.8312 -2.0882
 9111SOL     OW38791   0.894   2.383   7.183 -0.7694 -0.4284 -0.2200
 9111SOL    HW138792   0.943   2.301   7.194  0.3004  0.4111  1.3309
 9111SOL    HW238793   0.837   2.373   7.260  0.2944  2.7572  0.9930
 9112SOL     OW38794   1.075   4.009   4.834 -0.2593  0.7739  0.3375
 9112SOL    HW138795   1.018   3.951   4.784 -0.6121  0.1763  1.4314
 9112SOL    HW238796   1.142   3.953   4.872  0.5181  1.6681  0.2918
 9113SOL     OW38797   2.611   1.083   5.197  0.0441 -0.3166 -0.8017
 9113SOL    HW138798   2.533   1.123   5.158  0.4978  1.6708  0.2862
 9113SOL    HW238799   2.609   1.126   5.283  1.7819 -1.7065 -0.0642
 9114SOL     OW38800   0.877   4.450  10.512 -0.3586 -0.4765 -0.4289
 9114SOL    HW138801   0.807   4.499  10.556  0.6373 -0.2585  0.9022
 9114SOL    HW238802   0.829   4.379  10.471  0.4749 -0.4917 -1.3750
 9115SOL     OW38803   0.376   1.161   7.401  0.7205 -0.4030  0.3476
 9115SOL    HW138804   0.398   1.144   7.492 -1.7694 -1.0175  0.8371
 9115SOL    HW238805   0.358   1.076   7.360 -1.0876 -0.1772  0.7085
 9116SOL     OW38806   0.656   4.391  16.935 -0.2249  0.3704  0.5620
 9116SOL    HW138807   0.561   4.395  16.939 -0.1528  0.9176  2.0785
 9116SOL    HW238808   0.665   4.476  16.892 -2.5485  0.9687  1.2978
 9117SOL     OW38809   1.147   0.152  11.461  0.2121 -0.3949 -0.6491
 9117SOL    HW138810   1.173   0.182  11.374  0.9481  0.8997  0.0297
 9117SOL    HW238811   1.205   0.195  11.524 -0.7822 -0.1209  0.0913
 9118SOL     OW38812   0.412   4.004   4.494  0.2675  0.1178 -0.0259
 9118SOL    HW138813   0.357   3.993   4.416  0.5544  0.2873 -0.2481
 9118SOL    HW238814   0.496   4.025   4.455  0.6737 -4.0444 -1.4155
 9119SOL     OW38815   2.653   2.016   8.022 -0.1422 -0.4072  0.2214
 9119SOL    HW138816   2.582   2.078   8.038  0.7543  0.7964 -0.5512
 9119SOL    HW238817   2.686   2.013   8.112  1.8391 -1.7596 -0.5461
 9120SOL     OW38818   3.644   1.976   7.539 -0.2933  0.0774  0.1837
 9120SOL    HW138819   3.571   1.914   7.549 -2.4797  2.3317 -1.7753
 9120SOL    HW238820   3.693   1.972   7.622 -2.2787 -0.4661  1.3261
 9121SOL     OW38821   1.686   4.366   8.368  0.4077 -0.0224 -0.0570
 9121SOL    HW138822   1.664   4.346   8.459  1.7602 -0.7233  0.1116
 9121SOL    HW238823   1.607   4.323   8.335 -0.5591 -0.1808  2.4076
 9122SOL     OW38824   3.037   0.397   6.305  0.0908 -0.0967 -0.3375
 9122SOL    HW138825   3.089   0.402   6.225 -1.7853  1.1070 -1.4745
 9122SOL    HW238826   2.982   0.474   6.291  0.5894  0.2080 -0.5909
 9123SOL     OW38827   2.530   4.202   3.617 -0.2740 -0.2832  0.1563
 9123SOL    HW138828   2.548   4.166   3.530 -1.2603 -1.2295  0.3444
 9123SOL    HW238829   2.584   4.141   3.668 -1.0290  0.2577  1.6110
 9124SOL     OW38830   1.283   4.030   3.148  0.1150 -0.5072 -0.1450
 9124SOL    HW138831   1.280   4.112   3.099 -0.9432 -0.4514  0.0109
 9124SOL    HW238832   1.224   4.049   3.221 -1.0729 -2.8618 -0.4783
 9125SOL     OW38833   4.689   0.244   0.740 -0.4624 -0.3391 -0.0850
 9125SOL    HW138834   4.704   0.185   0.665 -0.6809  0.6435 -0.8983
 9125SOL    HW238835   0.034   0.210   0.802 -0.1093  0.3620 -0.0621
 9126SOL     OW38836   1.986   3.729  14.545 -0.2147  0.2958  0.4792
 9126SOL    HW138837   1.968   3.820  14.521  0.8013 -0.5541 -3.4940
 9126SOL    HW238838   1.935   3.678  14.482  3.0682  0.6644 -2.4232
 9127SOL     OW38839   3.618   3.246  11.961  0.3191 -0.0214 -0.2964
 9127SOL    HW138840   3.619   3.339  11.938 -1.2925 -0.3697 -1.7214
 9127SOL    HW238841   3.707   3.227  11.931  0.8110 -0.4156  1.4513
 9128SOL     OW38842   1.738   2.582  11.515 -0.1030 -0.2568  0.0157
 9128SOL    HW138843   1.733   2.530  11.595 -1.6236  0.5707  0.4509
 9128SOL    HW238844   1.647   2.570  11.486  0.0188 -1.5702  0.1739
 9129SOL     OW38845   3.500   2.301   4.847 -0.4554  0.2950 -0.0214
 9129SOL    HW138846   3.551   2.335   4.921 -0.8119 -2.4435  1.5168
 9129SOL    HW238847   3.510   2.373   4.785  0.9593  0.7746  0.7554
 9130SOL     OW38848   0.005   0.739   2.864 -0.5139 -0.4459 -0.4399
 9130SOL    HW138849   0.003   0.713   2.956 -0.1804  0.9501 -0.0358
 9130SOL    HW238850   4.714   0.660   2.811  0.1019 -0.1655 -0.9744
 9131SOL     OW38851   1.774   3.727   5.372  0.0453 -0.8240  0.5892
 9131SOL    HW138852   1.813   3.812   5.352  1.9793 -1.8039  0.2413
 9131SOL    HW238853   1.715   3.749   5.444  4.0485  3.9740  2.4035
 9132SOL     OW38854   1.182   0.732  12.057  0.4841  0.2127  0.1916
 9132SOL    HW138855   1.252   0.791  12.029 -0.6402  0.8266 -1.2964
 9132SOL    HW238856   1.159   0.778  12.138  2.3837  0.8404  0.3677
 9133SOL     OW38857   3.088   0.829   1.075  0.1047  0.3474  0.4707
 9133SOL    HW138858   3.065   0.916   1.043  3.2162  0.0723 -2.5821
 9133SOL    HW238859   3.181   0.844   1.094  0.3533  1.2611 -1.4461
 9134SOL     OW38860   4.511   4.189   7.987 -0.5062 -0.2414 -0.4839
 9134SOL    HW138861   4.459   4.115   8.019 -0.6391 -1.1132 -2.7353
 9134SOL    HW238862   4.543   4.157   7.903  0.0259  2.7948 -1.4352
 9135SOL     OW38863   1.538   2.402   0.003 -0.5654 -0.2777 -0.0367
 9135SOL    HW138864   1.454   2.363  17.658 -1.2388  0.0806  1.7564
 9135SOL    HW238865   1.567   2.443  17.600  0.2803 -0.5075  0.1469
 9136SOL     OW38866   0.965   1.651   7.816  0.5913  0.1790 -0.0739
 9136SOL    HW138867   0.987   1.564   7.783 -0.0604  0.0137 -0.0678
 9136SOL    HW238868   0.873   1.644   7.839  0.2923 -2.7418 -2.3572
 9137SOL     OW38869   0.625   3.924   4.700  0.5527  0.2060 -0.0246
 9137SOL    HW138870   0.625   3.829   4.699 -1.1029  0.2022  0.4629
 9137SOL    HW238871   0.535   3.938   4.669  0.0533 -2.3735  0.3042
 9138SOL     OW38872   3.730   0.393   7.780  0.1144  0.6233  0.3737
 9138SOL    HW138873   3.642   0.377   7.813  0.9240  0.5932  2.5318
 9138SOL    HW238874   3.749   0.476   7.825  0.3626  0.9694 -0.3613
 9139SOL     OW38875   2.553   4.116  16.391 -0.3660  0.1324  0.3255
 9139SOL    HW138876   2.513   4.126  16.305  0.9039  0.7647 -0.1950
 9139SOL    HW238877   2.626   4.178  16.391 -0.0020 -0.2949 -2.1508
 9140SOL     OW38878   1.521   2.051   2.822 -0.3358 -0.5265  0.5115
 9140SOL    HW138879   1.521   2.143   2.851 -0.2333 -0.1297 -0.7524
 9140SOL    HW238880   1.439   2.021   2.860 -0.8934  2.2235  1.5243
 9141SOL     OW38881   0.797   1.326   1.152 -0.4782  0.4653 -0.2849
 9141SOL    HW138882   0.801   1.272   1.231 -0.8366 -0.8989 -1.1931
 9141SOL    HW238883   0.809   1.253   1.092 -1.3774 -0.8886  1.1583
 9142SOL     OW38884   3.123   0.365   4.890  0.5098  0.0252  0.4794
 9142SOL    HW138885   3.068   0.413   4.952  0.0568 -0.6442  0.5904
 9142SOL    HW238886   3.055   0.366   4.822 -0.3643  1.1346  1.3829
 9143SOL     OW38887   3.295   3.862   7.901  0.0389  0.1899  0.2396
 9143SOL    HW138888   3.218   3.919   7.892  0.4290  0.9930  1.9705
 9143SOL    HW238889   3.296   3.882   7.995  1.3593  1.2518 -0.0064
 9144SOL     OW38890   3.548   3.277   3.396  0.1802  0.4827  0.1699
 9144SOL    HW138891   3.523   3.185   3.389  0.1339  0.4721  0.4845
 9144SOL    HW238892   3.624   3.262   3.452 -0.9419 -1.9586  1.0020
 9145SOL     OW38893   3.280   1.926   7.202  0.1521 -0.6361 -0.0584
 9145SOL    HW138894   3.235   1.959   7.125 -0.9573 -0.8706  0.4914
 9145SOL    HW238895   3.223   1.936   7.279  0.2162  0.7195 -0.1830
 9146SOL     OW38896   4.155   1.965   6.294  0.7179 -0.8191  0.2393
 9146SOL    HW138897   4.179   1.994   6.205  2.8159  0.8649  1.3431
 9146SOL    HW238898   4.209   1.886   6.299  0.3961 -1.2114 -2.3068
 9147SOL     OW38899   3.195   3.283   2.698 -0.4632 -0.3143  0.0244
 9147SOL    HW138900   3.117   3.327   2.730 -0.3838 -0.3542  0.2738
 9147SOL    HW238901   3.224   3.332   2.622 -0.8795 -3.1732 -2.0069
 9148SOL     OW38902   4.719   1.976   9.380  0.6537 -0.3102  0.4478
 9148SOL    HW138903   0.040   1.906   9.328  2.8339  1.0752  0.2705
 9148SOL    HW238904   4.667   1.919   9.437 -0.4974  0.2192 -0.0817
 9149SOL     OW38905   0.694   1.638   7.977  0.3193 -0.2393  0.1601
 9149SOL    HW138906   0.679   1.684   8.060  2.1369 -1.8534  1.3630
 9149SOL    HW238907   0.694   1.551   8.017 -0.3465  0.9672  2.7962
 9150SOL     OW38908   2.184   2.712   6.147  0.2510 -0.1763  0.1470
 9150SOL    HW138909   2.205   2.805   6.138  0.0438  0.1174  2.6438
 9150SOL    HW238910   2.131   2.697   6.225 -0.2637  2.9864  0.4249
 9151SOL     OW38911   4.321   1.360   9.090 -0.2572 -0.2315  0.4611
 9151SOL    HW138912   4.374   1.281   9.094  2.4690  1.6247  0.3792
 9151SOL    HW238913   4.321   1.404   9.175  1.2665  0.7399 -0.0375
 9152SOL     OW38914   2.395   0.084   7.751  0.2341 -0.2613  0.2207
 9152SOL    HW138915   2.377   0.014   7.688 -0.8891 -0.3771  0.6744
 9152SOL    HW238916   2.379   0.158   7.693  0.4695 -2.2691 -2.3991
 9153SOL     OW38917   2.491   3.099  11.886  0.6242  0.2511 -0.7439
 9153SOL    HW138918   2.568   3.043  11.884  0.0398 -0.5348 -1.3460
 9153SOL    HW238919   2.529   3.182  11.915  0.8919 -0.4420  0.9051
 9154SOL     OW38920   0.770   0.955   4.337 -0.0268 -0.1967  0.2330
 9154SOL    HW138921   0.782   0.863   4.360  0.1540 -0.6172 -1.5415
 9154SOL    HW238922   0.839   0.997   4.389 -0.4952 -0.1934  0.8520
 9155SOL     OW38923   0.465   3.202   8.914 -0.3000 -0.2859 -0.0845
 9155SOL    HW138924   0.420   3.131   8.868 -0.9341 -0.2467  0.4736
 9155SOL    HW238925   0.394   3.244   8.962  1.5459  0.1795  2.2308
 9156SOL     OW38926   4.705   1.354   8.486 -0.5386 -0.2574 -0.5773
 9156SOL    HW138927   4.639   1.306   8.536 -1.3255 -0.1106 -1.4575
 9156SOL    HW238928   4.666   1.346   8.399 -0.6996 -0.5081 -0.4832
 9157SOL     OW38929   3.956   0.056   8.693 -0.3935 -0.4208 -0.1779
 9157SOL    HW138930   3.999   0.014   8.619  0.6459 -1.0803  0.7965
 9157SOL    HW238931   4.022   0.112   8.733 -0.5615 -0.0658 -0.3953
 9158SOL     OW38932   1.177   3.652   7.545 -0.1766  0.1213 -0.0032
 9158SOL    HW138933   1.136   3.619   7.466 -0.3826 -4.2174  1.9018
 9158SOL    HW238934   1.206   3.734   7.505 -0.5920 -0.0982 -0.7500
 9159SOL     OW38935   4.569   2.436   4.291  0.1737  0.3886 -0.4197
 9159SOL    HW138936   4.483   2.473   4.271  0.4273  0.7681 -0.8071
 9159SOL    HW238937   4.578   2.370   4.221 -1.1129 -1.5452  1.2318
 9160SOL     OW38938   3.835   3.245  17.577  0.3578 -0.0782  0.2353
 9160SOL    HW138939   3.920   3.225  17.617 -1.3350 -1.7203  3.0077
 9160SOL    HW238940   3.780   3.276  17.649  2.3765 -1.1300  2.2661
 9161SOL     OW38941   1.360   1.588   1.643  0.2913 -0.2014 -0.2669
 9161SOL    HW138942   1.448   1.599   1.679 -0.9786  0.7499  2.5464
 9161SOL    HW238943   1.319   1.666   1.678  0.3007  0.4394 -1.6747
 9162SOL     OW38944   1.061   4.341  17.037  0.1095  0.2088  0.3710
 9162SOL    HW138945   1.094   4.254  17.016 -1.6276 -0.6173  1.0422
 9162SOL    HW238946   1.117   4.366  17.111  2.4168 -1.3965 -0.8406
 9163SOL     OW38947   4.472   4.538  16.963 -0.7197 -0.2752 -0.7839
 9163SOL    HW138948   4.485   4.633  16.975 -2.5134 -0.1840  0.4651
 9163SOL    HW238949   4.384   4.523  16.999 -0.3714  0.3382  0.3239
 9164SOL     OW38950   1.703   2.889   3.755  0.3009 -0.2621 -0.0652
 9164SOL    HW138951   1.728   2.958   3.693  0.3544 -0.0503  0.1899
 9164SOL    HW238952   1.745   2.920   3.836  1.5980 -2.8662  0.2468
 9165SOL     OW38953   0.624   2.152   5.470 -0.0867  0.1596  0.4637
 9165SOL    HW138954   0.675   2.217   5.519  1.0002 -0.7850  0.5980
 9165SOL    HW238955   0.556   2.122   5.531 -0.0810 -0.7734  0.0150
 9166SOL     OW38956   0.146   2.628  15.817  0.0266  0.4660  0.0325
 9166SOL    HW138957   0.170   2.719  15.835 -0.6037  0.5176  0.6421
 9166SOL    HW238958   0.051   2.639  15.830 -0.0393 -1.6658  1.2930
 9167SOL     OW38959   2.470   3.707  14.911  0.8018  0.2612  0.4070
 9167SOL    HW138960   2.490   3.623  14.952 -1.4683  0.3075  1.5716
 9167SOL    HW238961   2.403   3.680  14.849  1.5650  0.8237 -0.6772
 9168SOL     OW38962   1.874   3.624  10.862 -0.0420  0.2768  0.2136
 9168SOL    HW138963   1.882   3.719  10.870 -2.5215  0.5886 -1.0734
 9168SOL    HW238964   1.935   3.598  10.794 -1.0802 -1.7329  0.0516
 9169SOL     OW38965   4.252   2.777   6.704  0.2469  0.0936  0.2346
 9169SOL    HW138966   4.213   2.731   6.779  0.3428 -2.9234 -1.5912
 9169SOL    HW238967   4.312   2.845   6.735 -0.3744  0.8353 -0.1723
 9170SOL     OW38968   3.129   1.730   3.707  0.0345  0.3767  0.2371
 9170SOL    HW138969   3.169   1.747   3.792  1.9479  1.5204 -0.8813
 9170SOL    HW238970   3.100   1.639   3.711  0.5103  0.1837 -0.6565
 9171SOL     OW38971   2.416   2.444  10.287 -0.0740  0.1707 -0.2005
 9171SOL    HW138972   2.493   2.481  10.331 -1.4492  2.5592  0.1990
 9171SOL    HW238973   2.345   2.498  10.322 -0.6809  0.3983 -1.7870
 9172SOL     OW38974   3.911   2.513   1.299  0.1553  0.0445  1.0611
 9172SOL    HW138975   3.908   2.604   1.268 -1.8195  0.4218  2.3174
 9172SOL    HW238976   3.841   2.480   1.243  1.6414 -1.2523 -0.0424
 9173SOL     OW38977   4.335   1.022  10.090  0.3757 -0.0911  0.3378
 9173SOL    HW138978   4.419   0.991  10.057  0.0620 -0.6405  0.0298
 9173SOL    HW238979   4.298   0.935  10.104  0.3405 -0.6823 -3.2657
 9174SOL     OW38980   3.657   2.294   9.343 -0.5488  0.1938  0.3673
 9174SOL    HW138981   3.687   2.361   9.405  1.2896 -0.6121  0.3494
 9174SOL    HW238982   3.733   2.239   9.325 -0.0564  1.6962 -2.1762
 9175SOL     OW38983   1.225   1.786   1.761  0.3858  0.0235  0.3537
 9175SOL    HW138984   1.155   1.809   1.821  0.6306 -1.3096  1.1645
 9175SOL    HW238985   1.280   1.864   1.763  2.6284 -1.5105 -0.3624
 9176SOL     OW38986   2.564   4.184   2.601  0.8288  0.1810  0.0865
 9176SOL    HW138987   2.472   4.206   2.618  0.5415 -0.3934 -0.7329
 9176SOL    HW238988   2.568   4.090   2.584  1.4249  0.0407  0.9645
 9177SOL     OW38989   2.053   4.073   0.410 -0.5670  0.0428 -0.0357
 9177SOL    HW138990   2.046   4.141   0.343 -2.3441 -0.2332 -0.1424
 9177SOL    HW238991   2.064   3.997   0.354  0.5783 -0.5778  1.0458
 9178SOL     OW38992   1.367   1.836  14.658 -0.3765 -0.0317  0.5922
 9178SOL    HW138993   1.433   1.800  14.718 -0.0227  0.5228  0.5401
 9178SOL    HW238994   1.285   1.789  14.669  0.7089 -1.3609  3.0373
 9179SOL     OW38995   1.281   3.020   7.276  0.1394 -0.2166  0.1813
 9179SOL    HW138996   1.211   2.955   7.282 -0.0317  0.0412  0.9635
 9179SOL    HW238997   1.341   2.985   7.342  1.6721 -0.5806 -1.4134
 9180SOL     OW38998   0.474   3.509   9.106  0.2692 -0.0252  0.3132
 9180SOL    HW138999   0.444   3.498   9.197 -1.2281 -0.0640 -0.1893
 9180SOL    HW239000   0.396   3.471   9.066  0.3409 -0.5313  0.6537
 9181SOL     OW39001   2.806   1.483   6.445  0.1410  0.1683 -0.0639
 9181SOL    HW139002   2.793   1.401   6.397  2.0160  0.2238 -0.6603
 9181SOL    HW239003   2.892   1.481   6.487  0.1794  1.4482 -0.0624
 9182SOL     OW39004   2.831   0.431   5.001 -0.1394  0.2206  0.8874
 9182SOL    HW139005   2.793   0.378   5.071 -0.5997 -1.5533 -0.7177
 9182SOL    HW239006   2.788   0.399   4.922  0.1945  3.0843 -0.4403
 9183SOL     OW39007   3.235   1.951   4.541  0.6483  0.1829  0.0865
 9183SOL    HW139008   3.215   2.043   4.558  2.2081  0.9575 -2.3759
 9183SOL    HW239009   3.264   1.932   4.630  0.7657 -0.4886 -0.0978
 9184SOL     OW39010   3.980   3.212   7.072  0.1250 -0.1898 -0.1124
 9184SOL    HW139011   3.896   3.173   7.049 -1.4340  2.0919  1.6335
 9184SOL    HW239012   3.987   3.184   7.163 -4.0296 -2.2340 -0.4259
 9185SOL     OW39013   4.665   3.442   2.182  0.7116 -0.8074 -0.2621
 9185SOL    HW139014   4.700   3.521   2.223  1.9966 -0.1769 -2.5650
 9185SOL    HW239015   0.004   3.370   2.207  1.9201  0.2527 -0.0522
 9186SOL     OW39016   2.886   1.295   2.737 -0.1988 -0.0958  0.3422
 9186SOL    HW139017   2.846   1.381   2.730  1.1690  0.4084 -1.4823
 9186SOL    HW239018   2.861   1.261   2.651  0.3413 -0.7840  0.4521
 9187SOL     OW39019   3.975   4.575   6.361  0.3792 -0.0616  0.0376
 9187SOL    HW139020   4.010   4.662   6.343  2.3699 -1.5382 -3.1486
 9187SOL    HW239021   4.023   4.551   6.441  0.0253  1.1258  0.6101
 9188SOL     OW39022   1.384   3.147   9.222  0.4631 -0.3126  0.6704
 9188SOL    HW139023   1.304   3.166   9.173  1.2358  0.5227 -0.2789
 9188SOL    HW239024   1.423   3.234   9.210  0.6449 -0.2918  1.4285
 9189SOL     OW39025   2.263   0.745   7.867 -0.6256  0.3033  0.5879
 9189SOL    HW139026   2.276   0.656   7.899  0.9433  0.4064  0.2337
 9189SOL    HW239027   2.338   0.754   7.808  0.1887  1.1450  1.7423
 9190SOL     OW39028   2.080   0.315   1.061 -0.2898  0.7484  0.3438
 9190SOL    HW139029   1.995   0.272   1.060 -0.4012  0.9201  2.7039
 9190SOL    HW239030   2.066   0.376   0.989 -1.7067  0.1566  0.1171
 9191SOL     OW39031   1.295   0.824   1.538  0.1126 -1.0233  0.4279
 9191SOL    HW139032   1.239   0.838   1.461  0.3553  2.2022  0.8295
 9191SOL    HW239033   1.323   0.910   1.571  0.1673 -1.7322  2.1876
 9192SOL     OW39034   1.736   1.668   5.268 -0.0007  0.1986 -0.7622
 9192SOL    HW139035   1.676   1.739   5.241 -2.3630 -1.8162 -0.8501
 9192SOL    HW239036   1.817   1.716   5.253 -0.1013  1.2681  2.0874
 9193SOL     OW39037   0.452   4.158   3.717  0.2201 -0.3045  0.7045
 9193SOL    HW139038   0.411   4.239   3.687  0.3965 -0.7955 -0.8263
 9193SOL    HW239039   0.467   4.184   3.808 -1.2776  0.3344  0.7708
 9194SOL     OW39040   4.224   2.907   7.358  0.2695  0.4567 -0.2024
 9194SOL    HW139041   4.298   2.867   7.404 -1.0051  0.2037  1.6394
 9194SOL    HW239042   4.247   2.877   7.270 -2.0090 -2.1317  0.0616
 9195SOL     OW39043   4.606   3.405   7.733 -0.8328  0.0846 -0.7082
 9195SOL    HW139044   4.571   3.361   7.810  1.8152 -1.3377 -0.2997
 9195SOL    HW239045   4.643   3.483   7.774 -2.0052 -0.3250  1.1074
 9196SOL     OW39046   4.517   3.416   9.336  0.1150 -0.5789  0.2470
 9196SOL    HW139047   4.447   3.477   9.315 -1.8006 -2.6610  0.5423
 9196SOL    HW239048   4.504   3.348   9.270 -2.7996  1.2441 -1.0310
 9197SOL     OW39049   4.390   0.727   1.482  0.2807 -0.1044 -0.3824
 9197SOL    HW139050   4.309   0.689   1.448  0.0954 -1.5101  1.5964
 9197SOL    HW239051   4.377   0.821   1.474 -3.1406 -0.5836 -0.2737
 9198SOL     OW39052   3.951   4.446   9.979 -0.0707  0.2119  0.5245
 9198SOL    HW139053   3.951   4.527   9.927  3.3440 -2.0066 -2.9974
 9198SOL    HW239054   3.993   4.392   9.912 -0.7692  0.1301  0.1503
 9199SOL     OW39055   1.729   0.519   4.845 -0.0803  0.4795 -0.5167
 9199SOL    HW139056   1.823   0.506   4.850 -0.2527 -1.0140 -0.8846
 9199SOL    HW239057   1.691   0.433   4.824  1.3403  0.0365 -1.2780
 9200SOL     OW39058   3.431   0.244   6.157  0.9573 -0.1568 -0.2146
 9200SOL    HW139059   3.424   0.155   6.122  1.4868 -0.5868  0.7820
 9200SOL    HW239060   3.408   0.229   6.249 -0.0926 -2.0156 -0.7848
 9201SOL     OW39061   1.646   3.045   6.116  0.0175  0.0772  0.2812
 9201SOL    HW139062   1.592   3.086   6.184 -0.4588 -1.8323  1.0325
 9201SOL    HW239063   1.662   2.960   6.155 -1.2016 -2.0011 -3.7594
 9202SOL     OW39064   3.006   0.200   7.202  0.0599  0.1967  0.0784
 9202SOL    HW139065   2.955   0.146   7.142 -0.1817  0.2002  0.2834
 9202SOL    HW239066   3.075   0.231   7.143  0.5241  0.9766  1.0452
 9203SOL     OW39067   1.619   1.056  10.172 -0.0381 -0.3848 -0.7036
 9203SOL    HW139068   1.578   1.106  10.101  0.1144 -0.0241 -0.5409
 9203SOL    HW239069   1.581   1.100  10.248  1.9403  2.0128 -1.0934
 9204SOL     OW39070   1.752   2.283   3.893  0.0449  0.2214  0.1221
 9204SOL    HW139071   1.690   2.215   3.866  2.6757 -1.8595 -0.6388
 9204SOL    HW239072   1.801   2.278   3.811  0.2788 -0.4987  0.3116
 9205SOL     OW39073   0.473   3.721   8.749 -0.2730  0.0654 -0.5482
 9205SOL    HW139074   0.435   3.673   8.823  3.6657 -1.6722  0.3782
 9205SOL    HW239075   0.400   3.737   8.689 -0.1503 -0.5345 -0.8614
 9206SOL     OW39076   2.240   4.332  17.602 -0.4200  0.4462 -0.0797
 9206SOL    HW139077   2.206   4.417  17.631  1.4551  1.4341 -0.7210
 9206SOL    HW239078   2.332   4.346  17.624 -0.1243 -0.0909 -0.9663
 9207SOL     OW39079   2.717   0.772   8.152 -0.1630 -0.3761  0.0186
 9207SOL    HW139080   2.773   0.848   8.141 -1.3044  0.1319 -2.2429
 9207SOL    HW239081   2.778   0.701   8.135 -0.5931 -0.7260 -0.0861
 9208SOL     OW39082   4.541   1.739   2.850  0.5179 -0.5151  0.2374
 9208SOL    HW139083   4.456   1.726   2.807  0.4264 -0.6991  0.4711
 9208SOL    HW239084   4.522   1.823   2.891 -0.6366 -0.7354  0.1759
 9209SOL     OW39085   3.331   3.176   4.160 -0.4335  0.0577 -0.1102
 9209SOL    HW139086   3.288   3.202   4.242 -2.2154  1.3376 -1.4453
 9209SOL    HW239087   3.403   3.238   4.150 -0.8399  0.3807 -1.0669
 9210SOL     OW39088   1.526   0.374   4.517  0.2150 -0.7966 -0.3981
 9210SOL    HW139089   1.510   0.453   4.569  0.3488 -1.5241  0.7427
 9210SOL    HW239090   1.494   0.411   4.434  0.1857 -0.6410 -0.3170
 9211SOL     OW39091   4.606   4.293  16.257  0.1729 -0.6974 -0.0768
 9211SOL    HW139092   4.629   4.258  16.343  1.7063 -1.9213 -0.9802
 9211SOL    HW239093   4.553   4.369  16.279  0.5857 -0.6478  0.7510
 9212SOL     OW39094   3.474   4.040   3.344  0.3647  0.0904  0.1248
 9212SOL    HW139095   3.419   3.981   3.396 -0.2523 -0.3216 -1.0041
 9212SOL    HW239096   3.429   4.124   3.349  0.1357 -0.0891  1.1558
 9213SOL     OW39097   1.521   4.056   5.846  0.0335  0.1514 -0.3721
 9213SOL    HW139098   1.599   4.002   5.863 -0.6973 -0.0727  2.1955
 9213SOL    HW239099   1.563   4.142   5.844 -0.1914  0.2455 -1.3242
 9214SOL     OW39100   4.645   2.038   2.636  0.0358 -0.3973 -0.1135
 9214SOL    HW139101   4.589   2.008   2.564  1.1399 -0.8282 -0.7932
 9214SOL    HW239102   4.583   2.087   2.690  1.2339  0.5274  0.4172
 9215SOL     OW39103   0.009   3.970  16.318 -0.4942  0.0729  0.5439
 9215SOL    HW139104   0.087   3.916  16.302 -0.3530  0.4341 -0.0078
 9215SOL    HW239105   4.653   3.920  16.287  0.9402 -1.2633 -0.7920
 9216SOL     OW39106   4.390   1.025   1.758  0.1619  0.2320  0.4280
 9216SOL    HW139107   4.307   0.995   1.797 -0.6276 -2.1611 -3.1275
 9216SOL    HW239108   4.383   1.120   1.753 -0.4376  0.0960 -1.2614
 9217SOL     OW39109   1.904   2.490  17.154  0.5652 -0.6432 -0.5329
 9217SOL    HW139110   1.887   2.509  17.246  2.8441 -0.5673 -0.1335
 9217SOL    HW239111   1.823   2.527  17.120  1.3304 -0.1011 -1.7714
 9218SOL     OW39112   4.073   1.735   2.573 -0.5397  0.1415 -0.3417
 9218SOL    HW139113   4.046   1.712   2.484  1.7329  1.0264 -1.2460
 9218SOL    HW239114   3.986   1.765   2.602  0.2703  0.2357  1.9762
 9219SOL     OW39115   1.179   3.818   0.667  0.7769  0.5261  0.3108
 9219SOL    HW139116   1.228   3.799   0.588 -0.0292 -1.7150  0.3420
 9219SOL    HW239117   1.092   3.836   0.632  1.2368  1.0750 -0.5429
 9220SOL     OW39118   3.749   0.128   4.453  0.4484  0.2589 -0.3232
 9220SOL    HW139119   3.665   0.169   4.472  0.3724 -0.3766  0.7040
 9220SOL    HW239120   3.789   0.124   4.540  2.0930 -1.3950 -1.1430
 9221SOL     OW39121   3.844   4.588   0.048 -0.3057 -0.3179 -0.3026
 9221SOL    HW139122   3.773   4.567   0.108  0.9414  0.4025  1.4206
 9221SOL    HW239123   3.812   4.545  17.647 -1.0438 -2.1078  0.9468
 9222SOL     OW39124   0.966   1.805  17.428 -0.5798 -0.0984 -0.1741
 9222SOL    HW139125   1.031   1.815  17.498  0.0086  1.6697 -0.9615
 9222SOL    HW239126   0.984   1.889  17.386 -0.1834  0.7320  1.6698
 9223SOL     OW39127   2.937   1.515   3.732  0.6230 -0.7117 -0.0543
 9223SOL    HW139128   2.862   1.535   3.676  1.1786  0.2080 -0.4655
 9223SOL    HW239129   2.910   1.566   3.809 -0.1334 -2.4162  0.8104
 9224SOL     OW39130   3.928   4.500   5.751 -0.3842 -0.4592 -0.5583
 9224SOL    HW139131   3.897   4.415   5.784 -1.7592  1.3260  2.6847
 9224SOL    HW239132   4.006   4.506   5.806  1.1145  2.0418 -2.9337
 9225SOL     OW39133   4.565   0.606   4.173 -0.4329  0.3504 -0.7670
 9225SOL    HW139134   4.479   0.634   4.144 -2.0694 -1.2043  2.6996
 9225SOL    HW239135   4.555   0.516   4.203 -0.0840  1.2004  1.8463
 9226SOL     OW39136   2.736   4.703   1.229 -0.3922 -0.5812 -0.0064
 9226SOL    HW139137   2.729   4.618   1.273  1.2461 -0.2429  0.9250
 9226SOL    HW239138   2.752   0.033   1.310 -2.4464  0.1987 -0.0540
 9227SOL     OW39139   1.608   3.175  11.688 -0.9265 -0.3524 -1.0403
 9227SOL    HW139140   1.580   3.260  11.655 -0.4916  0.3171  0.3224
 9227SOL    HW239141   1.596   3.189  11.782  0.1210 -0.9152 -0.8144
 9228SOL     OW39142   1.933   1.641  12.911  0.4097 -0.1569 -0.9853
 9228SOL    HW139143   1.970   1.575  12.853  0.3122 -0.6428 -0.4935
 9228SOL    HW239144   1.894   1.592  12.984  0.8009  0.5387 -0.3133
 9229SOL     OW39145   3.961   3.965   5.210  0.4211  0.0146 -0.0843
 9229SOL    HW139146   4.052   3.967   5.239  0.8812 -1.0105 -1.4901
 9229SOL    HW239147   3.939   4.058   5.211 -0.5221 -0.2239  1.4364
 9230SOL     OW39148   0.420   4.480   1.963 -0.6650  0.3093  0.1816
 9230SOL    HW139149   0.481   4.537   1.917 -0.7163  0.5207  0.3745
 9230SOL    HW239150   0.414   4.532   2.043  0.8994  0.5224  0.1609
 9231SOL     OW39151   3.966   2.426  12.454 -0.1726  0.1411 -0.0710
 9231SOL    HW139152   3.914   2.426  12.534 -1.3326 -1.1856 -0.8215
 9231SOL    HW239153   3.898   2.451  12.392  0.0226  3.9964  1.3052
 9232SOL     OW39154   0.546   2.588  16.946  0.0023 -0.1916  0.4226
 9232SOL    HW139155   0.604   2.573  16.872  2.6813  3.7510  1.6897
 9232SOL    HW239156   0.542   2.684  16.938 -0.3770 -0.3709 -1.4625
 9233SOL     OW39157   0.158   4.260   4.376 -0.0498  0.6216 -0.2009
 9233SOL    HW139158   0.066   4.278   4.397 -0.3493 -0.3730 -0.6882
 9233SOL    HW239159   0.171   4.347   4.338 -0.6941  0.1706 -1.4270
 9234SOL     OW39160   4.569   1.840   0.486 -0.1077 -0.2447 -0.0355
 9234SOL    HW139161   4.513   1.820   0.411 -1.4940 -0.0675  0.9412
 9234SOL    HW239162   4.536   1.769   0.542  1.3606 -1.0306 -0.1506
 9235SOL     OW39163   1.503   1.586   9.148  0.1511 -0.2899  0.0047
 9235SOL    HW139164   1.477   1.673   9.179  1.6558 -0.0799  0.6913
 9235SOL    HW239165   1.521   1.605   9.056 -0.1474 -2.2415 -0.4464
 9236SOL     OW39166   2.626   3.737   1.901  0.0806  0.3788  0.1316
 9236SOL    HW139167   2.670   3.689   1.972 -2.8332  0.0433  1.7053
 9236SOL    HW239168   2.554   3.772   1.953 -1.4050  0.5971 -2.0756
 9237SOL     OW39169   3.160   2.385   4.340  0.0605  0.0439  0.0918
 9237SOL    HW139170   3.118   2.444   4.403 -1.7671  0.2921 -1.3618
 9237SOL    HW239171   3.231   2.443   4.310 -0.3184  0.8083  0.6536
 9238SOL     OW39172   2.695   3.640   9.430 -0.3840 -0.4236 -0.4858
 9238SOL    HW139173   2.669   3.732   9.423 -1.2496 -0.4717  2.1077
 9238SOL    HW239174   2.661   3.610   9.346 -1.3559 -2.6083  0.6782
 9239SOL     OW39175   4.531   3.901   8.979 -0.1710  0.3272 -0.1342
 9239SOL    HW139176   4.619   3.864   8.968 -0.5091 -0.1642 -1.1699
 9239SOL    HW239177   4.508   3.849   9.056 -0.3878  0.2731 -0.2355
 9240SOL     OW39178   0.579   1.439  16.731 -0.1094  0.7124  0.2054
 9240SOL    HW139179   0.558   1.519  16.682 -1.4139  1.1471  1.4865
 9240SOL    HW239180   0.621   1.478  16.808  2.7444  0.7371 -1.3430
 9241SOL     OW39181   3.992   2.054   5.741  0.1805 -0.3192 -0.0799
 9241SOL    HW139182   4.075   2.070   5.696  1.1992  0.5252  2.0661
 9241SOL    HW239183   3.965   2.145   5.757 -1.3453 -0.7647 -0.1167
 9242SOL     OW39184   0.716   2.965   3.976 -0.1882  0.3627 -0.2781
 9242SOL    HW139185   0.713   2.905   4.051 -0.3862  1.3866  0.5324
 9242SOL    HW239186   0.623   2.969   3.954 -0.7502  0.0409  1.9837
 9243SOL     OW39187   2.967   4.030   6.833  0.1448 -0.3496 -0.2347
 9243SOL    HW139188   2.974   4.114   6.788  0.4625  0.2791  0.9913
 9243SOL    HW239189   3.056   3.995   6.833 -0.3973 -1.7421  3.0791
 9244SOL     OW39190   3.813   2.431  10.317 -0.2412 -0.0414 -1.0918
 9244SOL    HW139191   3.803   2.345  10.276  0.6051 -0.6498 -0.0258
 9244SOL    HW239192   3.841   2.491  10.249  0.0780 -0.1110 -1.0221
 9245SOL     OW39193   0.860   1.616   4.131 -0.2510 -0.0529  0.2553
 9245SOL    HW139194   0.821   1.537   4.169  2.4064 -1.8838 -0.8026
 9245SOL    HW239195   0.936   1.621   4.189  1.4748  2.3537 -2.2408
 9246SOL     OW39196   1.511   3.674   7.967  0.0047 -0.3156 -0.3242
 9246SOL    HW139197   1.587   3.706   8.016  1.7077 -1.9495 -1.8855
 9246SOL    HW239198   1.530   3.711   7.880 -1.1436  0.6865 -0.1544
 9247SOL     OW39199   0.320   4.319  10.695 -0.4528  0.3498 -0.2486
 9247SOL    HW139200   0.311   4.288  10.604  1.0053 -2.3096  0.5138
 9247SOL    HW239201   0.362   4.243  10.735 -0.6645 -1.0889 -2.7334
 9248SOL     OW39202   2.758   2.730   0.517 -0.4429 -0.0198 -0.7972
 9248SOL    HW139203   2.779   2.815   0.478  3.6058 -1.8857 -2.5833
 9248SOL    HW239204   2.818   2.668   0.477  1.0454  1.4033 -0.7654
 9249SOL     OW39205   2.862   4.688  14.655  0.3498  0.1701 -0.2079
 9249SOL    HW139206   2.770   4.706  14.635  0.4725  1.6569  0.6031
 9249SOL    HW239207   2.906   0.014  14.583  0.9039 -0.7494 -0.4376
 9250SOL     OW39208   2.258   0.027   5.371  0.2442  0.0818 -0.4240
 9250SOL    HW139209   2.272   0.007   5.279 -0.0278 -0.6266 -0.3063
 9250SOL    HW239210   2.342   0.062   5.403  0.0693 -0.6533  0.8595
 9251SOL     OW39211   1.716   3.156  15.815 -0.3586 -0.7175  0.4056
 9251SOL    HW139212   1.690   3.064  15.808  1.3150 -1.3109  2.2998
 9251SOL    HW239213   1.775   3.167  15.740  0.3085 -0.7867  0.9226
 9252SOL     OW39214   3.719   4.342   4.601 -0.4280 -0.7465  0.8191
 9252SOL    HW139215   3.630   4.309   4.608 -0.2866 -1.3501 -0.3165
 9252SOL    HW239216   3.774   4.264   4.605 -0.6463 -1.0296 -1.6468
 9253SOL     OW39217   1.250   4.674  11.613 -0.3136  0.5584  0.0656
 9253SOL    HW139218   1.205   0.005  11.545 -1.3274 -0.0854  0.2750
 9253SOL    HW239219   1.281   0.034  11.656  0.3335 -0.2832  1.1476
 9254SOL     OW39220   3.081   1.791   5.771 -0.1404  0.0717  0.2661
 9254SOL    HW139221   3.089   1.763   5.680  0.3791  0.0091  0.3299
 9254SOL    HW239222   2.987   1.804   5.776 -0.0188 -0.0236  2.6448
 9255SOL     OW39223   2.725   3.462  13.476 -0.2606 -0.0838 -0.5807
 9255SOL    HW139224   2.724   3.477  13.381 -2.9372 -0.0071 -0.5515
 9255SOL    HW239225   2.761   3.375  13.490 -1.0315 -0.2656  0.2674
 9256SOL     OW39226   2.801   4.103  14.199  0.3944  0.0028  0.3349
 9256SOL    HW139227   2.766   4.146  14.276  0.8162 -0.5545  0.8335
 9256SOL    HW239228   2.759   4.154  14.129 -0.0368 -0.4945  0.2274
 9257SOL     OW39229   3.415   1.197   2.808 -0.3339  0.2507 -0.3545
 9257SOL    HW139230   3.319   1.200   2.807 -0.4250 -2.3834 -0.1351
 9257SOL    HW239231   3.447   1.236   2.727  0.8367 -0.2804 -0.1450
 9258SOL     OW39232   0.238   3.096  13.979  0.5032 -0.4490  0.2170
 9258SOL    HW139233   0.159   3.121  14.028 -0.0209 -1.5612 -0.0632
 9258SOL    HW239234   0.291   3.084  14.058 -0.5304 -0.2275  0.9585
 9259SOL     OW39235   0.798   1.362  10.268  0.0821 -0.0786 -0.1493
 9259SOL    HW139236   0.849   1.318  10.200 -0.4896 -0.1922 -0.4996
 9259SOL    HW239237   0.866   1.399  10.324 -0.9947  0.8585  0.5426
 9260SOL     OW39238   2.925   1.047   0.996 -0.0132 -0.4850 -0.0955
 9260SOL    HW139239   2.910   1.107   1.070  3.1921 -0.2496  0.3673
 9260SOL    HW239240   2.857   0.982   1.015 -0.6307  0.4137  0.8117
 9261SOL     OW39241   0.588   0.150   6.610  0.0762  0.2957  0.1941
 9261SOL    HW139242   0.669   0.100   6.601 -0.9314 -1.0969 -1.1649
 9261SOL    HW239243   0.526   0.094   6.655 -1.1827  0.6558 -1.1024
 9262SOL     OW39244   0.481   1.057   7.630 -0.0109 -0.1548  0.0651
 9262SOL    HW139245   0.509   0.965   7.626 -1.0688 -0.5379  1.4746
 9262SOL    HW239246   0.486   1.073   7.724  0.9363 -1.5176  0.2545
 9263SOL     OW39247   2.089   1.615   7.149  0.3479 -0.1540 -0.2558
 9263SOL    HW139248   2.020   1.680   7.158 -1.0710 -1.5414 -1.0647
 9263SOL    HW239249   2.141   1.645   7.074 -1.1323 -1.1568 -1.6854
 9264SOL     OW39250   1.191   0.806   3.192 -0.4571 -0.1566  0.2209
 9264SOL    HW139251   1.196   0.865   3.116 -0.9285  2.0329  1.8747
 9264SOL    HW239252   1.275   0.762   3.186 -0.5476 -0.3016 -0.0015
 9265SOL     OW39253   2.375   2.438   6.928 -0.2804  0.2593 -0.1457
 9265SOL    HW139254   2.401   2.357   6.883  0.5613  0.9614 -0.9138
 9265SOL    HW239255   2.456   2.482   6.952  0.4009  0.1192 -2.1392
 9266SOL     OW39256   1.160   4.148   5.829  0.2052  0.1254 -0.2999
 9266SOL    HW139257   1.163   4.164   5.923 -0.7545 -2.2432  0.1345
 9266SOL    HW239258   1.116   4.227   5.797 -0.2071 -0.4706 -1.2226
 9267SOL     OW39259   2.671   1.351   7.006 -0.3996  0.1716  0.2224
 9267SOL    HW139260   2.596   1.298   6.976 -1.1061  1.0964  0.3396
 9267SOL    HW239261   2.691   1.376   6.916  0.5049 -0.3169  0.2909
 9268SOL     OW39262   0.018   2.726   9.248 -0.0622  0.3715 -0.4178
 9268SOL    HW139263   0.013   2.633   9.227 -0.9947  1.2554 -4.1980
 9268SOL    HW239264   4.664   2.731   9.309  0.9517  0.9069  0.7505
 9269SOL     OW39265   4.544   1.030   6.946  0.1787  0.3217 -0.0334
 9269SOL    HW139266   4.582   0.947   6.974  1.2461  0.9810  0.4671
 9269SOL    HW239267   4.510   1.004   6.861 -0.5769 -0.3816  0.4978
 9270SOL     OW39268   2.450   1.484  12.090  0.1476 -0.0475  0.4233
 9270SOL    HW139269   2.482   1.416  12.149  2.1974  1.1875  0.7522
 9270SOL    HW239270   2.402   1.530  12.159  0.9337 -0.7914  1.4754
 9271SOL     OW39271   2.981   2.510  16.703 -0.4796  0.5209  0.4804
 9271SOL    HW139272   3.033   2.524  16.782  1.5641  0.1524 -0.7781
 9271SOL    HW239273   3.046   2.456  16.657  0.2327  2.4000 -0.7044
 9272SOL     OW39274   3.296   3.756  17.011 -0.0393  0.0422  0.7560
 9272SOL    HW139275   3.248   3.685  17.053 -0.0001  0.0206  0.7642
 9272SOL    HW239276   3.258   3.759  16.923  0.8775  1.6896  0.4094
 9273SOL     OW39277   0.827   3.945  17.631  0.1818  0.3329 -0.1844
 9273SOL    HW139278   0.775   3.918   0.029 -0.8294  1.6303 -0.4113
 9273SOL    HW239279   0.919   3.938  17.658 -0.2400  0.1331  1.2056
 9274SOL     OW39280   2.428   0.796  10.469  0.0324 -0.1532 -0.9525
 9274SOL    HW139281   2.437   0.848  10.549  0.9995 -0.8603 -0.6144
 9274SOL    HW239282   2.335   0.815  10.455  0.0800  0.5873 -0.2522
 9275SOL     OW39283   2.349   0.823   9.313 -0.1223  0.6625 -0.2297
 9275SOL    HW139284   2.311   0.910   9.300 -0.9187  0.4205  0.5378
 9275SOL    HW239285   2.382   0.808   9.224  0.0370  2.3386 -0.4676
 9276SOL     OW39286   2.852   1.816   6.535  0.4577  0.0736 -0.6214
 9276SOL    HW139287   2.835   1.910   6.534 -3.7168 -0.7055 -0.5365
 9276SOL    HW239288   2.799   1.796   6.612 -0.5324 -1.1767 -1.6208
 9277SOL     OW39289   1.183   1.310   0.221 -0.1579  0.3907  0.0476
 9277SOL    HW139290   1.253   1.299   0.158 -1.4489  0.0737 -1.3272
 9277SOL    HW239291   1.128   1.236   0.194 -0.2011  0.2515  0.5050
 9278SOL     OW39292   4.466   2.862   4.353  0.0265  0.4595  0.1499
 9278SOL    HW139293   4.497   2.952   4.338 -0.4687  0.2111 -2.3052
 9278SOL    HW239294   4.442   2.875   4.445  1.4594  0.7228  0.4824
 9279SOL     OW39295   4.539   3.117   1.922  0.3782 -0.1444  0.1349
 9279SOL    HW139296   4.509   3.191   1.870  2.1258 -0.0613 -0.7447
 9279SOL    HW239297   4.460   3.099   1.974 -1.9543  1.3191 -2.9361
 9280SOL     OW39298   0.250   4.221   2.490  0.4168 -0.2891 -0.0635
 9280SOL    HW139299   0.234   4.243   2.398 -3.0588 -2.2630  0.0366
 9280SOL    HW239300   0.170   4.178   2.521 -0.6898  0.8591 -1.3330
 9281SOL     OW39301   4.521   0.158   4.060 -0.3032 -0.3115 -0.3884
 9281SOL    HW139302   4.611   0.137   4.033 -0.6722 -1.2763 -0.8464
 9281SOL    HW239303   4.509   0.088   4.124  0.5195 -0.3273 -0.2522
 9282SOL     OW39304   0.123   2.611  16.379 -0.0010  0.6660  0.0558
 9282SOL    HW139305   0.049   2.552  16.394 -0.4354  1.1777 -0.0577
 9282SOL    HW239306   0.138   2.640  16.469 -0.0075  0.1829  0.2102
 9283SOL     OW39307   3.498   0.356  14.916 -0.6819  0.5579  0.2608
 9283SOL    HW139308   3.551   0.379  14.991  1.0307 -3.1056  0.1954
 9283SOL    HW239309   3.567   0.329  14.856 -1.1541 -1.4879  0.6403
 9284SOL     OW39310   4.708   2.326  16.234  0.7858  0.3776 -0.4663
 9284SOL    HW139311   0.052   2.255  16.241  0.5192  0.2326  0.4015
 9284SOL    HW239312   4.694   2.346  16.326  1.6610 -1.4949  0.0571
 9285SOL     OW39313   1.608   0.743   0.023  0.2462  0.1970  0.6272
 9285SOL    HW139314   1.668   0.683  17.658 -0.7025  0.5244 -1.1345
 9285SOL    HW239315   1.657   0.746   0.105  1.1464 -0.5928  0.1086
 9286SOL     OW39316   1.575   0.437   3.917  0.6162  0.2276 -0.3006
 9286SOL    HW139317   1.561   0.358   3.970  2.7203  0.6695  0.9164
 9286SOL    HW239318   1.503   0.497   3.934  0.4240  0.6963 -2.7623
 9287SOL     OW39319   0.055   1.519   3.652  0.8781  0.5211 -0.3237
 9287SOL    HW139320   4.700   1.553   3.601 -0.6981 -0.9353  1.0110
 9287SOL    HW239321   0.121   1.569   3.604 -0.6584  2.0644 -0.8453
 9288SOL     OW39322   0.107   4.224  12.134 -0.5159  0.2203  0.3197
 9288SOL    HW139323   0.195   4.229  12.173 -0.5683  2.1626  0.1727
 9288SOL    HW239324   0.094   4.129  12.141 -2.4463  0.4425 -0.2606
 9289SOL     OW39325   0.813   2.721   5.810 -0.6020  0.0217 -0.1785
 9289SOL    HW139326   0.786   2.811   5.790  2.4125  1.1583  0.8540
 9289SOL    HW239327   0.784   2.682   5.728 -2.1211 -1.5643  1.1048
 9290SOL     OW39328   2.296   3.900   8.740 -0.3218  0.2749  0.1461
 9290SOL    HW139329   2.203   3.919   8.758 -0.9618 -2.5577 -0.2286
 9290SOL    HW239330   2.299   3.970   8.675  0.1503  0.7954  0.7344
 9291SOL     OW39331   0.866   4.541   2.178 -0.1872  0.7360  0.0179
 9291SOL    HW139332   0.774   4.554   2.202 -0.1434 -0.8825  1.0194
 9291SOL    HW239333   0.853   4.463   2.124  2.4648 -0.7162  1.5062
 9292SOL     OW39334   2.520   0.828  11.544  0.3001 -0.5351 -0.2091
 9292SOL    HW139335   2.531   0.910  11.495 -0.5476  1.0852  2.2790
 9292SOL    HW239336   2.547   0.838  11.636 -1.1446  0.6071  0.0944
 9293SOL     OW39337   0.888   1.370   5.615 -0.5379 -0.1658  0.3508
 9293SOL    HW139338   0.941   1.319   5.554  0.8247 -0.3310  1.6843
 9293SOL    HW239339   0.818   1.408   5.561  0.8628 -0.3252 -1.5813
 9294SOL     OW39340   4.148   1.454   7.119  0.8162 -0.0949 -0.2211
 9294SOL    HW139341   4.210   1.418   7.182 -0.2316 -0.4022  0.6524
 9294SOL    HW239342   4.071   1.423   7.168  1.8024 -3.4121 -0.8333
 9295SOL     OW39343   0.322   0.892   8.713  0.5378 -0.0333 -0.0987
 9295SOL    HW139344   0.314   0.796   8.711  1.6196 -0.2087  3.6879
 9295SOL    HW239345   0.324   0.903   8.808 -0.0232  1.7858 -0.3053
 9296SOL     OW39346   4.215   0.447   0.890 -0.8793  0.0126 -0.1256
 9296SOL    HW139347   4.231   0.360   0.927  0.7901  0.3720 -0.0132
 9296SOL    HW239348   4.297   0.455   0.842 -0.9597 -0.5055 -0.3462
 9297SOL     OW39349   3.852   3.743   7.262 -0.2874 -1.0147 -0.8303
 9297SOL    HW139350   3.868   3.833   7.290  0.0432 -1.6994  1.1563
 9297SOL    HW239351   3.773   3.755   7.209  0.9704 -1.1999 -2.7603
 9298SOL     OW39352   0.316   3.856   6.276  0.0493 -0.0477 -0.0579
 9298SOL    HW139353   0.385   3.847   6.342 -0.5877  0.2098  0.6342
 9298SOL    HW239354   0.345   3.785   6.219 -0.8925 -0.2444 -0.2909
 9299SOL     OW39355   0.947   2.357   9.005 -0.3569  0.3345 -0.0323
 9299SOL    HW139356   1.025   2.398   8.967 -0.4555 -0.1321 -0.7347
 9299SOL    HW239357   0.957   2.263   8.995 -0.9287  0.3058 -0.3168
 9300SOL     OW39358   0.221   0.214   4.490 -0.1450 -0.0826  0.3499
 9300SOL    HW139359   0.137   0.242   4.454  0.2545 -0.2152 -0.6865
 9300SOL    HW239360   0.215   0.239   4.582  1.6732 -0.8064  0.6765
 9301SOL     OW39361   2.371   2.206  15.090  0.2818  0.3720  0.3039
 9301SOL    HW139362   2.458   2.192  15.128 -1.1855 -0.5996  3.2740
 9301SOL    HW239363   2.304   2.161  15.140  0.1921 -0.8230 -0.8718
 9302SOL     OW39364   4.154   4.428   6.136 -0.0607  0.4388 -0.0473
 9302SOL    HW139365   4.146   4.478   6.217 -0.7134  1.1723 -0.5683
 9302SOL    HW239366   4.163   4.337   6.166  2.2071  0.2141 -1.4188
 9303SOL     OW39367   3.336   3.015   6.707 -0.3729 -0.1208  0.7368
 9303SOL    HW139368   3.406   3.040   6.768  0.5568 -0.3352 -0.2276
 9303SOL    HW239369   3.301   2.936   6.748  3.3793 -1.6450  1.0397
 9304SOL     OW39370   4.514   2.112   6.464  0.1647  0.2050  0.1322
 9304SOL    HW139371   4.527   2.038   6.405 -0.8508  1.4727 -1.6896
 9304SOL    HW239372   4.602   2.149   6.466  1.2076 -2.1796 -1.3396
 9305SOL     OW39373   0.971   0.081   6.357 -0.0357 -0.4299 -0.6168
 9305SOL    HW139374   0.920   0.027   6.418 -0.1044 -1.9891 -2.0299
 9305SOL    HW239375   0.960   0.037   6.273 -1.0227  0.5134 -0.9753
 9306SOL     OW39376   4.273   2.581   3.705 -1.0997  0.0499  0.0713
 9306SOL    HW139377   4.200   2.635   3.738  0.2097 -0.0787  3.2064
 9306SOL    HW239378   4.266   2.610   3.614 -2.4296  0.7733  0.3992
 9307SOL     OW39379   3.611   1.127   6.274  0.4702  0.2793  0.2193
 9307SOL    HW139380   3.566   1.160   6.197 -0.0705 -0.6011  0.1613
 9307SOL    HW239381   3.643   1.046   6.235 -2.1287 -0.8982  0.5234
 9308SOL     OW39382   3.022   1.914   8.293  0.3448 -0.0864 -0.1405
 9308SOL    HW139383   3.008   1.820   8.294  1.1402 -0.1978  0.2484
 9308SOL    HW239384   3.116   1.925   8.304  0.2797  0.4491 -0.1100
 9309SOL     OW39385   3.681   4.656  10.474 -0.1199 -0.2107  0.0114
 9309SOL    HW139386   3.720   0.017  10.439 -2.5517  1.0287  0.1240
 9309SOL    HW239387   3.736   4.594  10.426  2.3235  0.5046  1.8788
 9310SOL     OW39388   0.676   4.344   4.170  0.1290  0.4233  0.0133
 9310SOL    HW139389   0.731   4.325   4.094 -1.2905 -0.0712 -0.8835
 9310SOL    HW239390   0.607   4.279   4.154  1.9541 -0.9384 -2.3970
 9311SOL     OW39391   2.750   4.085   4.872 -0.2263 -0.0914 -0.1990
 9311SOL    HW139392   2.825   4.078   4.931 -1.1243  1.5442  1.1394
 9311SOL    HW239393   2.757   3.999   4.831 -4.1122 -0.1939 -0.6999
 9312SOL     OW39394   3.534   1.576   9.354 -0.3503 -0.0583  0.3799
 9312SOL    HW139395   3.509   1.491   9.388 -1.7836  0.7173  1.2736
 9312SOL    HW239396   3.499   1.579   9.265  0.3665  0.0982  0.0941
 9313SOL     OW39397   1.753   0.994   6.704  0.0501 -0.1540  0.2778
 9313SOL    HW139398   1.736   0.900   6.699 -1.2128  0.1391 -1.0401
 9313SOL    HW239399   1.664   1.030   6.699  0.4612  0.5507 -1.6993
 9314SOL     OW39400   3.107   1.505   6.535 -0.4792 -0.5119  0.2290
 9314SOL    HW139401   3.083   1.465   6.618 -1.6124  2.0039  1.1294
 9314SOL    HW239402   3.203   1.509   6.535 -0.5738  2.4819 -2.4192
 9315SOL     OW39403   1.352   0.760   2.228  0.1009  0.4375 -0.3683
 9315SOL    HW139404   1.267   0.804   2.238 -0.3915 -0.6842  0.3256
 9315SOL    HW239405   1.407   0.785   2.302 -1.2776  1.4876  0.3071
 9316SOL     OW39406   4.543   4.074   6.546  0.2004 -0.0357 -0.1531
 9316SOL    HW139407   4.612   4.103   6.606  1.3397 -0.2162 -1.3872
 9316SOL    HW239408   4.526   3.995   6.598  1.9463  0.7517  1.6417
 9317SOL     OW39409   2.111   2.242  11.838  1.1299  0.1867 -0.5190
 9317SOL    HW139410   2.118   2.337  11.854  0.3355  0.0104  0.8801
 9317SOL    HW239411   2.030   2.250  11.788  1.2666  3.9624 -0.1798
 9318SOL     OW39412   1.335   2.389   8.021 -0.5229  0.7286  0.1503
 9318SOL    HW139413   1.418   2.360   8.058 -0.8303 -1.2987 -0.7700
 9318SOL    HW239414   1.293   2.304   8.015 -1.1379  1.1171 -0.9947
 9319SOL     OW39415   1.498   3.771   8.599 -0.0317  0.3426 -0.3181
 9319SOL    HW139416   1.416   3.728   8.573 -1.0214  1.4452  0.9278
 9319SOL    HW239417   1.551   3.748   8.523 -0.4963  1.2350 -0.9219
 9320SOL     OW39418   1.194   4.555   1.790  0.2390  0.0950  0.6383
 9320SOL    HW139419   1.159   4.499   1.860 -0.7260 -0.0805  0.0108
 9320SOL    HW239420   1.273   4.591   1.831  0.7265 -0.8927  0.5736
 9321SOL     OW39421   2.845   2.674   6.086  0.0812 -0.2887  0.4155
 9321SOL    HW139422   2.806   2.724   6.156  2.3745  2.1085 -0.0112
 9321SOL    HW239423   2.849   2.746   6.023  3.1243 -0.2014  0.6740
 9322SOL     OW39424   2.115   0.331   4.208  0.3821  0.2856  0.5868
 9322SOL    HW139425   2.178   0.304   4.141  1.4609  0.4695  1.5333
 9322SOL    HW239426   2.118   0.427   4.204 -0.3475  0.3011  0.4724
 9323SOL     OW39427   0.854   2.024   5.611 -0.0274 -0.4171  0.2853
 9323SOL    HW139428   0.761   2.034   5.593 -0.2385 -1.2564  0.8818
 9323SOL    HW239429   0.858   2.014   5.707  2.4424 -2.9901 -0.0817
 9324SOL     OW39430   3.291   4.569   9.001  0.2209  0.0271 -0.7314
 9324SOL    HW139431   3.317   4.591   8.912 -2.7475 -1.9528 -2.0838
 9324SOL    HW239432   3.372   4.590   9.048 -0.6787  3.4922 -0.7302
 9325SOL     OW39433   2.824   3.558  14.646  0.6966  0.5332 -0.7462
 9325SOL    HW139434   2.829   3.641  14.693 -1.5046 -0.1109  0.6193
 9325SOL    HW239435   2.737   3.553  14.608  0.2624 -3.0878  0.7758
 9326SOL     OW39436   0.214   3.186   9.289 -0.4125  0.2348  0.1529
 9326SOL    HW139437   0.270   3.166   9.364  0.1054  2.6955  0.3981
 9326SOL    HW239438   0.135   3.136   9.307 -1.8011  2.7837  1.0480
 9327SOL     OW39439   1.905   0.690   2.679  0.3420 -0.6103  0.6834
 9327SOL    HW139440   1.814   0.661   2.669 -0.5482  1.7034  2.0085
 9327SOL    HW239441   1.924   0.715   2.588 -1.2285 -0.4416  0.3904
 9328SOL     OW39442   2.770   0.339   5.282  0.2233  0.4879  0.2503
 9328SOL    HW139443   2.809   0.255   5.306  0.6113  0.1753 -1.5056
 9328SOL    HW239444   2.686   0.337   5.327  1.0804  0.4560  1.8425
 9329SOL     OW39445   3.735   2.935   3.938  0.1756  0.2445  0.3968
 9329SOL    HW139446   3.711   2.888   4.018 -2.3262  0.6736 -0.0984
 9329SOL    HW239447   3.826   2.906   3.930  0.3299  0.5076  1.1972
 9330SOL     OW39448   4.674   3.994   6.327 -0.3216  0.3982 -0.1036
 9330SOL    HW139449   0.038   3.962   6.363  0.6259  0.1018 -2.5060
 9330SOL    HW239450   4.635   4.024   6.408 -1.1056  0.9346 -0.6834
 9331SOL     OW39451   2.716   2.606   9.410 -0.1944 -0.3139  0.2669
 9331SOL    HW139452   2.681   2.580   9.496 -0.9023  0.1791  0.1321
 9331SOL    HW239453   2.750   2.693   9.435  0.2993 -0.1457 -1.0064
 9332SOL     OW39454   0.827   3.126   4.966 -0.3541 -0.2325  0.2285
 9332SOL    HW139455   0.804   3.131   4.873 -0.0593  2.7434  0.2926
 9332SOL    HW239456   0.919   3.103   4.972 -0.2391  0.7873  2.5214
 9333SOL     OW39457   1.241   0.970  16.250  0.4137 -0.3854 -0.2101
 9333SOL    HW139458   1.237   0.997  16.342  1.2378 -1.1534  0.0598
 9333SOL    HW239459   1.291   1.042  16.213  0.8958 -0.3629  0.4867
 9334SOL     OW39460   0.130   1.290   7.828  0.4270 -0.5170  0.0409
 9334SOL    HW139461   0.215   1.333   7.840  0.7589 -0.5835 -2.1082
 9334SOL    HW239462   0.082   1.338   7.895  0.0115  1.2642 -1.5652
 9335SOL     OW39463   3.902   0.063  12.266  0.1195 -0.5072  0.4007
 9335SOL    HW139464   3.974   0.059  12.329 -0.3138  1.1960  1.0081
 9335SOL    HW239465   3.826   0.097  12.313  1.3481  1.8316  0.6852
 9336SOL     OW39466   0.216   0.296   3.509 -0.0434  0.0071 -0.6759
 9336SOL    HW139467   0.276   0.363   3.543 -3.3816  2.2191  0.7964
 9336SOL    HW239468   0.250   0.297   3.419  0.7610 -0.8830 -0.3896
 9337SOL     OW39469   0.348   3.766   3.147  0.0139  0.1448  0.7488
 9337SOL    HW139470   0.257   3.739   3.132 -0.0615 -0.9122  3.1492
 9337SOL    HW239471   0.330   3.782   3.240 -2.8482 -2.0739  0.5832
 9338SOL     OW39472   0.635   3.848   4.123  0.4454 -0.0486 -0.2238
 9338SOL    HW139473   0.663   3.765   4.161 -1.1772 -0.2316  0.5634
 9338SOL    HW239474   0.664   3.829   4.034  2.1894  1.9788 -0.1157
 9339SOL     OW39475   0.068   1.741   8.122  0.1261 -0.1759 -0.3905
 9339SOL    HW139476   0.028   1.715   8.204  2.3287 -3.2721 -0.3145
 9339SOL    HW239477   0.081   1.656   8.081 -0.8130  0.4361 -1.9875
 9340SOL     OW39478   3.391   4.574   5.728  0.1591  0.1826 -0.6074
 9340SOL    HW139479   3.361   4.663   5.708  0.9318  0.5510 -0.1342
 9340SOL    HW239480   3.310   4.526   5.741  0.3925 -0.2067 -0.5722
 9341SOL     OW39481   1.320   0.827   7.446  0.4772 -0.6443  0.0708
 9341SOL    HW139482   1.293   0.872   7.366  1.0170  0.3041  0.4213
 9341SOL    HW239483   1.409   0.863   7.439 -0.4613  1.5895 -0.4585
 9342SOL     OW39484   2.596   1.312   2.063  0.5392 -0.1560 -0.1239
 9342SOL    HW139485   2.614   1.404   2.081  2.0610 -0.3468 -0.6813
 9342SOL    HW239486   2.599   1.268   2.148  0.4004  1.0526  0.5002
 9343SOL     OW39487   2.959   2.172   4.281 -0.0243 -0.1863 -0.4335
 9343SOL    HW139488   3.043   2.217   4.270 -0.1798 -0.3818 -2.4584
 9343SOL    HW239489   2.984   2.089   4.239  0.5368  0.6942 -1.8532
 9344SOL     OW39490   1.639   1.619  11.556  1.3152  0.2992 -0.4914
 9344SOL    HW139491   1.697   1.683  11.516  0.9456  0.2398 -1.1280
 9344SOL    HW239492   1.695   1.559  11.606  0.8230  1.8066  1.8787
 9345SOL     OW39493   0.044   1.233   5.404 -0.0592 -0.1311  0.4300
 9345SOL    HW139494   0.057   1.211   5.496 -1.8683  0.1645  0.7554
 9345SOL    HW239495   4.677   1.192   5.393  1.2493 -2.8592  0.5832
 9346SOL     OW39496   3.189   2.973  15.181 -0.1554  0.4380  0.3551
 9346SOL    HW139497   3.206   3.053  15.133  0.4705  0.3138  0.3696
 9346SOL    HW239498   3.268   2.978  15.235  1.2187  1.4905 -1.7829
 9347SOL     OW39499   1.118   0.997  17.528 -0.6658  0.3533  0.3660
 9347SOL    HW139500   1.100   0.987  17.621 -1.3455 -0.3269  0.1581
 9347SOL    HW239501   1.212   1.009  17.541 -0.1443 -2.6851 -0.4660
 9348SOL     OW39502   2.582   2.485  13.540  0.4718 -1.0029  0.5889
 9348SOL    HW139503   2.530   2.560  13.569  1.9639  0.4624 -0.4980
 9348SOL    HW239504   2.617   2.512  13.455 -0.3678  0.8927  0.8437
 9349SOL     OW39505   0.068   0.452   7.368  0.3782  0.1101  0.3542
 9349SOL    HW139506   0.123   0.486   7.298  1.1330  0.7505  1.2541
 9349SOL    HW239507   0.092   0.499   7.448 -0.1559  2.8223 -1.0745
 9350SOL     OW39508   3.763   3.443   2.447  0.7120 -0.2306 -0.1118
 9350SOL    HW139509   3.813   3.513   2.404  0.5479  0.8278  1.4347
 9350SOL    HW239510   3.803   3.367   2.406 -1.5061 -1.2541 -0.3825
 9351SOL     OW39511   3.532   2.811   8.144 -0.5120 -0.0139  0.2921
 9351SOL    HW139512   3.567   2.888   8.190  2.8314 -0.4437 -1.5859
 9351SOL    HW239513   3.444   2.811   8.183 -1.0314  0.8877 -0.9039
 9352SOL     OW39514   2.561   0.332  10.354  0.2556 -0.8741 -0.2269
 9352SOL    HW139515   2.577   0.270  10.283  0.0018  0.0766 -1.1200
 9352SOL    HW239516   2.469   0.311  10.373 -0.2052  0.6747 -0.6844
 9353SOL     OW39517   0.950   4.350   6.353 -0.4374  0.2542  0.0052
 9353SOL    HW139518   0.986   4.262   6.352 -1.5227 -0.1907  1.0616
 9353SOL    HW239519   0.938   4.366   6.259 -1.2882 -2.0698 -0.2615
 9354SOL     OW39520   2.836   4.411   5.877 -0.3069 -0.1345  0.2663
 9354SOL    HW139521   2.745   4.395   5.853 -0.2976  0.2618 -0.0392
 9354SOL    HW239522   2.828   4.482   5.940 -1.0303  0.0289 -0.0165
 9355SOL     OW39523   0.875   2.172  16.366  0.4031 -0.8826 -0.0226
 9355SOL    HW139524   0.779   2.170  16.360  0.3071  2.6301  0.8467
 9355SOL    HW239525   0.889   2.260  16.400 -0.6971 -0.9425  0.5909
 9356SOL     OW39526   3.245   2.174   3.792 -0.3841 -0.1069  0.5958
 9356SOL    HW139527   3.253   2.212   3.705  1.4974  2.2830  1.8164
 9356SOL    HW239528   3.214   2.248   3.843  2.7913  1.6403  0.0002
 9357SOL     OW39529   4.389   3.752   3.359  0.0453 -0.7641 -0.0850
 9357SOL    HW139530   4.472   3.782   3.322  0.4547 -1.3079  0.3744
 9357SOL    HW239531   4.418   3.662   3.377 -1.2472 -1.3738 -1.0940
 9358SOL     OW39532   3.781   3.498   5.735  0.5942 -0.5010 -0.5132
 9358SOL    HW139533   3.842   3.444   5.684  0.0358  1.2215 -3.0202
 9358SOL    HW239534   3.837   3.512   5.811  0.3999 -1.0623 -0.2673
 9359SOL     OW39535   4.498   3.752   7.219 -0.3987 -0.2862  0.1629
 9359SOL    HW139536   4.425   3.786   7.270  0.8114  2.3952  0.1095
 9359SOL    HW239537   4.535   3.692   7.283 -1.4709 -0.7552  0.3427
 9360SOL     OW39538   3.349   4.380  12.262 -0.0820 -0.0340  0.4667
 9360SOL    HW139539   3.427   4.434  12.247 -0.2227 -0.5542 -2.1021
 9360SOL    HW239540   3.342   4.344  12.173 -2.1399 -2.8731  1.7804
 9361SOL     OW39541   0.497   4.209  17.174 -0.3044  0.6370 -0.3915
 9361SOL    HW139542   0.518   4.204  17.081  1.0780  0.5295 -0.0702
 9361SOL    HW239543   0.547   4.286  17.201  0.2671  0.2551 -0.3588
 9362SOL     OW39544   4.700   4.094   3.558  1.2085 -0.4432  0.4042
 9362SOL    HW139545   4.702   4.010   3.605 -0.4739 -0.8496 -0.2685
 9362SOL    HW239546   0.042   4.149   3.607  1.6764 -1.5844  1.1165
 9363SOL     OW39547   4.233   0.863   4.599  0.0968  0.3877 -0.1341
 9363SOL    HW139548   4.262   0.857   4.690 -0.0737  1.0575 -0.0328
 9363SOL    HW239549   4.315   0.880   4.552  0.2674  1.6446  0.6155
 9364SOL     OW39550   2.428   4.381   1.820 -0.5548 -0.3005  0.4403
 9364SOL    HW139551   2.507   4.339   1.786 -1.2167 -1.3364  0.2022
 9364SOL    HW239552   2.468   4.461   1.854  1.7772 -0.9090 -0.8879
 9365SOL     OW39553   0.633   3.378   9.545  0.7831 -0.2799  0.2210
 9365SOL    HW139554   0.675   3.331   9.617  2.1030 -2.9996 -2.3127
 9365SOL    HW239555   0.539   3.365   9.560  0.6077 -0.9154 -1.4789
 9366SOL     OW39556   0.750   4.180   3.695 -0.1623  0.0714  0.2217
 9366SOL    HW139557   0.750   4.125   3.617 -0.7802  0.4614 -0.0526
 9366SOL    HW239558   0.813   4.137   3.753 -0.3679  0.9586  1.1148
 9367SOL     OW39559   0.386   1.325  14.490 -0.4332  0.2715 -0.1026
 9367SOL    HW139560   0.304   1.371  14.476 -0.2641  1.0799  1.5074
 9367SOL    HW239561   0.368   1.255  14.552 -1.5597  3.1709  2.8794
 9368SOL     OW39562   0.244   0.138   1.951  0.3880  0.6573  0.9587
 9368SOL    HW139563   0.177   0.168   1.890  2.1333  0.1322 -1.2347
 9368SOL    HW239564   0.239   0.202   2.022 -0.3811 -0.9632  2.3773
 9369SOL     OW39565   2.521   4.588  11.327 -0.1101  0.0043  0.0633
 9369SOL    HW139566   2.504   4.681  11.312  1.0122  0.2467  0.3418
 9369SOL    HW239567   2.461   4.560  11.258  1.3886  0.2138 -1.3068
 9370SOL     OW39568   1.244   2.486   9.249 -0.0313  0.0340 -0.3781
 9370SOL    HW139569   1.217   2.565   9.203  0.5663  0.4104 -0.0699
 9370SOL    HW239570   1.338   2.494   9.237 -0.3122  3.1404 -0.4241
 9371SOL     OW39571   3.441   0.848   3.886 -0.3421 -0.1707  0.3121
 9371SOL    HW139572   3.506   0.797   3.839 -0.0304 -1.6098  2.2711
 9371SOL    HW239573   3.383   0.881   3.817  0.2448 -2.5335 -1.2791
 9372SOL     OW39574   2.784   3.775   3.727  1.0121  0.0641  0.0335
 9372SOL    HW139575   2.801   3.698   3.672  2.1596  1.2292 -1.2605
 9372SOL    HW239576   2.876   3.794   3.743  1.2344 -0.0903 -1.0151
 9373SOL     OW39577   0.615   3.588   7.184  0.0843 -0.1582 -0.4205
 9373SOL    HW139578   0.652   3.584   7.096 -0.2532 -0.2630 -0.5605
 9373SOL    HW239579   0.560   3.666   7.189  0.7788  0.3199 -0.3062
 9374SOL     OW39580   3.502   2.332  15.054  0.0371  0.6619  0.0449
 9374SOL    HW139581   3.459   2.386  14.988 -0.3769  2.8352  2.0934
 9374SOL    HW239582   3.595   2.356  15.049  0.3338 -0.3325  0.7019
 9375SOL     OW39583   3.361   0.500   4.869 -0.0589  0.2400  0.0151
 9375SOL    HW139584   3.285   0.442   4.875 -0.1224 -0.0233 -3.0984
 9375SOL    HW239585   3.326   0.588   4.885 -0.7476  0.2303 -1.4104
 9376SOL     OW39586   0.137   2.098  16.138  0.5562  0.3745 -0.1946
 9376SOL    HW139587   0.116   2.005  16.152  0.4372  0.3749 -0.3794
 9376SOL    HW239588   0.069   2.122  16.076  0.0802  0.0326  0.1931
 9377SOL     OW39589   1.791   2.826   6.516 -0.3494  0.5125  0.2283
 9377SOL    HW139590   1.702   2.861   6.506 -1.5891 -3.4580 -2.2862
 9377SOL    HW239591   1.772   2.735   6.539  0.9676  0.6604  1.9524
 9378SOL     OW39592   3.715   0.169   1.172  0.3165  0.1683 -0.3385
 9378SOL    HW139593   3.677   0.244   1.219  1.0400  0.8497 -0.8368
 9378SOL    HW239594   3.641   0.110   1.156  1.7258 -1.3014 -1.3852
 9379SOL     OW39595   3.418   3.879   4.652  0.4124  0.1306 -0.1582
 9379SOL    HW139596   3.396   3.961   4.697  1.2422  0.3496 -0.1475
 9379SOL    HW239597   3.336   3.858   4.607 -0.3244  0.0078  1.2430
 9380SOL     OW39598   4.704   1.769   1.389 -0.5352 -0.5947 -0.0324
 9380SOL    HW139599   0.005   1.683   1.352  1.5767  0.2603 -0.9327
 9380SOL    HW239600   0.076   1.800   1.385 -0.8146  0.2554  0.2375
 9381SOL     OW39601   3.944   2.608   6.696  0.0087  0.6005  0.0610
 9381SOL    HW139602   4.033   2.642   6.701 -0.5453  2.1580 -0.3574
 9381SOL    HW239603   3.947   2.568   6.609  1.0729  3.2720 -1.1537
 9382SOL     OW39604   4.185   2.501   6.665  0.2893 -0.3540 -0.0401
 9382SOL    HW139605   4.160   2.445   6.739  0.8337  1.3561  1.4302
 9382SOL    HW239606   4.122   2.471   6.599  0.6296 -0.3112 -0.3832
 9383SOL     OW39607   2.351   3.104   8.523 -0.0956 -0.3175 -0.0532
 9383SOL    HW139608   2.393   3.034   8.572  2.8010  2.0733  0.8888
 9383SOL    HW239609   2.422   3.102   8.459 -1.2119  1.7204 -1.3643
 9384SOL     OW39610   2.127   3.784   6.803 -0.1611 -0.1891 -0.1572
 9384SOL    HW139611   2.209   3.772   6.755 -1.3764 -0.3426 -2.1638
 9384SOL    HW239612   2.138   3.717   6.871  0.1505  1.1518  1.1340
 9385SOL     OW39613   2.641   4.590   4.844 -0.1877 -0.1639 -0.5556
 9385SOL    HW139614   2.552   4.583   4.811 -1.1205  0.9966  1.7305
 9385SOL    HW239615   2.696   4.530   4.792  0.9331 -1.2593  1.8720
 9386SOL     OW39616   3.381   2.471  14.842 -0.4006  0.0177  0.1753
 9386SOL    HW139617   3.403   2.537  14.775 -1.2658 -0.3298 -0.4473
 9386SOL    HW239618   3.355   2.401  14.782 -2.9991  1.9729 -1.0206
 9387SOL     OW39619   4.429   2.747   7.450 -0.5245 -0.3731 -0.6868
 9387SOL    HW139620   4.504   2.769   7.505  0.6694 -0.8430 -2.1256
 9387SOL    HW239621   4.480   2.697   7.387  0.6283  0.3352 -0.3129
 9388SOL     OW39622   2.424   1.037   8.944  0.2254  1.0754  0.7690
 9388SOL    HW139623   2.390   1.027   8.855 -0.0047 -1.5468  1.1556
 9388SOL    HW239624   2.364   1.103   8.978 -1.1115 -0.5901  1.6355
 9389SOL     OW39625   0.896   1.891   8.199  0.0187 -0.5646 -0.0163
 9389SOL    HW139626   0.940   1.807   8.215  1.5428  0.2660  0.1363
 9389SOL    HW239627   0.808   1.869   8.230 -1.3806  3.1202 -1.4812
 9390SOL     OW39628   2.355   3.488   5.180  0.1313  0.2544  0.2249
 9390SOL    HW139629   2.270   3.525   5.206  0.1727  0.2578  0.3524
 9390SOL    HW239630   2.421   3.533   5.232  0.2898 -0.0726  0.3124
 9391SOL     OW39631   2.783   1.975   3.632  0.0447  0.2880  0.7779
 9391SOL    HW139632   2.691   1.982   3.660  0.6266  1.7919  2.3062
 9391SOL    HW239633   2.824   2.023   3.704 -0.4546 -0.8654  1.8430
 9392SOL     OW39634   1.015   0.991  15.697 -0.1344  0.3674  0.0552
 9392SOL    HW139635   0.982   0.931  15.764 -0.1857 -1.6013 -1.7413
 9392SOL    HW239636   1.078   0.927  15.665 -1.9867 -0.4379 -1.9216
 9393SOL     OW39637   3.997   2.361   3.669  0.3022 -0.2114 -0.1149
 9393SOL    HW139638   4.070   2.302   3.689 -0.3525 -0.9680  0.0178
 9393SOL    HW239639   3.999   2.366   3.574  3.3636 -0.4987 -0.0841
 9394SOL     OW39640   2.817   0.554   0.410 -0.4262  0.2023 -0.4327
 9394SOL    HW139641   2.835   0.643   0.440 -0.2835 -0.5045  1.5447
 9394SOL    HW239642   2.762   0.520   0.480 -0.9638  2.0720  0.0594
 9395SOL     OW39643   3.106   3.325   3.307 -0.5833  0.1452 -0.0368
 9395SOL    HW139644   3.132   3.266   3.378  0.6935 -2.4725 -2.7041
 9395SOL    HW239645   3.176   3.322   3.242 -0.4228  0.4983  0.1192
 9396SOL     OW39646   0.741   0.995   2.438 -0.0042 -0.0696 -0.0053
 9396SOL    HW139647   0.662   0.944   2.424 -0.9524  0.7496  2.3829
 9396SOL    HW239648   0.808   0.943   2.393  1.3356 -0.1773  2.1318
 9397SOL     OW39649   4.277   3.413   0.792 -0.3331  0.2810 -0.1216
 9397SOL    HW139650   4.218   3.476   0.750 -1.9015 -0.2408  1.3151
 9397SOL    HW239651   4.280   3.450   0.880 -2.0705 -2.3169  1.0166
 9398SOL     OW39652   3.689   3.963   3.626 -0.6264 -0.0193 -0.1542
 9398SOL    HW139653   3.619   3.927   3.681 -0.2347  1.4554  1.2803
 9398SOL    HW239654   3.653   4.050   3.615  0.0680  0.0888 -1.6110
 9399SOL     OW39655   3.468   4.059   6.032  0.5405 -0.2941  0.5771
 9399SOL    HW139656   3.432   4.129   6.086 -1.7211 -0.8619 -0.1902
 9399SOL    HW239657   3.386   4.015   6.008  1.7118 -1.8454 -0.5580
 9400SOL     OW39658   4.091   3.426   6.337 -0.2092  0.2435 -0.0824
 9400SOL    HW139659   4.058   3.479   6.410  1.1094  1.4208 -0.3351
 9400SOL    HW239660   4.171   3.479   6.330 -0.4201  0.5831  0.1078
 9401SOL     OW39661   2.966   1.102   9.680  0.7811  0.0344 -0.2263
 9401SOL    HW139662   3.013   1.094   9.762  1.2392  1.1114 -0.3806
 9401SOL    HW239663   2.878   1.105   9.716  1.0877  2.8078  0.3038
 9402SOL     OW39664   4.539   1.100   7.442 -0.2654  0.4705  0.4640
 9402SOL    HW139665   4.569   1.190   7.456 -0.7059  0.5400  0.9772
 9402SOL    HW239666   4.443   1.105   7.448 -0.2753 -0.0742  0.7132
 9403SOL     OW39667   3.427   4.395  10.985  0.4483  0.4783  0.4206
 9403SOL    HW139668   3.495   4.437  10.932  0.8852 -0.2559  0.4030
 9403SOL    HW239669   3.352   4.455  10.980 -0.3121 -0.5440 -0.3751
 9404SOL     OW39670   3.111   0.130  16.553  0.5833  0.1090 -0.0100
 9404SOL    HW139671   3.113   0.185  16.631  1.0147  0.2710 -0.1375
 9404SOL    HW239672   3.136   0.048  16.596 -0.1767 -0.9037 -1.5182
 9405SOL     OW39673   2.938   0.125  13.666  0.7624 -0.2858 -0.2964
 9405SOL    HW139674   3.015   0.149  13.718  0.1183  2.4012 -0.6200
 9405SOL    HW239675   2.930   0.209  13.621  1.4347  0.6876  1.3780
 9406SOL     OW39676   3.807   0.985  13.574 -0.2262  0.0834 -0.4116
 9406SOL    HW139677   3.726   0.992  13.524 -0.0402 -1.2922 -0.9024
 9406SOL    HW239678   3.790   0.915  13.638 -0.6440 -0.0304 -0.6475
 9407SOL     OW39679   1.041   3.432   7.772  0.3311  0.8607 -0.7703
 9407SOL    HW139680   0.962   3.410   7.821  0.9817 -0.2386 -0.2303
 9407SOL    HW239681   1.009   3.459   7.685  0.1485  0.6132 -0.7795
 9408SOL     OW39682   1.775   0.034   5.762 -0.8398  0.0537  0.4262
 9408SOL    HW139683   1.750   0.074   5.846 -1.2901 -1.5696  1.0557
 9408SOL    HW239684   1.689   0.024   5.720 -0.7191 -1.3727  0.5383
 9409SOL     OW39685   3.736   3.361  17.303  0.7741  1.0232 -0.0387
 9409SOL    HW139686   3.775   3.320  17.381 -0.3582 -1.8090 -0.9532
 9409SOL    HW239687   3.698   3.439  17.341 -0.0224  0.1998  0.8613
 9410SOL     OW39688   2.657   0.889   1.099  0.5315  0.9829 -0.2858
 9410SOL    HW139689   2.627   0.811   1.051 -0.0897  0.9774  0.1077
 9410SOL    HW239690   2.710   0.852   1.169  0.5584 -0.9823 -1.3365
 9411SOL     OW39691   4.611   0.967   3.882 -0.6616 -0.2231  0.3301
 9411SOL    HW139692   4.614   0.884   3.834  0.4174  0.8278 -1.4195
 9411SOL    HW239693   4.690   1.012   3.854 -1.1141  0.0812 -0.4569
 9412SOL     OW39694   0.663   3.589   6.914 -0.2215  0.1100 -0.5255
 9412SOL    HW139695   0.586   3.547   6.874 -0.9466  0.0668  0.9266
 9412SOL    HW239696   0.657   3.678   6.879 -1.2274 -0.7957 -2.6409
 9413SOL     OW39697   1.231   2.173   7.395 -0.2380  0.2271  0.2081
 9413SOL    HW139698   1.153   2.151   7.447  0.2225 -2.2164 -0.1287
 9413SOL    HW239699   1.186   2.163   7.312  1.3976 -2.2539 -0.3720
 9414SOL     OW39700   1.763   1.564  14.129 -0.1501 -0.0459 -0.3563
 9414SOL    HW139701   1.674   1.530  14.125  0.0914 -0.5419 -1.5123
 9414SOL    HW239702   1.756   1.660  14.120  1.1694  0.1478  0.6466
 9415SOL     OW39703   3.077   3.821   3.799 -0.3261 -0.7022  0.0667
 9415SOL    HW139704   3.139   3.758   3.836  0.6213  1.0264  1.4058
 9415SOL    HW239705   3.049   3.858   3.882  3.4470  0.0409  0.9983
 9416SOL     OW39706   1.925   4.276   8.402 -0.1549  0.1171 -0.2540
 9416SOL    HW139707   1.853   4.337   8.388 -0.0442  1.1887  3.8477
 9416SOL    HW239708   1.979   4.277   8.323  1.2795 -0.1540  0.7281
 9417SOL     OW39709   0.595   2.186  16.428 -0.2759 -0.1041 -0.0978
 9417SOL    HW139710   0.572   2.094  16.442 -0.9617 -0.1659 -1.6763
 9417SOL    HW239711   0.525   2.211  16.369 -0.4186 -0.4929 -0.0959
 9418SOL     OW39712   1.805   4.444   2.538 -0.1917  0.6460  0.1444
 9418SOL    HW139713   1.743   4.507   2.499 -1.7265 -1.8775 -1.4950
 9418SOL    HW239714   1.852   4.501   2.598  0.0176  1.0121 -0.3727
 9419SOL     OW39715   3.096   3.118   1.393 -0.1097  0.2523  0.1580
 9419SOL    HW139716   3.036   3.092   1.323 -0.0046  0.6351 -0.0770
 9419SOL    HW239717   3.146   3.036   1.392  0.2149  0.4595 -1.0390
 9420SOL     OW39718   0.209   4.155   4.605 -0.9857 -0.3552  0.5750
 9420SOL    HW139719   0.294   4.122   4.576 -0.3214  1.4476  0.4440
 9420SOL    HW239720   0.189   4.215   4.533 -1.6563 -0.8393  0.3617
 9421SOL     OW39721   0.162   0.736   2.066 -0.2580  0.2569  0.5015
 9421SOL    HW139722   0.171   0.697   1.980  0.1936  2.3534 -0.4104
 9421SOL    HW239723   0.151   0.826   2.034 -0.8572  0.1939  0.5191
 9422SOL     OW39724   2.094   3.913   2.834 -0.7053 -0.7233  0.2405
 9422SOL    HW139725   2.182   3.906   2.797  0.4190 -0.3006  2.8434
 9422SOL    HW239726   2.101   3.866   2.917  0.3452 -0.4908  0.2769
 9423SOL     OW39727   4.663   3.867   8.017  0.0765 -0.0186  0.1768
 9423SOL    HW139728   0.035   3.845   7.997 -0.7842 -2.9210 -0.4737
 9423SOL    HW239729   4.667   3.865   8.113 -1.9916 -0.3713  0.2566
 9424SOL     OW39730   0.068   1.496   4.082 -0.3040 -0.0756  0.2497
 9424SOL    HW139731   0.020   1.565   4.037 -0.2478 -0.3175 -0.1901
 9424SOL    HW239732   0.013   1.420   4.062 -1.0780  0.1459  1.5530
 9425SOL     OW39733   3.945   1.546   5.149  0.1959 -0.4373 -0.3621
 9425SOL    HW139734   3.908   1.460   5.131 -0.2428 -0.1635 -0.7577
 9425SOL    HW239735   3.941   1.552   5.245  1.4800 -1.6773 -0.2295
 9426SOL     OW39736   4.107   2.865   7.807  0.7016  0.3324 -0.1905
 9426SOL    HW139737   4.101   2.883   7.901  2.3883  0.2947 -0.0884
 9426SOL    HW239738   4.085   2.947   7.761 -4.8222 -1.0234  0.0553
 9427SOL     OW39739   1.999   0.397  16.582  0.1881  0.1863 -0.1766
 9427SOL    HW139740   1.929   0.462  16.585 -1.7028 -1.9065  1.0661
 9427SOL    HW239741   1.940   0.325  16.560 -0.1474  0.6621 -0.8014
 9428SOL     OW39742   1.264   3.873   8.038 -0.1383  0.2842  0.0667
 9428SOL    HW139743   1.259   3.821   7.957  0.2335 -1.5405  1.2183
 9428SOL    HW239744   1.180   3.845   8.075 -0.9278  0.9265 -1.2400
 9429SOL     OW39745   3.654   0.876   7.138  0.5487  1.0837 -0.1855
 9429SOL    HW139746   3.653   0.800   7.196  0.9634  2.1714  1.2514
 9429SOL    HW239747   3.561   0.897   7.143  0.3210 -0.3532  1.4594
 9430SOL     OW39748   1.217   1.490  15.249 -0.7104  0.2800  0.1106
 9430SOL    HW139749   1.215   1.443  15.332 -2.4126 -0.8583 -0.5868
 9430SOL    HW239750   1.182   1.425  15.188 -1.6146 -0.0998  1.0430
 9431SOL     OW39751   2.209   0.910   0.864  0.2386 -0.0987  0.5140
 9431SOL    HW139752   2.151   0.971   0.818 -0.0497  0.5296  1.7198
 9431SOL    HW239753   2.294   0.955   0.863 -0.1814  0.6653 -0.7536
 9432SOL     OW39754   4.313   0.943   6.435 -0.4540 -0.3668  0.6516
 9432SOL    HW139755   4.365   1.024   6.427  0.3693 -0.7493  2.0741
 9432SOL    HW239756   4.225   0.979   6.441 -1.3640 -2.7297  1.0672
 9433SOL     OW39757   0.431   2.982   0.567 -0.2062 -0.1114  0.2743
 9433SOL    HW139758   0.441   2.905   0.623 -0.5261  0.8622  1.6734
 9433SOL    HW239759   0.503   3.034   0.602 -0.0343 -0.5428  0.5642
 9434SOL     OW39760   4.062   1.432  14.451 -0.9733 -0.3162  0.3129
 9434SOL    HW139761   4.056   1.337  14.458 -1.6438 -0.2912  0.1207
 9434SOL    HW239762   4.137   1.459  14.504 -3.5470 -0.0812  3.8032
 9435SOL     OW39763   0.028   4.154   6.713  0.0317 -1.0371  0.0625
 9435SOL    HW139764   0.021   4.178   6.805  0.7720 -2.1147  0.3934
 9435SOL    HW239765   0.122   4.156   6.693  0.2700 -0.2053  1.2632
 9436SOL     OW39766   4.393   4.090   2.305 -0.4855 -0.2385 -0.3750
 9436SOL    HW139767   4.414   4.098   2.398  4.5188 -0.0542 -1.5454
 9436SOL    HW239768   4.332   4.016   2.312 -1.1485  0.3751  0.4400
 9437SOL     OW39769   4.376   4.679  13.582 -0.1359 -0.2062  0.0485
 9437SOL    HW139770   4.297   0.012  13.566  0.0252  0.4215  1.3394
 9437SOL    HW239771   4.428   4.713  13.509 -2.4105  1.8575 -0.6392
 9438SOL     OW39772   2.299   2.194  12.039 -0.0199 -0.0440 -0.0379
 9438SOL    HW139773   2.227   2.193  11.976 -0.6581  0.5553  0.6905
 9438SOL    HW239774   2.359   2.135  11.993  0.7753 -0.4261  1.4954
 9439SOL     OW39775   0.928   3.650   8.009 -0.6088  0.1697  0.0396
 9439SOL    HW139776   0.936   3.712   7.936  3.3577  0.2382  0.5031
 9439SOL    HW239777   0.885   3.703   8.077  0.8060 -1.0340  1.8792
 9440SOL     OW39778   3.736   2.819   2.676  0.1606 -0.0678 -0.0144
 9440SOL    HW139779   3.672   2.877   2.717 -1.0417 -0.9507 -0.6323
 9440SOL    HW239780   3.673   2.759   2.635  1.8073 -0.9712 -1.1936
 9441SOL     OW39781   0.839   0.511  11.323 -0.2584 -0.3901  0.2814
 9441SOL    HW139782   0.836   0.429  11.372 -1.4933 -0.3759  0.2438
 9441SOL    HW239783   0.744   0.527  11.318 -0.1385  0.2740  0.0370
 9442SOL     OW39784   2.716   1.702   8.770 -0.4233  0.2483 -0.4550
 9442SOL    HW139785   2.759   1.618   8.757 -0.2275  0.1609  0.6982
 9442SOL    HW239786   2.725   1.725   8.863 -1.8816 -1.8023  0.1848
 9443SOL     OW39787   1.698   0.017  13.223 -0.0211 -0.5467 -0.3221
 9443SOL    HW139788   1.663   4.654  13.258  0.4895  0.2068  1.9156
 9443SOL    HW239789   1.617   0.067  13.229  1.0303  1.0052  0.7693
 9444SOL     OW39790   0.647   2.890  15.974 -0.5171 -0.3395  0.4577
 9444SOL    HW139791   0.576   2.827  15.983 -0.4978 -0.7072 -1.8219
 9444SOL    HW239792   0.590   2.966  15.965 -0.2473 -0.1892 -0.0329
 9445SOL     OW39793   0.923   3.807   6.375 -0.0729  0.1486 -0.1437
 9445SOL    HW139794   1.013   3.772   6.373 -0.7027 -1.5247  0.8567
 9445SOL    HW239795   0.893   3.784   6.288  1.8048 -0.7908 -0.5483
 9446SOL     OW39796   2.569   2.915   0.270 -0.1002  0.8729 -0.0968
 9446SOL    HW139797   2.526   2.854   0.330  0.1834 -0.0813 -0.8400
 9446SOL    HW239798   2.569   2.990   0.329  2.1110  0.0590  0.9486
 9447SOL     OW39799   4.126   1.203   5.675 -0.3726  0.1611 -0.4482
 9447SOL    HW139800   4.203   1.220   5.621  0.8275 -1.4229  0.7678
 9447SOL    HW239801   4.136   1.108   5.681 -1.4093  0.0547 -0.3797
 9448SOL     OW39802   2.290   2.820  12.727 -0.1968 -0.2717  0.5026
 9448SOL    HW139803   2.267   2.852  12.640 -1.7545  0.0668  1.0359
 9448SOL    HW239804   2.277   2.894  12.788  1.8693  1.7300 -1.5024
 9449SOL     OW39805   0.929   4.595   1.222  0.1547  0.5021 -0.4736
 9449SOL    HW139806   1.021   4.621   1.219  0.3853 -0.5757 -2.7286
 9449SOL    HW239807   0.907   4.575   1.131  2.1058  0.7436 -1.0053
 9450SOL     OW39808   3.942   3.282  12.201  0.2624  0.0678  0.4025
 9450SOL    HW139809   3.904   3.358  12.156  0.1151 -0.1172  0.2148
 9450SOL    HW239810   3.892   3.213  12.158 -1.9805  1.8326  0.1464
 9451SOL     OW39811   0.950   3.207   2.793 -0.2086  0.0892 -0.4941
 9451SOL    HW139812   0.983   3.296   2.808  0.4989 -0.2741  0.0983
 9451SOL    HW239813   0.859   3.235   2.786  0.2447  0.9799 -2.8638
 9452SOL     OW39814   2.220   2.764   0.435  0.2182  0.0627 -0.2819
 9452SOL    HW139815   2.313   2.776   0.453  0.5203 -0.4840 -1.5034
 9452SOL    HW239816   2.192   2.758   0.527  1.0795  1.0501  0.0475
 9453SOL     OW39817   2.969   3.325   1.183  0.1340  0.1206 -0.1495
 9453SOL    HW139818   3.060   3.327   1.213 -0.3004 -0.2604  1.2201
 9453SOL    HW239819   2.964   3.358   1.094  1.5616  0.6757 -0.0226
 9454SOL     OW39820   1.013   1.214   4.645 -0.1575 -0.8263 -0.0957
 9454SOL    HW139821   1.084   1.180   4.699  2.0467 -0.3581 -2.6664
 9454SOL    HW239822   0.975   1.290   4.687 -0.8236 -1.5446  0.6060
 9455SOL     OW39823   4.241   1.129  14.653  0.0779  1.1247  0.2264
 9455SOL    HW139824   4.224   1.064  14.721 -0.0020 -0.0812 -0.9458
 9455SOL    HW239825   4.336   1.142  14.658  0.3838 -1.0120 -0.0135
 9456SOL     OW39826   1.870   3.579   7.428 -0.1251  0.5699 -0.0347
 9456SOL    HW139827   1.798   3.545   7.375 -0.0954 -1.2731  1.0789
 9456SOL    HW239828   1.941   3.540   7.378  0.8740  0.3671  1.5475
 9457SOL     OW39829   2.618   0.155  10.159  0.2929  0.5420  0.1617
 9457SOL    HW139830   2.687   0.104  10.202 -1.1972 -2.1281 -0.6050
 9457SOL    HW239831   2.606   0.109  10.076  1.0643 -1.8181  1.3729
 9458SOL     OW39832   1.617   4.041   8.530  0.1659  0.3471  0.0059
 9458SOL    HW139833   1.589   3.950   8.533 -0.6850  0.6109  0.1955
 9458SOL    HW239834   1.537   4.086   8.559 -0.7547 -0.9486 -0.5476
 9459SOL     OW39835   1.371   2.287   9.591  0.5806  0.4393  0.0474
 9459SOL    HW139836   1.331   2.305   9.676  0.7048 -0.2498  0.2470
 9459SOL    HW239837   1.289   2.255   9.554  0.8266  1.2357 -1.1740
 9460SOL     OW39838   0.493   2.404  15.902  0.1565 -0.2028  0.0043
 9460SOL    HW139839   0.470   2.443  15.818  0.3531 -1.4787 -0.6368
 9460SOL    HW239840   0.404   2.391  15.933  0.8604  0.0205  2.1775
 9461SOL     OW39841   1.219   3.571   5.541  0.1655  0.0230 -0.4206
 9461SOL    HW139842   1.195   3.520   5.464  1.3176 -1.1407 -0.0282
 9461SOL    HW239843   1.297   3.517   5.557 -1.8151 -2.8646 -0.6590
 9462SOL     OW39844   2.758   1.136   3.840  0.1567 -0.0348  0.1844
 9462SOL    HW139845   2.700   1.189   3.895  0.1221  0.9284 -0.7735
 9462SOL    HW239846   2.700   1.076   3.794 -1.5697  1.8025 -0.0372
 9463SOL     OW39847   3.334   0.887   2.471 -0.2488 -0.7893  0.0378
 9463SOL    HW139848   3.397   0.856   2.536 -0.1858 -1.5716 -0.3967
 9463SOL    HW239849   3.308   0.810   2.420  0.0176  0.2990 -1.7257
 9464SOL     OW39850   4.148   1.540   2.150  0.2068  0.0631 -0.3281
 9464SOL    HW139851   4.095   1.462   2.166  2.1379 -0.3326  3.9049
 9464SOL    HW239852   4.151   1.530   2.055  0.2266  0.2280 -0.3448
 9465SOL     OW39853   1.539   1.415  12.231  0.4368  0.4476 -0.2359
 9465SOL    HW139854   1.582   1.484  12.281 -3.2258  2.1323  0.5100
 9465SOL    HW239855   1.448   1.437  12.248  0.6768 -0.0345  1.6783
 9466SOL     OW39856   1.382   0.443   0.652  0.0352 -0.2125  0.3319
 9466SOL    HW139857   1.400   0.495   0.731  3.3336 -2.3845  1.0213
 9466SOL    HW239858   1.291   0.471   0.650  0.3066  0.4165 -2.9550
 9467SOL     OW39859   2.979   2.090  11.165 -0.8435 -0.0648  0.3173
 9467SOL    HW139860   3.037   2.161  11.136 -0.6317  0.5947  2.3303
 9467SOL    HW239861   3.009   2.099  11.256 -2.3257 -3.0723  1.0941
 9468SOL     OW39862   3.114   4.512  16.943 -1.1471 -0.0543  0.2580
 9468SOL    HW139863   3.095   4.527  16.851 -0.8756  4.6415  0.9866
 9468SOL    HW239864   3.062   4.585  16.977  0.2771  0.9924  0.1779
 9469SOL     OW39865   3.143   3.071   4.784 -0.3699 -0.2143  0.4240
 9469SOL    HW139866   3.052   3.066   4.755  0.3074 -0.7863 -1.6434
 9469SOL    HW239867   3.167   2.979   4.772 -0.1840 -0.0401 -0.5959
 9470SOL     OW39868   1.959   1.081   4.692  0.1962  0.8685 -0.1687
 9470SOL    HW139869   1.962   1.013   4.759 -3.8905  0.5744 -0.2897
 9470SOL    HW239870   2.052   1.095   4.676  0.6641 -2.4391 -0.2359
 9471SOL     OW39871   3.388   3.095   8.689 -0.5478  0.1541  0.3553
 9471SOL    HW139872   3.345   3.142   8.617 -1.6210 -0.9407  0.2739
 9471SOL    HW239873   3.363   3.144   8.766 -2.4891  1.5158 -1.1470
 9472SOL     OW39874   3.279   0.938   4.390 -0.4843 -0.3645 -0.0353
 9472SOL    HW139875   3.303   0.891   4.311 -0.3803 -1.9572  0.9280
 9472SOL    HW239876   3.217   0.995   4.344  0.4776  0.0838 -0.7691
 9473SOL     OW39877   2.757   4.492  17.524  0.7989  0.0384  0.2282
 9473SOL    HW139878   2.838   4.483  17.473  0.7476 -2.3975  0.5757
 9473SOL    HW239879   2.779   4.429  17.593  0.5181  1.2124  1.3691
 9474SOL     OW39880   1.226   1.570  14.911 -0.1758 -0.3892  0.3197
 9474SOL    HW139881   1.285   1.499  14.884 -0.2313 -0.0188 -0.7916
 9474SOL    HW239882   1.192   1.611  14.831 -0.1483 -0.2208  0.3934
 9475SOL     OW39883   0.844   3.623   5.793 -0.8325  0.5616  0.7342
 9475SOL    HW139884   0.829   3.705   5.747  0.1031  1.1761  1.5152
 9475SOL    HW239885   0.890   3.574   5.725 -0.9189 -1.2819  2.0044
 9476SOL     OW39886   4.223   0.697   1.985  0.0131 -0.0258 -0.1408
 9476SOL    HW139887   4.291   0.681   1.919 -0.1901 -2.3087  0.1942
 9476SOL    HW239888   4.172   0.770   1.949  1.6349  2.5106  2.7328
 9477SOL     OW39889   4.514   1.101   5.338 -0.4117 -0.9027 -0.7099
 9477SOL    HW139890   4.511   1.051   5.420  0.1428  0.8253  0.3682
 9477SOL    HW239891   4.531   1.036   5.270  2.0332 -1.0159  0.0066
 9478SOL     OW39892   3.304   4.403   4.453  0.2768  0.4486  0.4157
 9478SOL    HW139893   3.242   4.415   4.524 -2.3318 -1.3432 -1.5760
 9478SOL    HW239894   3.245   4.372   4.384  0.2762 -0.4330  0.8125
 9479SOL     OW39895   2.740   0.347   2.129  0.4758  0.1513  0.8901
 9479SOL    HW139896   2.765   0.423   2.076 -0.6966 -1.2218 -1.5925
 9479SOL    HW239897   2.669   0.322   2.070  0.6645 -2.1038  1.6157
 9480SOL     OW39898   3.180   3.349   6.198 -0.5042 -0.3814  0.4516
 9480SOL    HW139899   3.260   3.402   6.196 -0.6095 -0.3799 -3.5642
 9480SOL    HW239900   3.155   3.360   6.106 -0.0405  0.6417  0.4454
 9481SOL     OW39901   1.138   3.183  15.897 -0.0095 -0.2795  0.7412
 9481SOL    HW139902   1.135   3.103  15.844 -1.2258 -0.5642  1.2461
 9481SOL    HW239903   1.050   3.194  15.933  0.4439  1.8796  1.1926
 9482SOL     OW39904   0.556   0.594   4.132  0.6820  0.5163 -0.2888
 9482SOL    HW139905   0.552   0.670   4.190  0.3783 -1.7415  2.6538
 9482SOL    HW239906   0.519   0.536   4.199  0.2446  0.8558 -0.2381
 9483SOL     OW39907   3.760   1.794   8.847 -0.3626 -0.0206 -0.3836
 9483SOL    HW139908   3.766   1.720   8.907 -1.3258 -0.7692 -1.2033
 9483SOL    HW239909   3.748   1.864   8.910  0.0691 -0.7197  0.4847
 9484SOL     OW39910   2.937   3.044   8.137 -0.6029  0.0838 -0.3607
 9484SOL    HW139911   2.866   3.035   8.073 -0.0852 -0.0764 -0.9073
 9484SOL    HW239912   2.950   2.955   8.169 -0.9691  1.3449  3.2453
 9485SOL     OW39913   1.388   0.980   3.565  0.2694  0.7195 -0.6362
 9485SOL    HW139914   1.447   0.963   3.639 -1.4945  2.4338  1.1770
 9485SOL    HW239915   1.409   0.912   3.502 -0.4564 -0.4219  0.3474
 9486SOL     OW39916   1.442   0.855   1.153  0.1709 -0.1227 -0.2856
 9486SOL    HW139917   1.501   0.835   1.081 -0.0903  0.9020 -0.7919
 9486SOL    HW239918   1.407   0.936   1.116  1.0330  0.7327  0.7422
 9487SOL     OW39919   2.406   1.291   4.146 -0.1118 -0.1198  0.7557
 9487SOL    HW139920   2.368   1.330   4.068  1.4747  2.7659  1.4146
 9487SOL    HW239921   2.494   1.321   4.123 -0.5479 -0.4448 -1.3326
 9488SOL     OW39922   3.420   0.869   7.832  0.0588  0.6055 -0.5407
 9488SOL    HW139923   3.339   0.918   7.849 -0.2391 -0.3426  0.7766
 9488SOL    HW239924   3.481   0.906   7.896  2.5093 -0.1897 -2.4147
 9489SOL     OW39925   1.606   4.326   0.267  0.3846 -0.0430 -0.4054
 9489SOL    HW139926   1.613   4.231   0.279  0.7636 -0.3961 -3.2549
 9489SOL    HW239927   1.588   4.333   0.173 -1.9173 -1.2284 -0.0732
 9490SOL     OW39928   2.333   1.261   3.479 -0.4231 -0.4603 -0.2388
 9490SOL    HW139929   2.394   1.314   3.530  1.6361  0.4419 -3.5937
 9490SOL    HW239930   2.324   1.311   3.398 -2.4445 -1.1591 -0.4520
 9491SOL     OW39931   4.570   2.441  12.865  0.1697  0.3587  0.0817
 9491SOL    HW139932   4.536   2.530  12.852  2.0659  1.0080 -0.3492
 9491SOL    HW239933   4.658   2.440  12.900 -0.6481  1.1505  2.1606
 9492SOL     OW39934   1.590   4.120   9.892 -0.2839  0.8406 -0.3612
 9492SOL    HW139935   1.579   4.025   9.889  0.7765  0.7446 -1.0562
 9492SOL    HW239936   1.583   4.134   9.987 -4.1053 -1.4992 -0.3100
 9493SOL     OW39937   3.734   0.189  15.154  0.3202  0.1701  0.0352
 9493SOL    HW139938   3.803   0.176  15.090 -1.0316  1.4703 -1.6844
 9493SOL    HW239939   3.729   0.284  15.155 -0.5637  0.1313 -1.1972
 9494SOL     OW39940   3.125   2.473  15.960  0.6991 -0.5351 -0.0511
 9494SOL    HW139941   3.109   2.489  16.053  2.7069 -0.7717  0.3504
 9494SOL    HW239942   3.166   2.559  15.951  2.1584 -1.3039 -0.8116
 9495SOL     OW39943   0.124   1.411   1.047 -0.4070  0.5232 -0.0715
 9495SOL    HW139944   0.111   1.322   1.080  1.4629  0.2257 -0.1246
 9495SOL    HW239945   0.051   1.413   0.985  0.7859  0.6770 -1.4757
 9496SOL     OW39946   1.839   4.265  17.141 -0.0548 -0.0697 -0.1456
 9496SOL    HW139947   1.846   4.315  17.223  0.8099 -0.1817 -0.1516
 9496SOL    HW239948   1.780   4.197  17.172 -0.9531  0.8892  0.2826
 9497SOL     OW39949   1.661   1.953  15.388  0.3966  0.5052  0.3465
 9497SOL    HW139950   1.720   2.023  15.417  0.3035  0.1239  1.4895
 9497SOL    HW239951   1.637   1.916  15.473  0.0663 -0.2769 -0.0943
 9498SOL     OW39952   3.595   0.085   9.589  0.1923  0.2033 -0.4129
 9498SOL    HW139953   3.500   0.080   9.600  0.3841  2.3169  2.0151
 9498SOL    HW239954   3.606   0.158   9.650  0.7878  1.3832 -1.9192
 9499SOL     OW39955   4.234   2.862   3.983  0.6915 -0.2662  0.0401
 9499SOL    HW139956   4.147   2.840   3.950  0.6181  0.5766 -0.3224
 9499SOL    HW239957   4.213   2.911   4.063  2.5158 -1.0226  0.9864
 9500SOL     OW39958   1.624   4.641   2.482  0.1035 -0.4844  0.5571
 9500SOL    HW139959   1.669   4.716   2.443  1.5587 -0.1209  2.9374
 9500SOL    HW239960   1.532   4.658   2.462  0.3218 -1.0798 -0.9123
 9501SOL     OW39961   1.237   0.154   7.359  0.2850 -0.3455 -0.5770
 9501SOL    HW139962   1.158   0.185   7.403  0.0195 -1.5041 -0.2308
 9501SOL    HW239963   1.299   0.142   7.432  0.6190  0.3875 -0.7397
 9502SOL     OW39964   2.935   1.643   8.369 -0.2520  0.4648 -0.8188
 9502SOL    HW139965   3.005   1.582   8.343 -1.6662 -2.7016  2.7695
 9502SOL    HW239966   2.967   1.648   8.459 -4.3474 -0.5189  0.6444
 9503SOL     OW39967   0.902   1.870   7.156  0.4914 -0.0765  0.1123
 9503SOL    HW139968   0.902   1.898   7.065  1.0569  0.7261  0.3635
 9503SOL    HW239969   0.813   1.834   7.159  0.2718  0.4359 -0.4466
 9504SOL     OW39970   1.349   2.628   5.366 -0.1485 -0.1859  0.6827
 9504SOL    HW139971   1.416   2.666   5.308 -1.6872  0.8116 -0.4173
 9504SOL    HW239972   1.399   2.641   5.447  1.3023 -0.2225 -0.2012
 9505SOL     OW39973   1.730   3.549  12.072 -0.2848 -0.6076 -0.7005
 9505SOL    HW139974   1.652   3.501  12.101 -0.8227  1.5303  1.4404
 9505SOL    HW239975   1.732   3.501  11.990 -0.6237 -1.7812 -0.0202
 9506SOL     OW39976   3.235   1.577   9.664  0.4727  0.0681  0.9001
 9506SOL    HW139977   3.221   1.511   9.596 -0.6389  1.0141  0.2101
 9506SOL    HW239978   3.327   1.592   9.641  0.3583  0.4416  0.6824
 9507SOL     OW39979   3.227   0.416   6.101  0.8898  0.0113 -0.1720
 9507SOL    HW139980   3.308   0.368   6.121 -0.0064 -1.0056  1.0398
 9507SOL    HW239981   3.254   0.508   6.099  2.2382 -0.3756  0.2087
 9508SOL     OW39982   1.472   1.707   4.325 -0.5844 -0.2236 -0.3276
 9508SOL    HW139983   1.536   1.732   4.392 -0.2470  2.0639 -1.4985
 9508SOL    HW239984   1.399   1.666   4.372 -0.0908  0.1118  0.7405
 9509SOL     OW39985   0.389   0.544   8.144 -0.1282  0.3448 -0.1451
 9509SOL    HW139986   0.452   0.539   8.073  1.2182  1.9658  0.9444
 9509SOL    HW239987   0.312   0.498   8.110  1.1618 -0.8030 -1.5244
 9510SOL     OW39988   0.677   2.862  17.464  0.2601 -0.4131  0.2088
 9510SOL    HW139989   0.690   2.882  17.372 -1.6435  1.8718  0.4505
 9510SOL    HW239990   0.613   2.794  17.445 -0.6773  1.0002 -1.6055
 9511SOL     OW39991   3.881   2.587   2.759  0.4329  0.2395 -0.2430
 9511SOL    HW139992   3.841   2.672   2.777  1.9257  1.2771 -1.8465
 9511SOL    HW239993   3.812   2.544   2.709  0.1417 -0.0627  0.4072
 9512SOL     OW39994   4.099   2.122  13.492 -0.2853  0.4655 -0.5642
 9512SOL    HW139995   4.052   2.141  13.573 -2.0151 -1.0160 -1.2045
 9512SOL    HW239996   4.191   2.119  13.517 -0.2926 -0.9587 -0.7191
 9513SOL     OW39997   1.096   1.633  14.693  0.3045  0.6079  0.4574
 9513SOL    HW139998   1.064   1.563  14.636 -0.2464  0.6068  0.7697
 9513SOL    HW239999   1.178   1.649  14.645 -0.1501 -0.1899 -0.5894
 9514SOL     OW40000   0.898   4.124   0.483  0.0457  0.2817  0.0867
 9514SOL    HW140001   0.955   4.119   0.406 -1.1464  1.8846 -0.9030
 9514SOL    HW240002   0.953   4.168   0.548  0.2809 -0.9182  0.6939
 9515SOL     OW40003   1.809   0.545   4.531  0.5945  0.4944 -0.2037
 9515SOL    HW140004   1.744   0.564   4.463  0.5453 -1.1095 -0.6099
 9515SOL    HW240005   1.852   0.630   4.531 -0.2230  0.9112 -0.5987
 9516SOL     OW40006   2.251   1.640   7.916 -0.1482 -0.4117  0.0442
 9516SOL    HW140007   2.264   1.686   7.833 -2.5215  2.5561  1.3497
 9516SOL    HW240008   2.282   1.704   7.981  0.7915 -1.4030  0.5708
 9517SOL     OW40009   0.164   3.723   5.921  0.5940  0.0635  0.3258
 9517SOL    HW140010   0.192   3.649   5.867 -2.9188 -1.1323  0.1614
 9517SOL    HW240011   0.069   3.717   5.927  0.5918  1.5795  1.7884
 9518SOL     OW40012   1.359   1.277   5.764 -0.2307 -0.0215 -0.1786
 9518SOL    HW140013   1.391   1.316   5.845  2.4633 -1.0310 -0.7833
 9518SOL    HW240014   1.386   1.347   5.704 -0.2577  0.2409  0.1136
 9519SOL     OW40015   4.482   1.103   2.106  0.2373  0.2705  0.0911
 9519SOL    HW140016   4.519   1.191   2.114  0.4581  0.1483  0.4392
 9519SOL    HW240017   4.530   1.084   2.026 -0.9923 -1.1277 -0.3213
 9520SOL     OW40018   4.390   0.865   9.822 -0.7141  0.1676 -0.3776
 9520SOL    HW140019   4.355   0.798   9.880 -1.0430 -0.0679 -0.8502
 9520SOL    HW240020   4.474   0.882   9.865 -0.3496  0.1805 -1.0838
 9521SOL     OW40021   4.074   4.317   4.745  1.4352  0.2684 -0.1962
 9521SOL    HW140022   4.144   4.380   4.758  0.5967  1.1572  0.0354
 9521SOL    HW240023   4.000   4.377   4.759  1.2412  0.1810 -0.8535
 9522SOL     OW40024   1.286   2.152   1.928  0.3551  0.0940 -0.0741
 9522SOL    HW140025   1.227   2.092   1.881  1.3488 -0.4980 -0.5664
 9522SOL    HW240026   1.259   2.159   2.019 -0.6047  0.8543 -0.4209
 9523SOL     OW40027   1.616   2.767   5.880 -0.0737 -0.2980 -0.5408
 9523SOL    HW140028   1.608   2.732   5.969 -0.3022  0.3292 -0.3135
 9523SOL    HW240029   1.702   2.730   5.862 -0.2333 -0.6075 -0.6593
 9524SOL     OW40030   3.756   3.648  16.155 -0.1192 -0.2273  0.0267
 9524SOL    HW140031   3.732   3.564  16.117 -1.2346 -0.0618  0.3573
 9524SOL    HW240032   3.677   3.701  16.141  0.4401  0.4766 -0.4921
 9525SOL     OW40033   0.917   2.291   4.929  0.4409 -0.2058  0.1958
 9525SOL    HW140034   0.952   2.259   5.013  3.3581 -1.2397 -1.4229
 9525SOL    HW240035   0.954   2.376   4.953 -0.8607  0.0139  1.4143
 9526SOL     OW40036   0.746   4.560   2.551 -0.1973  0.5508 -0.1576
 9526SOL    HW140037   0.759   4.484   2.494 -0.2342  0.4516 -0.0336
 9526SOL    HW240038   0.692   4.526   2.622 -0.8583 -0.6967 -1.2644
 9527SOL     OW40039   1.824   3.513   6.379  0.4334 -0.3596  0.2150
 9527SOL    HW140040   1.896   3.478   6.327  2.5888  0.2899  2.7715
 9527SOL    HW240041   1.863   3.591   6.420 -2.4357  0.3980  1.5243
 9528SOL     OW40042   0.797   3.015   7.777 -0.0728 -0.2965  0.2311
 9528SOL    HW140043   0.844   2.933   7.761  0.1169  0.0184 -0.8132
 9528SOL    HW240044   0.705   2.990   7.778 -0.1772  0.0523 -0.9515
 9529SOL     OW40045   0.822   3.945  14.059  0.6270 -0.2405 -0.1361
 9529SOL    HW140046   0.811   3.986  13.973  0.1193  0.7618  0.4007
 9529SOL    HW240047   0.876   3.869  14.037 -0.1654 -0.2391 -2.0779
 9530SOL     OW40048   2.808   2.247   2.673  0.2586 -0.0893 -0.4280
 9530SOL    HW140049   2.744   2.315   2.697  2.3711  2.5100 -2.0907
 9530SOL    HW240050   2.878   2.279   2.730 -0.7021  3.1905 -1.0558
 9531SOL     OW40051   4.326   2.755   0.606  0.0518 -0.1517  0.4607
 9531SOL    HW140052   4.411   2.735   0.567  0.5540 -1.3280  2.1365
 9531SOL    HW240053   4.317   2.682   0.667 -1.2971 -2.5746 -2.6051
 9532SOL     OW40054   2.113   3.375   1.989  0.4275 -0.6835  0.1724
 9532SOL    HW140055   2.043   3.364   1.926 -0.4590 -0.1897  1.0786
 9532SOL    HW240056   2.067   3.399   2.069  1.7621  0.9119  0.4500
 9533SOL     OW40057   1.172   3.215  12.275 -0.1639  0.0804 -0.5350
 9533SOL    HW140058   1.228   3.197  12.200  2.6647  2.3906  1.0317
 9533SOL    HW240059   1.154   3.308  12.264  1.0411  0.4680  0.6886
 9534SOL     OW40060   4.579   1.654   7.463 -0.1990  0.1427  0.2982
 9534SOL    HW140061   4.664   1.683   7.494 -0.2686 -1.2743  1.8215
 9534SOL    HW240062   4.585   1.559   7.451  3.6191  0.5280 -0.5972
 9535SOL     OW40063   1.674   3.045   8.053  0.6150  0.2335 -0.4157
 9535SOL    HW140064   1.692   3.118   8.113  0.4062 -0.4928  0.5203
 9535SOL    HW240065   1.612   2.991   8.102  0.2070 -0.8330 -2.0978
 9536SOL     OW40066   1.968   0.039   9.608 -0.5433 -0.0407 -0.1077
 9536SOL    HW140067   2.027   0.002   9.674 -0.5980 -0.1405 -0.1162
 9536SOL    HW240068   1.919   4.678   9.592  1.0579 -1.3469  1.5169
 9537SOL     OW40069   1.398   1.563   1.278  0.1889  0.5792 -0.2749
 9537SOL    HW140070   1.373   1.646   1.237  3.9112  0.9804 -1.7546
 9537SOL    HW240071   1.405   1.514   1.196 -0.5640  1.7432 -1.0300
 9538SOL     OW40072   1.668   2.206  13.938 -0.0920  0.7152 -0.6213
 9538SOL    HW140073   1.620   2.157  13.871 -2.2561  2.3748 -0.2705
 9538SOL    HW240074   1.716   2.259  13.874  0.6829  1.5026  0.6248
 9539SOL     OW40075   2.120   3.685   7.592 -0.2247  0.0336 -0.2143
 9539SOL    HW140076   2.048   3.631   7.624 -1.0915  1.1551 -0.2718
 9539SOL    HW240077   2.162   3.705   7.676 -1.6334  0.0680  0.4715
 9540SOL     OW40078   3.239   0.117   2.840  0.5543 -0.0454 -0.3368
 9540SOL    HW140079   3.333   0.126   2.858  0.4319  1.3518 -0.4143
 9540SOL    HW240080   3.210   0.203   2.809 -0.3332  0.1497  1.0193
 9541SOL     OW40081   1.421   4.321   8.180 -0.0281 -0.7229  0.6159
 9541SOL    HW140082   1.352   4.379   8.147  1.5259  0.9424  0.2687
 9541SOL    HW240083   1.384   4.241   8.142 -2.8085  2.1865 -2.7973
 9542SOL     OW40084   3.292   4.598   7.104 -0.3489  0.7104 -0.2256
 9542SOL    HW140085   3.269   4.525   7.162 -0.0347  0.5722 -0.2738
 9542SOL    HW240086   3.309   4.668   7.167 -0.0076  0.5620 -0.1514
 9543SOL     OW40087   0.660   1.345  13.246  0.1829 -0.5650 -0.7183
 9543SOL    HW140088   0.619   1.367  13.329  0.5465  0.8537 -0.9145
 9543SOL    HW240089   0.582   1.319  13.197 -0.8340  3.1448 -1.0459
 9544SOL     OW40090   4.205   2.216   8.973  0.2361 -0.1286 -0.3069
 9544SOL    HW140091   4.124   2.234   9.020  0.0157 -0.1516 -0.6740
 9544SOL    HW240092   4.198   2.122   8.990  0.0180 -0.0382  0.1139
 9545SOL     OW40093   0.519   0.183  10.662  0.2698  0.0334 -0.2957
 9545SOL    HW140094   0.604   0.140  10.647  1.1146  1.1559  1.2173
 9545SOL    HW240095   0.473   0.123  10.720  1.4311 -1.1973 -0.6427
 9546SOL     OW40096   0.426   4.654   3.605 -0.4347  0.0557 -0.3210
 9546SOL    HW140097   0.509   4.700   3.591 -0.1183  0.1643  1.8541
 9546SOL    HW240098   0.391   4.702   3.681  1.2305  0.7919  0.0016
 9547SOL     OW40099   4.436   0.440   8.346  0.5683 -0.3915 -0.3590
 9547SOL    HW140100   4.419   0.516   8.291  2.3354  0.5509  0.3750
 9547SOL    HW240101   4.532   0.448   8.346  0.8434 -3.3057  3.2665
 9548SOL     OW40102   0.547   1.093  14.330  0.4991  0.3085 -0.3633
 9548SOL    HW140103   0.541   1.102  14.425  1.7247 -0.8749 -0.1750
 9548SOL    HW240104   0.629   1.047  14.311  0.4604 -0.3677  1.0915
 9549SOL     OW40105   3.832   1.193  14.822  0.1665  0.1943  0.0201
 9549SOL    HW140106   3.817   1.150  14.737  0.5637  2.5473 -1.2541
 9549SOL    HW240107   3.773   1.267  14.812 -0.4196 -0.4174 -1.0378
 9550SOL     OW40108   2.963   0.785   2.454 -0.4093 -0.4299  0.3697
 9550SOL    HW140109   2.972   0.872   2.415  1.2354 -1.9100 -2.5503
 9550SOL    HW240110   2.868   0.769   2.453 -0.6878  1.2296  1.8309
 9551SOL     OW40111   4.302   0.054  11.220 -0.4443 -0.4059 -0.0192
 9551SOL    HW140112   4.323   4.680  11.217  0.3395 -0.2558  1.1892
 9551SOL    HW240113   4.366   0.077  11.287 -0.1698 -2.0171  0.2639
 9552SOL     OW40114   1.826   4.170   5.074 -0.2389  0.1624 -0.0063
 9552SOL    HW140115   1.755   4.134   5.128 -0.1689  1.4062  0.8948
 9552SOL    HW240116   1.818   4.264   5.085 -0.0535  0.1026  0.6086
 9553SOL     OW40117   2.886   0.261   7.649 -0.5126 -0.1955 -0.3756
 9553SOL    HW140118   2.820   0.302   7.592 -0.0386  3.6934  1.8492
 9553SOL    HW240119   2.829   0.227   7.718  0.8629  1.2931  1.4784
 9554SOL     OW40120   4.520   4.636   1.826 -0.1098 -0.0723 -0.3443
 9554SOL    HW140121   4.586   4.567   1.835  0.9876  0.8496 -1.4889
 9554SOL    HW240122   4.491   4.648   1.917 -0.8447  0.1780 -0.6085
 9555SOL     OW40123   2.931   0.637   6.222  0.2011 -0.0406 -0.3569
 9555SOL    HW140124   2.880   0.674   6.294 -1.7331 -2.2507 -0.6012
 9555SOL    HW240125   3.019   0.670   6.238  1.8758 -4.3509 -0.5248
 9556SOL     OW40126   0.809   3.263   7.080  0.1648  0.1430  0.5137
 9556SOL    HW140127   0.733   3.208   7.096  0.4470  0.8047  4.0368
 9556SOL    HW240128   0.880   3.201   7.099 -0.3459 -0.1899  1.3161
 9557SOL     OW40129   0.392   0.745   0.098  0.0888  0.3942 -0.3018
 9557SOL    HW140130   0.331   0.722   0.169  1.2808  1.0170  0.9239
 9557SOL    HW240131   0.392   0.672   0.036  1.6319  0.2413 -0.1269
 9558SOL     OW40132   3.175   1.185   8.748 -0.2372 -0.4772 -0.1057
 9558SOL    HW140133   3.200   1.109   8.800 -1.4403  0.1537  1.3701
 9558SOL    HW240134   3.087   1.182   8.783  1.4030  0.0947  4.0552
 9559SOL     OW40135   4.248   0.657   7.915  0.2489  0.4455  0.3772
 9559SOL    HW140136   4.329   0.706   7.935  0.1643  1.1818 -1.0841
 9559SOL    HW240137   4.175   0.716   7.930  0.5390  0.6329  1.0909
 9560SOL     OW40138   1.983   4.661   6.608 -0.3760  0.3753  0.6326
 9560SOL    HW140139   2.038   4.695   6.536 -0.2369  1.3456  1.1903
 9560SOL    HW240140   1.911   4.628   6.555  0.0193  0.1747  0.2182
 9561SOL     OW40141   0.700   1.002   8.652  0.0213  0.0751 -0.3916
 9561SOL    HW140142   0.688   0.935   8.719 -0.6733 -0.6520 -1.2352
 9561SOL    HW240143   0.611   1.034   8.638  0.1856  0.2774 -0.9608
 9562SOL     OW40144   1.475   1.242  13.310 -0.4874  0.2038 -0.7075
 9562SOL    HW140145   1.520   1.323  13.334  0.8854 -1.4825  2.3172
 9562SOL    HW240146   1.401   1.257  13.368 -1.2525 -1.4423 -1.2431
 9563SOL     OW40147   2.663   3.019   8.001  0.0450  0.2789 -0.0115
 9563SOL    HW140148   2.571   3.038   7.979  0.5309  0.5676 -1.8282
 9563SOL    HW240149   2.665   2.927   7.974 -0.3807  0.3168 -0.1824
 9564SOL     OW40150   2.859   4.496   3.956 -0.1347  0.0921 -0.2695
 9564SOL    HW140151   2.774   4.456   3.937  0.0912  0.4244 -1.9329
 9564SOL    HW240152   2.823   4.562   4.015 -0.5113 -0.4101  0.0565
 9565SOL     OW40153   4.213   2.140   7.706 -0.8295 -0.1360 -0.4258
 9565SOL    HW140154   4.303   2.158   7.680 -0.6808  0.7742  0.6972
 9565SOL    HW240155   4.195   2.213   7.765 -0.3167 -0.8006  0.5529
   4.71889   4.71889  17.67851
