Membrane in water
40155
    1TCq1    O1    1   4.215   3.797  10.798  0.1791 -0.0220  0.1931
    1TCq1    C1    2   4.219   3.853  10.919  0.5930 -0.3539 -0.1912
    1TCq1    O2    3   4.166   3.799  11.017 -0.2234  0.5392 -0.4864
    1TCq1    C2    4   4.307   3.971  10.929  0.8875  0.5512  0.8999
    1TCq1    C3    5   4.338   4.038  10.813 -0.8117  1.1819 -0.2960
    1TCq1    C4    6   4.412   4.151  10.828 -0.1478  0.6757 -0.1625
    1TCq1    C5    7   4.475   4.181  10.943 -0.5027 -0.1759  0.5829
    1TCq1    C6    8   4.449   4.107  11.055 -0.0288 -0.3547 -0.5279
    1TCq1    C7    9   4.357   4.000  11.053 -0.7256 -0.3662 -0.1679
    1TCq1    C8   10   4.498   4.155  11.185 -0.3664  0.1759 -0.2564
    1TCq1    O4   11   4.528   4.274  11.190  0.7461 -0.6084 -1.2544
    1TCq1    C9   12   4.411   4.248  10.721  0.0229  0.5630 -0.1793
    1TCq1    O5   13   4.466   4.364  10.744 -0.1966 -0.6367  0.0168
    1TCq1    O6   14   4.325   4.234  10.633  0.1730  0.0337  0.2500
    1TCq1    H1   15   4.306   3.788  10.765  0.5052  0.8958  0.8410
    1TCq1    H2   16   4.282   4.030  10.720  0.4460  1.1294 -1.0644
    1TCq1    H3   17   4.542   4.265  10.959 -0.9979  0.0571  1.4581
    1TCq1    H4   18   4.320   3.949  11.141 -1.1997  3.4189  1.8310
    2MPD2     C   19   4.463   4.121  11.699 -0.3174  0.5575  0.0262
    2MPD2    C1   20   4.451   4.236  11.615 -0.1014  0.0869 -0.9063
    2MPD2    C2   21   4.471   4.221  11.480  0.2355  0.6625  0.6065
    2MPD2    C3   22   4.474   4.094  11.423  0.8413 -0.0110 -0.0452
    2MPD2    C4   23   4.485   3.987  11.508 -0.1399 -0.2246  0.1541
    2MPD2    C5   24   4.472   3.997  11.642 -1.2257  0.4366 -0.3051
    2MPD2     H   25   4.469   4.311  11.419  0.8873  0.0922 -0.2509
    2MPD2    H1   26   4.501   3.885  11.476 -1.6574 -0.0820 -1.0356
    2MPD2    H2   27   4.455   4.118  11.807  1.2481 -0.2675  0.1165
    2MPD2    H3   28   4.480   3.913  11.710  1.5945  0.3764 -0.6899
    2MPD2     N   29   4.483   4.062  11.286  0.2259  0.3029  0.0610
    2MPD2    H5   30   4.470   3.966  11.256  1.4726 -0.5379  2.2095
    2MPD2    N1   31   4.438   4.367  11.670  0.1482  0.4901  0.2970
    2MPD2    H7   32   4.421   4.441  11.602 -1.7084  1.6251  1.9981
    3TCq1    O1   33   4.036   2.315  10.318  0.1447  0.1394 -0.0423
    3TCq1    C1   34   4.076   2.225  10.227 -0.6434  0.3623 -0.7610
    3TCq1    O2   35   4.098   2.256  10.108 -0.5580  0.1436 -0.1295
    3TCq1    C2   36   4.145   2.118  10.296  0.0187 -0.6478  0.3657
    3TCq1    C3   37   4.256   2.058  10.246  0.1820  0.2924 -0.1381
    3TCq1    C4   38   4.318   1.959  10.316  0.4399 -0.1154  1.0671
    3TCq1    C5   39   4.277   1.915  10.436  0.2099 -0.3086  0.2105
    3TCq1    C6   40   4.163   1.973  10.489 -0.1079  0.1170 -0.5778
    3TCq1    C7   41   4.090   2.066  10.416  0.6330  0.1169 -0.0943
    3TCq1    C8   42   4.114   1.924  10.617 -0.2115 -0.0637 -0.0427
    3TCq1    O4   43   4.162   1.819  10.653 -0.0274 -0.5948 -0.4013
    3TCq1    C9   44   4.456   1.923  10.268  0.5184  0.4354  0.4000
    3TCq1    O5   45   4.499   1.812  10.307 -0.1002  0.2345 -0.3373
    3TCq1    O6   46   4.529   2.017  10.221 -0.1394  0.1092 -0.0743
    3TCq1    H1   47   4.057   2.303  10.413  1.1076 -3.3699 -0.6897
    3TCq1    H2   48   4.292   2.082  10.146  2.4672  1.1733  0.9001
    3TCq1    H3   49   4.333   1.840  10.491 -1.2059 -1.2555  0.3686
    3TCq1    H4   50   3.991   2.087  10.455  0.8785 -0.2355  0.7281
    4MPD2     C   51   3.882   1.962  11.083 -0.1654  0.0919  0.8509
    4MPD2    C1   52   3.839   2.058  10.995 -0.1575 -0.4695  0.4350
    4MPD2    C2   53   3.888   2.065  10.869  0.3022  0.1518  0.7254
    4MPD2    C3   54   3.980   1.979  10.816  0.2023 -0.2676 -0.3682
    4MPD2    C4   55   4.010   1.873  10.894 -0.2557  1.2381  0.0882
    4MPD2    C5   56   3.957   1.866  11.017 -0.4351  0.7051  0.2024
    4MPD2     H   57   3.867   2.143  10.796  1.3009 -1.7917 -1.6665
    4MPD2    H1   58   4.088   1.803  10.864 -1.6593 -0.6010  0.7613
    4MPD2    H2   59   3.850   1.952  11.186  3.7721  0.4200  2.0965
    4MPD2    H3   60   3.991   1.783  11.078 -1.2985 -0.2011 -0.5585
    4MPD2     N   61   4.027   2.006  10.685  0.3419  0.4840  0.3462
    4MPD2    H5   62   4.002   2.094  10.642  1.0343  0.8297  0.6491
    4MPD2    N1   63   3.738   2.151  11.037  0.1858  0.2469  0.3849
    4MPD2    H7   64   3.702   2.220  10.972 -0.4039  0.4544  0.9361
    5TCq1    O1   65   0.489   2.720  12.024  0.2577  0.1616  0.0121
    5TCq1    C1   66   0.566   2.768  11.926 -0.0124 -0.4919 -0.0611
    5TCq1    O2   67   0.666   2.712  11.879 -0.1325 -0.0091  0.5960
    5TCq1    C2   68   0.504   2.878  11.855  0.3288  0.4306 -0.2993
    5TCq1    C3   69   0.446   2.979  11.924 -0.0077  0.0668 -0.1191
    5TCq1    C4   70   0.381   3.074  11.854 -0.4204  0.5628 -0.0650
    5TCq1    C5   71   0.385   3.083  11.716  0.4178  0.1358 -0.7003
    5TCq1    C6   72   0.439   2.974  11.650 -0.8225 -0.3046 -0.1058
    5TCq1    C7   73   0.487   2.863  11.720 -0.1271  0.4583 -0.6421
    5TCq1    C8   74   0.412   2.926  11.511 -0.1307 -0.1923 -0.3616
    5TCq1    O4   75   0.472   2.824  11.473  0.5582 -0.0339  0.2047
    5TCq1    C9   76   0.312   3.178  11.926 -0.9780  0.3581  0.5865
    5TCq1    O5   77   0.250   3.262  11.852 -0.4030 -0.0025 -1.5991
    5TCq1    O6   78   0.301   3.176  12.058 -0.4994  0.0243  0.4700
    5TCq1    H1   79   0.393   2.735  12.012  0.4574  1.4733  0.0759
    5TCq1    H2   80   0.464   2.987  12.031 -1.1027 -0.9025  0.1253
    5TCq1    H3   81   0.332   3.153  11.653 -2.5670 -0.5990  0.9706
    5TCq1    H4   82   0.543   2.787  11.667  0.7534 -0.6639  1.9112
    6MPD2     C   83   0.176   3.098  11.284 -0.2295  0.1606 -0.2596
    6MPD2    C1   84   0.266   3.004  11.319 -0.7600  0.9860  0.1178
    6MPD2    C2   85   0.299   2.900  11.232  0.3799  0.7253 -0.7781
    6MPD2    C3   86   0.225   2.881  11.115  0.5418  0.1077  0.5731
    6MPD2    C4   87   0.141   2.987  11.081 -0.2376  0.2356 -0.5061
    6MPD2    C5   88   0.115   3.090  11.163  1.0203  0.4190 -0.2205
    6MPD2     H   89   0.374   2.826  11.258 -2.2502 -1.3033  0.9900
    6MPD2    H1   90   0.083   2.992  10.989 -0.5107  1.5911 -0.2495
    6MPD2    H2   91   0.141   3.185  11.339  0.5935 -0.1021  0.6848
    6MPD2    H3   92   0.063   3.176  11.121  3.0169  1.9003  0.3625
    6MPD2     N   93   0.252   2.764  11.029  0.2414  0.3870 -0.3441
    6MPD2    H5   94   0.293   2.684  11.076  0.3718  0.5278 -0.2163
    6MPD2    N1   95   0.323   3.015  11.445  0.1953  0.0729  0.4868
    6MPD2    H7   96   0.296   3.101  11.493 -0.9008 -1.4796  2.6434
    7TCq1    O1   97   1.925   2.747  12.974  0.6212  0.0742 -0.6883
    7TCq1    C1   98   1.891   2.726  12.848 -0.1116 -0.4673 -0.2981
    7TCq1    O2   99   1.809   2.802  12.792  0.8667  0.1090  0.1291
    7TCq1    C2  100   1.918   2.589  12.816  0.2731  0.2049  0.5836
    7TCq1    C3  101   1.926   2.559  12.682 -0.1930 -0.0635  0.0452
    7TCq1    C4  102   1.973   2.435  12.651  0.0417 -0.2488 -0.2311
    7TCq1    C5  103   2.016   2.341  12.744 -0.0243 -0.0150  0.4227
    7TCq1    C6  104   1.997   2.377  12.880 -0.5466  0.4059  0.6400
    7TCq1    C7  105   1.946   2.497  12.921  0.1274 -0.0753  0.5352
    7TCq1    C8  106   2.044   2.287  12.985  0.5122 -0.0295 -0.2777
    7TCq1    O4  107   2.081   2.172  12.961  0.0851 -0.4781 -0.2955
    7TCq1    C9  108   1.966   2.395  12.515  0.6845 -0.1523 -0.4763
    7TCq1    O5  109   1.899   2.468  12.431  0.1053 -0.0252 -0.0681
    7TCq1    O6  110   2.019   2.285  12.491  0.0477  0.2333  0.4854
    7TCq1    H1  111   2.002   2.692  12.999 -0.4490 -0.4647  1.4317
    7TCq1    H2  112   1.897   2.624  12.601 -0.6528 -2.8742 -2.0802
    7TCq1    H3  113   2.045   2.240  12.717  0.6362  0.5965 -1.1506
    7TCq1    H4  114   1.921   2.517  13.025 -0.8530  2.3326 -0.1639
    8MPD2     C  115   2.085   2.184  13.488 -0.7408  0.7312  0.7397
    8MPD2    C1  116   2.086   2.096  13.383 -0.4600  0.2194 -0.6016
    8MPD2    C2  117   2.077   2.145  13.256  0.2881 -0.2659 -0.0669
    8MPD2    C3  118   2.069   2.286  13.235  0.0082  0.1770 -0.0492
    8MPD2    C4  119   2.061   2.369  13.341  0.3366 -0.5751  0.8953
    8MPD2    C5  120   2.081   2.319  13.464  0.4523 -0.2975  0.7417
    8MPD2     H  121   2.076   2.076  13.172  0.3487 -0.2637 -0.0692
    8MPD2    H1  122   2.052   2.475  13.319 -1.7164 -0.9000  0.1746
    8MPD2    H2  123   2.100   2.146  13.588  2.3331 -1.7918 -0.7164
    8MPD2    H3  124   2.090   2.382  13.552 -0.0424  0.6387  0.1177
    8MPD2     N  125   2.067   2.348  13.104  0.2342  0.3618 -0.1138
    8MPD2    H5  126   2.069   2.449  13.112 -3.0288  0.4311  0.0083
    8MPD2    N1  127   2.096   1.963  13.418 -0.1510 -0.0089 -0.3804
    8MPD2    H7  128   2.118   1.938  13.514  1.0973  3.6523  0.2642
    9TCq1    O1  129   4.552   0.915  10.603  1.1327 -0.5888  0.0254
    9TCq1    C1  130   4.677   0.974  10.598  0.2144  0.2409 -0.7954
    9TCq1    O2  131   0.037   0.936  10.511  0.2581 -0.0880  0.1870
    9TCq1    C2  132   4.710   1.057  10.715 -0.0932  0.2505 -0.4772
    9TCq1    C3  133   0.121   1.097  10.732  0.1523  0.4177 -0.1256
    9TCq1    C4  134   0.158   1.200  10.816  0.2148  0.5305 -0.7742
    9TCq1    C5  135   0.063   1.270  10.884 -0.1012 -0.5312 -0.0614
    9TCq1    C6  136   4.649   1.238  10.859 -0.0523 -0.0383  0.3984
    9TCq1    C7  137   4.614   1.133  10.778 -0.1622  0.2787 -0.1328
    9TCq1    C8  138   4.548   1.300  10.945 -0.4966  0.2344  0.2365
    9TCq1    O4  139   4.582   1.410  10.982 -0.2381 -0.0182 -0.0826
    9TCq1    C9  140   0.295   1.237  10.836 -0.0293  0.0421  0.3552
    9TCq1    O5  141   0.326   1.351  10.882 -0.7849 -0.4181 -0.0112
    9TCq1    O6  142   0.378   1.156  10.788  0.5179  0.1673  0.2227
    9TCq1    H1  143   4.499   0.941  10.682  0.8196  3.3023 -1.4722
    9TCq1    H2  144   0.197   1.051  10.670  2.3477  1.1701  2.0087
    9TCq1    H3  145   0.091   1.355  10.944  0.1456 -0.8512  0.2787
    9TCq1    H4  146   4.511   1.121  10.747 -0.5592 -3.3277  2.6045
   10MPD2     C  147   4.360   1.342  11.179  0.2178 -0.1135  0.3456
   10MPD2    C1  148   4.375   1.227  11.106  0.2877 -0.3677  0.6558
   10MPD2    C2  149   4.305   1.118  11.145 -0.2627  0.3671 -0.0958
   10MPD2    C3  150   4.232   1.108  11.266  0.3369 -0.7540  0.1052
   10MPD2    C4  151   4.226   1.226  11.343 -0.8419  0.1823 -0.0995
   10MPD2    C5  152   4.284   1.345  11.297  0.2731  0.0309  0.0046
   10MPD2     H  153   4.319   1.024  11.093 -1.2228 -0.8434  1.8504
   10MPD2    H1  154   4.174   1.225  11.438  2.0364 -0.0614  1.4707
   10MPD2    H2  155   4.405   1.436  11.148 -0.5009  0.0480 -0.1988
   10MPD2    H3  156   4.272   1.435  11.355 -1.1744  0.5741 -1.1524
   10MPD2     N  157   4.198   0.984  11.330 -0.1417  0.0076  0.0796
   10MPD2    H5  158   4.179   0.992  11.430 -0.4171 -1.6789  0.1619
   10MPD2    N1  159   4.458   1.214  10.993 -0.6695 -0.3026  0.4095
   10MPD2    H7  160   4.461   1.126  10.943  0.2369 -0.0938  0.0946
   11TCq1    O1  161   1.486   0.622  13.920 -0.5379  0.2575  0.3339
   11TCq1    C1  162   1.379   0.566  13.866  1.1627 -0.1973  0.3839
   11TCq1    O2  163   1.337   0.450  13.890  0.1510  0.2879 -0.3049
   11TCq1    C2  164   1.288   0.674  13.831  0.1510  0.7178  0.6345
   11TCq1    C3  165   1.335   0.796  13.805  0.3626 -0.1626 -0.0988
   11TCq1    C4  166   1.260   0.908  13.807 -0.5047  0.4679 -0.4025
   11TCq1    C5  167   1.132   0.898  13.848 -0.1480  0.0816  0.0150
   11TCq1    C6  168   1.078   0.769  13.875  0.3173  1.1954  0.3679
   11TCq1    C7  169   1.158   0.658  13.870  0.0645 -0.2874 -0.0654
   11TCq1    C8  170   0.946   0.768  13.922  0.6281  0.3649  0.0411
   11TCq1    O4  171   0.890   0.877  13.943 -0.4965  0.1796 -0.1665
   11TCq1    C9  172   1.313   1.035  13.778 -0.1053 -0.3130  0.4114
   11TCq1    O5  173   1.432   1.049  13.738  0.1470  0.5578  0.6842
   11TCq1    O6  174   1.241   1.137  13.794  0.4120 -0.3293 -0.1561
   11TCq1    H1  175   1.490   0.720  13.925 -0.0009  0.3330 -1.4401
   11TCq1    H2  176   1.435   0.813  13.765  0.5762  3.8194  2.0920
   11TCq1    H3  177   1.083   0.991  13.872 -1.1507 -1.0409  2.3280
   11TCq1    H4  178   1.124   0.559  13.898  0.8190 -0.1447  1.3546
   12MPD2     C  179   0.660   0.691  13.970 -0.4336 -0.5774  0.1960
   12MPD2    C1  180   0.762   0.606  13.926 -0.0304 -0.8805  0.0684
   12MPD2    C2  181   0.721   0.481  13.868  0.1843  0.0605  0.1528
   12MPD2    C3  182   0.590   0.450  13.852 -0.6545 -0.4814  0.0752
   12MPD2    C4  183   0.498   0.534  13.900 -0.5815 -0.1062  0.1891
   12MPD2    C5  184   0.530   0.653  13.966  0.1317  0.3610 -0.1069
   12MPD2     H  185   0.791   0.423  13.809 -0.2521 -0.8486  0.5428
   12MPD2    H1  186   0.393   0.507  13.897 -0.5210 -0.3248  0.0905
   12MPD2    H2  187   0.684   0.788  14.010 -0.2438 -0.3719 -0.4189
   12MPD2    H3  188   0.452   0.724  13.990  0.6617  2.4362 -4.5181
   12MPD2     N  189   0.538   0.328  13.798 -0.2020 -0.4448 -0.1514
   12MPD2    H5  190   0.440   0.335  13.775  0.1642  1.7127 -1.0029
   12MPD2    N1  191   0.895   0.641  13.918 -0.5064  0.4237  0.4426
   12MPD2    H7  192   0.944   0.566  13.871  1.4023  0.5554  2.2463
   13TCq1    O1  193   0.493   0.933  10.845 -0.4069 -0.0940  0.3080
   13TCq1    C1  194   0.434   0.842  10.930  0.0378 -0.3721 -0.1317
   13TCq1    O2  195   0.442   0.719  10.927 -0.2917  0.3276  0.4788
   13TCq1    C2  196   0.327   0.909  10.988  0.0229  0.9107 -0.6123
   13TCq1    C3  197   0.350   1.028  11.051  0.1826  0.2028  0.1936
   13TCq1    C4  198   0.236   1.073  11.121  0.7484 -0.1403 -0.1372
   13TCq1    C5  199   0.111   1.016  11.111 -0.0557 -0.7187 -0.5995
   13TCq1    C6  200   0.104   0.905  11.033 -0.1977 -0.5739 -0.4123
   13TCq1    C7  201   0.211   0.837  10.991 -0.2229  0.2590 -0.0191
   13TCq1    C8  202   4.686   0.857  11.009 -0.0046  0.0649  0.1462
   13TCq1    O4  203   4.597   0.903  11.082 -0.3303  0.4329 -0.2231
   13TCq1    C9  204   0.257   1.184  11.205 -0.2072 -0.2795 -0.2099
   13TCq1    O5  205   0.157   1.225  11.268 -0.5402 -0.6844 -0.4275
   13TCq1    O6  206   0.369   1.239  11.203  0.4578 -0.3554 -0.2728
   13TCq1    H1  207   0.455   1.023  10.845 -0.3263 -0.0596  0.2981
   13TCq1    H2  208   0.449   1.072  11.056  1.1503 -1.5365 -3.2947
   13TCq1    H3  209   0.021   1.049  11.162  1.1201  1.7347 -0.1639
   13TCq1    H4  210   0.203   0.742  10.939  1.5444  1.5983 -2.7504
   14MPD2     C  211   4.584   0.619  10.765  0.0728 -0.5281  0.0136
   14MPD2    C1  212   4.569   0.706  10.868 -0.4930 -0.0614  0.2540
   14MPD2    C2  213   4.440   0.719  10.914 -0.5513 -0.3653 -0.3156
   14MPD2    C3  214   4.334   0.652  10.859 -0.1212  0.3683 -0.2754
   14MPD2    C4  215   4.350   0.593  10.733  0.5675  0.5218  0.2909
   14MPD2    C5  216   4.475   0.572  10.688  0.3074  0.1112 -0.2195
   14MPD2     H  217   4.425   0.773  11.007  2.1379 -0.3565  0.1127
   14MPD2    H1  218   4.273   0.540  10.677  3.0378  0.2189 -2.7921
   14MPD2    H2  219   4.678   0.598  10.717 -0.5371 -0.4453 -1.2222
   14MPD2    H3  220   4.491   0.516  10.597 -4.1158 -1.4781 -0.0121
   14MPD2     N  221   4.212   0.669  10.921 -0.4750  0.7817  0.2547
   14MPD2    H5  222   4.217   0.722  11.008  1.1112  0.7976  0.1536
   14MPD2    N1  223   4.680   0.771  10.908 -0.9386 -0.3394  0.4480
   14MPD2    H7  224   0.046   0.763  10.854  0.3271  2.9193  1.8928
   15TCq1    O1  225   2.425   0.268   1.315 -0.1207 -0.0256 -0.3687
   15TCq1    C1  226   2.446   0.155   1.242  0.2975 -0.1919  0.5874
   15TCq1    O2  227   2.549   0.130   1.175 -0.1665  0.7724  0.0815
   15TCq1    C2  228   2.338   0.063   1.269 -0.2038 -0.3427 -0.1714
   15TCq1    C3  229   2.222   0.119   1.293 -0.2419 -0.5803  0.7165
   15TCq1    C4  230   2.114   0.038   1.301  0.7672 -0.1836 -0.1312
   15TCq1    C5  231   2.121   4.622   1.277  0.8805  0.9457  0.1343
   15TCq1    C6  232   2.248   4.566   1.246  0.3124  0.3515  0.3849
   15TCq1    C7  233   2.362   4.647   1.244 -0.1613 -0.3632  0.1472
   15TCq1    C8  234   2.257   4.420   1.250  0.6467  0.4742  0.0513
   15TCq1    O4  235   2.360   4.366   1.297  0.1201 -0.1875  0.3450
   15TCq1    C9  236   1.988   0.100   1.336 -0.1069 -0.1740  0.1322
   15TCq1    O5  237   1.888   0.030   1.308  0.4293  0.6537  0.6795
   15TCq1    O6  238   1.987   0.207   1.396  0.2734  0.6404  0.2067
   15TCq1    H1  239   2.377   0.237   1.395 -1.2963  0.1180 -1.0186
   15TCq1    H2  240   2.208   0.225   1.309  1.8225 -0.0909 -0.8436
   15TCq1    H3  241   2.031   4.562   1.287  0.6078  0.9208 -2.3518
   15TCq1    H4  242   2.461   4.613   1.217 -0.0966 -1.6139  1.9792
   16MPD2     C  243   1.998   4.189   1.113 -0.2734 -0.1286 -0.2554
   16MPD2    C1  244   2.110   4.224   1.182  0.8584  0.3192 -0.1583
   16MPD2    C2  245   2.193   4.119   1.231  0.4956  0.0986  0.0256
   16MPD2    C3  246   2.173   3.988   1.195 -0.1890 -0.2198 -1.3359
   16MPD2    C4  247   2.065   3.960   1.112  0.7072 -0.0176 -0.7259
   16MPD2    C5  248   1.978   4.063   1.071  0.1432 -0.2421 -0.1649
   16MPD2     H  249   2.281   4.158   1.281  0.8081 -2.7623  1.6675
   16MPD2    H1  250   2.050   3.858   1.079 -2.0603 -0.2429  1.2537
   16MPD2    H2  251   1.937   4.271   1.079  1.9392  1.4005 -0.4967
   16MPD2    H3  252   1.898   4.043   1.000  1.6924  2.6946 -2.7556
   16MPD2     N  253   2.270   3.898   1.239 -0.4910  0.2180 -0.0428
   16MPD2    H5  254   2.329   3.933   1.314 -1.3605  4.6142 -1.3930
   16MPD2    N1  255   2.143   4.361   1.198  0.4443  0.4291  0.3134
   16MPD2    H7  256   2.073   4.427   1.168  0.4315  1.1399  1.8977
   17TCq1    O1  257   0.173   3.693  10.179 -0.0659  0.2812 -0.2432
   17TCq1    C1  258   0.117   3.623  10.280 -0.0212 -0.5531 -0.1861
   17TCq1    O2  259   0.173   3.527  10.330  1.0354  0.0394  0.1922
   17TCq1    C2  260   0.024   3.709  10.345 -0.5475  0.2303 -0.2109
   17TCq1    C3  261   4.649   3.639  10.418  0.3803 -0.8650 -0.3706
   17TCq1    C4  262   4.593   3.706  10.523 -0.0551  1.1790 -0.0030
   17TCq1    C5  263   4.616   3.839  10.540  0.2662  0.0188  0.2707
   17TCq1    C6  264   4.702   3.905  10.466  0.2879 -0.1424  0.2116
   17TCq1    C7  265   0.058   3.840  10.369  0.7428  0.1572 -0.0857
   17TCq1    C8  266   0.012   4.047  10.499 -0.2585  1.0128 -0.4613
   17TCq1    O4  267   4.649   4.099  10.577  0.2472 -0.1063 -0.7257
   17TCq1    C9  268   4.501   3.645  10.614  0.9359  0.3149  0.5778
   17TCq1    O5  269   4.465   3.526  10.592 -0.1436 -0.0545  0.1980
   17TCq1    O6  270   4.428   3.724  10.686 -0.4770 -0.1413 -0.3127
   17TCq1    H1  271   0.113   3.759  10.139 -0.9561 -0.9275 -0.8773
   17TCq1    H2  272   4.645   3.532  10.398 -0.3973 -0.5349 -1.9734
   17TCq1    H3  273   4.571   3.893  10.623 -2.3208 -0.4102 -0.8689
   17TCq1    H4  274   0.141   3.883  10.315  0.9611 -0.7066 -0.4491
   18MPD2     C  275   0.117   4.323  10.540  0.4242 -0.5399 -0.0808
   18MPD2    C1  276   0.186   4.223  10.473  1.0312  0.1941 -0.4359
   18MPD2    C2  277   0.308   4.261  10.430 -0.1515  0.1258 -0.1966
   18MPD2    C3  278   0.361   4.385  10.445 -0.5896  0.2917 -0.1442
   18MPD2    C4  279   0.291   4.489  10.499 -0.0506 -0.0185  0.9588
   18MPD2    C5  280   0.168   4.456  10.546  0.4890 -0.2865  0.0416
   18MPD2     H  281   0.370   4.189  10.377 -0.2745  1.2006 -1.7986
   18MPD2    H1  282   0.335   4.588  10.507  0.4053 -0.1660  0.3000
   18MPD2    H2  283   0.015   4.301  10.570  0.6087  3.1523  3.2231
   18MPD2    H3  284   0.111   4.538  10.588 -0.4319 -1.4197  1.0171
   18MPD2     N  285   0.499   4.417  10.431 -0.0817  0.4184 -0.2168
   18MPD2    H5  286   0.521   4.512  10.460 -0.2336 -0.2342  1.9855
   18MPD2    N1  287   0.134   4.093  10.451 -0.5833  0.4783  0.2530
   18MPD2    H7  288   0.197   4.023  10.414  0.2028  1.3849 -0.1433
   19TMC2    C1  289   1.375   0.463  13.526 -0.0691  0.0990  0.3801
   19TMC2    C2  290   1.247   0.511  13.536 -0.4729  0.3412  0.0811
   19TMC2    C3  291   1.158   0.409  13.547  0.1173  1.1784  0.3245
   19TMC2    C4  292   1.407   0.334  13.530 -0.3737  0.2007  0.0939
   19TMC2    C5  293   1.308   0.239  13.544  0.2377  0.2422 -0.2659
   19TMC2    C6  294   1.187   0.279  13.559 -0.0894  0.3369  0.0181
   19TMC2     C  295   1.481   0.567  13.519 -0.3965  0.3113 -0.2604
   19TMC2     O  296   1.459   0.668  13.456  0.2481  0.0202  0.4036
   19TMC2     H  297   1.226   0.613  13.563 -0.6164  0.3725 -0.1442
   19TMC2    H1  298   1.514   0.316  13.520 -0.5821 -0.7364 -0.5363
   19TMC2    H2  299   1.105   0.210  13.578  1.2814 -0.4849  3.0087
   19TMC2    C7  300   1.337   0.098  13.503  0.2539  0.0510  0.5033
   19TMC2    C8  301   1.034   0.449  13.617  0.2500 -0.8905  0.3723
   19TMC2    O1  302   1.268   0.008  13.556  0.0268  0.2597  0.2594
   19TMC2    O2  303   1.000   0.399  13.724 -0.2790  0.4661  0.4680
   19TMC2    O5  304   0.982   0.565  13.564  0.0291  0.2621 -0.1512
   19TMC2    H5  305   1.035   0.595  13.487  1.0874 -1.2136  0.0070
   20MPD2     C  306   1.712   0.747  13.582  0.5479  0.7237 -0.4396
   20MPD2    C1  307   1.690   0.623  13.640 -0.6773 -0.7154 -0.6621
   20MPD2    C2  308   1.783   0.590  13.739 -0.0109  0.1583 -0.4737
   20MPD2    C3  309   1.897   0.665  13.774 -0.2413  0.4044  0.0572
   20MPD2    C4  310   1.911   0.782  13.705  0.5852 -0.4892  0.3915
   20MPD2    C5  311   1.822   0.823  13.613 -0.9330  0.0346 -0.5748
   20MPD2     H  312   1.756   0.500  13.793  0.2274  1.2139  1.3693
   20MPD2    H1  313   1.995   0.845  13.734 -0.6889  1.8836 -1.1383
   20MPD2    H2  314   1.648   0.804  13.515  0.1035 -0.8731 -1.3785
   20MPD2    H3  315   1.822   0.925  13.577 -1.1954  0.0042 -0.6623
   20MPD2     N  316   1.986   0.629  13.882  1.0346  0.1276  0.1382
   20MPD2    H5  317   2.053   0.698  13.912 -1.1056  1.0512  2.8228
   20MPD2    N1  318   1.587   0.533  13.603  0.2890 -0.6523 -0.5894
   20MPD2    H7  319   1.582   0.439  13.642  0.6377 -0.0766  0.8339
   21MPD2     C  320   3.862   0.809  13.972  0.6511  0.5003  0.7230
   21MPD2    C1  321   3.957   0.738  14.039  0.6918  0.4920  0.7590
   21MPD2    C2  322   3.930   0.704  14.169 -0.4634  0.1818 -0.2784
   21MPD2    C3  323   3.816   0.746  14.236 -0.1519 -0.1447  0.2356
   21MPD2    C4  324   3.729   0.829  14.168 -0.1506  0.5013  0.1270
   21MPD2    C5  325   3.755   0.861  14.039  0.3198  0.4449  0.0507
   21MPD2     H  326   4.002   0.653  14.233  0.0658  1.7320  0.3541
   21MPD2    H1  327   3.635   0.867  14.207 -0.1600  0.1630  0.4329
   21MPD2    H2  328   3.876   0.841  13.870  2.2666 -3.3337 -0.2413
   21MPD2    H3  329   3.682   0.919  13.984  0.2880  1.8590  1.5937
   21MPD2     N  330   3.781   0.713  14.375 -0.1125  0.7298 -0.3820
   21MPD2    H5  331   3.715   0.774  14.421  0.6089 -0.5785  2.3990
   21MPD2    N1  332   4.075   0.693  13.984  0.3576 -0.0470  0.9590
   21MPD2    H7  333   4.140   0.651  14.050  1.0248 -0.6705 -0.0881
   22TCq2    C1  334   3.849   0.635  14.461  0.0606  0.2023 -0.4796
   22TCq2    O2  335   3.943   0.560  14.430 -0.1758  0.0681 -1.2798
   22TCq2    C2  336   3.815   0.649  14.603  0.0982 -0.7879 -0.5095
   22TCq2    C3  337   3.913   0.607  14.688 -0.6863  0.0184  0.1764
   22TCq2    C4  338   3.908   0.657  14.819  0.3292  0.3054  0.0362
   22TCq2    C5  339   3.819   0.758  14.848  0.3990 -0.4724  0.2839
   22TCq2    C6  340   3.720   0.787  14.757 -0.6683 -0.7853 -0.1160
   22TCq2    C7  341   3.711   0.727  14.641 -0.5010  0.7232  0.3291
   22TCq2    C8  342   3.623   0.883  14.809  0.0644  0.1524 -0.4007
   22TCq2    O4  343   3.651   0.921  14.925 -0.1440  0.3144  0.5052
   22TCq2    C9  344   4.013   0.629  14.915 -0.5348  0.0529  0.9097
   22TCq2    O5  345   4.108   0.563  14.873 -0.3565  0.2149 -0.1673
   22TCq2    O6  346   4.008   0.670  15.037  0.1850 -0.6864 -0.1057
   22TCq2    H2  347   4.002   0.555  14.654 -0.7632 -0.3235  0.4973
   22TCq2    H3  348   3.835   0.804  14.945 -1.7015 -1.4442  1.0850
   22TCq2    H4  349   3.634   0.757  14.570  0.7183  3.2688  0.0786
   23MPD2     C  350   0.343   1.733  14.617 -0.0955 -0.1721  0.5404
   23MPD2    C1  351   0.444   1.823  14.607  0.2156  0.5059 -0.2088
   23MPD2    C2  352   0.449   1.907  14.499 -0.3761 -0.0618  0.5508
   23MPD2    C3  353   0.356   1.896  14.399  0.5117 -0.2536  0.7447
   23MPD2    C4  354   0.248   1.814  14.417 -0.0270  0.3105  0.7214
   23MPD2    C5  355   0.248   1.727  14.522 -0.1483  0.0283 -0.3520
   23MPD2     H  356   0.521   1.989  14.495  2.3759 -2.6222 -2.6025
   23MPD2    H1  357   0.185   1.796  14.331  0.0987 -0.0327  0.7029
   23MPD2    H2  358   0.344   1.654  14.691 -2.8290 -0.0495  0.7048
   23MPD2    H3  359   0.179   1.643  14.522  2.5534 -2.1985  0.5223
   23MPD2     N  360   0.351   1.974  14.281 -0.3100 -0.9125 -0.4368
   23MPD2    H5  361   0.265   1.982  14.228 -0.0280 -1.4232 -0.9719
   23MPD2    N1  362   0.554   1.813  14.702 -0.1941 -0.1920  0.3768
   23MPD2    H7  363   0.635   1.874  14.696  0.3863 -0.7506  2.3870
   24TCq2    C1  364   0.454   2.050  14.240 -0.1298 -0.2066  0.1709
   24TCq2    O2  365   0.572   2.046  14.276  0.5492  0.2203  0.9683
   24TCq2    C2  366   0.422   2.115  14.115  0.1300 -0.5002 -0.0858
   24TCq2    C3  367   0.525   2.156  14.048  0.0820 -0.1322  0.2165
   24TCq2    C4  368   0.505   2.219  13.928 -0.2847  0.0567  0.2385
   24TCq2    C5  369   0.386   2.228  13.874  0.1265  0.4347  0.3874
   24TCq2    C6  370   0.286   2.172  13.944  0.1135 -0.9322  0.5596
   24TCq2    C7  371   0.293   2.123  14.072 -0.1542  0.1125 -0.2179
   24TCq2    C8  372   0.152   2.198  13.894 -0.4819 -0.7010  0.0782
   24TCq2    O4  373   0.134   2.304  13.840  0.2876  0.1297  0.9707
   24TCq2    C9  374   0.619   2.266  13.858 -0.3118 -1.4084  0.4754
   24TCq2    O5  375   0.721   2.278  13.935 -0.6749 -0.3395 -0.7676
   24TCq2    O6  376   0.613   2.326  13.746  0.0351  0.4304  0.1145
   24TCq2    H2  377   0.625   2.134  14.083  0.0208  0.3368  0.6768
   24TCq2    H3  378   0.368   2.280  13.780  1.2299 -1.7147 -1.0057
   24TCq2    H4  379   0.205   2.094  14.128  0.3821 -0.4426  0.3423
   25TMC2    C1  380   4.234   3.406  11.254 -0.3909 -0.2130 -0.5680
   25TMC2    C2  381   4.322   3.483  11.187 -0.3299  0.0626 -0.0725
   25TMC2    C3  382   4.346   3.611  11.226 -0.6678  0.4228 -0.0042
   25TMC2    C4  383   4.173   3.444  11.367 -0.8351 -0.2330  0.0929
   25TMC2    C5  384   4.220   3.563  11.419  0.5209  0.4348  0.4456
   25TMC2    C6  385   4.304   3.653  11.350  0.4788 -0.0674  0.1569
   25TMC2     C  386   4.161   3.301  11.186  0.2967  0.5244 -0.0089
   25TMC2     O  387   4.224   3.247  11.096  0.2394  0.3929 -0.0273
   25TMC2     H  388   4.373   3.434  11.105 -1.6374 -0.3893 -0.6044
   25TMC2    H1  389   4.117   3.373  11.426 -4.0283  1.5871 -0.7369
   25TMC2    H2  390   4.332   3.749  11.391  0.2314  0.5053 -1.0133
   25TMC2    C7  391   4.150   3.616  11.538  0.1971  0.2963  0.0738
   25TMC2    C8  392   4.455   3.690  11.180  0.1006 -0.2724 -0.1870
   25TMC2    O1  393   4.087   3.538  11.607  0.4372 -0.2612  0.3883
   25TMC2    O2  394   4.487   3.792  11.239  0.0859  0.6355 -0.6198
   25TMC2    O5  395   4.528   3.616  11.094  0.1262 -0.1928  0.1442
   25TMC2    H5  396   4.467   3.583  11.024  2.5333  0.6405 -2.3537
   26MPD2     C  397   3.754   3.011  11.046 -0.0526 -1.0767  0.1918
   26MPD2    C1  398   3.714   3.103  11.138 -0.4494 -0.0964  0.3614
   26MPD2    C2  399   3.805   3.190  11.195 -0.4704  0.0944 -0.1625
   26MPD2    C3  400   3.940   3.184  11.167  0.2579  0.6693  0.4745
   26MPD2    C4  401   3.980   3.087  11.082  0.5140  0.1293 -0.4342
   26MPD2    C5  402   3.892   3.000  11.028  0.2893 -0.4226  0.4750
   26MPD2     H  403   3.779   3.275  11.258 -0.2982  0.1351 -0.1437
   26MPD2    H1  404   4.084   3.079  11.053 -0.4226 -0.8387 -3.5043
   26MPD2    H2  405   3.695   2.937  10.993 -0.2858 -0.4841 -0.3774
   26MPD2    H3  406   3.933   2.918  10.971  1.2999 -0.5066  1.3303
   26MPD2     N  407   4.028   3.287  11.221  0.3103  0.2242  0.0094
   26MPD2    H5  408   3.993   3.361  11.282  3.3654  1.3560  0.3800
   26MPD2    N1  409   3.576   3.110  11.167  0.9914  0.2247  0.0432
   26MPD2    H7  410   3.512   3.053  11.113 -0.2351  1.3027  0.3827
   27TMC2    C1  411   2.238   0.859  11.718 -0.3338 -1.0500 -0.7447
   27TMC2    C2  412   2.289   0.852  11.593 -0.1414 -0.1694 -0.3887
   27TMC2    C3  413   2.227   0.916  11.496  0.2624 -0.0150  0.7238
   27TMC2    C4  414   2.129   0.934  11.750  0.4431  0.9367  0.4219
   27TMC2    C5  415   2.072   1.011  11.652  0.1979  0.4165  0.1542
   27TMC2    C6  416   2.119   0.999  11.526 -0.0258 -0.0250  0.1592
   27TMC2     C  417   2.301   0.784  11.821 -0.3363 -0.7338 -0.6908
   27TMC2     O  418   2.367   0.682  11.795  0.5316 -0.0363  0.3931
   27TMC2     H  419   2.376   0.796  11.561  1.7922  2.1422  0.7654
   27TMC2    H1  420   2.093   0.952  11.851  0.6584  1.1550  0.4602
   27TMC2    H2  421   2.080   1.056  11.442 -0.0473 -1.0046 -0.4893
   27TMC2    C7  422   2.035   1.146  11.696 -0.3123  0.3366 -0.5369
   27TMC2    C8  423   2.281   0.912  11.364  0.4740  0.5843  0.7269
   27TMC2    O1  424   2.000   1.160  11.813 -0.6116 -0.5216 -0.6461
   27TMC2    O2  425   2.398   0.902  11.340  0.1138 -0.1573 -0.0230
   27TMC2    O5  426   2.181   0.903  11.276 -0.0460  0.5485  0.1304
   27TMC2    H5  427   2.093   0.877  11.312  0.4871  2.2668  2.7051
   28MPD2     C  428   2.403   0.755  12.326 -0.4950 -0.0481  0.4221
   28MPD2    C1  429   2.354   0.887  12.295 -0.0277 -0.7373 -0.1484
   28MPD2    C2  430   2.335   0.921  12.163  0.5897  0.0156  0.2280
   28MPD2    C3  431   2.348   0.820  12.066 -0.3567  0.1643 -0.3370
   28MPD2    C4  432   2.400   0.692  12.097 -0.1700 -0.3458  0.4393
   28MPD2    C5  433   2.429   0.664  12.223 -0.3865  0.2524  0.3952
   28MPD2     H  434   2.315   1.023  12.133 -0.6041 -0.6519 -1.2166
   28MPD2    H1  435   2.418   0.620  12.018 -2.2976  0.3322 -0.6481
   28MPD2    H2  436   2.438   0.725  12.424  2.1445 -0.6895 -0.7120
   28MPD2    H3  437   2.464   0.565  12.249 -0.2454 -0.1039 -1.1234
   28MPD2     N  438   2.302   0.857  11.935 -0.8503 -0.3319 -0.2336
   28MPD2    H5  439   2.267   0.951  11.921 -0.3783 -0.4153 -1.9930
   28MPD2    N1  440   2.338   0.986  12.400  0.1147 -0.2338 -0.3793
   28MPD2    H7  441   2.353   0.956  12.496  2.1212  0.9373 -0.3127
   29MPD2     C  442   2.624   3.684  13.893 -0.3227  0.0716 -0.0258
   29MPD2    C1  443   2.724   3.659  13.982  1.1388 -0.3578 -0.4069
   29MPD2    C2  444   2.782   3.766  14.047 -1.2270 -0.1091 -0.1335
   29MPD2    C3  445   2.751   3.898  14.028 -0.0046  0.0466  0.0192
   29MPD2    C4  446   2.640   3.922  13.949 -0.0620 -0.3214 -0.0087
   29MPD2    C5  447   2.581   3.813  13.889  0.0274  0.0881  0.1964
   29MPD2     H  448   2.865   3.728  14.105 -1.1535  0.7361  0.3144
   29MPD2    H1  449   2.611   4.024  13.929 -1.6368 -0.3061  2.3302
   29MPD2    H2  450   2.579   3.607  13.833  3.3097 -1.6333 -0.5642
   29MPD2    H3  451   2.491   3.831  13.831 -1.1298 -0.6396  1.7444
   29MPD2     N  452   2.818   4.009  14.092 -0.7106  0.0631  0.7366
   29MPD2    H5  453   2.775   4.101  14.098 -0.5247  0.1576  0.6235
   29MPD2    N1  454   2.765   3.528  14.018 -0.8493 -0.3286  0.1761
   29MPD2    H7  455   2.852   3.521  14.069  0.1634 -1.7093 -1.7235
   30TCq2    C1  456   2.941   3.999  14.156 -0.5708 -0.3646  0.2641
   30TCq2    O2  457   3.014   3.902  14.182 -1.0321  0.4173 -0.1016
   30TCq2    C2  458   2.971   4.120  14.227  0.0674  0.8321  0.6348
   30TCq2    C3  459   2.857   4.195  14.263  0.1360 -0.1424  0.4139
   30TCq2    C4  460   2.888   4.325  14.304  0.8163 -0.4969 -0.4008
   30TCq2    C5  461   3.016   4.364  14.318 -0.1865  1.6346  0.2958
   30TCq2    C6  462   3.125   4.277  14.295  0.5021  0.5655  0.7069
   30TCq2    C7  463   3.104   4.158  14.238 -0.0780  0.6125 -0.0567
   30TCq2    C8  464   3.249   4.327  14.251 -0.1954 -0.0847  0.0198
   30TCq2    O4  465   3.282   4.293  14.139 -0.2355 -0.2662 -0.0828
   30TCq2    C9  466   2.778   4.413  14.353  0.2246  0.6626  0.4481
   30TCq2    O5  467   2.659   4.372  14.350 -0.2820  0.4694 -0.0917
   30TCq2    O6  468   2.819   4.525  14.402 -0.2459 -0.1612 -0.2921
   30TCq2    H2  469   2.758   4.152  14.271  0.2307 -0.1975  1.2530
   30TCq2    H3  470   3.038   4.454  14.373 -1.0742  2.0372 -0.0108
   30TCq2    H4  471   3.193   4.095  14.230  0.3406  1.1731  0.1974
   31MPD2     C  472   0.481   2.358  14.497 -0.4502  0.0038 -0.3190
   31MPD2    C1  473   0.545   2.470  14.547 -1.0880  0.5117  0.1563
   31MPD2    C2  474   0.552   2.488  14.682 -0.0129 -0.2082 -0.4198
   31MPD2    C3  475   0.504   2.384  14.770  0.3083  0.2170 -0.1375
   31MPD2    C4  476   0.458   2.263  14.717  0.5875 -0.2315  0.5108
   31MPD2    C5  477   0.434   2.260  14.581  0.3628 -0.4327  0.2970
   31MPD2     H  478   0.596   2.578  14.724 -1.3289  0.4714 -0.5043
   31MPD2    H1  479   0.418   2.188  14.784 -0.3397 -1.5703 -1.5437
   31MPD2    H2  480   0.473   2.355  14.389 -0.1953 -1.8920 -0.2825
   31MPD2    H3  481   0.392   2.179  14.523  1.0190  1.0527 -2.2826
   31MPD2     N  482   0.507   2.396  14.909 -0.5993  0.0537  0.0614
   31MPD2    H5  483   0.497   2.310  14.961  1.6338 -0.1614  0.1436
   31MPD2    N1  484   0.607   2.556  14.454  0.0874 -0.3447  0.2366
   31MPD2    H7  485   0.575   2.541  14.359  0.1207  1.7361 -0.1123
   32TCq2    C1  486   0.516   2.508  14.985  0.3956  0.1366  0.6462
   32TCq2    O2  487   0.533   2.622  14.947 -0.0825  0.1431 -0.3702
   32TCq2    C2  488   0.488   2.481  15.123 -0.1597  0.0816 -0.8157
   32TCq2    C3  489   0.390   2.559  15.174 -0.0719  0.1294 -0.0153
   32TCq2    C4  490   0.336   2.525  15.291  0.4553 -0.5890  0.2024
   32TCq2    C5  491   0.369   2.408  15.351  0.0638  0.3012 -0.4435
   32TCq2    C6  492   0.473   2.336  15.300 -0.1720  0.1491  0.7314
   32TCq2    C7  493   0.538   2.370  15.188  0.0674 -1.1792  0.5843
   32TCq2    C8  494   0.564   2.272  15.403 -0.5963  0.5112  0.9107
   32TCq2    O4  495   0.647   2.189  15.362  0.1687 -0.3159 -0.3852
   32TCq2    C9  496   0.250   2.613  15.361  0.3494  0.4630 -0.1296
   32TCq2    O5  497   0.189   2.560  15.459  0.1759 -0.2445  0.0351
   32TCq2    O6  498   0.277   2.736  15.346  0.0510  0.9749  0.4703
   32TCq2    H2  499   0.358   2.659  15.145 -1.1735 -0.3434 -0.4430
   32TCq2    H3  500   0.326   2.376  15.445  2.0557  0.4998  0.5436
   32TCq2    H4  501   0.628   2.318  15.156  1.2481  1.5589 -0.5302
   33MPD2     C  502   0.917   0.257  10.359 -0.1679 -0.1064  0.4255
   33MPD2    C1  503   0.823   0.174  10.298  0.6281 -0.0614  0.6150
   33MPD2    C2  504   0.714   0.227  10.236 -0.9356 -0.6682 -0.7290
   33MPD2    C3  505   0.704   0.364  10.218  0.0034  0.0410 -0.4037
   33MPD2    C4  506   0.798   0.444  10.279 -0.5672 -0.2738 -0.4376
   33MPD2    C5  507   0.898   0.390  10.353  0.1723  0.2362 -0.5527
   33MPD2     H  508   0.645   0.168  10.178 -2.0157 -0.7849  0.6861
   33MPD2    H1  509   0.804   0.549  10.254 -4.1040 -0.0837 -0.4648
   33MPD2    H2  510   0.996   0.216  10.421 -0.3223  0.2709  0.8666
   33MPD2    H3  511   0.968   0.459  10.399  0.8058  0.7145 -2.2469
   33MPD2     N  512   0.607   0.429  10.135 -0.4120 -0.0378  0.2014
   33MPD2    H5  513   0.612   0.531  10.139  1.3185 -0.1496  0.8821
   33MPD2    N1  514   0.820   0.030  10.309 -0.3111 -0.6785 -0.0920
   33MPD2    H7  515   0.749   4.698  10.257 -1.3632  0.4054  0.2576
   34TCq2    C1  516   0.512   0.373  10.056  0.2942  0.1590  0.6389
   34TCq2    O2  517   0.463   0.260  10.065  0.0026  0.2359  0.1390
   34TCq2    C2  518   0.454   0.461   9.959  0.2508  0.2628 -0.0437
   34TCq2    C3  519   0.338   0.425   9.903 -0.4269 -0.3172 -0.0577
   34TCq2    C4  520   0.295   0.487   9.793  0.5595 -0.0625 -0.0366
   34TCq2    C5  521   0.357   0.595   9.739  0.3061 -0.0392  0.3187
   34TCq2    C6  522   0.473   0.633   9.801 -0.0554 -0.1651  0.2679
   34TCq2    C7  523   0.523   0.564   9.909 -0.3760  0.1906  0.6571
   34TCq2    C8  524   0.549   0.743   9.748  0.4415  0.2267  0.9863
   34TCq2    O4  525   0.671   0.751   9.767  0.1335  0.1893 -0.4330
   34TCq2    C9  526   0.175   0.441   9.734  0.3174  0.7321 -0.1555
   34TCq2    O5  527   0.130   0.322   9.755 -0.1848  0.1535 -0.3371
   34TCq2    O6  528   0.125   0.522   9.653 -0.4070 -0.3666  0.1537
   34TCq2    H2  529   0.275   0.345   9.943 -3.0671 -0.0419 -3.6242
   34TCq2    H3  530   0.325   0.638   9.645 -1.7956  1.3580  1.6750
   34TCq2    H4  531   0.611   0.605   9.959 -0.9342  1.9831  0.1541
   35MPD2     C  532   2.126   1.940  12.079 -0.9057 -0.1913  0.1615
   35MPD2    C1  533   2.068   1.820  12.118  0.3323 -0.4267  0.5379
   35MPD2    C2  534   1.979   1.754  12.026 -0.4795 -0.0825 -0.1200
   35MPD2    C3  535   1.928   1.825  11.916  0.0497  0.7572 -0.2395
   35MPD2    C4  536   1.971   1.957  11.892 -0.8094 -0.1645  0.6777
   35MPD2    C5  537   2.070   2.008  11.971 -0.2341  0.6604  0.0246
   35MPD2     H  538   1.941   1.654  12.043  0.7041 -0.2716  1.4456
   35MPD2    H1  539   1.929   2.015  11.811  0.6630  0.1294  0.1167
   35MPD2    H2  540   2.193   1.993  12.145 -0.4593 -0.9816  0.3478
   35MPD2    H3  541   2.104   2.107  11.944  0.0332  0.7180  0.5692
   35MPD2     N  542   1.835   1.751  11.839  0.3418 -0.3514  0.1740
   35MPD2    H5  543   1.824   1.655  11.869  0.7766 -0.3958  0.1943
   35MPD2    N1  544   2.108   1.767  12.242 -0.1629  0.2180  0.0458
   35MPD2    H7  545   2.183   1.817  12.289  0.3691 -0.2474 -0.3041
   36TCq2    C1  546   1.765   1.797  11.730 -0.6175 -0.0312  0.1485
   36TCq2    O2  547   1.767   1.913  11.680  0.1691 -0.0928  0.5824
   36TCq2    C2  548   1.693   1.689  11.662 -1.1725  0.5841 -0.5912
   36TCq2    C3  549   1.589   1.730  11.577  0.2137 -0.4968  0.6803
   36TCq2    C4  550   1.518   1.631  11.522  0.1960 -0.0419 -0.6485
   36TCq2    C5  551   1.550   1.497  11.540  0.4209 -0.6583  1.1982
   36TCq2    C6  552   1.665   1.464  11.612  0.3817 -0.2659  0.3707
   36TCq2    C7  553   1.740   1.559  11.671 -0.3618 -0.2626 -0.1019
   36TCq2    C8  554   1.711   1.340  11.580  0.3721  0.0822  0.4153
   36TCq2    O4  555   1.630   1.258  11.610 -0.3018 -0.5012 -0.3675
   36TCq2    C9  556   1.404   1.670  11.439  0.2253  0.2048 -0.4202
   36TCq2    O5  557   1.394   1.794  11.418 -0.3315  0.0650 -0.0607
   36TCq2    O6  558   1.329   1.583  11.384  0.2324 -0.1861 -0.3032
   36TCq2    H2  559   1.559   1.834  11.573 -0.0305 -0.5682  0.6638
   36TCq2    H3  560   1.497   1.418  11.489  0.4439  1.0864 -1.4947
   36TCq2    H4  561   1.830   1.538  11.726 -2.0339  0.9085  3.0715
   37TMC2    C1  562   3.877   2.044  11.701  0.0782 -0.1228 -0.6164
   37TMC2    C2  563   3.876   2.080  11.572 -0.8682 -0.6169 -0.5938
   37TMC2    C3  564   3.996   2.068  11.503  0.4293  0.5897  0.3371
   37TMC2    C4  565   3.988   1.996  11.764 -0.7098  0.6230  0.0831
   37TMC2    C5  566   4.099   1.968  11.688 -0.3118  0.2732  0.4563
   37TMC2    C6  567   4.104   2.004  11.555 -0.0765 -0.8107  0.4802
   37TMC2     C  568   3.744   2.028  11.765 -0.8326 -0.0268  0.0870
   37TMC2     O  569   3.644   2.073  11.708  0.4108 -0.3794 -0.4682
   37TMC2     H  570   3.801   2.140  11.522 -0.7538 -0.6609 -0.8183
   37TMC2    H1  571   3.985   1.985  11.872  0.0404  0.0514  0.0431
   37TMC2    H2  572   4.200   1.998  11.504 -0.1589 -2.1716  0.4973
   37TMC2    C7  573   4.228   1.974  11.765 -0.0267 -0.1006  0.2437
   37TMC2    C8  574   4.019   2.138  11.374 -0.0189  0.2946  0.0842
   37TMC2    O1  575   4.222   1.911  11.869 -0.1292 -0.3325 -0.8022
   37TMC2    O2  576   3.950   2.231  11.332 -0.5517  0.0915 -0.1910
   37TMC2    O5  577   4.079   2.042  11.292 -0.1276 -0.0154 -0.4175
   37TMC2    H5  578   4.096   1.956  11.334  3.7886 -0.2444 -2.4387
   38MPD2     C  579   3.456   1.939  12.183  0.1169 -0.0431 -0.2802
   38MPD2    C1  580   3.584   1.892  12.205  0.2545 -0.4219 -0.5086
   38MPD2    C2  581   3.680   1.900  12.108  0.3642 -0.1611 -0.2110
   38MPD2    C3  582   3.649   1.963  11.987  0.2153  0.2976  0.3770
   38MPD2    C4  583   3.520   2.014  11.965  0.2428 -0.6699 -0.1529
   38MPD2    C5  584   3.429   2.001  12.064  0.5550  0.0961  0.1208
   38MPD2     H  585   3.782   1.866  12.125  0.0564 -0.4773  1.0130
   38MPD2    H1  586   3.481   2.050  11.871  0.2773  2.4075  1.0223
   38MPD2    H2  587   3.372   1.933  12.252  1.7647  2.8278  1.9606
   38MPD2    H3  588   3.327   2.032  12.041 -0.2689 -2.4148  0.3376
   38MPD2     N  589   3.756   1.975  11.892 -0.6856 -1.1864  0.1563
   38MPD2    H5  590   3.850   1.948  11.920  0.3453  2.5978  0.3473
   38MPD2    N1  591   3.628   1.841  12.329  0.1451 -0.0645  0.2130
   38MPD2    H7  592   3.723   1.806  12.339  0.9430  1.5785 -1.6066
   39MPD2     C  593   2.739   2.902   1.577 -0.7574 -1.1010  0.5217
   39MPD2    C1  594   2.713   3.035   1.575  0.1025 -0.2717  0.5721
   39MPD2    C2  595   2.608   3.073   1.499 -0.1876  0.1981  0.7193
   39MPD2    C3  596   2.534   2.980   1.419  0.6186 -0.1355 -0.7405
   39MPD2    C4  597   2.563   2.845   1.424 -0.4755  0.1986  0.1202
   39MPD2    C5  598   2.662   2.806   1.513 -0.2602 -0.0036  0.3535
   39MPD2     H  599   2.581   3.177   1.482  0.3725  0.2175 -0.0848
   39MPD2    H1  600   2.500   2.771   1.376  0.5881 -0.6537  0.0436
   39MPD2    H2  601   2.810   2.872   1.653  0.2572  0.2167  0.0934
   39MPD2    H3  602   2.681   2.701   1.531  0.3366 -0.0689 -0.6954
   39MPD2     N  603   2.418   3.018   1.340  0.3936  0.0146  0.8133
   39MPD2    H5  604   2.357   2.944   1.306 -1.3042  1.9557 -0.3434
   39MPD2    N1  605   2.790   3.127   1.649  0.2806  0.6948  0.9717
   39MPD2    H7  606   2.868   3.088   1.702  1.7932  1.2106 -0.9127
   40TCq2    C1  607   2.754   3.252   1.684 -0.0766  0.5729 -0.6247
   40TCq2    O2  608   2.640   3.292   1.692  0.1035 -0.0077  0.3568
   40TCq2    C2  609   2.858   3.314   1.756 -0.4451  0.7111 -0.3067
   40TCq2    C3  610   2.825   3.397   1.859 -1.0740  0.0141  0.0333
   40TCq2    C4  611   2.923   3.448   1.933 -0.1014 -0.3168  0.0578
   40TCq2    C5  612   3.054   3.419   1.923 -0.0521 -0.0090  0.6125
   40TCq2    C6  613   3.077   3.331   1.820 -0.3796  0.1371  0.6129
   40TCq2    C7  614   2.984   3.280   1.735 -0.0981  0.1903 -0.5216
   40TCq2    C8  615   3.209   3.285   1.803 -0.2359 -0.6100  1.3482
   40TCq2    O4  616   3.219   3.169   1.768  0.2219 -0.6607 -0.3315
   40TCq2    C9  617   2.883   3.519   2.059 -0.1974  0.2071  0.6709
   40TCq2    O5  618   2.946   3.499   2.166 -0.5322 -0.1127  0.2847
   40TCq2    O6  619   2.772   3.576   2.047 -0.8257  0.5358  0.5160
   40TCq2    H2  620   2.720   3.419   1.875 -0.6035  0.2865  2.7490
   40TCq2    H3  621   3.126   3.459   1.994  1.5975 -0.0457 -1.0359
   40TCq2    H4  622   3.023   3.235   1.644  0.3534 -0.1218 -0.1716
   41TMC2    C1  623   1.306   2.424  13.846 -0.4660 -0.6327 -0.2778
   41TMC2    C2  624   1.425   2.491  13.860  0.0163 -0.3054  0.0713
   41TMC2    C3  625   1.493   2.515  13.741  0.5610 -0.4982  0.7184
   41TMC2    C4  626   1.253   2.396  13.723 -0.1890  0.5840  0.6223
   41TMC2    C5  627   1.328   2.423  13.617 -0.2311  0.8447  0.1668
   41TMC2    C6  628   1.443   2.489  13.618 -0.3338 -0.9350 -0.4257
   41TMC2     C  629   1.251   2.341  13.955 -0.1180 -0.5287 -0.1547
   41TMC2     O  630   1.168   2.258  13.927 -0.2509 -0.5623  0.9962
   41TMC2     H  631   1.474   2.505  13.956 -0.8204 -0.2403  0.4935
   41TMC2    H1  632   1.166   2.334  13.705  1.0020 -0.4396 -1.7131
   41TMC2    H2  633   1.491   2.531  13.530 -0.7189  1.1397  0.3689
   41TMC2    C7  634   1.262   2.400  13.489  0.1832  0.8470 -0.1729
   41TMC2    C8  635   1.589   2.627  13.749 -0.1970  0.4023 -0.8046
   41TMC2    O1  636   1.141   2.411  13.498 -0.5541 -0.6109  0.2018
   41TMC2    O2  637   1.586   2.708  13.842 -0.4583  0.3165 -0.0622
   41TMC2    O5  638   1.708   2.574  13.713  0.3187  0.0053  0.4468
   41TMC2    H5  639   1.697   2.490  13.663  1.3141 -0.2285  0.6116
   42MPD2     C  640   1.192   2.171  14.197 -0.2015  0.2785 -0.0746
   42MPD2    C1  641   1.250   2.301  14.199 -0.3767  0.4108 -0.3739
   42MPD2    C2  642   1.299   2.342  14.323 -0.3431 -0.6743  0.0220
   42MPD2    C3  643   1.263   2.274  14.441  0.6925  0.2305 -0.1071
   42MPD2    C4  644   1.210   2.146  14.434 -0.1418 -0.0244  0.1430
   42MPD2    C5  645   1.187   2.096  14.310  0.7793  0.0749  0.2771
   42MPD2     H  646   1.351   2.438  14.320 -2.9042  0.7610  1.8438
   42MPD2    H1  647   1.179   2.094  14.524  1.8448  0.8426  1.3469
   42MPD2    H2  648   1.153   2.110  14.116 -0.5806  0.5593 -0.1014
   42MPD2    H3  649   1.138   2.000  14.300  0.1564  0.3798  0.4383
   42MPD2     N  650   1.267   2.333  14.572  0.0811 -0.7849  0.5194
   42MPD2    H5  651   1.227   2.269  14.640  3.0542 -1.2426  1.8160
   42MPD2    N1  652   1.288   2.375  14.086 -0.1005 -0.4387  0.0330
   42MPD2    H7  653   1.352   2.453  14.098 -0.2125 -0.1318 -1.4524
   43MPD2     C  654   3.160   0.333   1.103 -0.2107  0.1409  0.4564
   43MPD2    C1  655   3.240   0.249   1.173  0.9619  0.5032 -0.1671
   43MPD2    C2  656   3.274   0.284   1.306 -0.0999  0.4219  0.3170
   43MPD2    C3  657   3.224   0.396   1.374  0.2584  0.9909  0.4741
   43MPD2    C4  658   3.133   0.469   1.301  0.6016  0.4089 -0.7360
   43MPD2    C5  659   3.105   0.435   1.172  0.1068  0.3085 -0.7502
   43MPD2     H  660   3.337   0.223   1.369 -1.0372 -1.3932 -0.4917
   43MPD2    H1  661   3.099   0.563   1.342 -1.1315 -0.1187 -0.9387
   43MPD2    H2  662   3.111   0.314   1.008 -2.6838  0.9962  1.5748
   43MPD2    H3  663   3.047   0.505   1.114 -1.9501 -1.3841 -0.7372
   43MPD2     N  664   3.259   0.444   1.502  0.2107 -0.2938  0.3942
   43MPD2    H5  665   3.213   0.528   1.536 -0.4716 -0.7056  0.4826
   43MPD2    N1  666   3.299   0.132   1.117  0.3905 -0.1032  0.4564
   43MPD2    H7  667   3.357   0.078   1.180  1.8129  1.0476  0.1313
   44TCq2    C1  668   3.378   0.764   1.875 -0.4463  0.3117 -0.5999
   44TCq2    O2  669   3.449   0.824   1.954  0.2834 -0.1911  0.8373
   44TCq2    C2  670   3.428   0.635   1.834 -0.7529 -0.1534  0.4827
   44TCq2    C3  671   3.498   0.557   1.923 -0.6616 -0.2656  0.3906
   44TCq2    C4  672   3.506   0.417   1.913  1.3025  0.6871  0.4140
   44TCq2    C5  673   3.452   0.361   1.799  0.2823 -0.2525 -0.0365
   44TCq2    C6  674   3.387   0.439   1.707  0.4387  0.1158 -0.0583
   44TCq2    C7  675   3.378   0.575   1.719  0.5698 -0.0997  0.3050
   44TCq2    C8  676   3.357   0.383   1.584 -0.7932 -0.0933  0.2194
   44TCq2    O4  677   3.422   0.282   1.562 -0.1483  0.0693  0.0669
   44TCq2    C9  678   3.560   0.338   2.013 -0.4043 -0.0216  0.0454
   44TCq2    O5  679   3.540   0.213   2.006  0.5033 -0.5441  0.5180
   44TCq2    O6  680   3.624   0.396   2.104  0.1977 -0.2786 -0.1849
   44TCq2    H2  681   3.528   0.596   2.020 -0.2011 -2.1811  1.0164
   44TCq2    H3  682   3.451   0.253   1.791  0.6415 -0.2276 -0.4257
   44TCq2    H4  683   3.337   0.634   1.638  0.5605  1.4784  1.4531
   45TMC2    C1  684   3.346   1.563   9.633  0.1090  0.7972  0.8608
   45TMC2    C2  685   3.402   1.497   9.745  0.9461  0.2380 -0.0868
   45TMC2    C3  686   3.447   1.583   9.840 -0.2606 -0.2701 -0.1659
   45TMC2    C4  687   3.362   1.693   9.603  1.0650 -0.9439  0.4776
   45TMC2    C5  688   3.434   1.767   9.700  0.6780  1.0049 -0.2317
   45TMC2    C6  689   3.484   1.713   9.815  0.1284  0.2390 -0.0319
   45TMC2     C  690   3.251   1.476   9.565  1.3049 -0.0506  0.3270
   45TMC2     O  691   3.267   1.354   9.567 -0.0052  0.1743 -0.1034
   45TMC2     H  692   3.378   1.394   9.768  1.2033  0.4599  1.2320
   45TMC2    H1  693   3.330   1.739   9.510  1.5579  0.0769  0.8144
   45TMC2    H2  694   3.543   1.771   9.885  1.0737  0.9075 -1.3743
   45TMC2    C7  695   3.449   1.910   9.676 -0.8000  0.3313  0.3936
   45TMC2    C8  696   3.466   1.531   9.979  0.0764  0.0804 -0.4365
   45TMC2    O1  697   3.441   1.955   9.563 -1.0279 -0.1968  0.1019
   45TMC2    O2  698   3.494   1.413   9.988  0.0974 -0.2675 -0.2793
   45TMC2    O5  699   3.487   1.632  10.069 -0.0633  0.5151  0.5907
   45TMC2    H5  700   3.449   1.720  10.052  0.0848  1.3996  4.8015
   46MPD2     C  701   3.063   1.372   9.376  0.1886  0.3542 -0.3749
   46MPD2    C1  702   3.054   1.497   9.431 -0.4725 -0.1966 -0.6335
   46MPD2    C2  703   2.938   1.566   9.401 -0.2906  0.3225 -0.1719
   46MPD2    C3  704   2.827   1.497   9.350 -0.2988 -0.3276  0.5358
   46MPD2    C4  705   2.845   1.374   9.285 -0.3138  0.2712  0.2402
   46MPD2    C5  706   2.960   1.314   9.306 -0.9821 -0.1910  0.2485
   46MPD2     H  707   2.929   1.665   9.443 -0.0151  0.2450  0.0680
   46MPD2    H1  708   2.769   1.310   9.243  1.3849  0.0420 -2.4912
   46MPD2    H2  709   3.151   1.310   9.390  1.7689  2.7278  0.2049
   46MPD2    H3  710   2.969   1.214   9.265  1.0999  0.3219 -0.5493
   46MPD2     N  711   2.702   1.562   9.358 -0.0398  0.5460  0.6994
   46MPD2    H5  712   2.704   1.652   9.406  1.6605  1.4634 -1.1238
   46MPD2    N1  713   3.154   1.551   9.504 -1.1762  0.0274  0.3318
   46MPD2    H7  714   3.146   1.649   9.530  1.7073  0.6879 -1.2776
   47TMC2    C1  715   1.023   2.829   9.114  0.3230  0.6907  0.3047
   47TMC2    C2  716   0.989   2.697   9.101  0.5428 -0.2801 -0.2749
   47TMC2    C3  717   0.851   2.666   9.120  0.3012  0.0822 -0.2311
   47TMC2    C4  718   0.935   2.923   9.146 -0.1080  0.3892  0.4768
   47TMC2    C5  719   0.803   2.887   9.164  0.0735 -0.0584 -1.0794
   47TMC2    C6  720   0.761   2.758   9.162  0.3518  0.6857  0.2702
   47TMC2     C  721   1.165   2.858   9.136 -0.5489  0.6485 -0.3028
   47TMC2     O  722   1.197   2.972   9.153 -0.3749  0.9635 -0.0851
   47TMC2     H  723   1.058   2.624   9.061  1.2862 -0.8513  2.0599
   47TMC2    H1  724   0.971   3.022   9.171  1.2211  0.1889 -0.6104
   47TMC2    H2  725   0.657   2.728   9.171  0.2508  1.7556  2.9175
   47TMC2    C7  726   0.697   2.986   9.170 -0.0783 -0.2391 -0.1295
   47TMC2    C8  727   0.825   2.529   9.127  0.6173 -0.2592  0.1007
   47TMC2    O1  728   0.584   2.944   9.195 -0.0645  0.6093  0.2117
   47TMC2    O2  729   0.889   2.456   9.055  0.9319  0.5007  0.3213
   47TMC2    O5  730   0.698   2.510   9.178 -0.5903 -0.1290  0.6178
   47TMC2    H5  731   0.680   2.561   9.260  3.6869  0.5367  1.1512
   48MPD2     C  732   1.453   2.841   9.191 -0.9953  0.8625 -0.1586
   48MPD2    C1  733   1.374   2.735   9.207  0.4357 -0.3728 -0.2214
   48MPD2    C2  734   1.413   2.620   9.266 -0.2814  0.3157  0.2750
   48MPD2    C3  735   1.549   2.612   9.313 -0.2047 -0.4124 -0.5314
   48MPD2    C4  736   1.633   2.715   9.287  0.1806  0.3251 -0.3323
   48MPD2    C5  737   1.586   2.832   9.228  0.2439 -0.5303 -0.1257
   48MPD2     H  738   1.339   2.544   9.289  0.3081 -0.0522  0.9457
   48MPD2    H1  739   1.737   2.710   9.319 -0.3923 -1.9250  1.1521
   48MPD2    H2  740   1.419   2.920   9.125 -0.3549  1.1067 -0.1970
   48MPD2    H3  741   1.650   2.919   9.229  0.9579 -1.0505 -0.9351
   48MPD2     N  742   1.584   2.488   9.375 -0.0106  0.4085  0.5624
   48MPD2    H5  743   1.509   2.419   9.378  1.3975 -1.2711 -3.0421
   48MPD2    N1  744   1.240   2.742   9.166 -0.4074  0.1367  0.1324
   48MPD2    H7  745   1.193   2.652   9.165  0.3930 -0.2855  0.1411
   49MPD2     C  746   3.779   4.607   9.773  0.7399  0.0031 -0.6655
   49MPD2    C1  747   3.792   4.540   9.887  0.0757 -0.4724  0.1501
   49MPD2    C2  748   3.842   4.614   9.999  0.4121 -0.1526  1.5105
   49MPD2    C3  749   3.888   0.027   9.990 -0.5095  0.6768  0.0924
   49MPD2    C4  750   3.871   0.091   9.869 -0.0523 -0.5102 -0.0150
   49MPD2    C5  751   3.817   0.023   9.764  0.5468 -0.1418  0.2560
   49MPD2     H  752   3.860   4.552  10.085  2.1275 -0.7726  0.6997
   49MPD2    H1  753   3.897   0.196   9.866  0.1061 -0.6198 -2.2487
   49MPD2    H2  754   3.747   4.567   9.678 -0.3069 -0.2666 -0.1995
   49MPD2    H3  755   3.818   0.073   9.668 -1.7183  0.0817  0.3517
   49MPD2     N  756   3.939   0.099  10.099  0.0423  0.1380  0.2447
   49MPD2    H5  757   3.969   0.193  10.079 -1.8886  0.5548 -0.6070
   49MPD2    N1  758   3.749   4.401   9.896 -0.4457 -0.1672  0.1024
   49MPD2    H7  759   3.764   4.348   9.982  1.0425 -1.1604 -0.7651
   50TCq2    C1  760   3.690   4.333   9.790 -0.0249  0.1022 -0.7524
   50TCq2    O2  761   3.626   4.371   9.693 -0.0099  0.4884 -0.0294
   50TCq2    C2  762   3.689   4.191   9.811 -0.2848 -0.5435 -0.2655
   50TCq2    C3  763   3.603   4.122   9.731  0.1344  0.3903 -0.5355
   50TCq2    C4  764   3.600   3.984   9.738 -0.5258  0.2187 -0.1106
   50TCq2    C5  765   3.676   3.923   9.841  0.0999  0.7619 -0.5861
   50TCq2    C6  766   3.749   4.000   9.930  0.0650  0.1959  0.0783
   50TCq2    C7  767   3.763   4.134   9.914  0.1445  0.5914  0.6536
   50TCq2    C8  768   3.810   3.926  10.046 -0.4490  0.5391 -0.4373
   50TCq2    O4  769   3.799   3.801  10.048  0.5101  0.4223  0.5893
   50TCq2    C9  770   3.502   3.908   9.667  0.0124 -0.3505  0.3114
   50TCq2    O5  771   3.427   3.971   9.586 -0.3812 -0.1110  0.1793
   50TCq2    O6  772   3.483   3.789   9.707 -0.0859 -0.3811 -0.2099
   50TCq2    H2  773   3.543   4.171   9.655  0.2084 -1.5858 -1.8517
   50TCq2    H3  774   3.662   3.817   9.859 -1.1999  1.4174  2.1638
   50TCq2    H4  775   3.856   4.174   9.953  0.3908  1.2800 -0.6380
   51MPD2     C  776   3.814   3.047   0.876  0.5205  0.3435 -0.2056
   51MPD2    C1  777   3.934   2.991   0.909 -0.0598  0.0140 -0.1861
   51MPD2    C2  778   4.039   3.070   0.964 -0.0873  0.6905  0.4950
   51MPD2    C3  779   4.012   3.203   0.994  0.4332  0.0304 -0.2838
   51MPD2    C4  780   3.879   3.249   0.983  0.0596  0.0226 -0.0086
   51MPD2    C5  781   3.788   3.175   0.914  0.6020  0.0319 -0.0278
   51MPD2     H  782   4.136   3.025   0.984  0.0395  0.1938 -1.1945
   51MPD2    H1  783   3.848   3.350   1.008 -0.5416  0.7260 -3.5617
   51MPD2    H2  784   3.728   2.989   0.843 -0.9375  0.9755  2.4648
   51MPD2    H3  785   3.696   3.224   0.886  0.2706 -0.6808 -0.1770
   51MPD2     N  786   4.113   3.279   1.066  0.2034  0.0417 -0.7284
   51MPD2    H5  787   4.190   3.234   1.113  0.8778  0.0376 -1.8305
   51MPD2    N1  788   3.960   2.858   0.893 -0.0721  0.0756 -0.7475
   51MPD2    H7  789   4.043   2.828   0.943 -0.4274 -0.5956 -0.5612
   52TCq2    C1  790   4.110   3.416   1.084  0.1906 -0.0663  0.3167
   52TCq2    O2  791   4.034   3.491   1.027  0.1337  0.3517  0.0194
   52TCq2    C2  792   4.213   3.462   1.183  0.5175 -0.0279 -0.2348
   52TCq2    C3  793   4.284   3.372   1.259  0.7134 -0.0194  0.6321
   52TCq2    C4  794   4.393   3.418   1.316 -0.0651  0.3945  0.7568
   52TCq2    C5  795   4.441   3.548   1.297  0.4138  0.1719 -0.5125
   52TCq2    C6  796   4.365   3.628   1.228 -0.3821  0.1865 -0.2909
   52TCq2    C7  797   4.244   3.590   1.173 -0.6186 -0.6342 -0.1517
   52TCq2    C8  798   4.429   3.748   1.176  0.0822  0.6913 -0.3928
   52TCq2    O4  799   4.524   3.794   1.241 -0.1846 -0.7890  0.3228
   52TCq2    C9  800   4.472   3.327   1.399 -0.0512  1.5214  0.5107
   52TCq2    O5  801   4.554   3.377   1.482  0.8265 -0.1560  0.2073
   52TCq2    O6  802   4.444   3.201   1.386  0.3058 -0.1785 -0.3292
   52TCq2    H2  803   4.255   3.268   1.271 -1.6148  0.2458 -2.6907
   52TCq2    H3  804   4.532   3.586   1.341 -0.6572  1.7081  0.3814
   52TCq2    H4  805   4.173   3.660   1.129 -0.5661  0.5327  1.5994
   53TMC2    C1  806   4.683   2.004  12.316  0.5603  1.0152  0.9797
   53TMC2    C2  807   0.038   2.056  12.419  0.5130 -0.9489  0.1135
   53TMC2    C3  808   4.709   2.034  12.545  0.5545 -0.4559  0.6701
   53TMC2    C4  809   4.573   1.927  12.335  0.5843  0.0097 -0.4960
   53TMC2    C5  810   4.532   1.900  12.461  0.1658 -0.2139 -0.1752
   53TMC2    C6  811   4.602   1.948  12.570  0.2625  0.0990  0.1332
   53TMC2     C  812   4.698   2.086  12.205 -0.1898 -0.4490  0.2534
   53TMC2     O  813   0.082   2.153  12.189  0.5746  0.3100  0.5325
   53TMC2     H  814   0.122   2.123  12.409 -0.0824 -0.1769  0.3195
   53TMC2    H1  815   4.515   1.888  12.252 -0.1516  1.7467 -0.8036
   53TMC2    H2  816   4.555   1.943  12.667 -0.8273  0.5792 -0.3679
   53TMC2    C7  817   4.393   1.918  12.471  0.1585  0.2180 -0.3420
   53TMC2    C8  818   0.086   2.068  12.648 -0.0032  0.0385  0.8509
   53TMC2    O1  819   4.345   1.983  12.378 -0.6474 -0.0436  0.0497
   53TMC2    O2  820   0.200   2.099  12.612  0.2860 -0.1684  0.3835
   53TMC2    O5  821   0.064   1.986  12.754  0.0515 -0.3468 -0.0506
   53TMC2    H5  822   4.691   1.992  12.787 -0.8689  0.1202 -2.7254
   54MPD2     C  823   4.654   2.208  11.933  0.0480 -0.2984  0.2960
   54MPD2    C1  824   4.573   2.113  11.990  0.2759 -0.2060 -0.4703
   54MPD2    C2  825   4.466   2.068  11.918 -0.0156  0.5465 -0.0169
   54MPD2    C3  826   4.439   2.114  11.787 -0.1272 -0.0268 -0.5273
   54MPD2    C4  827   4.519   2.212  11.730  1.1601  0.0739 -0.5220
   54MPD2    C5  828   4.629   2.249  11.804 -0.2640 -0.7645 -0.4513
   54MPD2     H  829   4.401   1.997  11.968  2.3594 -1.2963  0.4891
   54MPD2    H1  830   4.505   2.264  11.636  3.7431  0.5885 -0.6357
   54MPD2    H2  831   0.008   2.266  11.988  1.2665 -0.7593 -0.8233
   54MPD2    H3  832   4.701   2.316  11.758 -1.1689 -0.0745 -0.8557
   54MPD2     N  833   4.319   2.071  11.721 -0.0866  0.1739  0.4518
   54MPD2    H5  834   4.307   2.116  11.631 -1.9682  2.3228  1.7841
   54MPD2    N1  835   4.593   2.056  12.117  0.2639 -0.2694 -0.2987
   54MPD2    H7  836   4.529   1.984  12.148  0.6176  0.1987  1.5771
   55MPD2     C  837   0.904   3.530   0.295 -0.0230 -0.6630 -0.7197
   55MPD2    C1  838   0.818   3.510   0.398 -0.7224  0.5071  0.5074
   55MPD2    C2  839   0.723   3.609   0.419  0.7697  1.0295 -0.2483
   55MPD2    C3  840   0.716   3.724   0.335 -0.8951 -0.2874  0.1473
   55MPD2    C4  841   0.808   3.739   0.226 -0.1815  0.2030 -0.5693
   55MPD2    C5  842   0.900   3.640   0.208  0.1574  0.5760 -0.3396
   55MPD2     H  843   0.647   3.594   0.495  0.9925  0.6828 -0.0967
   55MPD2    H1  844   0.795   3.817   0.152 -0.2915 -0.8889 -1.7138
   55MPD2    H2  845   0.984   3.459   0.274 -0.5730 -1.4069 -0.2689
   55MPD2    H3  846   0.965   3.644   0.121  1.2840 -2.1091  0.3654
   55MPD2     N  847   0.612   3.813   0.372 -0.4632 -0.3468  0.0971
   55MPD2    H5  848   0.564   3.787   0.457 -1.2323  1.7433  0.3020
   55MPD2    N1  849   0.815   3.387   0.469  0.1351 -0.2704 -0.6082
   55MPD2    H7  850   0.869   3.312   0.427  0.3399  0.9281 -2.5114
   56TCq2    C1  851   0.740   3.358   0.583 -0.3601  0.0898  0.4065
   56TCq2    O2  852   0.656   3.423   0.645  0.1276 -0.6673  0.2917
   56TCq2    C2  853   0.780   3.226   0.639 -0.5601 -0.1745  0.4966
   56TCq2    C3  854   0.888   3.154   0.593  0.2091 -0.2267  0.3143
   56TCq2    C4  855   0.912   3.021   0.620  0.1349 -0.0130 -0.3299
   56TCq2    C5  856   0.823   2.965   0.711 -1.1186 -0.5976 -0.0153
   56TCq2    C6  857   0.722   3.037   0.762 -0.9134  0.4910 -0.2111
   56TCq2    C7  858   0.690   3.166   0.720 -0.3027 -0.3997  0.0163
   56TCq2    C8  859   0.620   2.963   0.834  0.0734  0.1649 -0.4420
   56TCq2    O4  860   0.641   2.843   0.852 -0.3548 -0.3165  0.3303
   56TCq2    C9  861   1.011   2.936   0.548 -0.4312  0.3570 -0.0978
   56TCq2    O5  862   1.003   2.816   0.567 -0.6230 -0.7966  0.1527
   56TCq2    O6  863   1.062   2.990   0.449  0.0605 -0.0743  1.2840
   56TCq2    H2  864   0.957   3.204   0.526  0.9496 -0.7187  0.6980
   56TCq2    H3  865   0.841   2.862   0.738 -0.9770 -0.1779  1.4860
   56TCq2    H4  866   0.602   3.220   0.753 -1.3599 -2.0046 -0.1757
   57TMC2    C1  867   4.676   0.877  13.619 -0.4430 -0.2493  0.3782
   57TMC2    C2  868   0.062   0.826  13.691  0.2329  0.6816 -0.9022
   57TMC2    C3  869   0.164   0.767  13.620  0.6355 -0.4195  0.3370
   57TMC2    C4  870   4.675   0.867  13.485  0.7582  0.2573 -0.5810
   57TMC2    C5  871   0.054   0.797  13.421 -0.0214  1.0442  0.7272
   57TMC2    C6  872   0.161   0.747  13.487 -0.0345 -0.3327 -0.6591
   57TMC2     C  873   4.565   0.923  13.700  0.4788 -0.2415 -0.3321
   57TMC2     O  874   4.586   0.945  13.817  0.3274  0.2383  0.2304
   57TMC2     H  875   0.063   0.848  13.798  0.7542 -2.3239 -0.2883
   57TMC2    H1  876   4.589   0.911  13.435  0.5939  0.5514 -0.0311
   57TMC2    H2  877   0.244   0.701  13.434 -0.3837 -0.1525 -1.3570
   57TMC2    C7  878   0.022   0.743  13.288 -0.1872 -0.0659 -0.7057
   57TMC2    C8  879   0.250   0.674  13.687  0.5315  0.1556  0.3557
   57TMC2    O1  880   4.638   0.773  13.234  0.0126  0.0136  0.4308
   57TMC2    O2  881   0.306   0.578  13.635 -0.0683 -0.0811  0.3071
   57TMC2    O5  882   0.235   0.694  13.822 -0.0685 -0.1342  0.0347
   57TMC2    H5  883   0.214   0.785  13.854 -0.8212 -0.5318  0.6719
   58MPD2     C  884   4.074   1.045  13.776 -0.1265  0.0869 -0.3063
   58MPD2    C1  885   4.181   1.050  13.864 -0.6696 -0.4825  0.5119
   58MPD2    C2  886   4.307   1.012  13.813 -0.0415 -0.0904  0.0661
   58MPD2    C3  887   4.325   0.977  13.678  0.4021 -0.1647  0.1809
   58MPD2    C4  888   4.215   0.971  13.601  0.2494 -0.2548  0.1277
   58MPD2    C5  889   4.090   1.006  13.643  0.4173 -0.3263 -0.4098
   58MPD2     H  890   4.389   1.007  13.884  0.5330 -2.7551 -0.8063
   58MPD2    H1  891   4.222   0.940  13.498 -0.6905  0.3456 -0.1129
   58MPD2    H2  892   3.976   1.079  13.809  0.2478 -1.8784  2.7353
   58MPD2    H3  893   4.000   0.989  13.585 -0.0527 -1.0758  0.5411
   58MPD2     N  894   4.453   0.941  13.630  0.0573  0.1716  0.1364
   58MPD2    H5  895   4.464   0.911  13.534 -2.2785 -2.9110  0.8647
   58MPD2    N1  896   4.173   1.082  14.003  0.5031  1.1404 -0.0251
   58MPD2    H7  897   4.251   1.044  14.056  0.7087 -1.3962 -2.1446
   59MPD2     C  898   1.903   0.627  13.196 -0.1810 -0.3827  0.0386
   59MPD2    C1  899   1.984   0.667  13.085 -0.7048  0.4520 -0.2556
   59MPD2    C2  900   2.094   0.750  13.110 -0.0963 -0.1923  0.0772
   59MPD2    C3  901   2.124   0.793  13.236  0.1149  0.2042 -0.4217
   59MPD2    C4  902   2.049   0.747  13.343 -0.6387  0.0362 -0.1977
   59MPD2    C5  903   1.939   0.669  13.320 -0.0888 -0.5745  0.2446
   59MPD2     H  904   2.163   0.781  13.032  1.0493 -3.2873 -0.1216
   59MPD2    H1  905   2.067   0.771  13.447 -0.4466  0.8630 -0.4189
   59MPD2    H2  906   1.811   0.569  13.189 -1.2458  1.5299 -2.0775
   59MPD2    H3  907   1.875   0.638  13.402 -0.9593 -0.6974 -0.4787
   59MPD2     N  908   2.226   0.879  13.271 -0.0212 -0.5002 -0.2854
   59MPD2    H5  909   2.233   0.898  13.371 -2.2917  1.2876 -0.4632
   59MPD2    N1  910   1.959   0.625  12.948  0.3914 -0.6735  0.8014
   59MPD2    H7  911   2.017   0.649  12.869 -1.4253  3.0605  0.6014
   60TCq2    C1  912   1.865   0.526  12.910 -0.1772 -0.6621  0.3980
   60TCq2    O2  913   1.788   0.461  12.976 -0.8096 -0.1239 -0.3955
   60TCq2    C2  914   1.862   0.495  12.768 -0.3581  0.6678  0.3503
   60TCq2    C3  915   1.816   0.371  12.736  0.1922  0.0807  0.0394
   60TCq2    C4  916   1.800   0.340  12.608 -0.5243  0.2744  0.7427
   60TCq2    C5  917   1.817   0.428  12.510 -0.3600 -0.5197 -0.2335
   60TCq2    C6  918   1.854   0.553  12.547 -0.1881  0.0374 -0.0489
   60TCq2    C7  919   1.885   0.592  12.675 -0.2124 -0.3493 -0.2799
   60TCq2    C8  920   1.901   0.629  12.434 -0.2599 -0.3825 -0.3017
   60TCq2    O4  921   1.969   0.562  12.356  0.3872 -0.2087 -0.1264
   60TCq2    C9  922   1.773   0.202  12.572 -0.4580  0.5068 -0.2813
   60TCq2    O5  923   1.814   0.118  12.657 -0.1412  0.1336  0.1144
   60TCq2    O6  924   1.730   0.185  12.452 -0.3336  0.1168  0.3808
   60TCq2    H2  925   1.794   0.291  12.807 -2.1378  2.4992  2.0630
   60TCq2    H3  926   1.799   0.402  12.406 -1.1138 -0.2029 -0.1792
   60TCq2    H4  927   1.929   0.688  12.699  0.1754 -0.5804 -0.0577
   61MPD2     C  928   2.003   2.324  14.726 -0.1061 -0.5822  0.5532
   61MPD2    C1  929   2.105   2.387  14.791  0.3296 -0.2607  0.1499
   61MPD2    C2  930   2.179   2.477  14.721  0.0449 -0.4566  0.2966
   61MPD2    C3  931   2.152   2.499  14.588  0.1899  0.0238 -0.3278
   61MPD2    C4  932   2.043   2.449  14.527  0.6998  0.8456  0.8812
   61MPD2    C5  933   1.965   2.367  14.597  1.0918 -0.2312  0.6334
   61MPD2     H  934   2.262   2.522  14.774 -1.2338 -0.1483  2.0516
   61MPD2    H1  935   2.023   2.471  14.422 -2.0534 -1.0500  1.0100
   61MPD2    H2  936   1.922   2.267  14.770 -1.7509  1.8329  0.6713
   61MPD2    H3  937   1.884   2.317  14.546  1.6774 -1.0956  0.5474
   61MPD2     N  938   2.226   2.591  14.515  0.0710  0.0553 -0.0844
   61MPD2    H5  939   2.186   2.638  14.435 -2.0460 -1.8139 -0.1188
   61MPD2    N1  940   2.134   2.361  14.925  0.5320  0.2647  0.6295
   61MPD2    H7  941   2.207   2.423  14.958  0.7831  0.1212  0.3449
   62TCq2    C1  942   2.068   2.273  15.007 -0.5547  0.2100 -0.1932
   62TCq2    O2  943   2.000   2.176  14.971  0.3313 -0.1088 -0.7765
   62TCq2    C2  944   2.092   2.286  15.151 -0.5730  0.3332  0.2870
   62TCq2    C3  945   2.017   2.206  15.243  0.2470  0.0127  0.1055
   62TCq2    C4  946   2.008   2.246  15.373 -0.4933  0.4639 -0.0581
   62TCq2    C5  947   2.065   2.368  15.409  0.0426  0.1134  0.2410
   62TCq2    C6  948   2.128   2.451  15.319 -0.1839 -0.2907 -0.4178
   62TCq2    C7  949   2.138   2.412  15.190 -0.3159 -1.0821  0.1387
   62TCq2    C8  950   2.105   2.594  15.330 -0.2753  0.4562 -0.2235
   62TCq2    O4  951   2.067   2.658  15.231 -0.4176  0.1805  0.2862
   62TCq2    C9  952   1.908   2.187  15.458 -0.3516 -0.0300  0.1720
   62TCq2    O5  953   1.827   2.105  15.404  0.0172  0.3190  0.1314
   62TCq2    O6  954   1.902   2.219  15.580  0.1867  0.8897 -0.2103
   62TCq2    H2  955   1.958   2.121  15.211 -2.2311  2.1609 -1.0669
   62TCq2    H3  956   2.042   2.406  15.508 -1.4089  1.9688 -0.8027
   62TCq2    H4  957   2.193   2.478  15.124 -0.4973  1.0438  2.0800
   63TMC2    C1  958   1.361   2.378  10.732 -0.6794 -0.4046  0.4710
   63TMC2    C2  959   1.448   2.401  10.833 -0.1670 -0.6327  0.0469
   63TMC2    C3  960   1.566   2.463  10.793  0.4433  0.4919  0.8651
   63TMC2    C4  961   1.389   2.410  10.601  0.2282 -0.2586  0.3222
   63TMC2    C5  962   1.508   2.472  10.570 -0.1219 -0.4766 -0.1171
   63TMC2    C6  963   1.597   2.503  10.671 -0.3335  0.3082  0.2455
   63TMC2     C  964   1.240   2.307  10.769 -0.7496  0.1885 -0.4802
   63TMC2     O  965   1.183   2.347  10.873  0.4273 -0.0728 -0.5720
   63TMC2     H  966   1.428   2.376  10.936 -1.2590 -1.6074 -0.4043
   63TMC2    H1  967   1.321   2.391  10.519  0.9119  1.4113 -0.6339
   63TMC2    H2  968   1.683   2.566  10.650 -0.7817  0.1920 -1.9695
   63TMC2    C7  969   1.512   2.542  10.439 -0.3939  0.0391  0.1341
   63TMC2    C8  970   1.670   2.481  10.887  0.7235  0.3048  0.6015
   63TMC2    O1  971   1.456   2.484  10.348  0.0935  0.2870 -0.0426
   63TMC2    O2  972   1.639   2.506  11.002 -0.6938  0.4379 -0.0835
   63TMC2    O5  973   1.752   2.375  10.853 -0.0282  0.6547 -0.1760
   63TMC2    H5  974   1.789   2.390  10.763 -2.3030  2.3610 -0.8127
   64MPD2     C  975   0.807   2.053  10.648  0.0064  1.1764  0.0633
   64MPD2    C1  976   0.913   2.020  10.557  0.1269  0.0926 -0.1320
   64MPD2    C2  977   1.031   2.089  10.567  0.1964  0.4359 -0.2150
   64MPD2    C3  978   1.064   2.178  10.666  0.0562 -0.2369 -0.3633
   64MPD2    C4  979   0.954   2.222  10.741 -0.4499  0.0720  0.1813
   64MPD2    C5  980   0.830   2.162  10.733  0.4190 -0.6544 -0.5206
   64MPD2     H  981   1.102   2.056  10.492 -1.3191 -1.6453 -0.7599
   64MPD2    H1  982   0.956   2.296  10.820 -0.4976  0.0557  0.1985
   64MPD2    H2  983   0.711   2.004  10.650  0.1732  0.7974 -0.8913
   64MPD2    H3  984   0.746   2.200  10.789  1.1342  0.2887 -0.0727
   64MPD2     N  985   1.184   2.234  10.663 -0.1215 -0.3726  0.8192
   64MPD2    H5  986   1.249   2.198  10.594 -0.7827  0.4035 -0.2206
   64MPD2    N1  987   0.902   1.923  10.458  0.2552 -0.3184 -0.5042
   64MPD2    H7  988   0.983   1.915  10.397  1.3465 -1.3294  1.0830
   65MPD2     C  989   2.217   1.703  15.662  0.2028 -0.2155 -0.2175
   65MPD2    C1  990   2.239   1.697  15.526 -0.8252 -0.0975  0.3069
   65MPD2    C2  991   2.242   1.571  15.464  0.0450 -0.4704 -0.0033
   65MPD2    C3  992   2.233   1.454  15.542  0.0980 -0.7197 -0.2921
   65MPD2    C4  993   2.211   1.467  15.677 -0.4403 -0.2457  0.8981
   65MPD2    C5  994   2.207   1.588  15.733  0.3867  0.4093  0.9258
   65MPD2     H  995   2.263   1.568  15.357 -0.8428 -1.1318 -0.1518
   65MPD2    H1  996   2.201   1.388  15.751 -3.6251  1.2118  2.0172
   65MPD2    H2  997   2.202   1.796  15.717 -0.4420 -1.9212  2.4776
   65MPD2    H3  998   2.186   1.592  15.840 -0.3591  1.2647  0.7397
   65MPD2     N  999   2.246   1.326  15.487  0.1971  0.2454  0.5100
   65MPD2    H5 1000   2.240   1.249  15.552  1.0384 -1.7227 -1.7527
   65MPD2    N1 1001   2.253   1.812  15.444 -0.0966  0.2923  0.2430
   65MPD2    H7 1002   2.268   1.786  15.347  1.1774  0.6757  0.3353
   66TCq2    C1 1003   2.241   1.942  15.492 -0.1702 -0.1488  0.1237
   66TCq2    O2 1004   2.200   1.986  15.598  0.3695  0.2058  0.0442
   66TCq2    C2 1005   2.297   2.033  15.392 -0.7145 -0.3044 -0.4751
   66TCq2    C3 1006   2.306   1.998  15.260  0.3629  0.1849  0.4035
   66TCq2    C4 1007   2.378   2.082  15.181  0.0480  0.2746  0.2975
   66TCq2    C5 1008   2.434   2.197  15.231  0.1754  0.1327 -0.1845
   66TCq2    C6 1009   2.421   2.225  15.363  0.2076  0.5377  0.5735
   66TCq2    C7 1010   2.350   2.145  15.440 -0.2981  0.0108  0.1706
   66TCq2    C8 1011   2.467   2.356  15.423 -0.1076 -0.0872 -0.4176
   66TCq2    O4 1012   2.472   2.359  15.545  0.7668 -0.4963  0.0024
   66TCq2    C9 1013   2.371   2.074  15.036  0.4292  0.0595  0.7200
   66TCq2    O5 1014   2.315   1.971  14.986  0.4112  0.0085  0.2510
   66TCq2    O6 1015   2.411   2.176  14.972 -0.3031  0.4020 -0.0656
   66TCq2    H2 1016   2.250   1.913  15.222 -2.8900  1.9460  1.3011
   66TCq2    H3 1017   2.502   2.253  15.168  0.6610 -1.6083 -1.2197
   66TCq2    H4 1018   2.322   2.174  15.540  0.9048  0.9463  0.2347
   67MPD2     C 1019   2.017   1.439  13.887  0.0184  0.3603 -0.0633
   67MPD2    C1 1020   2.068   1.569  13.909 -0.8462 -0.3178 -0.7531
   67MPD2    C2 1021   1.998   1.674  13.851  0.1520  0.2064 -0.1044
   67MPD2    C3 1022   1.878   1.650  13.782  1.0089  0.2486  0.8177
   67MPD2    C4 1023   1.823   1.526  13.779  0.3030  0.2481  0.1963
   67MPD2    C5 1024   1.897   1.421  13.824  0.0342  0.7073 -0.0316
   67MPD2     H 1025   2.038   1.772  13.875  1.5409 -0.5704  0.7475
   67MPD2    H1 1026   1.726   1.507  13.735  1.0141 -1.8198 -0.4966
   67MPD2    H2 1027   2.058   1.347  13.928  0.0883 -0.0907 -1.1432
   67MPD2    H3 1028   1.843   1.327  13.824  0.6346  0.3617 -0.7245
   67MPD2     N 1029   1.812   1.752  13.719 -0.2361  0.6818  0.7209
   67MPD2    H5 1030   1.719   1.725  13.687  1.3435 -0.4821 -2.9408
   67MPD2    N1 1031   2.185   1.600  13.983  0.0117  0.1969 -0.5083
   67MPD2    H7 1032   2.204   1.699  13.983  2.3221 -0.2555 -1.3531
   68TCq2    C1 1033   2.262   1.509  14.039  0.2884  0.2390 -0.0121
   68TCq2    O2 1034   2.252   1.386  14.036 -0.0548  0.1261 -0.7108
   68TCq2    C2 1035   2.389   1.563  14.089 -0.0829 -0.1957  0.2453
   68TCq2    C3 1036   2.378   1.693  14.138  0.5298 -0.1874  0.4541
   68TCq2    C4 1037   2.462   1.733  14.236  0.3010 -0.7328  0.5121
   68TCq2    C5 1038   2.544   1.644  14.297 -0.8974  0.4072  0.7284
   68TCq2    C6 1039   2.536   1.513  14.259  0.5152 -0.4737  0.2674
   68TCq2    C7 1040   2.470   1.470  14.151 -0.0855 -0.2191 -0.3141
   68TCq2    C8 1041   2.579   1.402  14.343  1.2976 -0.0090  0.4683
   68TCq2    O4 1042   2.560   1.289  14.303  0.2968 -0.1615 -0.2206
   68TCq2    C9 1043   2.462   1.878  14.261 -0.0742  0.4874 -0.3736
   68TCq2    O5 1044   2.521   1.921  14.365 -0.0775  0.0573  0.4518
   68TCq2    O6 1045   2.392   1.941  14.177 -0.6651 -0.1602 -0.3289
   68TCq2    H2 1046   2.309   1.763  14.093  0.7907 -1.1629 -1.4960
   68TCq2    H3 1047   2.609   1.669  14.380 -1.2233 -1.0755  1.4305
   68TCq2    H4 1048   2.474   1.369  14.113  1.5182 -0.2144 -0.1531
   69TMC2    C1 1049   4.286   2.609  12.091 -0.1165 -0.6854  0.3478
   69TMC2    C2 1050   4.189   2.640  12.004  0.2248 -0.5072 -0.7054
   69TMC2    C3 1051   4.226   2.673  11.878 -0.0054 -0.2910 -0.0283
   69TMC2    C4 1052   4.415   2.624  12.056 -0.2962  0.7473 -0.0089
   69TMC2    C5 1053   4.450   2.662  11.928  0.2077  0.3402 -0.3458
   69TMC2    C6 1054   4.355   2.678  11.834 -0.1645  0.0816 -0.1540
   69TMC2     C 1055   4.255   2.578  12.230 -0.0281 -0.0252 -0.4469
   69TMC2     O 1056   4.142   2.550  12.266  0.8729 -0.1285 -0.1717
   69TMC2     H 1057   4.084   2.620  12.023  0.2329 -2.4140 -2.6789
   69TMC2    H1 1058   4.495   2.590  12.121 -1.3530 -0.6880  0.5308
   69TMC2    H2 1059   4.376   2.688  11.728 -0.6978  0.4159 -0.2285
   69TMC2    C7 1060   4.589   2.632  11.888  0.4275 -0.0597  0.5399
   69TMC2    C8 1061   4.129   2.697  11.775 -0.5396 -0.4506 -1.1104
   69TMC2    O1 1062   4.669   2.592  11.975 -0.2853  0.2720  0.2352
   69TMC2    O2 1063   4.158   2.679  11.659  0.7414 -0.2111 -0.0977
   69TMC2    O5 1064   4.025   2.763  11.827  0.1384 -0.2556 -0.5969
   69TMC2    H5 1065   4.028   2.797  11.919 -1.3894 -1.4829 -0.0917
   70MPD2     C 1066   4.489   2.619  12.507 -0.2236  0.7361 -0.1720
   70MPD2    C1 1067   4.369   2.580  12.446  0.5722  0.5505  0.1421
   70MPD2    C2 1068   4.265   2.530  12.521 -0.5533 -0.4341 -0.8977
   70MPD2    C3 1069   4.283   2.521  12.654 -0.0364  0.6331  0.2935
   70MPD2    C4 1070   4.400   2.571  12.713 -0.6718  0.0852  0.3214
   70MPD2    C5 1071   4.505   2.620  12.644 -0.1664  0.4680  0.0005
   70MPD2     H 1072   4.176   2.495  12.470 -1.1769 -0.6263  0.3348
   70MPD2    H1 1073   4.407   2.576  12.821 -1.1354  1.7396  0.2701
   70MPD2    H2 1074   4.574   2.656  12.451  0.0253  0.4394  0.0087
   70MPD2    H3 1075   4.589   2.675  12.685 -0.0961 -0.5014  1.1281
   70MPD2     N 1076   4.199   2.448  12.739 -0.2557  0.6276 -0.0719
   70MPD2    H5 1077   4.241   2.431  12.830  2.2648  0.6977 -1.2392
   70MPD2    N1 1078   4.362   2.601  12.306  0.0561 -0.3086  0.1795
   70MPD2    H7 1079   4.448   2.627  12.259  0.7887 -0.4147  1.4504
   71TMC2    C1 1080   2.287   2.411   1.328  0.1920 -0.0300 -0.2341
   71TMC2    C2 1081   2.388   2.447   1.416  0.4151 -0.5873  0.1271
   71TMC2    C3 1082   2.369   2.412   1.548  0.1889 -0.2206 -0.0526
   71TMC2    C4 1083   2.170   2.360   1.369 -0.9026  0.7132 -0.2532
   71TMC2    C5 1084   2.153   2.333   1.499  0.3722 -0.2243  0.2357
   71TMC2    C6 1085   2.254   2.347   1.590  0.2269 -0.6485 -0.0309
   71TMC2     C 1086   2.307   2.427   1.182 -0.6316  0.9600 -0.2316
   71TMC2     O 1087   2.399   2.501   1.154 -0.5756 -0.0857  0.0310
   71TMC2     H 1088   2.478   2.496   1.383  0.5915 -0.8847  0.1622
   71TMC2    H1 1089   2.092   2.327   1.302 -0.7572 -1.6866  0.7556
   71TMC2    H2 1090   2.238   2.308   1.690 -0.2430  0.8166  0.4538
   71TMC2    C7 1091   2.040   2.242   1.533 -0.2498  0.1625 -0.8806
   71TMC2    C8 1092   2.445   2.472   1.649 -0.3207  0.0837 -0.9155
   71TMC2    O1 1093   2.065   2.148   1.609 -0.3455 -0.4113 -0.1069
   71TMC2    O2 1094   2.471   2.413   1.753  0.2393 -0.3084 -1.1453
   71TMC2    O5 1095   2.447   2.612   1.635 -0.1044  0.6585 -0.6859
   71TMC2    H5 1096   2.379   2.638   1.570 -0.0109  0.2995 -0.9278
   72MPD2     C 1097   2.206   2.413   0.681  0.5609 -0.4396 -0.5531
   72MPD2    C1 1098   2.306   2.472   0.748  0.2795  0.7786 -0.8485
   72MPD2    C2 1099   2.319   2.449   0.882 -0.1645 -0.6852 -0.5471
   72MPD2    C3 1100   2.228   2.373   0.951 -0.1059  0.2902  0.4571
   72MPD2    C4 1101   2.131   2.311   0.877 -0.5876 -0.1466 -0.0818
   72MPD2    C5 1102   2.118   2.327   0.744  0.0240  0.1872 -0.0240
   72MPD2     H 1103   2.405   2.495   0.930  1.0676 -1.9215 -1.5645
   72MPD2    H1 1104   2.039   2.280   0.927  0.2177 -1.1381  0.7735
   72MPD2    H2 1105   2.195   2.419   0.573 -0.7087  0.4215 -0.3789
   72MPD2    H3 1106   2.044   2.272   0.686  1.2008 -1.0601 -0.3555
   72MPD2     N 1107   2.216   2.366   1.090  0.1057 -0.1949 -0.3101
   72MPD2    H5 1108   2.134   2.317   1.125  0.3175  0.0351  0.5160
   72MPD2    N1 1109   2.393   2.563   0.694  0.3548  0.2563 -0.1100
   72MPD2    H7 1110   2.460   2.599   0.761 -0.6446  0.0443  1.0109
   73TMC2    C1 1111   2.128   4.451  14.130  0.2093 -0.3889 -0.0211
   73TMC2    C2 1112   2.212   4.351  14.100 -0.2539  0.0833 -0.5373
   73TMC2    C3 1113   2.348   4.364  14.108 -0.4878 -0.6742  0.3100
   73TMC2    C4 1114   2.189   4.556  14.195 -0.2250 -0.0991 -0.0682
   73TMC2    C5 1115   2.322   4.575  14.204  0.8319 -0.0198  0.5234
   73TMC2    C6 1116   2.408   4.472  14.167  0.4693  0.3010 -0.3671
   73TMC2     C 1117   2.036   4.501  14.024 -0.4585  0.2403  0.4383
   73TMC2     O 1118   2.052   4.618  14.005  0.0238 -0.4629 -0.3748
   73TMC2     H 1119   2.180   4.271  14.034 -1.5725  1.6400 -1.8048
   73TMC2    H1 1120   2.124   4.637  14.228  0.7210  0.1353  1.2116
   73TMC2    H2 1121   2.513   4.490  14.184  0.4415  0.0791  0.0446
   73TMC2    C7 1122   2.377   4.701  14.150 -0.1447  0.3323  0.2856
   73TMC2    C8 1123   2.431   4.257  14.058 -0.1594  0.7286  0.1305
   73TMC2    O1 1124   2.491   0.011  14.185 -0.1722 -0.4673  0.6003
   73TMC2    O2 1125   2.380   4.175  13.986 -0.0871  0.3238  0.1697
   73TMC2    O5 1126   2.541   4.234  14.136 -0.0136  0.0709 -0.0353
   73TMC2    H5 1127   2.561   4.297  14.209  1.4773  0.3043 -0.6560
   74MPD2     C 1128   1.714   4.465  13.631  0.3391  0.5278  0.1647
   74MPD2    C1 1129   1.781   4.576  13.679  0.5189  0.2834  0.0247
   74MPD2    C2 1130   1.868   4.553  13.795 -0.3267  0.1798  0.9216
   74MPD2    C3 1131   1.866   4.435  13.861 -0.2891 -0.1601  0.5572
   74MPD2    C4 1132   1.796   4.330  13.805 -0.4314 -0.1566  0.5402
   74MPD2    C5 1133   1.716   4.346  13.697  0.6980 -0.1694  0.2782
   74MPD2     H 1134   1.936   4.630  13.830 -1.0404  1.3683 -0.2943
   74MPD2    H1 1135   1.803   4.239  13.863  0.6023  1.2057  2.5418
   74MPD2    H2 1136   1.658   4.471  13.539 -0.4888 -1.5880  0.5293
   74MPD2    H3 1137   1.649   4.270  13.660  0.1483  0.7009 -0.4918
   74MPD2     N 1138   1.951   4.411  13.970 -0.2624 -0.4437 -0.0348
   74MPD2    H5 1139   1.962   4.315  14.000 -1.8056 -0.5476  0.1826
   74MPD2    N1 1140   1.776   4.699  13.618 -0.3058  0.1736 -0.2807
   74MPD2    H7 1141   1.729   4.703  13.528 -0.5820  0.0698 -0.1412
   75TCq2    C1 1142   1.855   1.874  13.688 -1.0246  0.4732  0.0489
   75TCq2    O2 1143   1.958   1.933  13.710  0.1638  0.6163 -0.5025
   75TCq2    C2 1144   1.767   1.942  13.600 -0.2595 -0.6000  0.2299
   75TCq2    C3 1145   1.769   2.080  13.599  0.2186 -0.2756  0.5257
   75TCq2    C4 1146   1.701   2.147  13.510  0.7845 -0.3216  0.3121
   75TCq2    C5 1147   1.623   2.093  13.413  0.1684  0.1273 -0.2541
   75TCq2    C6 1148   1.619   1.956  13.417 -0.0617  0.1228 -0.2129
   75TCq2    C7 1149   1.686   1.877  13.507 -1.0165 -0.0324 -0.4472
   75TCq2    C8 1150   1.532   1.892  13.322 -0.2411 -0.0769  0.5546
   75TCq2    O4 1151   1.475   1.784  13.340 -0.0359 -0.4491 -0.3968
   75TCq2    C9 1152   1.687   2.284  13.521  0.0800 -0.5036  0.0641
   75TCq2    O5 1153   1.703   2.326  13.639  0.5372 -0.3964  0.3378
   75TCq2    O6 1154   1.637   2.347  13.422 -0.1268 -0.2456 -0.2351
   75TCq2    H2 1155   1.828   2.139  13.669  0.3718 -2.2018  2.0401
   75TCq2    H3 1156   1.562   2.162  13.355  1.6350  0.0961 -1.8335
   75TCq2    H4 1157   1.694   1.770  13.499 -0.8754  0.0020 -0.7809
   76MPD2     C 1158   0.986   2.091  12.111 -0.3041 -0.0533  0.1105
   76MPD2    C1 1159   0.898   1.990  12.081  0.0170  0.5616 -1.3009
   76MPD2    C2 1160   0.927   1.861  12.129  0.4231  0.1680  0.3810
   76MPD2    C3 1161   1.040   1.836  12.207  0.2224 -0.5297  0.5198
   76MPD2    C4 1162   1.122   1.941  12.242 -0.2583  0.4170  0.6967
   76MPD2    C5 1163   1.096   2.062  12.187 -0.2995 -0.1150 -0.1271
   76MPD2     H 1164   0.868   1.773  12.106 -1.4068  1.1014  1.5730
   76MPD2    H1 1165   1.205   1.921  12.308  0.7808  2.1194 -0.1050
   76MPD2    H2 1166   0.984   2.196  12.084 -2.5580 -0.2713 -0.5685
   76MPD2    H3 1167   1.152   2.152  12.210 -0.0832 -0.5443  1.0114
   76MPD2     N 1168   1.070   1.712  12.263 -0.4583 -0.0212  0.2668
   76MPD2    H5 1169   1.123   1.717  12.349 -1.4305 -0.3537  0.8741
   76MPD2    N1 1170   0.773   2.009  12.014  0.0825  0.3671  0.3706
   76MPD2    H7 1171   0.717   1.929  11.987 -2.0670  1.8157  0.5533
   77TCq2    C1 1172   1.029   1.589  12.214  0.3013 -0.6625  0.7352
   77TCq2    O2 1173   0.950   1.561  12.123 -0.3136 -0.6143 -0.6234
   77TCq2    C2 1174   1.106   1.478  12.278  0.2410  0.5958 -0.3195
   77TCq2    C3 1175   1.037   1.358  12.289  0.0822 -0.2542  0.1223
   77TCq2    C4 1176   1.085   1.271  12.385  0.5298  0.1212  0.2029
   77TCq2    C5 1177   1.181   1.307  12.477  0.0240  0.0202 -0.4736
   77TCq2    C6 1178   1.257   1.414  12.452  0.6488 -0.5797  0.7079
   77TCq2    C7 1179   1.215   1.513  12.358  0.4799 -0.2045 -0.4016
   77TCq2    C8 1180   1.360   1.444  12.545 -0.4907  0.0447 -0.5155
   77TCq2    O4 1181   1.378   1.362  12.633  0.0151 -0.0895 -0.0155
   77TCq2    C9 1182   1.020   1.145  12.390  0.2242  0.1853  0.6971
   77TCq2    O5 1183   1.077   1.054  12.456  0.7711 -0.1997  0.0492
   77TCq2    O6 1184   0.907   1.128  12.336  0.1018 -0.2853 -0.3128
   77TCq2    H2 1185   0.953   1.328  12.227  1.1576 -0.4522 -1.2543
   77TCq2    H3 1186   1.217   1.236  12.550  0.2099  0.4612 -0.1315
   77TCq2    H4 1187   1.275   1.600  12.334 -1.0099  0.6734 -0.9216
   78MPD1     C 1188   2.951   0.196   1.513  0.4970  0.7199 -0.6314
   78MPD1    C1 1189   2.884   0.302   1.571 -1.0935 -0.8017  0.2247
   78MPD1    C2 1190   2.927   0.348   1.692 -0.1319  0.4359 -0.1695
   78MPD1    C3 1191   3.039   0.304   1.755  0.5423 -0.3609  0.4307
   78MPD1    C4 1192   3.100   0.198   1.701 -0.3667  0.0938 -0.2796
   78MPD1    C5 1193   3.060   0.148   1.579  0.4963 -0.2448  0.6006
   78MPD1     H 1194   2.870   0.427   1.739 -2.0728 -0.9807 -0.1374
   78MPD1    H1 1195   3.174   0.145   1.761  0.4903  0.7949 -0.7117
   78MPD1    H2 1196   2.903   0.140   1.434 -1.0417  1.1531 -0.0011
   78MPD1    H3 1197   3.096   0.052   1.544  0.2037  0.1948 -0.9116
   78MPD1     N 1198   3.081   0.356   1.879  0.0623  1.0121 -0.0438
   78MPD1    H5 1199   3.147   0.302   1.935  1.1837 -0.0337 -2.3450
   78MPD1    N1 1200   2.762   0.348   1.515 -0.2692  0.6266  0.0493
   78MPD1    H6 1201   2.754   0.340   1.414  0.9492 -0.1037  0.0082
   78MPD1    H7 1202   2.727   0.438   1.546 -3.0972 -0.9451  1.4273
   79TCq2    C1 1203   3.071   0.485   1.925 -0.0639  0.2912 -0.6735
   79TCq2    O2 1204   3.045   0.583   1.858  0.1178  0.5931 -0.0024
   79TCq2    C2 1205   3.122   0.502   2.061  0.0389  0.2014 -0.0185
   79TCq2    C3 1206   3.146   0.392   2.142 -0.3197 -0.4588 -0.3236
   79TCq2    C4 1207   3.213   0.408   2.263 -0.1234 -0.4691  0.0336
   79TCq2    C5 1208   3.254   0.528   2.298  0.0856 -0.1934 -0.1099
   79TCq2    C6 1209   3.229   0.634   2.217 -1.0250 -0.5654 -0.7636
   79TCq2    C7 1210   3.161   0.627   2.105 -0.5214  0.3247 -1.0596
   79TCq2    C8 1211   3.265   0.766   2.261  0.0546  0.0993 -0.6155
   79TCq2    O4 1212   3.217   0.865   2.202 -0.1950  0.4020 -0.9372
   79TCq2    C9 1213   3.262   0.291   2.326  0.2153 -0.5852  0.4120
   79TCq2    O5 1214   3.261   0.185   2.263  0.4808 -0.5619  0.5486
   79TCq2    O6 1215   3.322   0.304   2.439  0.2681 -0.1161 -0.3327
   79TCq2    H2 1216   3.107   0.294   2.120 -3.7103  0.4509  1.6856
   79TCq2    H3 1217   3.307   0.539   2.392  0.3591  1.5055 -0.4636
   79TCq2    H4 1218   3.128   0.717   2.055  0.9561 -0.0700 -2.7532
   80MPD2     C 1219   4.433   1.557  12.323  0.0227 -0.4277 -0.0183
   80MPD2    C1 1220   4.323   1.606  12.253  0.1296  0.3635 -0.1505
   80MPD2    C2 1221   4.203   1.618  12.316 -1.7291  0.4378  0.6500
   80MPD2    C3 1222   4.182   1.572  12.438  0.2493 -0.2765 -0.1971
   80MPD2    C4 1223   4.289   1.515  12.503  0.2264 -0.5558  0.2533
   80MPD2    C5 1224   4.414   1.515  12.451 -0.3812 -0.8901  0.3400
   80MPD2     H 1225   4.125   1.662  12.255 -2.2383  0.3267  1.2192
   80MPD2    H1 1226   4.279   1.481  12.605  0.6591  0.1736  0.5393
   80MPD2    H2 1227   4.528   1.545  12.273  0.2585 -0.7523  0.5048
   80MPD2    H3 1228   4.499   1.471  12.502 -0.2605 -0.1620  0.7660
   80MPD2     N 1229   4.058   1.581  12.508 -0.1066 -0.9334  0.0593
   80MPD2    H5 1230   4.050   1.538  12.599  2.6978  0.9769  1.2015
   80MPD2    N1 1231   4.322   1.631  12.112  0.0604  0.3550  0.5024
   80MPD2    H7 1232   4.231   1.648  12.071  1.4147  0.1581 -2.6049
   81TCq2    C1 1233   4.426   1.654  12.032  0.4155 -1.0290  0.3386
   81TCq2    O2 1234   4.540   1.688  12.064 -0.3528  0.1818 -1.1847
   81TCq2    C2 1235   4.396   1.648  11.883 -0.3556  0.1606  0.3058
   81TCq2    C3 1236   4.484   1.713  11.806 -0.0321 -0.4798 -1.0058
   81TCq2    C4 1237   4.455   1.739  11.677  0.2106  0.4047  0.3545
   81TCq2    C5 1238   4.340   1.687  11.619 -0.1084  0.0163  0.2935
   81TCq2    C6 1239   4.255   1.620  11.704 -0.1789  0.6487 -0.2551
   81TCq2    C7 1240   4.279   1.599  11.836 -0.3553 -0.3888 -0.1383
   81TCq2    C8 1241   4.139   1.559  11.641 -0.4410  0.3363 -0.5520
   81TCq2    O4 1242   4.114   1.602  11.532  0.2556  0.1393 -0.4090
   81TCq2    C9 1243   4.539   1.823  11.589  0.1670  0.3405 -0.2426
   81TCq2    O5 1244   4.511   1.820  11.466  0.2148 -0.7663 -0.2294
   81TCq2    O6 1245   4.643   1.873  11.639  0.4293 -0.1891  0.2093
   81TCq2    H2 1246   4.575   1.757  11.847  0.0174 -2.2372  0.7518
   81TCq2    H3 1247   4.315   1.708  11.516  0.3493  1.6306  0.5176
   81TCq2    H4 1248   4.205   1.548  11.897 -0.7088 -1.8173 -1.7411
   82MPD2     C 1249   2.228   1.018  10.470 -0.4355 -0.1561  0.4639
   82MPD2    C1 1250   2.348   1.076  10.446 -0.0129  0.4719 -0.4260
   82MPD2    C2 1251   2.445   1.064  10.541  0.1780 -0.3285 -0.1391
   82MPD2    C3 1252   2.420   0.999  10.663 -0.1832 -0.2204 -0.1744
   82MPD2    C4 1253   2.299   0.952  10.685 -0.8668 -0.0823 -0.5990
   82MPD2    C5 1254   2.203   0.953  10.584 -0.2316 -0.0516  0.0254
   82MPD2     H 1255   2.545   1.101  10.519 -0.3081  1.1115  0.1146
   82MPD2    H1 1256   2.278   0.907  10.782  0.5169 -0.9977 -0.7239
   82MPD2    H2 1257   2.148   1.027  10.399 -1.1546  0.3096  1.3327
   82MPD2    H3 1258   2.103   0.918  10.609 -0.9734  0.7676 -1.7514
   82MPD2     N 1259   2.507   0.971  10.775  0.2806 -0.6816 -0.3463
   82MPD2    H5 1260   2.460   0.932  10.857 -0.1788  1.0903  0.2536
   82MPD2    N1 1261   2.356   1.154  10.329  0.0718 -0.2268 -0.4728
   82MPD2    H7 1262   2.274   1.158  10.270 -0.3686 -0.6464  0.1068
   83TCq2    C1 1263   2.644   0.998  10.768 -0.0475 -0.2225  0.0878
   83TCq2    O2 1264   2.712   1.058  10.684  0.5876 -0.8967 -0.2853
   83TCq2    C2 1265   2.703   0.983  10.899  0.2768  0.3098 -0.1178
   83TCq2    C3 1266   2.801   1.073  10.936  0.5142 -0.2256 -0.1517
   83TCq2    C4 1267   2.860   1.066  11.060 -0.0353  0.3049  0.1365
   83TCq2    C5 1268   2.820   0.974  11.147 -0.6836 -0.7520  0.3764
   83TCq2    C6 1269   2.713   0.888  11.115 -0.6458  0.0320  0.0431
   83TCq2    C7 1270   2.662   0.889  10.992  0.1503 -0.6524 -0.0120
   83TCq2    C8 1271   2.726   0.764  11.177 -0.2388  0.1117  0.5345
   83TCq2    O4 1272   2.749   0.757  11.300 -1.1083  0.2953 -0.0482
   83TCq2    C9 1273   2.966   1.157  11.096  0.2952 -0.6711  0.4581
   83TCq2    O5 1274   2.981   1.172  11.219  0.2070  0.5303 -0.0992
   83TCq2    O6 1275   3.022   1.235  11.011 -0.1883 -0.3952 -0.0279
   83TCq2    H2 1276   2.837   1.144  10.863 -0.9421  1.2221  0.5352
   83TCq2    H3 1277   2.879   0.968  11.238  0.4059  0.1145 -0.2723
   83TCq2    H4 1278   2.577   0.823  10.980  1.6216 -2.5868  0.2024
   84TCq2    C1 1279   3.953   0.048  10.230 -0.3510 -0.0514  0.3260
   84TCq2    O2 1280   3.928   4.656  10.276 -0.3001  0.0939  0.4924
   84TCq2    C2 1281   4.021   0.140  10.325  0.2206  0.1499  0.5938
   84TCq2    C3 1282   4.090   0.241  10.267 -0.0450 -0.4034 -0.4221
   84TCq2    C4 1283   4.134   0.339  10.351 -0.4569 -0.1137  0.5138
   84TCq2    C5 1284   4.114   0.340  10.488  0.0128 -0.3544 -0.5194
   84TCq2    C6 1285   4.055   0.227  10.543  0.1660 -0.1915 -0.1737
   84TCq2    C7 1286   4.002   0.127  10.460 -0.2008 -0.4362 -0.4737
   84TCq2    C8 1287   4.033   0.219  10.689  0.3574 -0.0465  0.0492
   84TCq2    O4 1288   3.941   0.156  10.736  0.7129 -0.3775  0.1083
   84TCq2    C9 1289   4.204   0.444  10.292 -0.4406 -0.2425 -0.0432
   84TCq2    O5 1290   4.215   0.440  10.161  0.2594  0.1663 -0.0176
   84TCq2    O6 1291   4.274   0.522  10.367  0.1971  0.2628  0.2991
   84TCq2    H2 1292   4.121   0.243  10.163  0.4378  1.4266 -0.2369
   84TCq2    H3 1293   4.158   0.418  10.549 -1.6079  0.2638 -0.1395
   84TCq2    H4 1294   3.955   0.048  10.516 -0.1861 -0.0607  0.0685
   85MPD2     C 1295   0.329   2.525  16.127  0.2896 -0.4204  0.4628
   85MPD2    C1 1296   0.202   2.524  16.080  0.3930  0.6217 -0.0596
   85MPD2    C2 1297   0.165   2.630  16.002  0.2588  0.5522 -0.4762
   85MPD2    C3 1298   0.246   2.740  15.984 -0.0344  0.0037 -0.8708
   85MPD2    C4 1299   0.376   2.736  16.034 -0.0777 -0.5472  0.2051
   85MPD2    C5 1300   0.414   2.632  16.112  0.2718  0.3156  0.6407
   85MPD2     H 1301   0.070   2.628  15.949 -0.2687  1.5714  0.4248
   85MPD2    H1 1302   0.452   2.811  16.021 -0.0392 -0.8568 -1.3546
   85MPD2    H2 1303   0.367   2.438  16.179  0.0614 -0.0599  1.2345
   85MPD2    H3 1304   0.509   2.625  16.163  0.4352  0.2436  0.3290
   85MPD2     N 1305   0.193   2.852  15.917 -0.0737 -0.6319 -0.1102
   85MPD2    H5 1306   0.095   2.858  15.892  0.8275  1.5154 -3.0746
   85MPD2    N1 1307   0.103   2.421  16.090 -0.6285 -0.0887  0.4135
   85MPD2    H7 1308   0.011   2.439  16.051 -0.2977 -0.6911 -0.6225
   86TCq2    C1 1309   0.267   2.955  15.877  0.9205  0.7677 -0.2357
   86TCq2    O2 1310   0.390   2.964  15.864  0.4832 -0.3225  0.0752
   86TCq2    C2 1311   0.188   3.055  15.821  0.0107  0.4012 -0.3557
   86TCq2    C3 1312   0.073   3.087  15.884  0.1756  0.1306 -0.7246
   86TCq2    C4 1313   0.011   3.204  15.851  0.4095 -0.5782  1.1049
   86TCq2    C5 1314   0.064   3.295  15.760  0.1046  0.0236  0.5879
   86TCq2    C6 1315   0.176   3.257  15.695  0.6060 -0.1946 -0.7287
   86TCq2    C7 1316   0.232   3.136  15.720  0.0359 -1.0499  0.8745
   86TCq2    C8 1317   0.205   3.327  15.571  0.2432 -0.0110  0.4051
   86TCq2    O4 1318   0.113   3.399  15.527  0.0957 -0.1789 -0.0051
   86TCq2    C9 1319   4.617   3.245  15.934 -0.9989 -0.3693  0.3025
   86TCq2    O5 1320   4.555   3.155  15.988 -0.6003  0.8291  0.0835
   86TCq2    O6 1321   4.587   3.369  15.940 -0.3896 -0.4348  0.7191
   86TCq2    H2 1322   0.027   3.025  15.961 -0.6438 -1.4081 -2.4483
   86TCq2    H3 1323   0.006   3.383  15.735  2.2134  1.5966  1.2639
   86TCq2    H4 1324   0.317   3.101  15.663  1.4136  1.5002  1.3694
   87MPD2     C 1325   2.203   1.237   0.652 -0.2936  0.8834  0.1649
   87MPD2    C1 1326   2.265   1.328   0.723 -0.6587  0.5833  0.4449
   87MPD2    C2 1327   2.198   1.381   0.838 -0.3682  0.5058 -0.2738
   87MPD2    C3 1328   2.069   1.339   0.875 -0.0485  0.2299 -0.1348
   87MPD2    C4 1329   2.008   1.238   0.794 -0.1043  0.0046  0.4239
   87MPD2    C5 1330   2.079   1.188   0.692 -0.3145  0.9947 -0.4442
   87MPD2     H 1331   2.253   1.461   0.888 -0.4839 -0.7729  1.8910
   87MPD2    H1 1332   1.913   1.187   0.808  0.5347 -1.3452 -0.1058
   87MPD2    H2 1333   2.257   1.196   0.568 -0.9899 -3.1451  1.7064
   87MPD2    H3 1334   2.029   1.111   0.634 -2.3216  0.9977  1.2781
   87MPD2     N 1335   1.998   1.397   0.977  0.6577 -0.1784 -0.2913
   87MPD2    H5 1336   1.898   1.398   0.960  0.1592 -1.0879  2.5796
   87MPD2    N1 1337   2.389   1.380   0.679 -0.2355 -0.3658 -0.8146
   87MPD2    H7 1338   2.443   1.338   0.604 -0.2720 -4.6791  1.5553
   88TCq2    C1 1339   2.457   1.495   0.720 -0.1382  0.7301 -0.2666
   88TCq2    O2 1340   2.407   1.574   0.792  0.1864  0.0637  0.1370
   88TCq2    C2 1341   2.552   1.545   0.629  1.1790  0.2140  0.8935
   88TCq2    C3 1342   2.628   1.646   0.674 -0.1002 -0.5849 -0.1352
   88TCq2    C4 1343   2.740   1.689   0.604  0.1132  0.3270  0.4104
   88TCq2    C5 1344   2.770   1.621   0.486 -0.1756  1.0929 -0.1860
   88TCq2    C6 1345   2.690   1.525   0.449 -0.3206  0.5833 -0.0699
   88TCq2    C7 1346   2.579   1.474   0.514 -0.1897  0.2490 -0.3329
   88TCq2    C8 1347   2.711   1.477   0.309  0.8701  0.0977 -0.6329
   88TCq2    O4 1348   2.765   1.560   0.238 -0.0242  0.2470  0.5791
   88TCq2    C9 1349   2.818   1.795   0.641  0.2152 -0.5926 -0.0423
   88TCq2    O5 1350   2.792   1.853   0.752  0.1264 -0.2956 -0.8984
   88TCq2    O6 1351   2.910   1.830   0.565  0.9772 -0.3794  0.4130
   88TCq2    H2 1352   2.615   1.697   0.769  0.5571 -2.1375  0.7725
   88TCq2    H3 1353   2.853   1.659   0.427  1.2452  0.5573  1.4752
   88TCq2    H4 1354   2.508   1.415   0.457  0.3008 -1.8921  1.2654
   89MPD2     C 1355   3.501   3.238   1.752  0.1913  0.3813  0.2566
   89MPD2    C1 1356   3.449   3.354   1.807 -0.2206 -0.0358 -0.1838
   89MPD2    C2 1357   3.531   3.464   1.820 -0.1444 -0.3913 -0.3586
   89MPD2    C3 1358   3.670   3.462   1.791 -0.2933 -0.2386 -0.3583
   89MPD2    C4 1359   3.722   3.339   1.755  0.5371  0.3993 -0.8817
   89MPD2    C5 1360   3.637   3.232   1.739  0.1954 -0.4017  0.9356
   89MPD2     H 1361   3.489   3.556   1.859 -0.5795  0.3147 -2.4402
   89MPD2    H1 1362   3.825   3.318   1.726  1.0592  1.5279  0.1586
   89MPD2    H2 1363   3.448   3.144   1.743 -0.2476  0.6164  0.4016
   89MPD2    H3 1364   3.670   3.132   1.713  0.3146 -0.2244  0.3988
   89MPD2     N 1365   3.745   3.584   1.824  0.3445 -0.3487 -0.2788
   89MPD2    H5 1366   3.691   3.665   1.852 -1.2377 -1.0110 -1.4377
   89MPD2    N1 1367   3.311   3.376   1.829  0.7685 -0.0973 -0.2070
   89MPD2    H7 1368   3.286   3.470   1.857  1.0187 -0.1562  0.1992
   90TCq2    C1 1369   3.882   3.596   1.811  0.2006  0.2537 -0.1582
   90TCq2    O2 1370   3.965   3.506   1.791  0.6428  0.6796  0.7219
   90TCq2    C2 1371   3.942   3.725   1.835 -0.4629  0.0112 -0.8351
   90TCq2    C3 1372   4.078   3.739   1.845 -0.3457  0.1800 -0.0791
   90TCq2    C4 1373   4.127   3.864   1.840  1.1779 -0.3847 -0.1442
   90TCq2    C5 1374   4.045   3.975   1.839  0.4308  0.1985  0.1630
   90TCq2    C6 1375   3.911   3.959   1.830  0.7450  0.5064  0.0024
   90TCq2    C7 1376   3.859   3.833   1.834 -0.1301  0.4375  0.0762
   90TCq2    C8 1377   3.813   4.065   1.803  0.0857  0.4187 -0.2213
   90TCq2    O4 1378   3.699   4.048   1.845  0.0391  0.2987  0.7170
   90TCq2    C9 1379   4.263   3.894   1.815 -0.6648 -0.1643 -0.3607
   90TCq2    O5 1380   4.330   3.806   1.756  0.3553 -0.5078  0.0161
   90TCq2    O6 1381   4.305   4.004   1.847 -0.1339 -0.3153  0.2645
   90TCq2    H2 1382   4.148   3.656   1.843  0.6285  0.8933  2.9270
   90TCq2    H3 1383   4.087   4.074   1.832 -2.2954  1.4992  2.4472
   90TCq2    H4 1384   3.757   3.821   1.800 -0.1182 -0.8778  0.4952
   91TMC2    C1 1385   0.361   3.482  16.672  0.1272 -0.0795  0.9818
   91TMC2    C2 1386   0.432   3.446  16.564  0.6099  0.2142  0.1675
   91TMC2    C3 1387   0.366   3.397  16.457 -0.4762  0.1767 -0.0203
   91TMC2    C4 1388   0.224   3.465  16.684  0.4049 -0.4981  0.3219
   91TMC2    C5 1389   0.162   3.413  16.576 -0.2668 -0.1952 -0.0547
   91TMC2    C6 1390   0.233   3.374  16.460 -0.3353 -0.0035  0.2291
   91TMC2     C 1391   0.426   3.545  16.785  0.3509  0.5342  0.0378
   91TMC2     O 1392   0.363   3.540  16.889 -0.4195  0.2617  0.3356
   91TMC2     H 1393   0.537   3.422  16.576  0.4451 -0.5609  0.0756
   91TMC2    H1 1394   0.164   3.505  16.764 -0.2649 -0.4305 -0.2171
   91TMC2    H2 1395   0.191   3.340  16.365  0.8914  0.7151 -0.5700
   91TMC2    C7 1396   0.013   3.412  16.582  0.4753 -0.0175 -0.4822
   91TMC2    C8 1397   0.437   3.312  16.367 -0.0201 -0.4975 -1.0394
   91TMC2    O1 1398   4.684   3.465  16.679  0.1515 -0.4852  0.2253
   91TMC2    O2 1399   0.386   3.220  16.310  0.1330  0.1422  0.0794
   91TMC2    O5 1400   0.555   3.369  16.340  0.1127  0.0145 -0.2039
   91TMC2    H5 1401   0.574   3.451  16.391 -0.9017  0.5571 -0.6989
   92MPD2     C 1402   0.637   3.619  16.986  0.4627  0.4773  0.6930
   92MPD2    C1 1403   0.646   3.647  16.855 -0.3235 -0.6390  0.1389
   92MPD2    C2 1404   0.759   3.716  16.814 -0.1443 -1.2395 -0.3092
   92MPD2    C3 1405   0.870   3.734  16.895  0.2363 -0.1924  0.1782
   92MPD2    C4 1406   0.853   3.701  17.031 -0.1308  0.3586 -0.2081
   92MPD2    C5 1407   0.733   3.648  17.077  0.0530  0.0379 -0.2693
   92MPD2     H 1408   0.757   3.746  16.710  3.4583  1.0581  0.2868
   92MPD2    H1 1409   0.927   3.726  17.107 -0.6813 -1.1840  0.8308
   92MPD2    H2 1410   0.555   3.565  17.031 -0.1470  1.3218  0.5883
   92MPD2    H3 1411   0.729   3.626  17.183  1.4888  0.1248 -0.1875
   92MPD2     N 1412   0.980   3.800  16.834 -0.8378  0.1470 -0.0706
   92MPD2    H5 1413   0.967   3.837  16.740 -0.1897 -0.6887 -0.4888
   92MPD2    N1 1414   0.550   3.598  16.756 -0.3301 -0.1218  0.0438
   92MPD2    H7 1415   0.559   3.606  16.656  2.0440 -0.7281  0.2178
   93MPD2     C 1416   1.247   3.305  13.841 -0.0062  0.7035 -0.2442
   93MPD2    C1 1417   1.284   3.427  13.788 -0.7106 -0.2017  1.1163
   93MPD2    C2 1418   1.222   3.474  13.672 -0.0740  0.0822 -0.0047
   93MPD2    C3 1419   1.118   3.399  13.613 -0.5129 -0.0766 -0.8729
   93MPD2    C4 1420   1.076   3.284  13.672  0.9627 -0.2758 -0.6008
   93MPD2    C5 1421   1.141   3.246  13.786  0.5360  0.6829 -0.8646
   93MPD2     H 1422   1.255   3.567  13.626  1.0664 -0.1260  0.3951
   93MPD2    H1 1423   1.001   3.219  13.628  0.1674 -1.0344  1.8658
   93MPD2    H2 1424   1.299   3.252  13.921 -0.5603  3.0234  1.6588
   93MPD2    H3 1425   1.119   3.152  13.834  2.3315  0.8178  0.2072
   93MPD2     N 1426   1.051   3.438  13.493 -0.6906 -0.4135 -0.2759
   93MPD2    H5 1427   0.973   3.381  13.463 -1.7708  0.3104  1.1657
   93MPD2    N1 1428   1.383   3.504  13.854  0.5617 -0.1570 -0.2640
   93MPD2    H7 1429   1.401   3.599  13.823 -0.1201  0.8113  2.2565
   94TCq2    C1 1430   1.445   3.479  13.973 -0.9735 -0.5932  0.0417
   94TCq2    O2 1431   1.459   3.380  14.044 -0.3029  0.2081 -0.6048
   94TCq2    C2 1432   1.499   3.599  14.024 -0.1706 -0.3722  0.8246
   94TCq2    C3 1433   1.398   3.691  14.031 -0.8304  0.0130  0.6178
   94TCq2    C4 1434   1.433   3.818  14.022 -0.4832  0.2837 -0.5001
   94TCq2    C5 1435   1.555   3.860  13.992  0.2190 -0.9473 -0.5404
   94TCq2    C6 1436   1.652   3.769  13.977  0.3383 -0.3652  0.3717
   94TCq2    C7 1437   1.628   3.635  13.998 -0.8551 -0.5111 -0.2019
   94TCq2    C8 1438   1.762   3.794  13.880 -0.1205 -0.2942  0.0097
   94TCq2    O4 1439   1.860   3.714  13.883  0.4280  0.2507 -0.0565
   94TCq2    C9 1440   1.333   3.921  14.044  0.2566  0.2369  0.2455
   94TCq2    O5 1441   1.223   3.881  14.091 -0.4485  0.0396 -0.0042
   94TCq2    O6 1442   1.365   4.041  14.021  0.0076 -0.4630  0.4487
   94TCq2    H2 1443   1.294   3.668  14.054 -1.8236  1.9392 -1.9821
   94TCq2    H3 1444   1.586   3.964  13.989  1.9559 -1.4911 -1.8399
   94TCq2    H4 1445   1.701   3.561  13.970 -0.7269 -1.1410  1.7764
   95TMC2    C1 1446   1.596   0.550  15.757  0.1990 -0.2946  0.1285
   95TMC2    C2 1447   1.511   0.560  15.653  0.2881 -0.1526 -0.2591
   95TMC2    C3 1448   1.377   0.577  15.680  0.1787  0.5793  0.2473
   95TMC2    C4 1449   1.556   0.577  15.886  0.0789 -0.4155  0.2567
   95TMC2    C5 1450   1.424   0.585  15.913  0.1730 -0.6641 -0.1136
   95TMC2    C6 1451   1.332   0.596  15.808  0.0990  0.2650  0.4552
   95TMC2     C 1452   1.728   0.575  15.723  0.0803 -0.3951  0.0624
   95TMC2     O 1453   1.740   0.621  15.610 -0.6934  0.3027 -0.0440
   95TMC2     H 1454   1.540   0.539  15.550  0.0749  2.3891 -0.8267
   95TMC2    H1 1455   1.623   0.583  15.971  1.3108 -0.6939 -0.7055
   95TMC2    H2 1456   1.226   0.582  15.827  0.0109 -0.3144 -0.4844
   95TMC2    C7 1457   1.372   0.626  16.039 -0.1652 -0.5348  0.6279
   95TMC2    C8 1458   1.281   0.571  15.567  0.0824 -0.1599  0.1524
   95TMC2    O1 1459   1.279   0.707  16.046 -0.2927  0.2486 -0.4904
   95TMC2    O2 1460   1.171   0.626  15.594  0.1500 -0.2330 -0.1139
   95TMC2    O5 1461   1.348   0.592  15.450  0.2903  0.0628  0.5740
   95TMC2    H5 1462   1.410   0.517  15.434  0.1301 -0.2564  1.4080
   96MPD2     C 1463   2.232   0.590  15.747 -0.0605 -0.1551  0.0986
   96MPD2    C1 1464   2.143   0.669  15.677  0.3387  0.2418  0.1446
   96MPD2    C2 1465   2.007   0.658  15.700 -0.7123 -0.0577 -0.2065
   96MPD2    C3 1466   1.955   0.575  15.801  0.9858 -0.0279  0.1127
   96MPD2    C4 1467   2.040   0.505  15.877  0.6645 -0.3617 -0.2752
   96MPD2    C5 1468   2.173   0.518  15.856  0.4856  0.1521  0.2796
   96MPD2     H 1469   1.936   0.715  15.641 -2.3025  0.4532  2.1816
   96MPD2    H1 1470   2.011   0.452  15.967  1.1279  0.0753  0.1318
   96MPD2    H2 1471   2.339   0.597  15.731  0.0279  1.7116  1.5762
   96MPD2    H3 1472   2.233   0.465  15.929 -0.8768  0.1203  1.3740
   96MPD2     N 1473   1.819   0.541  15.812  0.1939 -0.0084 -0.0922
   96MPD2    H5 1474   1.795   0.473  15.884 -0.0627  0.0593 -0.1146
   96MPD2    N1 1475   2.204   0.752  15.573 -0.5154  0.4439 -0.9089
   96MPD2    H7 1476   2.303   0.746  15.553 -0.7030  1.5834 -2.2517
   97MPD2     C 1477   3.358   2.361   0.898 -0.1504 -0.1937  0.2808
   97MPD2    C1 1478   3.416   2.483   0.884 -0.1128  0.4007  0.4417
   97MPD2    C2 1479   3.447   2.524   0.754  0.4455  0.1921  0.0982
   97MPD2    C3 1480   3.408   2.456   0.646  0.3736 -0.1812 -0.1101
   97MPD2    C4 1481   3.336   2.337   0.660 -0.3250  0.4946  0.6965
   97MPD2    C5 1482   3.334   2.284   0.788  0.0844 -0.0702 -0.2747
   97MPD2     H 1483   3.501   2.618   0.750 -0.6783  0.8710  0.8646
   97MPD2    H1 1484   3.311   2.275   0.575  1.8064  0.9588 -0.2607
   97MPD2    H2 1485   3.343   2.317   0.996 -0.9231  0.1905  0.3296
   97MPD2    H3 1486   3.290   2.186   0.801 -0.8663  0.0475 -2.5052
   97MPD2     N 1487   3.441   2.496   0.516  0.7973  0.7234 -0.8177
   97MPD2    H5 1488   3.408   2.434   0.443 -1.3859  2.0866 -0.9893
   97MPD2    N1 1489   3.452   2.555   1.005 -0.4734 -0.3303 -0.7724
   97MPD2    H7 1490   3.461   2.507   1.094 -2.0965 -1.5937 -1.3004
   98TCq2    C1 1491   3.507   2.612   0.482 -0.2479  0.2499 -0.1487
   98TCq2    O2 1492   3.543   2.710   0.550 -0.6386 -0.2018 -0.2323
   98TCq2    C2 1493   3.559   2.601   0.346 -0.3896 -0.0522  0.0972
   98TCq2    C3 1494   3.556   2.485   0.276 -0.1708 -0.6458 -0.1936
   98TCq2    C4 1495   3.609   2.496   0.148  0.6886 -0.1824 -0.3262
   98TCq2    C5 1496   3.679   2.606   0.098 -0.0207  0.0537 -0.3482
   98TCq2    C6 1497   3.679   2.715   0.181 -0.1755 -0.3387 -0.0677
   98TCq2    C7 1498   3.635   2.711   0.309 -0.0206  0.4099 -1.1349
   98TCq2    C8 1499   3.743   2.837   0.146  0.2152  0.3470  0.4957
   98TCq2    O4 1500   3.757   2.926   0.229  0.5174 -0.2455 -0.0529
   98TCq2    C9 1501   3.606   2.383   0.067  0.9146  0.0604  0.6153
   98TCq2    O5 1502   3.662   2.395  17.634 -0.4556 -0.2065  0.3960
   98TCq2    O6 1503   3.545   2.282   0.117  0.0110  0.0787 -0.2257
   98TCq2    H2 1504   3.511   2.391   0.306 -2.6898 -0.1053 -2.3140
   98TCq2    H3 1505   3.725   2.607   0.000  2.1800 -1.6634  0.6712
   98TCq2    H4 1506   3.648   2.793   0.379  0.3382  0.8304 -1.6972
   99MPD2     C 1507   3.069   1.169   1.862 -0.0783 -0.4001 -0.0712
   99MPD2    C1 1508   3.020   1.074   1.777  0.3833 -0.1317 -0.0025
   99MPD2    C2 1509   3.090   0.957   1.757 -0.5100 -0.2717 -0.2780
   99MPD2    C3 1510   3.200   0.932   1.834  0.2595  0.6131 -0.1822
   99MPD2    C4 1511   3.236   1.023   1.934 -1.2700 -0.6656  0.4963
   99MPD2    C5 1512   3.172   1.144   1.948  0.5199 -0.2992 -0.2205
   99MPD2     H 1513   3.056   0.879   1.690  1.0494  0.1778 -1.5985
   99MPD2    H1 1514   3.321   1.004   1.999  0.5166  1.7684 -1.1462
   99MPD2    H2 1515   3.028   1.269   1.866  0.1615 -0.3284  0.6681
   99MPD2    H3 1516   3.198   1.219   2.022  1.7647 -0.1895 -0.7603
   99MPD2     N 1517   3.260   0.805   1.813  0.3491 -0.1283 -0.5009
   99MPD2    H5 1518   3.209   0.741   1.753 -2.2027  1.1609  0.3200
   99MPD2    N1 1519   2.906   1.096   1.699 -0.3672  0.2393 -0.4967
   99MPD2    H7 1520   2.883   1.023   1.632 -3.0315  0.4604  0.1594
  100TCq2    C1 1521   2.831   1.203   1.694  0.6128 -0.4559 -0.1696
  100TCq2    O2 1522   2.825   1.295   1.776  0.1004 -0.3813 -0.2508
  100TCq2    C2 1523   2.737   1.202   1.585  0.2091  0.1821 -0.4185
  100TCq2    C3 1524   2.637   1.294   1.584  0.5067  0.5298  1.1684
  100TCq2    C4 1525   2.545   1.290   1.483 -0.1329  0.3602 -0.3880
  100TCq2    C5 1526   2.545   1.182   1.396  0.1957  0.1211  0.3696
  100TCq2    C6 1527   2.648   1.093   1.398 -0.2042  0.2080 -0.0938
  100TCq2    C7 1528   2.745   1.101   1.492 -0.4141  0.0717  0.0597
  100TCq2    C8 1529   2.673   0.995   1.288 -0.4333  0.7303  0.5122
  100TCq2    O4 1530   2.788   0.980   1.262  0.4332 -0.5700  0.5458
  100TCq2    C9 1531   2.453   1.397   1.469  0.0553  0.0688  0.0313
  100TCq2    O5 1532   2.471   1.495   1.545  0.1441  0.3839  0.1953
  100TCq2    O6 1533   2.361   1.380   1.384 -0.0325 -0.5614  0.0522
  100TCq2    H2 1534   2.628   1.370   1.661  0.6300 -0.4252  2.1227
  100TCq2    H3 1535   2.467   1.170   1.321 -0.9574  0.3806  1.5378
  100TCq2    H4 1536   2.814   1.017   1.489  0.5694  0.8299  1.1232
  101MPD2     C 1537   2.870   1.741  13.029  1.4237 -0.3427  0.0238
  101MPD2    C1 1538   2.778   1.671  12.959 -0.1066 -0.0494 -0.5411
  101MPD2    C2 1539   2.731   1.549  13.006 -0.1742  0.0843  0.3724
  101MPD2    C3 1540   2.770   1.495  13.133  1.0737  0.3045  0.4902
  101MPD2    C4 1541   2.864   1.568  13.202  0.4529 -0.0859 -0.1291
  101MPD2    C5 1542   2.905   1.691  13.151  0.3423 -0.2822  0.4449
  101MPD2     H 1543   2.652   1.495  12.956 -0.3958  0.1994  0.6009
  101MPD2    H1 1544   2.908   1.544  13.298  0.0654  1.2793  0.3929
  101MPD2    H2 1545   2.924   1.825  12.986  1.7774 -0.7212 -0.2787
  101MPD2    H3 1546   2.977   1.749  13.209 -0.2969 -0.3432  1.3020
  101MPD2     N 1547   2.724   1.378  13.192 -0.0669  0.0353  0.1028
  101MPD2    H5 1548   2.735   1.369  13.293  2.8017 -2.0198 -0.3866
  101MPD2    N1 1549   2.755   1.709  12.827 -0.3270  0.4691  0.4048
  101MPD2    H7 1550   2.805   1.792  12.797  0.3078  0.3190  1.0195
  102TCq2    C1 1551   2.891   1.984  12.469  0.6064  0.3106  0.4461
  102TCq2    O2 1552   2.974   2.007  12.558  0.0651  0.1651  0.1171
  102TCq2    C2 1553   2.768   1.902  12.495  0.1380 -0.4041  0.7865
  102TCq2    C3 1554   2.647   1.916  12.425  0.0289 -0.1206 -0.6654
  102TCq2    C4 1555   2.539   1.840  12.451 -0.8021  0.5307  0.3164
  102TCq2    C5 1556   2.556   1.750  12.549  0.1684 -0.1699 -0.1029
  102TCq2    C6 1557   2.677   1.727  12.605 -0.9346 -0.7361 -0.0334
  102TCq2    C7 1558   2.790   1.800  12.584 -0.4544  0.2715  0.1300
  102TCq2    C8 1559   2.668   1.657  12.732  0.1181  0.0869  0.4874
  102TCq2    O4 1560   2.580   1.572  12.746 -0.1310 -0.1350  0.2642
  102TCq2    C9 1561   2.424   1.869  12.371  0.2010  0.5236 -0.0631
  102TCq2    O5 1562   2.439   1.938  12.271 -0.1029 -0.3149  0.0589
  102TCq2    O6 1563   2.315   1.844  12.434  0.0210 -0.0322 -0.2877
  102TCq2    H2 1564   2.628   1.997  12.355 -1.0378 -1.3002 -1.7441
  102TCq2    H3 1565   2.476   1.685  12.581 -0.4058  0.1284 -0.9288
  102TCq2    H4 1566   2.891   1.791  12.620 -0.1708  1.8563 -0.2665
  103TMC2    C1 1567   1.654   2.175  12.623 -0.1701  0.0330 -0.6311
  103TMC2    C2 1568   1.628   2.259  12.517  1.3068  0.4179 -0.0798
  103TMC2    C3 1569   1.603   2.384  12.550  0.2960 -0.9395  0.8599
  103TMC2    C4 1570   1.644   2.216  12.758 -0.3614 -0.5314 -0.1663
  103TMC2    C5 1571   1.630   2.351  12.779 -0.1062 -0.0448  0.5558
  103TMC2    C6 1572   1.598   2.429  12.677  0.4461 -0.2024 -1.1070
  103TMC2     C 1573   1.614   2.040  12.589 -0.2601  0.3035 -0.4166
  103TMC2     O 1574   1.539   2.012  12.502 -0.1913 -0.0406  0.0663
  103TMC2     H 1575   1.631   2.225  12.414 -2.6065 -0.4749  0.0933
  103TMC2    H1 1576   1.659   2.164  12.852 -0.4136 -1.5180 -0.7079
  103TMC2    H2 1577   1.568   2.532  12.696  1.3603 -0.7045  2.9766
  103TMC2    C7 1578   1.576   2.398  12.909 -0.0174 -0.1390  0.1693
  103TMC2    C8 1579   1.549   2.463  12.442  0.3866 -0.5999 -0.4824
  103TMC2    O1 1580   1.651   2.422  13.003  0.7806  0.4379 -0.2107
  103TMC2    O2 1581   1.428   2.461  12.434  0.5259 -0.4395 -0.1353
  103TMC2    O5 1582   1.641   2.479  12.346  0.1854  0.5497  0.5511
  103TMC2    H5 1583   1.733   2.461  12.376  0.5764  2.5598  0.4949
  104MPD2     C 1584   1.663   1.755  12.811 -0.5233 -0.3264  0.3582
  104MPD2    C1 1585   1.621   1.822  12.697  0.3041  0.2954  0.3423
  104MPD2    C2 1586   1.544   1.751  12.605 -0.1369  0.6343  0.6800
  104MPD2    C3 1587   1.503   1.626  12.632  0.1592  0.2726  0.1980
  104MPD2    C4 1588   1.552   1.554  12.742 -0.6695  0.3489  0.3889
  104MPD2    C5 1589   1.644   1.618  12.825  0.1504 -0.0603 -0.2654
  104MPD2     H 1590   1.514   1.801  12.514  1.2484  0.6613  0.2375
  104MPD2    H1 1591   1.545   1.449  12.767  1.4223 -0.0301 -0.5962
  104MPD2    H2 1592   1.721   1.811  12.884  0.5489 -1.2800  0.2340
  104MPD2    H3 1593   1.703   1.564  12.899 -0.3795  1.0355  0.9510
  104MPD2     N 1594   1.423   1.564  12.528 -0.1573  0.2400  0.0026
  104MPD2    H5 1595   1.405   1.623  12.447 -2.2561 -0.8341 -0.3083
  104MPD2    N1 1596   1.663   1.957  12.687 -0.0073  0.5404 -0.0996
  104MPD2    H7 1597   1.740   1.990  12.745 -1.8295  4.3116  0.1362
  105MPD2     C 1598   3.331   1.182  16.598  0.1944  0.7625 -0.2127
  105MPD2    C1 1599   3.218   1.265  16.604  0.6164 -0.0028 -0.6896
  105MPD2    C2 1600   3.202   1.334  16.719  0.2973 -0.1279  0.9304
  105MPD2    C3 1601   3.280   1.326  16.830  0.0443  0.7013 -0.7615
  105MPD2    C4 1602   3.382   1.232  16.831  0.2823 -0.9982 -0.6335
  105MPD2    C5 1603   3.396   1.159  16.715 -0.5402 -0.1717 -0.3491
  105MPD2     H 1604   3.112   1.393  16.734  0.0813 -0.4888  1.0525
  105MPD2    H1 1605   3.443   1.205  16.917 -2.7368 -1.6040  1.3321
  105MPD2    H2 1606   3.352   1.125  16.508  3.9446  1.5111  0.1716
  105MPD2    H3 1607   3.478   1.088  16.714 -0.1066  0.3136  0.8241
  105MPD2     N 1608   3.233   1.392  16.941 -0.0320  0.0141 -0.2590
  105MPD2    H5 1609   3.156   1.456  16.927  1.1243  1.3361 -0.6579
  105MPD2    N1 1610   3.126   1.268  16.495  0.0239 -0.3292  0.1882
  105MPD2    H7 1611   3.133   1.203  16.417 -0.8775 -1.0677  0.7208
  106TCq2    C1 1612   3.247   1.338  17.068 -0.4315  0.4679  0.5453
  106TCq2    O2 1613   3.305   1.239  17.109 -0.1776  0.7585  0.1020
  106TCq2    C2 1614   3.150   1.387  17.165  0.0098 -0.7513 -0.2800
  106TCq2    C3 1615   3.138   1.517  17.192  0.2040 -0.2524 -0.6492
  106TCq2    C4 1616   3.078   1.558  17.304 -0.3585 -0.5402  0.3653
  106TCq2    C5 1617   3.026   1.466  17.393 -0.7325  0.1095  0.3817
  106TCq2    C6 1618   3.043   1.330  17.365 -0.1219 -0.4971 -0.7241
  106TCq2    C7 1619   3.103   1.289  17.248 -0.4443 -0.1705 -0.1882
  106TCq2    C8 1620   2.956   1.243  17.435  0.6543 -0.2086  0.1076
  106TCq2    O4 1621   2.961   1.123  17.404 -0.1082  0.8429 -0.3324
  106TCq2    C9 1622   3.087   1.692  17.351  0.1797 -0.5336 -0.2862
  106TCq2    O5 1623   3.163   1.768  17.281 -0.0104 -0.3688  0.1694
  106TCq2    O6 1624   3.049   1.731  17.461  0.0037 -0.3679  0.2962
  106TCq2    H2 1625   3.191   1.589  17.132  0.2672 -0.0001 -0.2937
  106TCq2    H3 1626   3.014   1.497  17.496  0.2940  1.3146  0.1476
  106TCq2    H4 1627   3.115   1.182  17.231  4.6765  0.2426  0.9121
  107TMC2    C1 1628   3.641   0.343  11.539  0.0210 -0.1822 -0.0796
  107TMC2    C2 1629   3.553   0.257  11.476 -0.5498  0.0690 -0.7184
  107TMC2    C3 1630   3.607   0.175  11.377  0.0884  0.4872  0.8198
  107TMC2    C4 1631   3.776   0.357  11.506 -0.7830 -0.8223  0.1523
  107TMC2    C5 1632   3.812   0.290  11.390 -0.0195 -1.1193  0.4059
  107TMC2    C6 1633   3.727   0.205  11.326  0.0820  0.2921 -0.5502
  107TMC2     C 1634   3.595   0.413  11.663  0.2235 -0.0496  0.2585
  107TMC2     O 1635   3.510   0.346  11.724  0.3500 -0.4665 -0.0503
  107TMC2     H 1636   3.448   0.258  11.504  0.2164  0.4310  2.1558
  107TMC2    H1 1637   3.847   0.420  11.559 -0.3619 -1.4199  0.3008
  107TMC2    H2 1638   3.744   0.163  11.227  1.1966 -1.1162  0.2472
  107TMC2    C7 1639   3.945   0.333  11.328 -0.6782 -0.1276  0.0410
  107TMC2    C8 1640   3.511   0.103  11.289  0.2489 -0.4165  0.0884
  107TMC2    O1 1641   4.013   0.412  11.395 -0.2612  0.4843 -0.5291
  107TMC2    O2 1642   3.515   0.104  11.164 -0.3018 -0.0193 -0.0825
  107TMC2    O5 1643   3.398   0.077  11.358 -0.4041 -0.3028  0.0947
  107TMC2    H5 1644   3.425   0.061  11.451 -0.1581 -0.8629 -0.0738
  108MPD2     C 1645   3.578   0.767  11.745  0.2668 -0.0805  0.3068
  108MPD2    C1 1646   3.569   0.637  11.768 -0.2617 -0.0311  0.3030
  108MPD2    C2 1647   3.490   0.603  11.878  0.4382 -0.2384  0.8194
  108MPD2    C3 1648   3.422   0.694  11.956 -0.2286 -0.0787  0.3611
  108MPD2    C4 1649   3.432   0.828  11.923 -0.4988 -0.6894  0.2628
  108MPD2    C5 1650   3.521   0.860  11.825 -0.8208 -0.3502  0.0405
  108MPD2     H 1651   3.470   0.502  11.912 -0.2497  0.6421  3.0715
  108MPD2    H1 1652   3.393   0.900  11.995  1.2951  0.2625  0.2863
  108MPD2    H2 1653   3.640   0.806  11.666  1.8108 -2.3184  0.4008
  108MPD2    H3 1654   3.528   0.965  11.799 -0.7663 -0.5824 -0.8825
  108MPD2     N 1655   3.350   0.667  12.077 -1.0140 -0.0223 -0.1044
  108MPD2    H5 1656   3.282   0.736  12.108 -1.2122 -0.9670  1.5310
  108MPD2    N1 1657   3.628   0.546  11.674 -0.0559  0.4669 -0.6127
  108MPD2    H7 1658   3.686   0.588  11.601 -0.9131 -0.8956 -2.0881
  109MPD2     C 1659   4.179   1.427   1.998  0.1750  0.0118 -0.0401
  109MPD2    C1 1660   4.078   1.519   1.968  0.2143 -0.0295  0.2150
  109MPD2    C2 1661   4.106   1.621   1.892  0.3358 -0.0707 -0.2864
  109MPD2    C3 1662   4.234   1.658   1.862 -0.0771 -0.5090 -0.0740
  109MPD2    C4 1663   4.335   1.568   1.897  0.4879  0.3882 -0.4696
  109MPD2    C5 1664   4.297   1.440   1.947  0.5956 -0.6687 -0.0482
  109MPD2     H 1665   4.029   1.693   1.868  0.8915  0.6726  0.1931
  109MPD2    H1 1666   4.433   1.579   1.853  0.8788 -0.0776  0.2766
  109MPD2    H2 1667   4.151   1.329   2.036 -0.2252 -0.3580 -1.3128
  109MPD2    H3 1668   4.365   1.357   1.961  0.9141 -0.5936 -1.1713
  109MPD2     N 1669   4.258   1.782   1.801 -0.8408 -0.1034  0.0404
  109MPD2    H5 1670   4.177   1.842   1.791 -0.5278  0.4000  0.5266
  109MPD2    N1 1671   3.938   1.505   1.996  0.3595  0.7420  0.1776
  109MPD2    H7 1672   3.876   1.582   1.976 -0.0107  0.5004  0.3944
  110TCq2    C1 1673   4.380   1.825   1.766 -0.0757  0.4643 -0.3985
  110TCq2    O2 1674   4.491   1.773   1.772  0.2417 -0.3491  0.3120
  110TCq2    C2 1675   4.386   1.949   1.694  0.5752 -0.7611 -0.0635
  110TCq2    C3 1676   4.502   2.019   1.710 -0.0062  0.0327 -0.0558
  110TCq2    C4 1677   4.502   2.151   1.667 -0.0463  0.1463 -0.4776
  110TCq2    C5 1678   4.395   2.213   1.605  0.4028 -0.3471 -0.1910
  110TCq2    C6 1679   4.273   2.150   1.615  0.4569  1.0211 -0.6870
  110TCq2    C7 1680   4.268   2.012   1.654  0.5582 -0.5686  0.2466
  110TCq2    C8 1681   4.165   2.220   1.549 -0.5054 -0.1816 -0.2671
  110TCq2    O4 1682   4.189   2.293   1.456  0.2177  0.7113  0.2647
  110TCq2    C9 1683   4.625   2.223   1.672 -0.8167  0.4995  0.2997
  110TCq2    O5 1684   4.609   2.347   1.639 -0.1569 -0.4742 -0.0574
  110TCq2    O6 1685   0.008   2.169   1.723  0.3612 -0.0330  0.0388
  110TCq2    H2 1686   4.591   1.976   1.754  0.5812 -0.1300 -1.3975
  110TCq2    H3 1687   4.408   2.316   1.572  1.1735 -0.5954 -0.6620
  110TCq2    H4 1688   4.174   1.957   1.650  0.2933 -0.0285 -0.7770
  111TMC2    C1 1689   3.666   2.681  11.389 -0.3464  0.2226  0.3210
  111TMC2    C2 1690   3.763   2.733  11.315  0.0090 -0.1173  0.3592
  111TMC2    C3 1691   3.892   2.685  11.338  0.6118 -0.1550  0.1023
  111TMC2    C4 1692   3.677   2.571  11.467 -0.2792  0.4955 -0.5322
  111TMC2    C5 1693   3.800   2.512  11.476 -0.3193 -1.7020  0.4095
  111TMC2    C6 1694   3.911   2.572  11.416 -0.0571 -0.9625 -0.9507
  111TMC2     C 1695   3.530   2.742  11.383  0.8396 -0.5185  0.1551
  111TMC2     O 1696   3.503   2.807  11.284 -0.0721  0.0045 -0.0964
  111TMC2     H 1697   3.751   2.814  11.244  0.3591  0.7995  1.3442
  111TMC2    H1 1698   3.600   2.514  11.518 -0.6355  0.4431 -1.1327
  111TMC2    H2 1699   4.012   2.547  11.447 -0.1655 -1.0896 -0.6997
  111TMC2    C7 1700   3.814   2.430  11.598  0.3213  0.1692  0.1761
  111TMC2    C8 1701   4.003   2.724  11.264  0.0104  0.0040  0.4027
  111TMC2    O1 1702   3.715   2.388  11.659  0.1474 -0.6641 -0.5228
  111TMC2    O2 1703   4.052   2.646  11.184 -0.6075 -0.0354 -0.0467
  111TMC2    O5 1704   4.077   2.756  11.375 -0.0668 -0.3899 -0.6897
  111TMC2    H5 1705   4.023   2.809  11.439  0.3419  0.6850 -1.2316
  112MPD2     C 1706   3.041   2.764  11.527  0.6294 -0.5555  0.4527
  112MPD2    C1 1707   3.095   2.776  11.403  0.1237 -0.1713 -0.7322
  112MPD2    C2 1708   3.231   2.752  11.384 -0.7819 -0.4038 -0.6092
  112MPD2    C3 1709   3.311   2.734  11.498 -0.7155 -0.1589 -0.1394
  112MPD2    C4 1710   3.253   2.736  11.624 -0.4125  0.2404  0.4231
  112MPD2    C5 1711   3.116   2.744  11.638  0.2126 -0.7007  0.9206
  112MPD2     H 1712   3.265   2.739  11.282  0.9464 -0.6899 -0.0083
  112MPD2    H1 1713   3.304   2.730  11.719  0.6114 -0.7114 -0.1971
  112MPD2    H2 1714   2.936   2.781  11.549  0.6218 -0.8927  0.6763
  112MPD2    H3 1715   3.069   2.743  11.735 -1.5732  2.4590  0.0828
  112MPD2     N 1716   3.449   2.711  11.488  0.3154  0.5609  0.7208
  112MPD2    H5 1717   3.493   2.694  11.578  1.6866 -0.0778 -0.0714
  112MPD2    N1 1718   3.014   2.796  11.283  0.4111 -0.8133 -0.4806
  112MPD2    H7 1719   3.062   2.792  11.194 -1.2649 -3.8245 -1.2585
  113MPD2     C 1720   2.352   0.622   0.618  0.1395 -0.1955 -0.1918
  113MPD2    C1 1721   2.247   0.667   0.694  0.4114  0.1316  1.1070
  113MPD2    C2 1722   2.131   0.590   0.704  0.8506  1.0266 -0.3970
  113MPD2    C3 1723   2.119   0.473   0.629  0.3809 -0.4761 -0.2615
  113MPD2    C4 1724   2.220   0.431   0.543  0.1121 -0.4491 -0.2463
  113MPD2    C5 1725   2.335   0.506   0.545 -0.1315 -1.5396 -0.3061
  113MPD2     H 1726   2.066   0.635   0.779 -0.8562  0.0437 -1.2740
  113MPD2    H1 1727   2.217   0.340   0.485 -2.8852 -0.0649 -0.7201
  113MPD2    H2 1728   2.443   0.680   0.608  0.3870 -0.4625  0.4996
  113MPD2    H3 1729   2.418   0.467   0.488 -0.6100  0.6933 -2.5127
  113MPD2     N 1730   1.998   0.395   0.632  0.0575  0.4499  0.1006
  113MPD2    H5 1731   1.993   0.315   0.571 -1.5940  2.3879 -2.2912
  113MPD2    N1 1732   2.245   0.784   0.782 -0.3497 -0.3336 -0.4285
  113MPD2    H7 1733   2.166   0.800   0.845  0.1621  0.5784 -0.0179
  114TCq2    C1 1734   1.883   0.435   0.700  0.6422 -0.1339 -0.1769
  114TCq2    O2 1735   1.864   0.538   0.768 -0.2937 -0.0775 -0.4812
  114TCq2    C2 1736   1.779   0.341   0.696 -0.2233 -0.0146  0.0149
  114TCq2    C3 1737   1.649   0.388   0.725  0.3148 -0.2162  0.1087
  114TCq2    C4 1738   1.550   0.291   0.722 -0.2145  0.3993 -0.0035
  114TCq2    C5 1739   1.577   0.161   0.690 -0.2771 -0.2386 -0.3651
  114TCq2    C6 1740   1.704   0.119   0.683 -0.4387  0.3799  0.6371
  114TCq2    C7 1741   1.808   0.209   0.683 -0.1291 -0.0684 -0.4398
  114TCq2    C8 1742   1.739   4.700   0.661 -0.0285 -0.1905  0.4750
  114TCq2    O4 1743   1.829   4.686   0.582  0.2983  0.0766 -0.6368
  114TCq2    C9 1744   1.413   0.313   0.764 -0.5219  0.4330 -0.6148
  114TCq2    O5 1745   1.377   0.433   0.780  0.1291 -0.1976 -0.2229
  114TCq2    O6 1746   1.348   0.217   0.802 -0.9935 -0.2436 -0.3369
  114TCq2    H2 1747   1.629   0.492   0.747  1.1232  0.0926 -0.6283
  114TCq2    H3 1748   1.497   0.088   0.703 -0.4111 -0.0752 -0.2733
  114TCq2    H4 1749   1.909   0.170   0.681  0.6205  1.8355  0.0926
  115TMC2    C1 1750   2.594   2.995  17.479 -0.4698  0.6011 -0.5527
  115TMC2    C2 1751   2.589   3.070  17.365 -0.0805  0.0012  0.2523
  115TMC2    C3 1752   2.646   3.194  17.362  0.2000 -0.0780  0.4141
  115TMC2    C4 1753   2.665   3.035  17.585 -0.3426  0.8890  0.3238
  115TMC2    C5 1754   2.731   3.156  17.579  0.1847  0.7403  0.1492
  115TMC2    C6 1755   2.728   3.234  17.466 -0.1526 -0.0659  0.2051
  115TMC2     C 1756   2.543   2.862  17.472  0.1600  0.1086 -0.0843
  115TMC2     O 1757   2.514   2.828  17.359  0.3299 -0.1178 -0.7909
  115TMC2     H 1758   2.524   3.041  17.283  1.2696 -0.7073 -0.5690
  115TMC2    H1 1759   2.677   2.968  17.669 -0.3076  1.8561  1.0865
  115TMC2    H2 1760   2.791   3.321  17.453 -2.6259  1.5231 -1.1705
  115TMC2    C7 1761   2.829   3.196  17.678 -0.3303 -0.4422 -0.1451
  115TMC2    C8 1762   2.590   3.292  17.278  0.0333  0.1522 -0.0735
  115TMC2    O1 1763   2.860   3.119   0.086 -0.1968 -0.3566 -0.3372
  115TMC2    O2 1764   2.531   3.270  17.174  0.4024  0.9503  0.6300
  115TMC2    O5 1765   2.576   3.408  17.344 -0.1133  0.2852  0.1793
  115TMC2    H5 1766   2.621   3.415  17.430 -1.8992  2.4253  0.9513
  116MPD2     C 1767   2.363   2.410  17.664  0.0888  0.0980  0.1105
  116MPD2    C1 1768   2.409   2.434  17.539 -0.0123 -0.0231  0.1484
  116MPD2    C2 1769   2.455   2.564  17.510 -0.5795 -0.0645 -0.3586
  116MPD2    C3 1770   2.469   2.660  17.609 -0.4182  0.2762 -0.1117
  116MPD2    C4 1771   2.459   2.619   0.060  0.0918 -0.8981 -0.2935
  116MPD2    C5 1772   2.410   2.492   0.085  0.2234  0.2672  0.2074
  116MPD2     H 1773   2.497   2.590  17.414 -0.8082 -2.2562 -1.0380
  116MPD2    H1 1774   2.471   2.694   0.136  0.4346 -1.8447  0.5849
  116MPD2    H2 1775   2.311   2.319   0.010 -1.2132  1.0121  0.7139
  116MPD2    H3 1776   2.390   2.475   0.190 -2.1275  0.3782 -0.2175
  116MPD2     N 1777   2.522   2.790  17.593 -0.5516 -0.2514  0.0874
  116MPD2    H5 1778   2.538   2.845  17.677 -1.8172 -1.4384  1.0854
  116MPD2    N1 1779   2.386   2.329  17.437  0.8001  0.1877  0.1251
  116MPD2    H7 1780   2.336   2.245  17.463 -0.6234  0.9561 -0.0948
  117TMC2    C1 1781   1.152   3.995  13.459  0.4089 -0.0369  0.5816
  117TMC2    C2 1782   1.214   3.881  13.496 -0.3741 -0.1861 -0.0681
  117TMC2    C3 1783   1.348   3.873  13.480  0.1698  0.3010  0.1769
  117TMC2    C4 1784   1.233   4.103  13.413  0.3386  0.3150 -0.0938
  117TMC2    C5 1785   1.370   4.083  13.400 -0.1448 -0.5950  0.4254
  117TMC2    C6 1786   1.425   3.968  13.431  0.1203  0.3082  0.5710
  117TMC2     C 1787   1.004   4.002  13.456 -1.2351 -0.5482 -0.1229
  117TMC2     O 1788   0.952   3.893  13.469 -0.0244 -0.1749  0.2382
  117TMC2     H 1789   1.148   3.797  13.514 -1.6365  0.8173  0.0310
  117TMC2    H1 1790   1.187   4.198  13.390  0.4703  0.0963 -1.2351
  117TMC2    H2 1791   1.531   3.945  13.426  0.2311  1.5883 -2.3090
  117TMC2    C7 1792   1.450   4.186  13.344  0.6735  0.0920  0.5250
  117TMC2    C8 1793   1.418   3.767  13.558 -0.3962 -0.4230 -0.1545
  117TMC2    O1 1794   1.559   4.148  13.298  0.6033  0.1315 -0.3663
  117TMC2    O2 1795   1.535   3.737  13.533  0.1116 -0.1448 -0.2795
  117TMC2    O5 1796   1.356   3.756  13.675  0.6594 -0.1958  0.1355
  117TMC2    H5 1797   1.273   3.802  13.700  1.7020  0.0291  3.1368
  118MPD2     C 1798   1.562   4.439  13.224  0.2308 -0.1119  0.0992
  118MPD2    C1 1799   1.474   4.438  13.328 -0.0502  0.3061 -0.4661
  118MPD2    C2 1800   1.440   4.557  13.398 -0.3616 -0.1628  0.0968
  118MPD2    C3 1801   1.484   4.679  13.359 -0.1497  0.3988 -0.2757
  118MPD2    C4 1802   1.575   4.679  13.256  0.3092 -1.2198  0.1965
  118MPD2    C5 1803   1.608   4.564  13.187 -0.2574  0.3593  0.1879
  118MPD2     H 1804   1.368   4.552  13.478 -1.0068 -3.1704 -0.6883
  118MPD2    H1 1805   1.629   0.046  13.218 -1.0440  0.7371  2.6870
  118MPD2    H2 1806   1.591   4.354  13.163 -1.3032  0.7351 -1.8126
  118MPD2    H3 1807   1.679   4.558  13.105 -1.5131 -0.8030 -0.8164
  118MPD2     N 1808   1.446   0.081  13.419  0.3560  0.5813 -0.4891
  118MPD2    H5 1809   1.486   0.170  13.391  0.6855  0.4901 -0.3130
  118MPD2    N1 1810   1.410   4.314  13.377 -0.7910  0.5631  0.5237
  118MPD2    H7 1811   1.330   4.323  13.439 -1.3439 -1.8217  0.1373
  119MPD2     C 1812   4.262   1.336  13.495  0.2820  0.5614  0.5220
  119MPD2    C1 1813   4.132   1.317  13.532 -0.0630  0.6332  0.3317
  119MPD2    C2 1814   4.050   1.232  13.453  0.0321  0.3286  0.3510
  119MPD2    C3 1815   4.094   1.182  13.328 -0.2505 -0.1606  0.0320
  119MPD2    C4 1816   4.227   1.191  13.304  0.3810  0.5416 -0.7242
  119MPD2    C5 1817   4.314   1.259  13.394 -0.1016 -0.4841 -0.0093
  119MPD2     H 1818   3.949   1.214  13.488  0.0276  0.7270  0.5387
  119MPD2    H1 1819   4.281   1.166  13.213  3.1741 -0.3557  1.1733
  119MPD2    H2 1820   4.325   1.405  13.550  1.4820 -0.8695  0.9379
  119MPD2    H3 1821   4.417   1.276  13.365 -0.0834 -0.1238  0.2617
  119MPD2     N 1822   4.014   1.108  13.245 -0.0279  0.0572 -0.1909
  119MPD2    H5 1823   4.053   1.045  13.176  1.4600  0.0061  0.7012
  119MPD2    N1 1824   4.094   1.377  13.655  0.3257 -0.2411 -0.3364
  119MPD2    H7 1825   4.171   1.421  13.704 -0.8699  1.7515 -0.2451
  120TCq2    C1 1826   3.881   1.095  13.273  0.0955  0.5711  0.6514
  120TCq2    O2 1827   3.805   1.160  13.347  0.8527 -0.2304 -0.2640
  120TCq2    C2 1828   3.830   0.968  13.236  0.1659 -0.0377  0.0114
  120TCq2    C3 1829   3.854   0.904  13.118 -0.1937 -0.2469 -0.2877
  120TCq2    C4 1830   3.792   0.790  13.079  0.1511  0.2516 -0.0492
  120TCq2    C5 1831   3.694   0.733  13.155  0.1379  0.9023 -0.4753
  120TCq2    C6 1832   3.675   0.785  13.276  0.4876  0.1938 -0.1037
  120TCq2    C7 1833   3.739   0.903  13.322 -0.1768  0.6242  0.2643
  120TCq2    C8 1834   3.558   0.742  13.345 -0.9488  0.4806  0.5279
  120TCq2    O4 1835   3.448   0.722  13.293  0.4868  0.3830  0.3011
  120TCq2    C9 1836   3.813   0.737  12.948  0.2365 -0.1303 -0.2533
  120TCq2    O5 1837   3.891   0.802  12.871 -0.1760 -0.6515 -0.3882
  120TCq2    O6 1838   3.777   0.620  12.929 -0.2923  0.4052  0.5098
  120TCq2    H2 1839   3.933   0.946  13.056 -0.6058  0.3841 -0.3822
  120TCq2    H3 1840   3.631   0.649  13.127 -0.9947  2.1851 -1.8089
  120TCq2    H4 1841   3.705   0.948  13.414  2.2889  0.5174  1.2324
  121TMC2    C1 1842   1.004   2.634  13.950 -0.6617  0.1966  0.3705
  121TMC2    C2 1843   0.972   2.594  14.077 -0.0951  0.5042 -0.5613
  121TMC2    C3 1844   0.842   2.545  14.096  0.2250  0.1537 -0.3255
  121TMC2    C4 1845   0.910   2.659  13.849  0.1320 -0.0276 -0.2211
  121TMC2    C5 1846   0.783   2.620  13.877 -0.4126 -0.5118 -0.7184
  121TMC2    C6 1847   0.746   2.557  13.999 -0.5599 -0.2575 -0.1914
  121TMC2     C 1848   1.134   2.706  13.939  0.1573  0.2223  0.0409
  121TMC2     O 1849   1.196   2.701  14.042 -0.7832 -0.1366  0.1074
  121TMC2     H 1850   1.042   2.581  14.158 -2.8467  1.7710  1.9894
  121TMC2    H1 1851   0.935   2.682  13.746 -2.5643 -1.0840 -1.1283
  121TMC2    H2 1852   0.645   2.521  14.012 -0.9706 -0.7060 -4.7131
  121TMC2    C7 1853   0.686   2.676  13.786 -0.1432  0.1841  0.1172
  121TMC2    C8 1854   0.828   2.450  14.202  0.3927 -0.0252  0.9642
  121TMC2    O1 1855   0.727   2.749  13.698  0.4885 -0.7453 -0.3931
  121TMC2    O2 1856   0.872   2.475  14.313  0.3538 -0.2073 -0.1723
  121TMC2    O5 1857   0.733   2.362  14.171 -0.1614 -0.0801 -0.2267
  121TMC2    H5 1858   0.724   2.355  14.074  3.1817 -0.1545 -0.5560
  122MPD2     C 1859   1.353   2.902  13.877  0.4251  0.5185  0.3835
  122MPD2    C1 1860   1.248   2.879  13.795 -0.3236 -0.4261  0.4256
  122MPD2    C2 1861   1.240   2.945  13.672 -0.0147 -0.6138 -0.3195
  122MPD2    C3 1862   1.346   3.025  13.633  0.3936 -0.0494 -0.1347
  122MPD2    C4 1863   1.462   3.034  13.711 -0.3044  0.5383 -0.1063
  122MPD2    C5 1864   1.458   2.980  13.834 -0.0722 -0.8729  0.2879
  122MPD2     H 1865   1.155   2.926  13.608  0.0940 -0.0004 -0.6503
  122MPD2    H1 1866   1.541   3.105  13.689 -0.6550  1.0111  0.1501
  122MPD2    H2 1867   1.367   2.856  13.974  0.9284 -2.5317 -1.1543
  122MPD2    H3 1868   1.547   2.976  13.895  0.6010 -1.6477 -0.7438
  122MPD2     N 1869   1.345   3.098  13.510 -0.2382  0.4696  0.3720
  122MPD2    H5 1870   1.427   3.145  13.472  0.6246 -0.2383  1.3544
  122MPD2    N1 1871   1.148   2.774  13.819 -0.0818  0.0007 -0.0621
  122MPD2    H7 1872   1.079   2.760  13.747 -0.2142  2.5398 -0.4311
  123MPD2     C 1873   3.214   0.730  11.102  0.0765 -0.4965  0.4168
  123MPD2    C1 1874   3.326   0.746  11.020  0.5417  0.2804 -0.6276
  123MPD2    C2 1875   3.402   0.858  11.033 -0.1005  0.4649 -0.3098
  123MPD2    C3 1876   3.368   0.956  11.121 -0.0124 -0.9548  0.3855
  123MPD2    C4 1877   3.258   0.942  11.208 -0.5902 -0.1544 -0.4840
  123MPD2    C5 1878   3.176   0.828  11.196 -0.7112 -0.1130 -0.4458
  123MPD2     H 1879   3.481   0.880  10.962  0.0474  1.8459  0.2898
  123MPD2    H1 1880   3.224   1.020  11.275  0.0146  1.2229 -1.7493
  123MPD2    H2 1881   3.150   0.645  11.085 -1.8547  0.9011  0.6306
  123MPD2    H3 1882   3.083   0.814  11.249  0.4017 -0.8583  1.3072
  123MPD2     N 1883   3.436   1.074  11.123 -0.3345  0.5599 -0.4230
  123MPD2    H5 1884   3.517   1.078  11.061 -0.4498  1.7569 -0.4978
  123MPD2    N1 1885   3.357   0.640  10.933  0.0567 -0.1261 -0.4589
  123MPD2    H7 1886   3.282   0.573  10.921 -0.3630  0.2689 -0.0313
  124TCq2    C1 1887   3.409   1.192  11.188 -0.1878  0.4018 -1.1634
  124TCq2    O2 1888   3.330   1.217  11.279 -0.3883 -0.4351  0.8398
  124TCq2    C2 1889   3.492   1.295  11.142  0.1120 -0.6593 -0.9764
  124TCq2    C3 1890   3.520   1.399  11.227  0.0307  0.2567 -0.1626
  124TCq2    C4 1891   3.610   1.486  11.178 -0.3644 -0.1360  0.3112
  124TCq2    C5 1892   3.675   1.479  11.058 -0.8460  0.3985 -0.1926
  124TCq2    C6 1893   3.655   1.364  10.982 -0.9536  0.4196  0.5075
  124TCq2    C7 1894   3.558   1.280  11.021  0.9502 -0.6046  0.3487
  124TCq2    C8 1895   3.718   1.332  10.851  0.5733 -0.4599  0.4005
  124TCq2    O4 1896   3.707   1.213  10.817  0.1988 -0.1486 -0.1696
  124TCq2    C9 1897   3.628   1.605  11.257 -0.3755 -0.6272 -0.6414
  124TCq2    O5 1898   3.719   1.685  11.220 -0.1603  0.2563  0.2164
  124TCq2    O6 1899   3.550   1.635  11.345 -0.0923  0.1426  0.3894
  124TCq2    H2 1900   3.473   1.422  11.322  1.1976 -3.1135  1.2452
  124TCq2    H3 1901   3.743   1.560  11.030  1.7517 -1.4492  0.7412
  124TCq2    H4 1902   3.508   1.218  10.948  0.2328 -1.1460  1.2895
  125TMC2    C1 1903   0.043   3.334   9.572 -0.7990 -0.2663 -0.2035
  125TMC2    C2 1904   4.703   3.443   9.634 -0.3534  0.0983 -0.8635
  125TMC2    C3 1905   0.032   3.565   9.600 -0.3482 -0.3825  0.0210
  125TMC2    C4 1906   0.128   3.343   9.462 -0.7227 -0.8689 -0.5693
  125TMC2    C5 1907   0.183   3.462   9.441 -0.3941 -0.3886 -0.2556
  125TMC2    C6 1908   0.133   3.576   9.505  0.8949  0.1535  0.5266
  125TMC2     C 1909   0.003   3.201   9.612 -0.5053  0.2273 -0.0327
  125TMC2     O 1910   4.605   3.189   9.638  0.4984 -0.1195 -1.0872
  125TMC2     H 1911   4.640   3.427   9.720  1.2939  1.7704  0.6511
  125TMC2    H1 1912   0.151   3.253   9.406 -0.2477 -0.1593 -1.5089
  125TMC2    H2 1913   0.187   3.668   9.488  0.7474 -0.0848 -1.2028
  125TMC2    C7 1914   0.284   3.481   9.343 -0.0075 -0.5163  0.1144
  125TMC2    C8 1915   4.686   3.676   9.654  0.3277 -0.2161 -0.1321
  125TMC2    O1 1916   0.309   3.596   9.314 -0.1406  0.3386 -0.0601
  125TMC2    O2 1917   4.581   3.660   9.716 -0.7376  0.0195 -0.8492
  125TMC2    O5 1918   0.071   3.748   9.700  0.6017 -0.4496 -0.7236
  125TMC2    H5 1919   0.158   3.744   9.656 -0.0792  1.7848 -2.2886
  126MPD1     C 1920   0.068   2.702   9.732  0.0231  0.6592  0.2798
  126MPD1    C1 1921   0.192   2.758   9.721 -0.3016 -0.4537 -0.5654
  126MPD1    C2 1922   0.198   2.885   9.666 -0.1948  0.8003 -0.4526
  126MPD1    C3 1923   0.083   2.965   9.654  0.1630  0.1248  0.2787
  126MPD1    C4 1924   4.681   2.916   9.690 -0.2533  0.0544 -0.4975
  126MPD1    C5 1925   4.676   2.779   9.718  0.1832 -0.1613 -0.3392
  126MPD1     H 1926   0.289   2.933   9.631 -0.4622  0.5014 -1.5677
  126MPD1    H1 1927   4.585   2.967   9.689  0.3997  1.3056  0.4336
  126MPD1    H2 1928   0.062   2.597   9.758 -3.5459  0.6258 -0.6858
  126MPD1    H3 1929   4.586   2.720   9.722  1.1088 -1.6932 -2.1154
  126MPD1     N 1930   0.102   3.106   9.617  0.6052  0.2489  0.8299
  126MPD1    H5 1931   0.198   3.129   9.595  0.7645 -0.6897  0.5451
  126MPD1    N1 1932   0.302   2.667   9.724  0.3905  0.5799  0.3679
  126MPD1    H6 1933   0.396   2.704   9.727  0.8791 -0.4297 -2.8365
  126MPD1    H7 1934   0.292   2.612   9.810 -0.4366 -1.9069 -1.3218
  127MPD2     C 1935   1.240   1.646   9.221 -0.3251 -0.7980 -0.1222
  127MPD2    C1 1936   1.300   1.643   9.344 -0.7528 -0.5545 -0.2411
  127MPD2    C2 1937   1.404   1.728   9.375 -0.7383  0.7639 -0.1115
  127MPD2    C3 1938   1.441   1.825   9.291 -0.7782  0.3195  0.0137
  127MPD2    C4 1939   1.382   1.837   9.168 -0.3049 -0.3353 -0.3686
  127MPD2    C5 1940   1.284   1.743   9.132  0.9950 -0.2737  0.0709
  127MPD2     H 1941   1.464   1.715   9.464 -0.6750 -2.1445 -0.5679
  127MPD2    H1 1942   1.422   1.909   9.097 -0.1546  0.8387  0.9030
  127MPD2    H2 1943   1.172   1.573   9.179 -0.2546 -0.2933 -1.1353
  127MPD2    H3 1944   1.231   1.744   9.038  1.3213  1.0296 -0.0953
  127MPD2     N 1945   1.538   1.913   9.338  0.2544 -0.1647  0.3318
  127MPD2    H5 1946   1.573   1.876   9.426  2.6464  0.4721 -0.3673
  127MPD2    N1 1947   1.239   1.550   9.437 -0.7982 -0.2494  0.6072
  127MPD2    H7 1948   1.177   1.482   9.395 -1.0064  0.9882 -1.1130
  128TCq2    C1 1949   1.273   1.534   9.567  0.1977  0.5623 -0.4222
  128TCq2    O2 1950   1.359   1.590   9.634  0.7056 -0.0764 -0.2797
  128TCq2    C2 1951   1.177   1.452   9.636  0.0763 -0.2170 -0.0133
  128TCq2    C3 1952   1.216   1.412   9.765  0.5679  0.0600 -0.5437
  128TCq2    C4 1953   1.131   1.332   9.836 -0.0753 -0.2500  0.5492
  128TCq2    C5 1954   1.013   1.289   9.785 -0.0976 -0.1019 -0.6512
  128TCq2    C6 1955   0.981   1.333   9.662 -0.1428  0.2434 -0.4473
  128TCq2    C7 1956   1.057   1.417   9.582 -0.4382  0.2969  0.3851
  128TCq2    C8 1957   0.846   1.325   9.620 -0.5205 -0.6609  0.0646
  128TCq2    O4 1958   0.795   1.418   9.561 -0.1621  0.0774 -0.1682
  128TCq2    C9 1959   1.150   1.305   9.978 -0.5917 -0.1720 -0.0308
  128TCq2    O5 1960   1.061   1.246  10.045 -0.0611 -0.8905  0.4237
  128TCq2    O6 1961   1.247   1.368  10.026  0.6409 -0.3675  0.1384
  128TCq2    H2 1962   1.303   1.450   9.817  1.0452 -0.3567 -1.0473
  128TCq2    H3 1963   0.942   1.238   9.849 -0.3668  0.6680 -0.3336
  128TCq2    H4 1964   1.021   1.437   9.482 -0.2168 -1.8758 -0.1369
  129MPD2     C 1965   3.878   1.912   1.339  0.3360  0.5022 -0.2318
  129MPD2    C1 1966   4.005   1.931   1.305 -0.3380  0.5532  0.2810
  129MPD2    C2 1967   4.048   2.037   1.228  0.6534  0.2656 -0.1852
  129MPD2    C3 1968   3.948   2.121   1.176  0.6901 -0.2234 -0.2938
  129MPD2    C4 1969   3.819   2.097   1.206  0.1708 -0.1369 -0.1435
  129MPD2    C5 1970   3.789   1.991   1.284 -0.4469 -0.8967 -0.4537
  129MPD2     H 1971   4.149   2.051   1.192  1.6625 -0.4509  2.3806
  129MPD2    H1 1972   3.737   2.155   1.168  0.4662  0.5776  0.3144
  129MPD2    H2 1973   3.840   1.833   1.403  1.0274  1.0204  0.8184
  129MPD2    H3 1974   3.682   1.970   1.289 -0.8466  0.4715 -3.4269
  129MPD2     N 1975   3.983   2.227   1.082  0.0251  0.0477 -0.4660
  129MPD2    H5 1976   4.082   2.228   1.060 -0.3417  0.4361 -2.1462
  129MPD2    N1 1977   4.118   1.852   1.350 -0.3911  0.7702  0.5218
  129MPD2    H7 1978   4.206   1.894   1.320 -0.9597  0.8806 -0.9909
  130TCq2    C1 1979   4.110   1.739   1.425  0.2617  0.4083  0.5513
  130TCq2    O2 1980   4.007   1.689   1.465  0.6991  0.5695  0.7408
  130TCq2    C2 1981   4.236   1.679   1.470  0.8782  0.4257 -0.6364
  130TCq2    C3 1982   4.356   1.715   1.405  0.1499 -0.4219 -0.1770
  130TCq2    C4 1983   4.457   1.619   1.410  0.0674 -0.2399  0.4149
  130TCq2    C5 1984   4.443   1.502   1.475 -0.5079 -0.0095 -0.1277
  130TCq2    C6 1985   4.333   1.482   1.541 -0.3166 -0.8235  0.3249
  130TCq2    C7 1986   4.227   1.567   1.543 -0.3905 -0.8362 -0.0906
  130TCq2    C8 1987   4.305   1.342   1.592  1.0654 -0.5355 -1.4234
  130TCq2    O4 1988   4.188   1.312   1.612 -0.2443 -0.3364  0.7738
  130TCq2    C9 1989   4.584   1.649   1.348 -0.8453 -0.6446 -1.1321
  130TCq2    O5 1990   4.685   1.598   1.392 -0.1350 -0.2477 -0.2968
  130TCq2    O6 1991   4.585   1.748   1.267 -0.1925  0.1372 -0.7291
  130TCq2    H2 1992   4.363   1.810   1.352  4.3226 -0.5415  0.2190
  130TCq2    H3 1993   4.530   1.437   1.476  0.5398  1.3440 -3.5368
  130TCq2    H4 1994   4.132   1.540   1.589 -0.8679 -2.7425 -2.2214
  131MPD2     C 1995   3.577   0.900  10.009  0.0863 -0.1534 -0.4732
  131MPD2    C1 1996   3.582   0.962  10.134 -0.5806  0.4296 -1.1942
  131MPD2    C2 1997   3.540   0.887  10.244 -0.1589  0.0273 -0.0276
  131MPD2    C3 1998   3.494   0.759  10.236  0.1041 -0.4699  0.1442
  131MPD2    C4 1999   3.495   0.697  10.115 -0.2342 -0.0648  0.1199
  131MPD2    C5 2000   3.531   0.768  10.009  0.0996 -0.5079 -0.0852
  131MPD2     H 2001   3.536   0.939  10.339  1.0361  0.3891 -0.1824
  131MPD2    H1 2002   3.443   0.607  10.088 -0.9091  0.4421 -0.2516
  131MPD2    H2 2003   3.600   0.949   9.915 -0.6934 -0.3611 -0.7715
  131MPD2    H3 2004   3.521   0.716   9.914  1.4991 -0.0577 -0.4854
  131MPD2     N 2005   3.450   0.695  10.352 -0.0105  0.2127 -0.2537
  131MPD2    H5 2006   3.449   0.750  10.437  1.0093  0.9570 -0.7143
  131MPD2    N1 2007   3.628   1.089  10.137 -0.2461 -0.2579  0.2858
  131MPD2    H7 2008   3.655   1.123  10.045  1.0173 -2.2787 -0.1027
  132TCq2    C1 2009   3.686   1.638  10.359 -0.4745  0.4443  0.3693
  132TCq2    O2 2010   3.605   1.625  10.452 -0.2036  0.1357  0.1062
  132TCq2    C2 2011   3.739   1.519  10.297 -0.0856 -0.0781  0.5975
  132TCq2    C3 2012   3.844   1.527  10.204 -0.4772  0.5231  0.2386
  132TCq2    C4 2013   3.859   1.425  10.117 -0.1714  0.2123 -0.1581
  132TCq2    C5 2014   3.790   1.300  10.125  0.1152 -1.1648  0.3175
  132TCq2    C6 2015   3.693   1.298  10.219 -0.0493  0.2469 -0.2272
  132TCq2    C7 2016   3.669   1.404  10.306 -0.1296  0.0469 -0.3413
  132TCq2    C8 2017   3.629   1.175  10.245 -0.1203  0.1949  0.1121
  132TCq2    O4 2018   3.589   1.157  10.359  0.1146 -0.2074 -0.0987
  132TCq2    C9 2019   3.943   1.442  10.001 -0.8221  0.1128  0.2011
  132TCq2    O5 2020   4.002   1.553   9.990  0.3368  0.0226  0.0532
  132TCq2    O6 2021   3.925   1.365   9.904  0.0022 -0.3800 -0.4028
  132TCq2    H2 2022   3.912   1.612  10.205 -1.8848  1.6426  2.2151
  132TCq2    H3 2023   3.817   1.227  10.050 -0.5656  0.5205 -1.5698
  132TCq2    H4 2024   3.575   1.397  10.361  0.2374  1.0416  0.4116
  133MPD2     C 2025   1.711   1.390   9.572 -0.3254  0.1236  0.1087
  133MPD2    C1 2026   1.710   1.436   9.444  0.1900  0.1220 -0.5488
  133MPD2    C2 2027   1.827   1.490   9.390 -0.1667  0.0621  0.0049
  133MPD2    C3 2028   1.947   1.489   9.462 -0.1217 -0.4548  0.8806
  133MPD2    C4 2029   1.946   1.445   9.590  0.4128  0.7241 -0.0226
  133MPD2    C5 2030   1.828   1.403   9.647  0.0474  0.4654  0.1586
  133MPD2     H 2031   1.831   1.511   9.284  1.2002 -0.3038 -0.0103
  133MPD2    H1 2032   2.039   1.449   9.645  0.1065 -2.1259  0.6865
  133MPD2    H2 2033   1.624   1.350   9.623  0.4363 -1.1506  0.4001
  133MPD2    H3 2034   1.826   1.374   9.751 -0.5276  0.5270  0.1689
  133MPD2     N 2035   2.073   1.529   9.418 -0.6072  0.3906 -0.0310
  133MPD2    H5 2036   2.147   1.542   9.486 -1.1009 -4.1850  1.3901
  133MPD2    N1 2037   1.604   1.409   9.355 -0.4726 -0.2732  0.6216
  133MPD2    H7 2038   1.524   1.353   9.382  2.0659 -3.9397  0.5744
  134TCq2    C1 2039   1.599   1.443   9.220  0.0952 -0.0238  0.0533
  134TCq2    O2 2040   1.662   1.516   9.148 -0.3233  0.1198  0.5628
  134TCq2    C2 2041   1.500   1.362   9.154  0.3452  0.9525 -0.0792
  134TCq2    C3 2042   1.447   1.409   9.035 -0.5010 -0.3556  0.8654
  134TCq2    C4 2043   1.383   1.319   8.952  0.3556 -0.0221 -0.5615
  134TCq2    C5 2044   1.365   1.187   8.985 -0.3141 -0.0505 -0.4138
  134TCq2    C6 2045   1.446   1.139   9.082 -0.1383  0.0615 -0.3606
  134TCq2    C7 2046   1.516   1.225   9.163  0.0269 -0.0377  0.5065
  134TCq2    C8 2047   1.471   0.994   9.078 -0.4112 -0.0978  0.3448
  134TCq2    O4 2048   1.578   0.956   9.124 -0.3812 -0.4134  0.1464
  134TCq2    C9 2049   1.315   1.368   8.840 -0.3787 -0.7846 -0.0669
  134TCq2    O5 2050   1.233   1.288   8.786  0.3459  0.3600  0.6694
  134TCq2    O6 2051   1.309   1.496   8.833 -0.1910 -0.3117  0.1769
  134TCq2    H2 2052   1.440   1.517   9.027 -1.9780 -0.5719 -0.7706
  134TCq2    H3 2053   1.318   1.120   8.913 -0.2590 -0.6773  0.1323
  134TCq2    H4 2054   1.584   1.180   9.234 -2.4057  1.1853  3.6539
  135MPD2     C 2055   1.042   3.774   9.025  0.0759 -0.2313  0.7240
  135MPD2    C1 2056   1.085   3.665   9.102  0.8136  0.6669 -0.3536
  135MPD2    C2 2057   1.214   3.622   9.085  0.0887 -0.2321  1.0230
  135MPD2    C3 2058   1.304   3.681   9.002 -0.0228  0.0844  0.2882
  135MPD2    C4 2059   1.263   3.791   8.932  0.3323  0.1773 -0.0650
  135MPD2    C5 2060   1.132   3.827   8.938  0.2141  0.0753 -0.2809
  135MPD2     H 2061   1.243   3.540   9.150  2.3352 -0.4473 -0.2576
  135MPD2    H1 2062   1.328   3.848   8.867  1.1941 -0.9462 -0.1911
  135MPD2    H2 2063   0.938   3.804   9.015 -0.0354  0.0057  2.4929
  135MPD2    H3 2064   1.101   3.905   8.868 -0.5728 -0.0491 -0.0624
  135MPD2     N 2065   1.436   3.649   8.981  0.3349  0.3048 -0.4905
  135MPD2    H5 2066   1.483   3.710   8.914 -0.5377  1.1437 -0.3291
  135MPD2    N1 2067   0.999   3.590   9.185 -0.4198  0.1711  0.2299
  135MPD2    H7 2068   1.027   3.502   9.227 -0.5943 -0.2901 -0.6282
  136TCq2    C1 2069   0.887   3.637   9.243 -0.0647 -0.3275  0.3333
  136TCq2    O2 2070   0.834   3.749   9.234  0.7800  0.3185 -0.2231
  136TCq2    C2 2071   0.826   3.533   9.333 -0.6822 -0.0817 -0.4053
  136TCq2    C3 2072   0.885   3.412   9.351 -0.1315 -0.5374  0.0528
  136TCq2    C4 2073   0.819   3.317   9.430  0.8686 -0.3429  0.0706
  136TCq2    C5 2074   0.706   3.351   9.500  0.9281  0.3222  0.3573
  136TCq2    C6 2075   0.667   3.485   9.494 -0.0734 -0.0390  0.3138
  136TCq2    C7 2076   0.723   3.575   9.409  0.5853  0.4819 -0.5758
  136TCq2    C8 2077   0.550   3.533   9.570  0.5804  0.2588 -0.0105
  136TCq2    O4 2078   0.523   3.650   9.572  0.1808 -0.3676  0.1609
  136TCq2    C9 2079   0.884   3.190   9.439  0.1938 -0.3123 -0.2604
  136TCq2    O5 2080   0.988   3.180   9.369  0.3825 -0.3360 -0.1578
  136TCq2    O6 2081   0.839   3.110   9.523 -0.2008  0.1330  0.5705
  136TCq2    H2 2082   0.972   3.383   9.293  0.1896 -1.5839  1.0588
  136TCq2    H3 2083   0.675   3.279   9.575  3.4050 -0.9520  0.1859
  136TCq2    H4 2084   0.694   3.680   9.407  0.5139  0.4566 -0.9264
  137MPD2     C 2085   0.180   1.328   9.847  0.5672 -0.1712 -0.6404
  137MPD2    C1 2086   0.166   1.433   9.755 -0.6218  0.5139 -0.1314
  137MPD2    C2 2087   0.237   1.551   9.773 -0.9560 -0.3817 -0.4196
  137MPD2    C3 2088   0.320   1.576   9.879 -0.7804 -0.4473  0.4714
  137MPD2    C4 2089   0.323   1.482   9.978  0.1942 -1.0201  0.9720
  137MPD2    C5 2090   0.246   1.355   9.962 -0.5111  0.1960 -0.5355
  137MPD2     H 2091   0.224   1.631   9.700  1.3648 -0.3993 -0.8435
  137MPD2    H1 2092   0.379   1.490  10.070  1.5961  1.2487 -0.0876
  137MPD2    H2 2093   0.123   1.236   9.843 -0.5060  0.5355 -1.9170
  137MPD2    H3 2094   0.236   1.282  10.041  0.5882  1.4636  0.7940
  137MPD2     N 2095   0.397   1.698   9.889  0.5620  0.2676  0.2585
  137MPD2    H5 2096   0.367   1.775   9.830 -1.4937 -1.4630 -0.9957
  137MPD2    N1 2097   0.055   1.415   9.673 -0.1690 -0.1539 -0.2723
  137MPD2    H7 2098   0.004   1.329   9.658  0.8812 -0.3305 -2.8630
  138TCq2    C1 2099   0.005   1.516   9.596  0.2458 -0.9495 -0.3233
  138TCq2    O2 2100   0.054   1.624   9.563  0.4131 -0.1879  0.0170
  138TCq2    C2 2101   4.590   1.491   9.542  0.4288 -0.4498  0.0227
  138TCq2    C3 2102   4.504   1.431   9.630 -0.3550  0.6123 -0.3171
  138TCq2    C4 2103   4.376   1.490   9.637 -1.2723  0.4157 -0.0195
  138TCq2    C5 2104   4.327   1.599   9.569  0.3204 -0.1235  0.8046
  138TCq2    C6 2105   4.419   1.657   9.488  0.7973  0.4730  0.5996
  138TCq2    C7 2106   4.540   1.599   9.471  0.6392 -0.3766  0.0809
  138TCq2    C8 2107   4.395   1.781   9.417 -0.0452 -0.3280  0.1596
  138TCq2    O4 2108   4.449   1.793   9.308  0.6292  0.5074 -0.2985
  138TCq2    C9 2109   4.275   1.418   9.716  0.4020 -0.0931  0.1105
  138TCq2    O5 2110   4.154   1.435   9.683 -0.2645 -0.5575  0.3684
  138TCq2    O6 2111   4.314   1.349   9.816 -0.5140  0.6271 -0.2959
  138TCq2    H2 2112   4.529   1.341   9.686  0.0196  0.2503 -1.0744
  138TCq2    H3 2113   4.225   1.634   9.581 -0.3151 -1.7469  0.1373
  138TCq2    H4 2114   4.612   1.663   9.421 -0.1263  0.0431 -0.4882
  139TMC2    C1 2115   0.594   0.594  13.088 -0.3298  0.4910  0.1568
  139TMC2    C2 2116   0.555   0.624  12.960  0.0018  0.4061  0.0357
  139TMC2    C3 2117   0.463   0.723  12.939 -0.1110  0.1794  0.3028
  139TMC2    C4 2118   0.539   0.666  13.189 -0.4270 -0.3793 -0.1545
  139TMC2    C5 2119   0.451   0.770  13.165 -0.0802 -0.0975 -0.0544
  139TMC2    C6 2120   0.410   0.801  13.037 -0.1947 -1.1000  0.2833
  139TMC2     C 2121   0.713   0.510  13.112  0.0673 -0.0244 -0.0900
  139TMC2     O 2122   0.790   0.498  13.019  0.2456  0.1029  0.3143
  139TMC2     H 2123   0.601   0.566  12.880  0.5365  0.0192  0.6263
  139TMC2    H1 2124   0.564   0.637  13.290 -0.9470  4.5415  1.3881
  139TMC2    H2 2125   0.334   0.875  13.018  1.2106  1.4154  4.2500
  139TMC2    C7 2126   0.403   0.858  13.271  0.3912 -0.5342  0.0104
  139TMC2    C8 2127   0.401   0.747  12.813  0.6031 -0.0838 -0.2136
  139TMC2    O1 2128   0.316   0.938  13.251  0.0748  0.0837  0.3961
  139TMC2    O2 2129   0.293   0.805  12.800  0.4892 -0.4130  0.6604
  139TMC2    O5 2130   0.495   0.738  12.721 -0.1518  0.2372  0.6612
  139TMC2    H5 2131   0.588   0.721  12.746  0.6516  0.7722 -1.9396
  140MPD2     C 2132   0.748   0.275  13.386 -0.4598  0.6014 -0.3149
  140MPD2    C1 2133   0.793   0.333  13.273 -0.1493  0.0777 -0.7560
  140MPD2    C2 2134   0.902   0.286  13.208  0.6738 -0.1195  0.3563
  140MPD2    C3 2135   0.974   0.185  13.261  0.3075 -0.5293 -0.1516
  140MPD2    C4 2136   0.932   0.122  13.376  0.0838  0.1277  1.0057
  140MPD2    C5 2137   0.814   0.164  13.433 -0.7350  0.4736  0.3903
  140MPD2     H 2138   0.933   0.332  13.114 -1.3194 -1.2833 -0.8512
  140MPD2    H1 2139   1.000   0.056  13.429  0.6445 -0.4309 -0.3952
  140MPD2    H2 2140   0.662   0.315  13.440 -0.8652  1.9354 -1.9380
  140MPD2    H3 2141   0.798   0.124  13.532  0.7260  0.8610  0.7823
  140MPD2     N 2142   1.083   0.130  13.184  0.2733 -0.3706  0.6409
  140MPD2    H5 2143   1.091   0.167  13.090  3.9368  2.0795  1.8769
  140MPD2    N1 2144   0.705   0.436  13.227  0.0082  0.0207  0.0916
  140MPD2    H7 2145   0.626   0.459  13.286 -0.3726 -1.3649  0.1121
  141TCq2    C1 2146   1.317   2.456  14.596  0.6215  0.5117  0.4584
  141TCq2    O2 2147   1.339   2.550  14.517 -0.5616 -0.3329  0.3000
  141TCq2    C2 2148   1.328   2.489  14.736  0.1152 -0.2982 -0.6661
  141TCq2    C3 2149   1.330   2.394  14.833 -0.8533  0.1089  0.0512
  141TCq2    C4 2150   1.379   2.423  14.961  0.0987  0.0812  0.7701
  141TCq2    C5 2151   1.433   2.547  14.983  0.4682  0.1372  0.1936
  141TCq2    C6 2152   1.434   2.631  14.885  0.2832 -0.0443 -0.4855
  141TCq2    C7 2153   1.384   2.607  14.765  0.1454  0.1256  0.6734
  141TCq2    C8 2154   1.524   2.742  14.897 -0.5383 -0.1571  0.2730
  141TCq2    O4 2155   1.521   2.807  15.003  0.0062 -0.4480  0.0371
  141TCq2    C9 2156   1.374   2.330  15.073  0.6628 -0.2962  0.2385
  141TCq2    O5 2157   1.332   2.215  15.050 -0.1827  0.5461 -0.1992
  141TCq2    O6 2158   1.451   2.353  15.168 -0.1013  0.2152  0.0351
  141TCq2    H2 2159   1.287   2.295  14.825 -3.5024  1.4438 -2.2125
  141TCq2    H3 2160   1.485   2.564  15.077  0.1369  1.4808  0.1358
  141TCq2    H4 2161   1.382   2.685  14.690  0.2389 -1.5065 -1.0328
  142MPD2     C 2162   3.695   0.244  10.428 -0.5409 -0.3032  0.9366
  142MPD2    C1 2163   3.693   0.282  10.293  0.4810 -0.0932 -1.1401
  142MPD2    C2 2164   3.735   0.402  10.248 -0.1801  0.6200 -0.1082
  142MPD2    C3 2165   3.799   0.486  10.336 -0.1326 -0.2007  0.4735
  142MPD2    C4 2166   3.787   0.460  10.474 -0.0645 -0.1419  0.4205
  142MPD2    C5 2167   3.734   0.341  10.518  0.2757 -0.6925 -0.0735
  142MPD2     H 2168   3.717   0.429  10.144 -2.8833 -0.0882  0.1620
  142MPD2    H1 2169   3.807   0.535  10.550 -4.0995  1.8380 -0.4639
  142MPD2    H2 2170   3.664   0.148  10.467 -0.5632  0.0172  1.7277
  142MPD2    H3 2171   3.731   0.314  10.623 -0.1160  0.5174  0.2316
  142MPD2     N 2172   3.853   0.617  10.305 -0.1572 -0.1504 -0.1493
  142MPD2    H5 2173   3.883   0.670  10.387 -0.2630 -0.3228  0.0009
  142MPD2    N1 2174   3.629   0.182  10.211  0.5432 -0.3709  0.5718
  142MPD2    H7 2175   3.612   0.092  10.255 -1.8204 -1.1323 -1.8799
  143TCq2    C1 2176   3.862   0.668  10.177  0.3871  0.8768 -0.5494
  143TCq2    O2 2177   3.857   0.613  10.062  0.0617 -0.2130 -0.1842
  143TCq2    C2 2178   3.916   0.804  10.182  0.6636  0.1719  0.3318
  143TCq2    C3 2179   3.985   0.842  10.067  0.3338  0.4938 -0.4182
  143TCq2    C4 2180   4.046   0.970  10.067 -0.3253 -0.2391  0.4601
  143TCq2    C5 2181   4.021   1.054  10.170 -0.2417  0.6607 -0.7126
  143TCq2    C6 2182   3.948   1.015  10.283 -0.1713 -0.2806  0.3572
  143TCq2    C7 2183   3.899   0.885  10.293 -0.7335  0.5505  0.0499
  143TCq2    C8 2184   3.929   1.092  10.403 -0.1791  0.5206 -0.3137
  143TCq2    O4 2185   3.854   1.043  10.485 -0.2663  0.6781  0.0583
  143TCq2    C9 2186   4.130   1.018   9.961  0.0314  0.4707  0.1591
  143TCq2    O5 2187   4.154   1.144   9.952  0.1134 -0.0319 -0.2923
  143TCq2    O6 2188   4.180   0.934   9.888 -0.1189  0.5582 -0.2107
  143TCq2    H2 2189   4.009   0.776   9.984  2.6425  2.1112 -1.0521
  143TCq2    H3 2190   4.061   1.155  10.164  2.8241 -0.5396 -0.4990
  143TCq2    H4 2191   3.838   0.862  10.380 -0.2085  0.1768  0.3172
  144MPD2     C 2192   1.719   3.683   0.704  1.2490 -0.0913  0.3357
  144MPD2    C1 2193   1.776   3.793   0.641  0.7688 -0.9168  0.2622
  144MPD2    C2 2194   1.895   3.846   0.684 -0.2776  0.1961 -0.5508
  144MPD2    C3 2195   1.964   3.795   0.796 -0.0883 -0.2447  0.6900
  144MPD2    C4 2196   1.904   3.685   0.857  0.4531  0.0948  0.9321
  144MPD2    C5 2197   1.787   3.628   0.807  0.2179 -0.0233  0.4635
  144MPD2     H 2198   1.952   3.919   0.627 -0.3621  1.3065  0.7834
  144MPD2    H1 2199   1.950   3.629   0.937 -1.3948 -3.1990 -0.3233
  144MPD2    H2 2200   1.641   3.619   0.664  0.5060  0.3843  1.0377
  144MPD2    H3 2201   1.762   3.530   0.847  1.0744 -0.4817 -0.1350
  144MPD2     N 2202   2.097   3.831   0.829  0.3192 -0.1790  0.8984
  144MPD2    H5 2203   2.128   3.778   0.910  0.0159 -0.9949  0.4825
  144MPD2    N1 2204   1.718   3.855   0.532 -0.2627 -0.0171  0.1374
  144MPD2    H7 2205   1.768   3.926   0.479 -0.9272  1.0454  0.9163
  145TCq2    C1 2206   2.155   3.950   0.793  0.0396 -0.1903  0.1892
  145TCq2    O2 2207   2.116   4.043   0.723  0.0875 -0.0036  0.1279
  145TCq2    C2 2208   2.280   3.964   0.860 -0.6140  0.0339 -0.3345
  145TCq2    C3 2209   2.366   3.858   0.876  1.3490  0.2116 -1.0093
  145TCq2    C4 2210   2.500   3.887   0.914  1.2522 -0.3470  0.2809
  145TCq2    C5 2211   2.539   4.014   0.950  0.2092 -0.2625 -0.0285
  145TCq2    C6 2212   2.444   4.113   0.941  0.3341 -0.4443 -0.1038
  145TCq2    C7 2213   2.323   4.092   0.887 -0.4008 -0.1025 -0.0300
  145TCq2    C8 2214   2.497   4.251   0.956  0.8863 -0.1823 -0.3604
  145TCq2    O4 2215   2.620   4.262   0.969 -0.3385  0.0099 -0.2506
  145TCq2    C9 2216   2.594   3.784   0.929  0.2664 -1.7076 -0.4261
  145TCq2    O5 2217   2.573   3.670   0.884 -0.1227  0.5303  0.6845
  145TCq2    O6 2218   2.701   3.822   0.978 -0.0718  0.2878 -0.7441
  145TCq2    H2 2219   2.337   3.755   0.855 -2.7292  1.3593 -1.0780
  145TCq2    H3 2220   2.638   4.024   0.992 -0.7645 -0.3324  2.2915
  145TCq2    H4 2221   2.241   4.163   0.891 -0.6788 -0.4042 -0.4344
  146TMC2    C1 2222   2.865   3.451  12.812 -0.7792  0.3043 -0.2168
  146TMC2    C2 2223   2.782   3.550  12.766  0.1417 -0.4231  0.7409
  146TMC2    C3 2224   2.752   3.543  12.634 -0.4768  0.1237  0.0082
  146TMC2    C4 2225   2.897   3.343  12.742 -0.0392 -0.4340  0.5380
  146TMC2    C5 2226   2.856   3.342  12.610 -0.0152 -0.1845  0.0535
  146TMC2    C6 2227   2.789   3.445  12.549  0.6874 -1.2843  0.8212
  146TMC2     C 2228   2.951   3.496  12.917 -0.1630 -0.5868  0.1874
  146TMC2     O 2229   2.976   3.617  12.917  0.5168  0.0972  0.0747
  146TMC2     H 2230   2.762   3.637  12.828 -0.4529  0.3004 -0.4555
  146TMC2    H1 2231   2.976   3.281  12.783  0.2864  0.9358  1.9991
  146TMC2    H2 2232   2.754   3.441  12.447 -3.3560 -1.3058  2.2097
  146TMC2    C7 2233   2.888   3.224  12.528  0.2653  0.6742  0.1012
  146TMC2    C8 2234   2.682   3.647  12.562 -0.7232 -0.6737 -0.3282
  146TMC2    O1 2235   2.862   3.234  12.410  0.5514 -0.0601 -0.0853
  146TMC2    O2 2236   2.745   3.693  12.468  0.0312 -0.3459 -0.2187
  146TMC2    O5 2237   2.599   3.711  12.650 -0.0543 -0.0378 -0.5708
  146TMC2    H5 2238   2.560   3.660  12.724 -1.0371 -1.5611 -2.1231
  147MPD2     C 2239   2.914   2.720  12.454 -0.3506  0.8004  0.0806
  147MPD2    C1 2240   2.956   2.745  12.583  0.6757  0.4937 -0.6038
  147MPD2    C2 2241   2.957   2.871  12.632 -0.5251  0.0356  0.1148
  147MPD2    C3 2242   2.918   2.978  12.551 -0.5605  0.0729  0.0092
  147MPD2    C4 2243   2.870   2.944  12.426  0.2934  0.2638  0.0703
  147MPD2    C5 2244   2.878   2.820  12.372  0.1413 -0.5206  0.4457
  147MPD2     H 2245   2.968   2.887  12.739  0.3109  0.5406 -0.0521
  147MPD2    H1 2246   2.820   3.019  12.366  1.8609 -0.0446 -1.6287
  147MPD2    H2 2247   2.917   2.622  12.408 -0.6899  0.8961 -0.1442
  147MPD2    H3 2248   2.827   2.797  12.279  1.1738  0.4281 -0.3647
  147MPD2     N 2249   2.917   3.110  12.601  0.2450  0.2864 -0.8405
  147MPD2    H5 2250   2.941   3.118  12.700 -1.4505 -2.2778 -0.1978
  147MPD2    N1 2251   3.006   2.640  12.665 -0.5592  0.1453 -0.0870
  147MPD2    H7 2252   3.017   2.550  12.619  0.2172  0.0938  0.2032
  148MPD2     C 2253   2.628   1.497  11.025  0.1311  0.4323 -0.5150
  148MPD2    C1 2254   2.757   1.522  10.984 -0.6173  0.0407  0.1441
  148MPD2    C2 2255   2.814   1.453  10.878 -0.5952 -0.3377 -0.0951
  148MPD2    C3 2256   2.737   1.381  10.790 -0.0286  1.0847  0.3114
  148MPD2    C4 2257   2.604   1.364  10.830 -0.3749  0.3386  0.9450
  148MPD2    C5 2258   2.558   1.423  10.940 -0.0061 -0.0536  0.6306
  148MPD2     H 2259   2.920   1.456  10.852 -0.2874  1.0874  1.2899
  148MPD2    H1 2260   2.536   1.305  10.770  0.9243 -0.4485  0.2465
  148MPD2    H2 2261   2.579   1.556  11.101 -1.2683 -0.4488 -0.7326
  148MPD2    H3 2262   2.457   1.396  10.969 -0.5996  0.1962 -1.1783
  148MPD2     N 2263   2.780   1.313  10.671  0.5825 -0.1751  0.0124
  148MPD2    H5 2264   2.728   1.230  10.644  1.3255 -0.8972  0.7925
  148MPD2    N1 2265   2.837   1.618  11.051  0.0975  0.7847 -0.2690
  148MPD2    H7 2266   2.932   1.622  11.017  1.1036  1.2511  2.5930
  149TCq2    C1 2267   2.801   1.708  11.151 -0.0458 -0.1460  0.8165
  149TCq2    O2 2268   2.695   1.736  11.197 -0.0027 -0.2072 -0.1415
  149TCq2    C2 2269   2.913   1.781  11.205  0.4046  0.1781 -0.2061
  149TCq2    C3 2270   2.900   1.826  11.329 -0.2235  0.2667 -0.4772
  149TCq2    C4 2271   3.004   1.892  11.392  0.0518  0.1924  0.6306
  149TCq2    C5 2272   3.132   1.880  11.342 -0.0497 -0.0279  0.6740
  149TCq2    C6 2273   3.146   1.823  11.220  0.0679  0.2409 -0.0397
  149TCq2    C7 2274   3.037   1.777  11.146 -0.1057 -0.3750 -0.1199
  149TCq2    C8 2275   3.284   1.817  11.178 -0.2064 -0.4880  0.2349
  149TCq2    O4 2276   3.381   1.878  11.224 -0.9015 -0.1217 -0.0959
  149TCq2    C9 2277   3.002   1.907  11.542  0.5242 -0.4375 -0.5420
  149TCq2    O5 2278   2.887   1.907  11.600  0.3869 -0.3135 -0.4867
  149TCq2    O6 2279   3.114   1.936  11.599  0.0626 -0.5655  0.3846
  149TCq2    H2 2280   2.809   1.827  11.389 -0.4348 -0.3025 -0.7866
  149TCq2    H3 2281   3.218   1.909  11.400 -0.6781  1.3472  0.9174
  149TCq2    H4 2282   3.047   1.757  11.040 -0.7433 -0.4412 -0.1623
  150MPD2     C 2283   4.692   0.605  11.878  0.1309 -0.6971  0.1710
  150MPD2    C1 2284   4.664   0.679  11.765  0.6401 -0.4551 -0.5984
  150MPD2    C2 2285   0.026   0.787  11.731  0.0631 -0.4169  0.8652
  150MPD2    C3 2286   0.131   0.819  11.816  0.4298 -0.3176  0.2992
  150MPD2    C4 2287   0.161   0.745  11.930  0.6826  0.1618  0.0021
  150MPD2    C5 2288   0.080   0.639  11.957 -0.4603 -0.1707  0.2838
  150MPD2     H 2289   0.006   0.858  11.651 -2.9673 -1.1653  0.9641
  150MPD2    H1 2290   0.242   0.758  12.000 -1.5822  2.7768  2.1564
  150MPD2    H2 2291   4.628   0.520  11.898 -0.9141  0.2162  0.7115
  150MPD2    H3 2292   0.106   0.580  12.044  0.1047 -0.3881 -0.0303
  150MPD2     N 2293   0.210   0.934  11.786 -0.1593 -0.0580 -0.9034
  150MPD2    H5 2294   0.188   0.983  11.700 -1.9529  1.8803  0.6645
  150MPD2    N1 2295   4.548   0.650  11.694  1.1162 -0.4394  0.0063
  150MPD2    H7 2296   4.484   0.583  11.735 -0.5746  0.0655 -1.8095
  151TCq2    C1 2297   0.325   0.975  11.853 -0.0141 -0.2350  0.3249
  151TCq2    O2 2298   0.396   0.918  11.939 -0.2176  0.0214 -1.2483
  151TCq2    C2 2299   0.381   1.103  11.805 -0.8239 -0.1029 -0.1020
  151TCq2    C3 2300   0.310   1.180  11.715  0.4567  0.0094  0.8039
  151TCq2    C4 2301   0.365   1.291  11.660 -0.3414 -0.2521  0.1246
  151TCq2    C5 2302   0.487   1.327  11.706 -1.0460 -0.2569 -0.0875
  151TCq2    C6 2303   0.557   1.248  11.792  0.2622  0.4579  0.2944
  151TCq2    C7 2304   0.510   1.128  11.839 -0.0850  1.3925  0.0865
  151TCq2    C8 2305   0.697   1.283  11.823  0.2751 -0.0164 -0.0582
  151TCq2    O4 2306   0.723   1.395  11.785  0.4218 -0.4001 -0.5712
  151TCq2    C9 2307   0.290   1.371  11.563  0.6908 -0.1941  0.4351
  151TCq2    O5 2308   0.366   1.444  11.498 -0.4598  0.0540  0.3847
  151TCq2    O6 2309   0.173   1.330  11.524 -0.0844  0.0898  0.3548
  151TCq2    H2 2310   0.206   1.159  11.695  0.4138 -1.0272  2.1065
  151TCq2    H3 2311   0.529   1.419  11.666  0.5677 -0.2879  1.5266
  151TCq2    H4 2312   0.557   1.075  11.921  1.2075  1.4611 -0.6057
  152MPD2     C 2313   4.521   0.689  12.487  0.1581  0.4986  0.2513
  152MPD2    C1 2314   4.538   0.767  12.372 -0.3636  1.2161  0.7716
  152MPD2    C2 2315   4.432   0.772  12.284 -0.3454 -0.2203  0.7178
  152MPD2    C3 2316   4.311   0.723  12.309  0.6517  0.0672  0.5784
  152MPD2    C4 2317   4.295   0.661  12.440  0.2148 -0.4010 -0.9497
  152MPD2    C5 2318   4.401   0.639  12.521  0.3452  0.7254  0.1673
  152MPD2     H 2319   4.451   0.815  12.186  0.2762 -0.1858  0.8535
  152MPD2    H1 2320   4.209   0.605  12.477  0.3502  0.5565  0.8154
  152MPD2    H2 2321   4.606   0.676  12.553 -0.2698 -2.7670  0.1748
  152MPD2    H3 2322   4.405   0.569  12.604  1.5442  0.3128 -0.2432
  152MPD2     N 2323   4.213   0.725  12.211  0.3267  0.0623 -0.0505
  152MPD2    H5 2324   4.232   0.786  12.132  2.2573 -1.2974 -0.6090
  152MPD2    N1 2325   4.672   0.808  12.336  0.1858  0.8011  0.1034
  152MPD2    H7 2326   0.035   0.779  12.388 -0.4760 -0.1640  0.6095
  153TCq2    C1 2327   4.701   0.901  12.246  0.2641  0.4533 -0.1485
  153TCq2    O2 2328   4.629   0.970  12.171 -0.3170 -0.4120  0.2267
  153TCq2    C2 2329   0.118   0.914  12.220 -0.7634 -0.1348 -0.0840
  153TCq2    C3 2330   0.194   0.809  12.269  0.2907 -0.5669 -0.6182
  153TCq2    C4 2331   0.326   0.836  12.288  0.4316  0.2236  0.1436
  153TCq2    C5 2332   0.382   0.958  12.267 -0.2211  0.9687  0.2790
  153TCq2    C6 2333   0.304   1.061  12.224  1.0044 -0.2625  0.6212
  153TCq2    C7 2334   0.169   1.043  12.206  0.7916 -0.0358  0.3620
  153TCq2    C8 2335   0.358   1.195  12.231  0.1087 -0.3175 -0.2451
  153TCq2    O4 2336   0.295   1.276  12.167 -0.0970 -0.0845 -0.0191
  153TCq2    C9 2337   0.417   0.731  12.324  0.0895 -0.1607  0.0258
  153TCq2    O5 2338   0.373   0.616  12.334  0.0888  0.7552  0.6802
  153TCq2    O6 2339   0.541   0.761  12.333  0.6449 -0.5312  0.3729
  153TCq2    H2 2340   0.177   0.702  12.278 -0.2869 -0.5572 -1.5393
  153TCq2    H3 2341   0.490   0.969  12.278  0.1887  0.4340 -2.9912
  153TCq2    H4 2342   0.101   1.124  12.180  0.5314 -0.3688 -0.0056
  154MPD2     C 2343   1.185   1.107   0.381 -0.0297  0.6803 -0.0780
  154MPD2    C1 2344   1.296   1.026   0.415  0.7074  0.1072 -0.6921
  154MPD2    C2 2345   1.293   0.953   0.536 -0.2027 -0.2613  0.1172
  154MPD2    C3 2346   1.191   0.977   0.626 -0.5576  0.0823 -0.0322
  154MPD2    C4 2347   1.090   1.060   0.594 -0.0212 -0.0958  0.8427
  154MPD2    C5 2348   1.092   1.125   0.477  0.7248 -0.2896  0.6652
  154MPD2     H 2349   1.369   0.881   0.566  0.7922  1.1049  0.8559
  154MPD2    H1 2350   1.008   1.074   0.662 -1.5780 -1.1071 -0.8166
  154MPD2    H2 2351   1.177   1.167   0.291  0.7529 -1.4888 -1.5954
  154MPD2    H3 2352   1.003   1.178   0.444  0.3107 -1.8277 -0.6949
  154MPD2     N 2353   1.193   0.909   0.749 -0.0797  0.1825 -0.6663
  154MPD2    H5 2354   1.276   0.856   0.773  0.5336  1.5706  0.3210
  154MPD2    N1 2355   1.396   1.008   0.313 -0.5850  0.0045 -0.6913
  154MPD2    H7 2356   1.384   1.077   0.239 -0.7510 -2.7164 -3.2175
  155TCq2    C1 2357   1.500   0.917   0.309 -0.1304  0.4607  0.1622
  155TCq2    O2 2358   1.528   0.830   0.395  0.2850  0.0806 -0.3887
  155TCq2    C2 2359   1.587   0.936   0.197  0.3668 -0.0947  0.4535
  155TCq2    C3 2360   1.596   1.057   0.139 -0.1666  0.0150 -0.6374
  155TCq2    C4 2361   1.696   1.080   0.046 -0.2877  0.3063  0.5408
  155TCq2    C5 2362   1.774   0.979   0.002 -1.4391 -0.4929  0.3044
  155TCq2    C6 2363   1.762   0.853   0.059 -0.1281  0.3321  0.5449
  155TCq2    C7 2364   1.674   0.835   0.163  0.8935 -0.1893 -0.1858
  155TCq2    C8 2365   1.840   0.744   0.007  0.4691 -0.4232  0.0957
  155TCq2    O4 2366   1.951   0.762  17.647 -0.1942  0.1989 -0.1361
  155TCq2    C9 2367   1.695   1.213  17.668 -0.0657  0.4873 -0.3306
  155TCq2    O5 2368   1.759   1.231  17.555 -0.5811 -0.1703  0.1333
  155TCq2    O6 2369   1.609   1.293   0.034  0.1516 -0.4749  0.0342
  155TCq2    H2 2370   1.527   1.135   0.170  2.0715  1.4806  0.6107
  155TCq2    H3 2371   1.841   1.000  17.599 -4.0770 -1.1192 -1.9659
  155TCq2    H4 2372   1.664   0.737   0.209  2.6855  0.5532  1.7711
  156MPD2     C 2373   0.809   2.911  12.250  0.2575  0.0426 -0.3853
  156MPD2    C1 2374   0.732   3.011  12.201  0.3193  0.0738  0.0424
  156MPD2    C2 2375   0.610   3.027  12.260  0.0369  0.2910  0.0294
  156MPD2    C3 2376   0.553   2.924  12.331  0.0780 -0.4168 -0.2078
  156MPD2    C4 2377   0.623   2.813  12.369 -0.1518  0.3289 -0.1473
  156MPD2    C5 2378   0.757   2.816  12.334  0.1001 -0.3390  0.5582
  156MPD2     H 2379   0.547   3.106  12.223  0.3947  0.3481 -0.4588
  156MPD2    H1 2380   0.579   2.736  12.430 -1.5037  1.2382  0.0318
  156MPD2    H2 2381   0.912   2.899  12.218  0.4044 -0.0247  0.1269
  156MPD2    H3 2382   0.815   2.731  12.367  0.1490 -0.1506  0.9535
  156MPD2     N 2383   0.415   2.942  12.370  0.1214 -0.2621 -0.8264
  156MPD2    H5 2384   0.363   2.855  12.377  1.1290 -0.7590  0.4485
  156MPD2    N1 2385   0.781   3.085  12.093 -0.0326  0.1323  0.0975
  156MPD2    H7 2386   0.867   3.055  12.047  0.0736  0.4129  0.1126
  157TCq2    C1 2387   0.715   3.181  12.022  0.3625  0.0423  0.0938
  157TCq2    O2 2388   0.606   3.240  12.044  0.2121  0.2194 -0.3820
  157TCq2    C2 2389   0.781   3.220  11.900 -0.0094 -0.0679 -0.4210
  157TCq2    C3 2390   0.913   3.204  11.888  0.4965  0.4055  0.3509
  157TCq2    C4 2391   0.972   3.196  11.771  0.3838  0.1771  0.0789
  157TCq2    C5 2392   0.899   3.207  11.655  0.2890 -0.6697 -0.4557
  157TCq2    C6 2393   0.763   3.214  11.672  0.3305  0.0178  0.1843
  157TCq2    C7 2394   0.703   3.229  11.795 -0.3182 -0.0640  0.2599
  157TCq2    C8 2395   0.675   3.248  11.563 -1.1039  0.4794 -0.8388
  157TCq2    O4 2396   0.577   3.319  11.596  0.0999  0.0028  0.2059
  157TCq2    C9 2397   1.112   3.187  11.764 -0.1232  0.4296 -0.4288
  157TCq2    O5 2398   1.166   3.200  11.656 -0.2266 -0.1859 -0.1736
  157TCq2    O6 2399   1.164   3.147  11.870 -0.3429  0.1860  0.1300
  157TCq2    H2 2400   0.983   3.200  11.971 -0.4852 -0.5906  1.1172
  157TCq2    H3 2401   0.946   3.211  11.557  1.0453  1.0190 -0.0392
  157TCq2    H4 2402   0.595   3.235  11.805 -0.5245 -2.1158 -0.6515
  158TMC2    C1 2403   0.656   2.139  13.191 -0.2400 -0.1939 -0.3129
  158TMC2    C2 2404   0.691   2.180  13.066  0.5050  0.0082  0.4559
  158TMC2    C3 2405   0.594   2.185  12.964  0.8103  0.0527 -0.4051
  158TMC2    C4 2406   0.533   2.091  13.213 -0.2376 -0.6351  0.1004
  158TMC2    C5 2407   0.444   2.084  13.111 -0.0630 -0.2844  0.1039
  158TMC2    C6 2408   0.474   2.131  12.989 -0.4158 -0.5589  0.2437
  158TMC2     C 2409   0.759   2.152  13.292  0.1542  0.0294 -0.0949
  158TMC2     O 2410   0.848   2.234  13.270 -0.7967 -0.2032 -0.1069
  158TMC2     H 2411   0.795   2.206  13.049  0.6564 -0.0416  1.2820
  158TMC2    H1 2412   0.502   2.065  13.313  1.7283  0.0218  0.8800
  158TMC2    H2 2413   0.407   2.106  12.908 -0.4128 -0.2662  0.1513
  158TMC2    C7 2414   0.303   2.060  13.131 -0.7130  0.1622 -0.0320
  158TMC2    C8 2415   0.639   2.177  12.827  0.3667  0.3958  0.4336
  158TMC2    O1 2416   0.231   2.128  13.061  0.5883  0.0213 -0.1624
  158TMC2    O2 2417   0.590   2.104  12.741 -0.1634 -0.0862 -0.1660
  158TMC2    O5 2418   0.691   2.297  12.799  0.3085 -0.2965 -0.6851
  158TMC2    H5 2419   0.712   2.357  12.874  0.2464 -0.5543 -0.4579
  159MPD2     C 2420   1.030   1.974  13.688  0.2469 -0.1471  0.2704
  159MPD2    C1 2421   0.900   1.942  13.705  0.3327 -0.4598 -0.1424
  159MPD2    C2 2422   0.805   1.976  13.612 -0.1820  0.6069  0.4218
  159MPD2    C3 2423   0.833   2.055  13.499  0.0251 -0.9022 -0.2584
  159MPD2    C4 2424   0.965   2.097  13.488 -0.0616 -0.3464 -0.2943
  159MPD2    C5 2425   1.064   2.044  13.573  0.1396 -0.1950  0.6202
  159MPD2     H 2426   0.712   1.922  13.627 -1.1341  1.9566 -0.6941
  159MPD2    H1 2427   1.003   2.163  13.411 -1.9166 -1.2071 -1.9409
  159MPD2    H2 2428   1.105   1.938  13.758  0.6249  1.5173  0.7195
  159MPD2    H3 2429   1.167   2.065  13.546  0.0029 -0.1220  0.1446
  159MPD2     N 2430   0.737   2.076  13.405 -0.0003  0.7355 -0.2427
  159MPD2    H5 2431   0.649   2.028  13.421  0.7633 -1.2465 -1.9926
  159MPD2    N1 2432   0.874   1.874  13.829  0.4042  0.1463 -0.1577
  159MPD2    H7 2433   0.952   1.830  13.877  0.6924  0.0391 -0.7338
  160TMC2    C1 2434   1.141   4.292   0.881  0.2024  0.0163  0.8050
  160TMC2    C2 2435   1.125   4.156   0.859 -0.2253  0.6187 -0.2581
  160TMC2    C3 2436   1.182   4.104   0.743  0.6518  0.0841  0.1746
  160TMC2    C4 2437   1.224   4.369   0.803  0.0628  0.1710  0.4664
  160TMC2    C5 2438   1.283   4.307   0.695  1.0625 -0.0291  0.7178
  160TMC2    C6 2439   1.264   4.173   0.669 -0.2875 -0.1318 -0.5270
  160TMC2     C 2440   1.072   4.349   0.986 -0.3920 -0.0994 -0.6792
  160TMC2     O 2441   1.058   4.269   1.075 -0.1472 -0.2764 -0.5856
  160TMC2     H 2442   1.059   4.097   0.921  0.0369  0.3402 -0.2440
  160TMC2    H1 2443   1.254   4.468   0.837  2.1785 -0.2795 -0.0485
  160TMC2    H2 2444   1.315   4.117   0.591 -2.7275 -1.0045 -1.5103
  160TMC2    C7 2445   1.287   4.394   0.571  0.0300 -0.1695  0.2357
  160TMC2    C8 2446   1.174   3.962   0.716 -0.5875  0.0502  0.1594
  160TMC2    O1 2447   1.269   4.333   0.467  0.4076 -0.4389  0.5894
  160TMC2    O2 2448   1.198   3.917   0.603  0.0381  0.3656 -0.0255
  160TMC2    O5 2449   1.205   3.900   0.832 -1.0683 -0.0109  0.1915
  160TMC2    H5 2450   1.175   3.939   0.917  1.6756  0.1220  1.0924
  161MPD2     C 2451   0.906   4.533   1.170  1.0398 -0.3407  0.7345
  161MPD2    C1 2452   0.941   4.562   1.039 -0.3128 -0.0689  0.1777
  161MPD2    C2 2453   0.899   4.686   0.990 -0.3514  0.3653 -0.1683
  161MPD2    C3 2454   0.831   0.063   1.061  0.2943  0.2538  0.1657
  161MPD2    C4 2455   0.786   0.036   1.187  0.5321 -0.3970 -0.0071
  161MPD2    C5 2456   0.826   4.635   1.238  0.3724  0.0487  0.1418
  161MPD2     H 2457   0.920   4.703   0.885  0.5589  1.0926  0.1236
  161MPD2    H1 2458   0.731   0.103   1.252  1.8759 -0.2617  0.9786
  161MPD2    H2 2459   0.945   4.439   1.207  0.3746  0.0636  2.4703
  161MPD2    H3 2460   0.812   4.616   1.344  2.8297 -1.4927  0.2071
  161MPD2     N 2461   0.798   0.191   1.005  0.8030 -0.5380  0.5419
  161MPD2    H5 2462   0.731   0.245   1.059  0.3174  1.3756 -2.0024
  161MPD2    N1 2463   1.015   4.475   0.951  0.0693 -0.2897  0.4650
  161MPD2    H7 2464   1.017   4.496   0.852  1.7820 -2.7247 -0.0210
  162TMC2    C1 2465   3.232   1.355   1.246 -0.8865 -0.2769  0.4221
  162TMC2    C2 2466   3.119   1.433   1.262  0.7431 -0.3468 -0.1993
  162TMC2    C3 2467   3.053   1.409   1.374 -0.0570 -0.3834  0.4339
  162TMC2    C4 2468   3.289   1.286   1.343 -0.6382 -0.5951 -0.2310
  162TMC2    C5 2469   3.232   1.292   1.473 -0.0960 -0.0407  0.8677
  162TMC2    C6 2470   3.112   1.348   1.480 -0.1111 -0.3343  0.5307
  162TMC2     C 2471   3.315   1.374   1.126  0.8428 -0.1715  0.7014
  162TMC2     O 2472   3.421   1.311   1.114 -0.0397 -0.3109 -0.0032
  162TMC2     H 2473   3.075   1.476   1.172 -0.2090  0.0475  0.4614
  162TMC2    H1 2474   3.394   1.259   1.340 -0.8374 -1.4062  0.1447
  162TMC2    H2 2475   3.056   1.344   1.573 -0.5605  0.0795  0.2797
  162TMC2    C7 2476   3.307   1.259   1.593 -0.2297 -0.1046  0.4608
  162TMC2    C8 2477   2.921   1.470   1.387 -0.4452 -0.2134  0.1664
  162TMC2    O1 2478   3.272   1.320   1.695  0.4977 -0.3957 -0.0957
  162TMC2    O2 2479   2.879   1.510   1.496 -0.1913 -0.4727 -0.1432
  162TMC2    O5 2480   2.845   1.403   1.302  0.7412 -0.7790 -0.0251
  162TMC2    H5 2481   2.890   1.332   1.252  1.6112 -0.7763  0.7480
  163MPD2     C 2482   3.454   1.697   0.750  0.3763 -0.4245 -0.8425
  163MPD2    C1 2483   3.507   1.569   0.777  0.2224  0.5408 -0.0357
  163MPD2    C2 2484   3.455   1.498   0.888  0.0556  0.1217 -0.1593
  163MPD2    C3 2485   3.355   1.552   0.970  0.3241 -0.3034  0.6089
  163MPD2    C4 2486   3.313   1.675   0.933  0.1862 -0.0673 -0.0380
  163MPD2    C5 2487   3.364   1.752   0.830 -0.2959 -0.4776 -0.0676
  163MPD2     H 2488   3.496   1.402   0.918  0.3017  1.2052  3.0222
  163MPD2    H1 2489   3.245   1.724   1.002 -0.7596 -1.0801 -0.2603
  163MPD2    H2 2490   3.489   1.754   0.664 -0.8183  1.6743  0.0763
  163MPD2    H3 2491   3.322   1.848   0.799 -1.9409 -1.0934  0.2204
  163MPD2     N 2492   3.281   1.499   1.078 -0.1381 -0.0665 -0.1732
  163MPD2    H5 2493   3.212   1.556   1.125 -0.6825 -2.6013  2.1001
  163MPD2    N1 2494   3.598   1.517   0.674 -0.2628  0.3012  0.1326
  163MPD2    H7 2495   3.608   1.575   0.592 -1.3665 -0.2626 -0.4026
  164TCq2    C1 2496   3.682   2.165  11.160 -0.1348 -0.0200 -0.4340
  164TCq2    O2 2497   3.672   2.077  11.247 -0.1355 -0.4557 -0.0089
  164TCq2    C2 2498   3.603   2.288  11.165  1.0715  0.4122 -0.3340
  164TCq2    C3 2499   3.645   2.389  11.078  0.1685  0.0278 -0.4172
  164TCq2    C4 2500   3.560   2.491  11.051 -0.2064 -0.1933  0.4032
  164TCq2    C5 2501   3.442   2.498  11.126 -0.6161 -0.4294 -1.1493
  164TCq2    C6 2502   3.407   2.405  11.208  0.0125 -0.1348  0.1224
  164TCq2    C7 2503   3.480   2.286  11.230  0.1093  0.6568 -0.0117
  164TCq2    C8 2504   3.268   2.404  11.247 -0.3916  0.2022  0.3614
  164TCq2    O4 2505   3.187   2.388  11.158  0.0780  0.3721  0.9334
  164TCq2    C9 2506   3.604   2.592  10.971  0.3575  0.0588  0.2593
  164TCq2    O5 2507   3.724   2.585  10.932  0.0545  1.3561 -0.0455
  164TCq2    O6 2508   3.519   2.669  10.925  0.3900  0.0131  0.4550
  164TCq2    H2 2509   3.742   2.384  11.029 -0.7488  1.1226 -2.3137
  164TCq2    H3 2510   3.377   2.585  11.124 -0.4406 -0.2520  1.0358
  164TCq2    H4 2511   3.451   2.213  11.304  0.6750  0.5708  0.1184
  165MPD2     C 2512   4.381   3.909   0.844 -0.0361 -0.1500  0.0457
  165MPD2    C1 2513   4.438   3.887   0.968  0.4353 -0.3057  0.0491
  165MPD2    C2 2514   4.552   3.951   1.005 -0.4437 -0.0868 -0.3256
  165MPD2    C3 2515   4.619   4.030   0.909  0.8051  0.4079  0.0459
  165MPD2    C4 2516   4.560   4.046   0.788 -0.4032  0.2534 -0.3264
  165MPD2    C5 2517   4.444   3.986   0.754 -0.6932  0.1123 -0.4020
  165MPD2     H 2518   4.599   3.949   1.102  1.8098  0.7299 -1.4040
  165MPD2    H1 2519   4.602   4.106   0.708  1.2991 -0.9553 -0.3342
  165MPD2    H2 2520   4.289   3.861   0.812 -1.2018  1.5498  0.8883
  165MPD2    H3 2521   4.402   4.002   0.655 -2.4291 -1.3400  0.1051
  165MPD2     N 2522   0.026   4.099   0.933  0.6588 -0.0833  0.1152
  165MPD2    H5 2523   0.077   4.125   0.849 -2.8886  4.3266 -0.7214
  165MPD2    N1 2524   4.380   3.793   1.054 -0.0302 -0.2726 -0.1607
  165MPD2    H7 2525   4.302   3.743   1.013  1.9464 -0.2020 -4.0789
  166TCq2    C1 2526   0.081   4.118   1.055  0.3075  0.5612  0.6160
  166TCq2    O2 2527   0.040   4.077   1.163 -0.2604  0.2529 -0.1956
  166TCq2    C2 2528   0.212   4.189   1.061  0.3047 -0.0630 -0.0389
  166TCq2    C3 2529   0.247   4.274   0.964  0.5508 -0.4723  0.6617
  166TCq2    C4 2530   0.364   4.336   0.980 -0.4110  0.1393  1.0976
  166TCq2    C5 2531   0.440   4.322   1.094  0.0017  0.0726 -0.2082
  166TCq2    C6 2532   0.405   4.232   1.189 -0.2747  0.2951  0.4013
  166TCq2    C7 2533   0.280   4.173   1.180  0.3073  0.6957  0.0048
  166TCq2    C8 2534   0.487   4.191   1.306  0.4369 -0.4932 -0.5520
  166TCq2    O4 2535   0.430   4.141   1.400  1.0373  0.3767  0.1350
  166TCq2    C9 2536   0.394   4.439   0.889 -0.5866 -0.4403  0.4256
  166TCq2    O5 2537   0.325   4.450   0.783 -0.3971 -0.1178 -0.1000
  166TCq2    O6 2538   0.487   4.520   0.923  0.6186  0.1615 -0.4407
  166TCq2    H2 2539   0.180   4.295   0.882  0.8616  0.0223  0.5319
  166TCq2    H3 2540   0.527   4.387   1.101  0.6040 -0.5787 -1.5696
  166TCq2    H4 2541   0.237   4.115   1.261  1.2804  0.8984  0.6735
  167TMC2    C1 2542   2.352   1.574  12.099  0.0251 -0.1842  0.0443
  167TMC2    C2 2543   2.425   1.683  12.061  0.2956 -0.1315  0.1072
  167TMC2    C3 2544   2.558   1.685  12.103  0.0175  0.5895 -0.3428
  167TMC2    C4 2545   2.398   1.485  12.186  0.0924 -0.8626  0.0773
  167TMC2    C5 2546   2.526   1.497  12.241  0.8805  0.6399 -0.2464
  167TMC2    C6 2547   2.612   1.596  12.190  0.1036 -0.1829 -0.2920
  167TMC2     C 2548   2.244   1.527  12.014  0.4871 -0.7237  0.2005
  167TMC2     O 2549   2.169   1.440  12.055  0.1643  0.2675 -0.5904
  167TMC2     H 2550   2.385   1.761  11.996 -0.9641 -1.3788 -0.6172
  167TMC2    H1 2551   2.335   1.402  12.216 -1.1634  0.1924  0.3639
  167TMC2    H2 2552   2.714   1.605  12.226  0.2077  2.0322 -1.1843
  167TMC2    C7 2553   2.589   1.374  12.280 -0.5568  0.8693 -0.6240
  167TMC2    C8 2554   2.651   1.787  12.052  0.0664  0.3952  0.0817
  167TMC2    O1 2555   2.658   1.383  12.381 -0.0128  0.0872 -0.4317
  167TMC2    O2 2556   2.756   1.753  12.007  0.3212  0.0915 -0.2564
  167TMC2    O5 2557   2.642   1.892  12.135  0.0577  0.1292 -0.1062
  167TMC2    H5 2558   2.553   1.897  12.177  0.8350  1.4762  1.3274
  168MPD2     C 2559   2.166   1.644  11.680 -0.0062 -0.2024 -0.7843
  168MPD2    C1 2560   2.181   1.549  11.778  0.1837  0.0578  0.1789
  168MPD2    C2 2561   2.135   1.418  11.761 -0.2383  0.6053 -0.0266
  168MPD2    C3 2562   2.094   1.382  11.639 -1.1317 -0.0844 -0.2765
  168MPD2    C4 2563   2.088   1.471  11.534 -0.0637 -0.6260 -0.2502
  168MPD2    C5 2564   2.123   1.603  11.557 -0.5209  0.6867  0.7897
  168MPD2     H 2565   2.148   1.338  11.833  1.3288  0.2055 -0.7688
  168MPD2    H1 2566   2.047   1.445  11.437  1.8576  1.1829 -1.5411
  168MPD2    H2 2567   2.197   1.747  11.695  2.6126 -1.0340 -0.4199
  168MPD2    H3 2568   2.118   1.665  11.468  0.0122 -0.4113  0.0052
  168MPD2     N 2569   2.055   1.247  11.606 -0.1767  0.9788  0.0861
  168MPD2    H5 2570   2.056   1.228  11.506  0.8548  0.1379  0.2563
  168MPD2    N1 2571   2.252   1.585  11.890  0.5147 -0.5245  0.0730
  168MPD2    H7 2572   2.319   1.660  11.872  0.9095 -0.9821 -0.3524
  169MPD1     C 2573   4.419   1.352   9.293 -0.1812 -0.2604 -0.5028
  169MPD1    C1 2574   4.433   1.244   9.372 -0.3377 -0.3787 -0.5071
  169MPD1    C2 2575   4.554   1.180   9.381 -0.1001 -0.1659 -0.2721
  169MPD1    C3 2576   4.672   1.224   9.318  0.1520 -0.2372  0.3101
  169MPD1    C4 2577   4.649   1.328   9.235 -0.3355  0.3614  0.4834
  169MPD1    C5 2578   4.527   1.388   9.223 -0.5982  0.4422 -0.0936
  169MPD1     H 2579   4.557   1.088   9.438 -1.7739  0.0251  0.1286
  169MPD1    H1 2580   0.005   1.392   9.189  0.7394 -1.0473  0.2642
  169MPD1    H2 2581   4.330   1.413   9.285 -0.0145 -0.0318 -0.5892
  169MPD1    H3 2582   4.522   1.463   9.145 -1.5069 -0.1570 -0.6113
  169MPD1     N 2583   0.078   1.161   9.339 -0.1190 -0.2598 -0.0623
  169MPD1    H5 2584   0.082   1.089   9.411  2.0363  0.4842  0.5496
  169MPD1    N1 2585   4.312   1.196   9.430 -0.6024 -0.3588 -0.6663
  169MPD1    H6 2586   4.243   1.271   9.424 -1.0214 -0.6628  0.3286
  169MPD1    H7 2587   4.319   1.169   9.528 -1.5151  3.1021  0.3346
  170MPD1     C 2588   4.099   3.316  12.678 -0.1278 -0.1964 -0.6560
  170MPD1    C1 2589   3.986   3.384  12.711  0.5251 -0.7882  0.5688
  170MPD1    C2 2590   3.996   3.460  12.827  0.2895  0.0661  0.2796
  170MPD1    C3 2591   4.108   3.464  12.911 -0.6177 -0.1240 -0.2967
  170MPD1    C4 2592   4.211   3.379  12.877  0.1447 -0.1309 -0.6473
  170MPD1    C5 2593   4.210   3.310  12.759  0.1499 -0.1207 -0.1460
  170MPD1     H 2594   3.908   3.519  12.852  0.0516 -0.1563 -0.0236
  170MPD1    H1 2595   4.304   3.373  12.934 -1.1681 -1.1620  1.3821
  170MPD1    H2 2596   4.122   3.263  12.586  1.8774  0.2548 -0.4278
  170MPD1    H3 2597   4.297   3.266  12.713  1.4641  3.2226 -0.8733
  170MPD1     N 2598   4.106   3.546  13.028 -0.2200  0.3793  0.0371
  170MPD1    H5 2599   4.035   3.618  13.034 -1.2202 -0.5002 -1.2186
  170MPD1    N1 2600   3.883   3.407  12.614 -0.6518 -0.2882  0.3476
  170MPD1    H6 2601   3.800   3.433  12.668 -0.9747 -2.0285  0.7005
  170MPD1    H7 2602   3.865   3.327  12.554 -0.2687  0.0259 -0.1775
  171MPD1     C 2603   3.143   4.691  15.083 -0.6232  0.2699 -0.2582
  171MPD1    C1 2604   3.192   4.718  15.210  0.1383  0.2595  1.0468
  171MPD1    C2 2605   3.215   4.616  15.297  0.6042 -0.3108  0.1846
  171MPD1    C3 2606   3.172   4.483  15.268 -0.0445  0.2759 -0.2906
  171MPD1    C4 2607   3.122   4.454  15.147 -0.8074 -0.0044 -0.2333
  171MPD1    C5 2608   3.112   4.561  15.062  0.2676 -0.3907 -0.5835
  171MPD1     H 2609   3.282   4.632  15.381  0.4141 -1.8647  0.6331
  171MPD1    H1 2610   3.087   4.357  15.112  0.1358  0.3708 -2.2067
  171MPD1    H2 2611   3.135   0.049  15.006 -0.8859  0.7911  0.2921
  171MPD1    H3 2612   3.073   4.533  14.964 -0.5863 -1.1401 -0.0329
  171MPD1     N 2613   3.188   4.373  15.358  0.4627  0.7324 -0.3212
  171MPD1    H5 2614   3.169   4.282  15.318  0.2249  0.0950  1.2289
  171MPD1    N1 2615   3.233   0.135  15.236  0.7459  0.3176  0.1299
  171MPD1    H6 2616   3.294   0.150  15.155  1.7633  0.4261  0.9074
  171MPD1    H7 2617   3.274   0.154  15.328  2.2088  2.0834 -0.8893
  172MPD1     C 2618   2.340   0.522   0.113 -0.3533 -0.2744 -0.6262
  172MPD1    C1 2619   2.235   0.603   0.139 -0.1210  0.0581 -0.3953
  172MPD1    C2 2620   2.119   0.537   0.187  0.0334  0.3912  0.1037
  172MPD1    C3 2621   2.106   0.402   0.198  0.4718  0.3202  0.1172
  172MPD1    C4 2622   2.210   0.315   0.169 -0.2213  0.0717 -0.4007
  172MPD1    C5 2623   2.322   0.385   0.125  0.3116 -0.1557  0.5632
  172MPD1     H 2624   2.036   0.600   0.215 -0.5434 -1.5100  2.6605
  172MPD1    H1 2625   2.214   0.208   0.184  2.4248 -0.0010 -1.5883
  172MPD1    H2 2626   2.438   0.556   0.079  0.1956 -0.9039  0.3286
  172MPD1    H3 2627   2.412   0.324   0.128  1.7748  2.0154  0.8326
  172MPD1     N 2628   1.983   0.341   0.231  0.5679 -0.1003  0.5945
  172MPD1    H5 2629   1.964   0.249   0.193 -2.0709  0.3770  0.7473
  172MPD1    N1 2630   2.255   0.740   0.161 -0.2093  0.4613 -1.0436
  172MPD1    H6 2631   2.314   0.790   0.094  2.4244 -0.6926  0.3993
  172MPD1    H7 2632   2.164   0.784   0.174 -0.8252 -0.9232 -0.6936
  173MPD1     C 2633   2.770   4.268  13.840  0.0660 -0.2036  0.1234
  173MPD1    C1 2634   2.835   4.319  13.952  0.4064 -0.7416  0.2725
  173MPD1    C2 2635   2.970   4.296  13.969 -0.3220  0.4213 -0.9761
  173MPD1    C3 2636   3.037   4.218  13.878 -0.2732  0.0668  0.0321
  173MPD1    C4 2637   2.968   4.170  13.769 -0.6695  0.1904  0.2947
  173MPD1    C5 2638   2.840   4.201  13.747  0.4446 -0.6843 -0.1534
  173MPD1     H 2639   3.023   4.333  14.056  0.4240 -3.2106  0.1009
  173MPD1    H1 2640   3.013   4.124  13.682  0.7014  0.5265  0.8228
  173MPD1    H2 2641   2.670   4.300  13.813  0.6779  0.2109 -1.6480
  173MPD1    H3 2642   2.785   4.164  13.661 -1.6902  0.9392  0.5233
  173MPD1     N 2643   3.175   4.207  13.894  0.4054  0.1685  0.0533
  173MPD1    H5 2644   3.219   4.221  13.984  2.5874 -1.3020 -0.7991
  173MPD1    N1 2645   2.762   4.411  14.032  0.5503 -0.0707 -0.4487
  173MPD1    H6 2646   2.794   4.506  14.013  0.7252  0.2294  1.3636
  173MPD1    H7 2647   2.664   4.408  14.006  0.0050  0.6819  1.5758
  174MPD1     C 2648   3.994   4.682  13.891  0.3108  0.2600  0.2627
  174MPD1    C1 2649   3.924   4.666  13.778 -0.5742  0.6118 -0.4761
  174MPD1    C2 2650   3.839   4.555  13.769  0.4536  0.7350 -0.3409
  174MPD1    C3 2651   3.840   4.448  13.862 -0.2105 -0.8706  0.3406
  174MPD1    C4 2652   3.918   4.475  13.970  0.8952 -0.2100 -0.0787
  174MPD1    C5 2653   3.990   4.590  13.987  0.1137  0.1837  0.1378
  174MPD1     H 2654   3.773   4.555  13.683 -0.3930 -1.7508  0.2906
  174MPD1    H1 2655   3.914   4.403  14.052 -1.4260  0.9984  0.8697
  174MPD1    H2 2656   4.050   0.054  13.909 -1.8031  1.0436  2.8121
  174MPD1    H3 2657   4.044   4.596  14.081 -0.2393  3.0047  0.1649
  174MPD1     N 2658   3.760   4.330  13.856 -0.2198 -0.2655 -0.1771
  174MPD1    H5 2659   3.756   4.270  13.938 -1.0955 -2.1911 -1.6448
  174MPD1    N1 2660   3.916   0.050  13.681  0.1063  0.3244 -0.0643
  174MPD1    H6 2661   3.976   0.125  13.716 -0.6454  0.4552  0.9274
  174MPD1    H7 2662   3.825   0.096  13.686  0.8989  1.8163  0.9179
  175MPD1     C 2663   2.309   0.548  15.147 -0.1142 -0.4354 -0.5223
  175MPD1    C1 2664   2.174   0.572  15.160 -0.2682 -0.1380  0.6299
  175MPD1    C2 2665   2.094   0.493  15.253 -0.2676  0.1162 -0.2275
  175MPD1    C3 2666   2.157   0.406  15.336 -0.4503  0.3072  0.4859
  175MPD1    C4 2667   2.297   0.387  15.318 -0.4518  0.1311 -0.2197
  175MPD1    C5 2668   2.368   0.460  15.227  0.0501 -0.1009  0.2460
  175MPD1     H 2669   1.989   0.515  15.267 -0.7176 -2.1071 -0.1172
  175MPD1    H1 2670   2.350   0.320  15.384 -1.2264 -0.5643 -0.3052
  175MPD1    H2 2671   2.368   0.611  15.081 -0.5152  3.0320  2.4049
  175MPD1    H3 2672   2.474   0.441  15.220  0.1837  0.2289  1.3237
  175MPD1     N 2673   2.096   0.333  15.439  0.0016 -0.0931  0.5690
  175MPD1    H5 2674   2.153   0.278  15.502  2.6681 -0.7066 -2.3526
  175MPD1    N1 2675   2.125   0.696  15.107  0.1489 -0.5143  0.3477
  175MPD1    H6 2676   2.163   0.722  15.016 -0.7342  1.2422  0.4865
  175MPD1    H7 2677   2.024   0.699  15.099  0.1515  0.4877  0.7644
  176MPD1     C 2678   3.553   1.459  17.258  0.7054  0.7497  0.1592
  176MPD1    C1 2679   3.593   1.445  17.131  0.4767 -0.5159 -0.5052
  176MPD1    C2 2680   3.596   1.557  17.047 -0.2918 -0.3888  0.2833
  176MPD1    C3 2681   3.529   1.672  17.085 -0.0018  0.7536 -0.5151
  176MPD1    C4 2682   3.484   1.691  17.213  0.3752  0.7150  0.2352
  176MPD1    C5 2683   3.491   1.579  17.295  0.2541 -0.1431 -0.0295
  176MPD1     H 2684   3.615   1.546  16.941 -2.5929  1.2767 -0.3174
  176MPD1    H1 2685   3.436   1.781  17.250 -1.7347 -0.7030  0.9822
  176MPD1    H2 2686   3.557   1.376  17.327  3.1827  0.3790 -0.4478
  176MPD1    H3 2687   3.457   1.589  17.398 -3.2639 -0.4977 -1.1634
  176MPD1     N 2688   3.512   1.781  16.997  0.1400  0.3383 -0.3441
  176MPD1    H5 2689   3.445   1.851  17.026 -1.2902 -0.0394 -2.7584
  176MPD1    N1 2690   3.674   1.336  17.098 -0.0588  0.8545  0.5299
  176MPD1    H6 2691   3.657   1.250  17.149 -2.5103 -0.2455 -2.1692
  176MPD1    H7 2692   3.674   1.320  16.998  0.3607  1.0674  0.4937
  177MPD1     C 2693   1.979   2.138  10.161 -0.2161 -0.1038 -0.0261
  177MPD1    C1 2694   2.013   2.247  10.081 -0.6807  0.5680  0.0033
  177MPD1    C2 2695   1.960   2.248   9.951 -0.7134 -0.4920  0.1488
  177MPD1    C3 2696   1.895   2.141   9.896  0.5204 -0.3330  0.1426
  177MPD1    C4 2697   1.876   2.030   9.977 -0.2042  0.3499  0.7307
  177MPD1    C5 2698   1.913   2.028  10.109 -0.6342 -0.5186 -0.1669
  177MPD1     H 2699   1.965   2.337   9.888 -1.5947 -0.6537 -0.1491
  177MPD1    H1 2700   1.839   1.936   9.937  0.4908  1.9048 -3.6221
  177MPD1    H2 2701   2.011   2.126  10.264  0.0795  0.3948 -0.0581
  177MPD1    H3 2702   1.887   1.946  10.176  1.4448  1.0840  2.6095
  177MPD1     N 2703   1.855   2.154   9.762 -0.4422  0.5476  0.3669
  177MPD1    H5 2704   1.878   2.241   9.716  0.3503 -1.6313 -3.3880
  177MPD1    N1 2705   2.075   2.360  10.130 -0.1473 -0.2011 -0.0519
  177MPD1    H6 2706   2.106   2.418  10.053 -1.3310  1.1870  0.5231
  177MPD1    H7 2707   2.151   2.342  10.195 -1.5576 -2.3514  1.0060
  178MPD1     C 2708   3.972   2.639   0.459  0.2766  0.3594  0.0365
  178MPD1    C1 2709   4.011   2.742   0.377  0.2918  0.1296 -0.2629
  178MPD1    C2 2710   4.091   2.714   0.264 -0.2707 -0.4609 -0.4209
  178MPD1    C3 2711   4.120   2.584   0.230  0.1821  1.1345  0.4174
  178MPD1    C4 2712   4.060   2.478   0.303  0.4586 -0.0687  0.4149
  178MPD1    C5 2713   3.990   2.511   0.415  0.4652  0.3217  0.0115
  178MPD1     H 2714   4.137   2.793   0.205 -0.4752  0.3162  0.4663
  178MPD1    H1 2715   4.071   2.377   0.267  1.4938 -0.7434  2.6022
  178MPD1    H2 2716   3.907   2.659   0.544 -0.6568 -1.3862 -0.2607
  178MPD1    H3 2717   3.938   2.438   0.476  0.3992  0.8523  0.5842
  178MPD1     N 2718   4.204   2.550   0.122 -0.0353  0.5620  0.5794
  178MPD1    H5 2719   4.213   2.449   0.109 -2.0747  0.2440  1.6808
  178MPD1    N1 2720   3.998   2.876   0.421  0.4283 -0.0216 -0.3673
  178MPD1    H6 2721   4.003   2.934   0.337 -2.1350 -0.6861 -0.9773
  178MPD1    H7 2722   3.912   2.885   0.475 -0.3162 -2.0443 -1.2326
  179MPD1     C 2723   3.960   1.166  15.870  0.3614  0.6965 -0.0195
  179MPD1    C1 2724   4.070   1.079  15.874 -0.4778 -0.1795  0.6621
  179MPD1    C2 2725   4.094   0.990  15.773  0.0893  0.4300 -0.1792
  179MPD1    C3 2726   4.020   0.996  15.655 -0.1924  0.1958 -0.5356
  179MPD1    C4 2727   3.919   1.090  15.646  0.0959 -0.0757  0.3885
  179MPD1    C5 2728   3.894   1.177  15.752  0.8566  0.1043 -0.7037
  179MPD1     H 2729   4.178   0.925  15.794  0.0395  0.3585 -0.2039
  179MPD1    H1 2730   3.860   1.108  15.558  0.4162 -0.9407  0.0028
  179MPD1    H2 2731   3.940   1.233  15.953 -4.3127 -1.3889  0.5403
  179MPD1    H3 2732   3.814   1.248  15.740  1.0683  0.4644  0.0085
  179MPD1     N 2733   4.040   0.907  15.543 -0.4455  0.2199 -0.3965
  179MPD1    H5 2734   3.971   0.910  15.468  1.5556  0.4295 -2.2184
  179MPD1    N1 2735   4.127   1.059  16.001 -0.0929 -0.1158 -0.6289
  179MPD1    H6 2736   4.107   1.135  16.065  0.4778  1.5858 -2.4865
  179MPD1    H7 2737   4.225   1.032  16.002 -0.3160 -1.0056 -1.8696
  180MPD1     C 2738   4.428   2.787  15.304  0.2283  0.0137  0.4955
  180MPD1    C1 2739   4.373   2.873  15.215  0.7645  0.6139  0.6560
  180MPD1    C2 2740   4.320   2.818  15.093  0.2955  0.4524  0.3821
  180MPD1    C3 2741   4.346   2.686  15.055  0.0489  0.3194 -0.6146
  180MPD1    C4 2742   4.417   2.604  15.143 -0.6645 -0.0622 -0.3371
  180MPD1    C5 2743   4.455   2.660  15.264 -0.3370  0.4827 -0.1090
  180MPD1     H 2744   4.276   2.877  15.013 -0.5880 -1.2167 -0.3764
  180MPD1    H1 2745   4.450   2.506  15.112  1.6992  0.1710  1.4338
  180MPD1    H2 2746   4.458   2.827  15.401  0.7392  0.9123 -0.0346
  180MPD1    H3 2747   4.488   2.594  15.343 -0.6969 -1.1203 -1.3015
  180MPD1     N 2748   4.287   2.632  14.936  0.1199  0.0121  0.6979
  180MPD1    H5 2749   4.210   2.682  14.892 -0.2654 -1.1422  0.0575
  180MPD1    N1 2750   4.349   3.005  15.250  0.6882 -0.4431 -0.8323
  180MPD1    H6 2751   4.363   3.069  15.171  0.5286 -0.8139 -1.1593
  180MPD1    H7 2752   4.404   3.043  15.327  1.8266 -0.5329 -1.5949
  181MPD1     C 2753   4.662   4.040  10.058  0.2090 -0.3112 -0.7997
  181MPD1    C1 2754   0.020   3.938  10.000  0.5146 -0.5403  0.4613
  181MPD1    C2 2755   0.153   3.956   9.980 -0.2160 -0.0546  0.2687
  181MPD1    C3 2756   0.209   4.078  10.009  0.2615 -0.7374 -0.0380
  181MPD1    C4 2757   0.132   4.175  10.072 -0.2153  0.1020 -0.5798
  181MPD1    C5 2758   0.004   4.155  10.095 -0.1440  0.0794  0.2463
  181MPD1     H 2759   0.208   3.871   9.941 -1.2693 -0.0419 -1.2239
  181MPD1    H1 2760   0.173   4.274  10.089 -1.9909  0.7134  0.1198
  181MPD1    H2 2761   4.562   4.032  10.098  0.1055  1.1353 -0.7762
  181MPD1    H3 2762   4.663   4.234  10.140 -0.7160  0.5916 -1.4319
  181MPD1     N 2763   0.351   4.109   9.997 -1.0639 -0.0123 -0.4271
  181MPD1    H5 2764   0.380   4.191  10.051  0.1948 -1.9166  1.7802
  181MPD1    N1 2765   4.682   3.810   9.998  0.2854 -0.0780 -0.4329
  181MPD1    H6 2766   0.001   3.757   9.920  1.6001 -1.3081  1.0511
  181MPD1    H7 2767   4.584   3.818   9.972 -0.1446 -1.1362  0.8472
  182MPD1     C 2768   1.755   2.488   1.039  0.2451  0.2002 -0.6249
  182MPD1    C1 2769   1.732   2.617   1.069  0.0190  0.0260 -0.1275
  182MPD1    C2 2770   1.744   2.715   0.964 -0.0135 -0.0789 -0.1897
  182MPD1    C3 2771   1.797   2.671   0.839  0.2758  0.1225 -0.3436
  182MPD1    C4 2772   1.822   2.539   0.819  0.2072  0.6601 -0.6572
  182MPD1    C5 2773   1.802   2.448   0.919 -0.4668 -0.6524 -0.0962
  182MPD1     H 2774   1.737   2.822   0.985 -2.1209  0.3661 -3.0903
  182MPD1    H1 2775   1.863   2.508   0.724 -0.1081  0.8869 -0.8668
  182MPD1    H2 2776   1.760   2.407   1.111 -1.4610 -0.6658 -1.4787
  182MPD1    H3 2777   1.817   2.342   0.901 -2.1969 -0.8672 -0.2731
  182MPD1     N 2778   1.810   2.760   0.730 -0.2896  0.3756  0.2353
  182MPD1    H5 2779   1.838   2.728   0.637 -0.6117 -0.4032  0.4088
  182MPD1    N1 2780   1.722   2.659   1.202  0.6628  0.6733 -0.3146
  182MPD1    H6 2781   1.665   2.743   1.197 -0.2043  0.1256  0.2497
  182MPD1    H7 2782   1.670   2.589   1.256 -1.3632  1.8059 -0.7987
  183MPD1     C 2783   2.461   4.657   9.043  0.4887  0.0340 -0.4832
  183MPD1    C1 2784   2.340   0.009   9.059  0.0890 -0.4365 -0.3684
  183MPD1    C2 2785   2.230   4.645   9.071  0.6696 -0.3043  0.1576
  183MPD1    C3 2786   2.228   4.507   9.097 -0.0376  0.7277  0.1194
  183MPD1    C4 2787   2.351   4.447   9.082 -0.1083 -0.3315 -0.4038
  183MPD1    C5 2788   2.466   4.522   9.058  0.1927 -0.5680  0.2010
  183MPD1     H 2789   2.130   4.685   9.085  0.9319 -0.2892  1.9435
  183MPD1    H1 2790   2.366   4.341   9.097 -0.7331 -0.3277  0.2755
  183MPD1    H2 2791   2.554   4.713   9.041  0.9988 -0.8547 -1.5497
  183MPD1    H3 2792   2.563   4.475   9.046  0.1167 -0.7818  0.4016
  183MPD1     N 2793   2.108   4.441   9.143  0.1847 -0.8232 -0.0939
  183MPD1    H5 2794   2.043   4.515   9.169 -3.2858 -4.4747  1.6477
  183MPD1    N1 2795   2.332   0.151   9.044 -0.1755 -0.8182 -0.2940
  183MPD1    H6 2796   2.259   0.185   9.106 -0.1898  1.1815 -1.3747
  183MPD1    H7 2797   2.417   0.195   9.079 -0.1276 -0.4797 -0.8358
  184MPD1     C 2798   0.830   1.665   9.983  0.1096  0.0033 -0.0721
  184MPD1    C1 2799   0.810   1.629   9.850 -0.3894  0.3563  0.7450
  184MPD1    C2 2800   0.879   1.692   9.750  0.1163 -0.4040 -0.3618
  184MPD1    C3 2801   0.962   1.803   9.777 -0.3440 -0.7522  0.1317
  184MPD1    C4 2802   0.973   1.837   9.910  0.0477 -0.0259  0.1824
  184MPD1    C5 2803   0.909   1.771  10.008 -0.2932 -0.5476 -1.2284
  184MPD1     H 2804   0.853   1.674   9.646 -0.0281  0.3019 -0.4528
  184MPD1    H1 2805   1.023   1.932   9.928 -0.6356  0.0775  1.5794
  184MPD1    H2 2806   0.785   1.620  10.070  2.7385 -1.6149  0.4751
  184MPD1    H3 2807   0.925   1.807  10.109  1.1978  0.2551 -1.7487
  184MPD1     N 2808   1.033   1.875   9.677 -0.1616  0.1955  0.1676
  184MPD1    H5 2809   1.081   1.959   9.707 -1.5033  0.8627  0.4353
  184MPD1    N1 2810   0.700   1.551   9.826 -0.7524 -0.1003  0.3207
  184MPD1    H6 2811   0.702   1.509   9.733  1.4790 -0.5864  0.5843
  184MPD1    H7 2812   0.684   1.483   9.900  0.3347 -0.5146  0.1713
  185MPD1     C 2813   0.864   1.939   8.672 -0.2112 -0.3473 -0.1552
  185MPD1    C1 2814   0.996   1.969   8.691 -0.6105 -0.2137  0.0039
  185MPD1    C2 2815   1.048   1.995   8.818  0.6667 -0.3871  0.0235
  185MPD1    C3 2816   0.965   1.962   8.928  0.0436  0.1135 -0.0571
  185MPD1    C4 2817   0.836   1.927   8.901  0.1147  0.2649  0.3061
  185MPD1    C5 2818   0.786   1.924   8.780 -0.2162  0.3369  0.4332
  185MPD1     H 2819   1.151   2.027   8.826  0.7813 -1.0516  1.3155
  185MPD1    H1 2820   0.775   1.905   8.988  0.4274  0.9848  0.7088
  185MPD1    H2 2821   0.826   1.922   8.572 -3.6206  1.6523  0.7967
  185MPD1    H3 2822   0.678   1.916   8.771  0.0628 -0.5510 -2.1658
  185MPD1     N 2823   1.005   1.975   9.061 -1.1107  0.1626 -0.1213
  185MPD1    H5 2824   0.943   1.937   9.132  0.6210  3.3242  3.1233
  185MPD1    N1 2825   1.078   1.991   8.578  0.4989  0.0193 -0.3759
  185MPD1    H6 2826   1.176   1.982   8.603  0.6260  3.0113  0.1704
  185MPD1    H7 2827   1.068   1.928   8.498  1.7503 -0.0059 -0.5175
  186MPD1     C 2828   3.563   2.068  16.221  0.1056  0.4208 -0.2504
  186MPD1    C1 2829   3.681   2.135  16.195  0.0416 -0.6405  0.4208
  186MPD1    C2 2830   3.791   2.057  16.174 -0.0791  0.4198 -0.0681
  186MPD1    C3 2831   3.793   1.921  16.205 -0.4254  0.3378 -0.7489
  186MPD1    C4 2832   3.674   1.863  16.237  0.0381  1.3540  0.0894
  186MPD1    C5 2833   3.560   1.931  16.241 -0.0192  0.0768 -0.3227
  186MPD1     H 2834   3.883   2.105  16.141  0.4921  0.6411  1.8496
  186MPD1    H1 2835   3.684   1.757  16.258 -0.7248  1.2312 -0.1669
  186MPD1    H2 2836   3.477   2.133  16.229  2.5785  3.5711  0.6789
  186MPD1    H3 2837   3.460   1.891  16.257  0.2850 -1.5235 -2.4051
  186MPD1     N 2838   3.902   1.830  16.194 -0.2970  0.3167  0.0544
  186MPD1    H5 2839   3.881   1.731  16.196 -0.7824  0.4466  1.7753
  186MPD1    N1 2840   3.681   2.272  16.173 -0.1924 -0.3340  0.1315
  186MPD1    H6 2841   3.612   2.329  16.221 -1.5685 -1.9625  0.0707
  186MPD1    H7 2842   3.777   2.303  16.181 -0.8694  1.3606  1.5701
  187MPD1     C 2843   3.119   2.622   0.360 -0.2978  0.1308 -0.0507
  187MPD1    C1 2844   3.180   2.734   0.406 -0.4902  0.0053 -0.2052
  187MPD1    C2 2845   3.267   2.803   0.317 -0.5487  0.0610  0.2227
  187MPD1    C3 2846   3.286   2.760   0.186  0.2203  0.4637  0.0832
  187MPD1    C4 2847   3.229   2.641   0.153 -0.0543 -0.4526  0.2242
  187MPD1    C5 2848   3.143   2.571   0.234  0.1455 -0.4502  0.4398
  187MPD1     H 2849   3.312   2.895   0.354  0.8830  0.6028 -2.8596
  187MPD1    H1 2850   3.242   2.601   0.053 -0.1810 -1.3312  0.5548
  187MPD1    H2 2851   3.061   2.566   0.432 -0.1607  0.1208  0.0512
  187MPD1    H3 2852   3.095   2.476   0.213  1.4850 -0.5265 -2.2640
  187MPD1     N 2853   3.359   2.831   0.088 -0.4244  0.6318  0.0753
  187MPD1    H5 2854   3.373   2.798  17.674  0.9302  1.8141 -0.1412
  187MPD1    N1 2855   3.150   2.782   0.537 -0.1861  0.6315 -0.2045
  187MPD1    H6 2856   3.140   2.715   0.613  3.7190  1.4551  1.0282
  187MPD1    H7 2857   3.229   2.840   0.566  0.5950 -0.4045 -0.2454
  188MPD1     C 2858   2.441   3.730   9.694  0.1440 -0.2577  0.2032
  188MPD1    C1 2859   2.407   3.677   9.818  0.6053  0.9904  0.1184
  188MPD1    C2 2860   2.469   3.558   9.858  0.4184 -0.4924 -0.0605
  188MPD1    C3 2861   2.548   3.484   9.766 -0.7899 -0.4073  0.4689
  188MPD1    C4 2862   2.560   3.536   9.643 -0.1905 -0.6482 -0.6240
  188MPD1    C5 2863   2.524   3.663   9.611  0.8743  0.6003 -0.0176
  188MPD1     H 2864   2.472   3.531   9.963 -1.6262  0.1176  0.1476
  188MPD1    H1 2865   2.630   3.491   9.574 -1.1838 -3.0021 -0.0777
  188MPD1    H2 2866   2.387   3.815   9.655  0.0530 -0.8226 -0.9144
  188MPD1    H3 2867   2.542   3.698   9.510  0.8281 -0.8941 -0.5345
  188MPD1     N 2868   2.620   3.368   9.801 -0.1347  0.4080 -0.2235
  188MPD1    H5 2869   2.686   3.337   9.731  0.4377 -1.2885  1.0593
  188MPD1    N1 2870   2.334   3.755   9.913 -0.5157  0.0042  0.0363
  188MPD1    H6 2871   2.271   3.818   9.864  1.9470 -0.4463 -3.6950
  188MPD1    H7 2872   2.285   3.689   9.973  0.3120  1.2661  2.1075
  189MPD1     C 2873   0.081   2.876   0.659 -0.0452 -0.7267 -0.3968
  189MPD1    C1 2874   4.710   2.822   0.569  0.6084  0.4232 -0.3679
  189MPD1    C2 2875   4.633   2.909   0.489 -0.6292 -0.2010  0.4093
  189MPD1    C3 2876   4.646   3.047   0.499 -0.1420  0.3760 -0.1318
  189MPD1    C4 2877   0.021   3.097   0.588 -0.8153 -0.6213 -0.4423
  189MPD1    C5 2878   0.087   3.011   0.673 -0.5109 -0.8453 -0.5717
  189MPD1     H 2879   4.562   2.872   0.417 -0.2394  1.3211 -0.7573
  189MPD1    H1 2880   0.026   3.205   0.597 -0.4845 -0.7218  0.5918
  189MPD1    H2 2881   0.142   2.818   0.728 -1.2366  1.5961  2.6076
  189MPD1    H3 2882   0.160   3.057   0.738  0.0609 -0.6872 -1.3207
  189MPD1     N 2883   4.552   3.133   0.430  0.0532  0.1806  0.2248
  189MPD1    H5 2884   4.477   3.093   0.374 -2.8801  3.3025  1.9411
  189MPD1    N1 2885   4.701   2.685   0.539 -0.2154  0.3478  0.0189
  189MPD1    H6 2886   4.610   2.654   0.505 -0.0448 -0.3361  0.1929
  189MPD1    H7 2887   0.006   2.630   0.621  0.4290  2.0306  0.9556
  190MPD1     C 2888   3.265   2.622  15.548 -0.1824 -0.0486  0.9011
  190MPD1    C1 2889   3.347   2.688  15.631  0.7973 -0.5265  1.0414
  190MPD1    C2 2890   3.463   2.622  15.663 -0.7989 -0.2755 -0.2179
  190MPD1    C3 2891   3.511   2.512  15.586  0.0626  0.2886  0.4913
  190MPD1    C4 2892   3.424   2.446  15.504 -0.6900  0.2643 -0.0566
  190MPD1    C5 2893   3.302   2.506  15.485  0.7529 -0.1249 -0.3134
  190MPD1     H 2894   3.532   2.668  15.733 -1.7129  2.1384 -0.9216
  190MPD1    H1 2895   3.450   2.361  15.442 -0.4640 -0.0374  0.4486
  190MPD1    H2 2896   3.166   2.661  15.527 -0.6035 -1.2345  0.6913
  190MPD1    H3 2897   3.230   2.460  15.418  1.3734 -0.3027 -0.8585
  190MPD1     N 2898   3.644   2.463  15.621 -0.2154 -0.5634  0.1121
  190MPD1    H5 2899   3.689   2.522  15.691  0.3730  0.3348 -1.0279
  190MPD1    N1 2900   3.301   2.804  15.704 -0.5033  0.4828 -0.3121
  190MPD1    H6 2901   3.383   2.860  15.727 -0.6857  0.5957  0.0585
  190MPD1    H7 2902   3.231   2.855  15.650 -0.7420 -2.1920 -2.5027
  191MPD1     C 2903   3.319   3.793  13.734 -0.4563 -0.1808 -0.7061
  191MPD1    C1 2904   3.189   3.816  13.739  0.7044 -0.5928  0.0903
  191MPD1    C2 2905   3.119   3.828  13.628 -0.4621 -0.6654  0.2653
  191MPD1    C3 2906   3.192   3.842  13.509 -0.2670 -0.4763  0.2864
  191MPD1    C4 2907   3.330   3.837  13.499 -0.3035  0.2450  0.0125
  191MPD1    C5 2908   3.389   3.816  13.618 -0.1835  0.1980 -0.2868
  191MPD1     H 2909   3.011   3.836  13.631 -0.3137  0.9485  1.5163
  191MPD1    H1 2910   3.385   3.860  13.408  0.8642 -1.9215  0.1709
  191MPD1    H2 2911   3.372   3.775  13.827 -2.0315 -1.4735 -0.0658
  191MPD1    H3 2912   3.497   3.824  13.624 -0.1817  0.5291 -0.7041
  191MPD1     N 2913   3.114   3.866  13.397  0.3897  0.4364 -0.5028
  191MPD1    H5 2914   3.015   3.854  13.416  0.7842 -0.0124  1.2788
  191MPD1    N1 2915   3.119   3.805  13.858 -0.1305 -0.1192 -0.9239
  191MPD1    H6 2916   3.026   3.846  13.861  0.1097  0.3830 -0.3290
  191MPD1    H7 2917   3.172   3.816  13.944  0.6718  0.9657 -1.5448
  192MPD1     C 2918   2.185   3.820  13.113 -0.6860 -0.0903 -0.3407
  192MPD1    C1 2919   2.276   3.736  13.156 -0.3194  0.7689  0.3954
  192MPD1    C2 2920   2.412   3.759  13.143 -0.2712 -0.2890  0.3025
  192MPD1    C3 2921   2.456   3.883  13.091 -0.3665  0.0084 -0.0981
  192MPD1    C4 2922   2.356   3.971  13.057 -0.4989 -0.3284  0.7675
  192MPD1    C5 2923   2.222   3.939  13.068  0.5691  1.0494  0.4725
  192MPD1     H 2924   2.480   3.679  13.170 -0.4583 -0.6103 -0.1752
  192MPD1    H1 2925   2.384   4.069  13.022  0.9598  0.1691  3.2604
  192MPD1    H2 2926   2.077   3.805  13.111 -0.5533 -1.1138  0.1225
  192MPD1    H3 2927   2.148   4.015  13.045 -0.6948 -0.2794  0.1583
  192MPD1     N 2928   2.593   3.920  13.077  0.6429 -0.3318 -0.0390
  192MPD1    H5 2929   2.610   4.015  13.047  1.0732 -0.4767 -0.2472
  192MPD1    N1 2930   2.220   3.615  13.203  0.8118  0.1773 -0.4653
  192MPD1    H6 2931   2.284   3.565  13.263  0.0137 -0.6990 -0.3441
  192MPD1    H7 2932   2.139   3.639  13.260  0.4375 -1.7366 -0.2104
  193MPD1     C 2933   3.249   3.785  16.558 -0.2113 -0.4689 -0.6518
  193MPD1    C1 2934   3.257   3.874  16.669 -0.3448 -0.0198  0.6061
  193MPD1    C2 2935   3.311   3.993  16.650  0.4398  0.0350  0.0605
  193MPD1    C3 2936   3.366   4.028  16.528  0.2550 -0.1218  0.0501
  193MPD1    C4 2937   3.377   3.935  16.431 -0.0997  0.0845  0.1019
  193MPD1    C5 2938   3.317   3.813  16.444  0.3088  0.4921  0.9084
  193MPD1     H 2939   3.319   4.070  16.725 -2.2341  0.1290  0.2570
  193MPD1    H1 2940   3.431   3.951  16.339 -1.4813 -1.4629 -0.9714
  193MPD1    H2 2941   3.191   3.693  16.560 -0.5556 -0.2427 -0.2779
  193MPD1    H3 2942   3.308   3.748  16.357 -2.6357  0.9612  0.8571
  193MPD1     N 2943   3.430   4.157  16.507  0.0478 -0.2495  0.4779
  193MPD1    H5 2944   3.498   4.160  16.432  0.3995 -1.1628  0.7598
  193MPD1    N1 2945   3.186   3.846  16.786  0.1617 -0.1548  0.5316
  193MPD1    H6 2946   3.202   3.896  16.873  1.5608 -0.7666  0.6227
  193MPD1    H7 2947   3.138   3.756  16.797  1.1244 -0.6956  0.3397
  194MPD1     C 2948   0.862   2.277  16.498 -0.5978 -0.1360 -0.4216
  194MPD1    C1 2949   0.866   2.182  16.398 -0.1934 -0.1752  0.0823
  194MPD1    C2 2950   0.888   2.052  16.425 -0.8520 -0.0337  0.3319
  194MPD1    C3 2951   0.900   2.006  16.560 -0.3200 -0.2631 -0.0082
  194MPD1    C4 2952   0.887   2.096  16.655 -0.4449  0.0289  0.0260
  194MPD1    C5 2953   0.875   2.232  16.630  0.4141 -0.1373  0.4455
  194MPD1     H 2954   0.886   1.986  16.339 -0.0573  1.1239 -0.5757
  194MPD1    H1 2955   0.900   2.060  16.756  0.1414  2.0306  0.6821
  194MPD1    H2 2956   0.852   2.383  16.474 -0.4397  0.0136  0.1753
  194MPD1    H3 2957   0.862   2.304  16.709 -1.2439  2.7338 -2.4595
  194MPD1     N 2958   0.932   1.874  16.593  1.0068  0.1246  0.3503
  194MPD1    H5 2959   0.947   1.853  16.691 -2.0285 -4.0548 -0.0967
  194MPD1    N1 2960   0.860   2.223  16.267 -0.0740  0.0022  0.2490
  194MPD1    H6 2961   0.802   2.305  16.254 -1.0860 -0.9561 -1.2689
  194MPD1    H7 2962   0.850   2.149  16.198  4.2729 -0.6668  0.3127
  195MPD1     C 2963   3.016   3.250  17.242 -1.0997 -0.1019  0.2034
  195MPD1    C1 2964   2.931   3.189  17.155  0.3014  0.1550 -0.0133
  195MPD1    C2 2965   2.887   3.061  17.180  0.1525  0.4672 -0.1313
  195MPD1    C3 2966   2.919   2.995  17.297 -0.2672 -0.7504 -0.1566
  195MPD1    C4 2967   2.996   3.057  17.388 -0.3966  0.0981  0.3841
  195MPD1    C5 2968   3.045   3.187  17.363  0.2188  0.3162 -0.3820
  195MPD1     H 2969   2.842   3.008  17.097 -0.4667 -0.9330  1.1020
  195MPD1    H1 2970   3.028   3.004  17.477  0.6418  1.7240  0.9846
  195MPD1    H2 2971   3.070   3.340  17.215  0.2582 -1.4280 -1.5350
  195MPD1    H3 2972   3.102   3.239  17.439  0.4174 -0.2655 -0.1261
  195MPD1     N 2973   2.873   2.864  17.319  0.0203 -0.5480 -0.3121
  195MPD1    H5 2974   2.902   2.812  17.402 -0.3521 -1.8443 -0.9877
  195MPD1    N1 2975   2.912   3.234  17.025 -0.0649 -0.1254  0.3516
  195MPD1    H6 2976   2.953   3.328  17.023  0.7800 -0.4768  1.0772
  195MPD1    H7 2977   2.986   3.181  16.980 -0.6958 -2.5630  2.1873
  196MPD1     C 2978   2.462   3.403   0.014  0.4446  1.1403 -0.0008
  196MPD1    C1 2979   2.411   3.276  17.673 -0.2299  0.5250  0.1002
  196MPD1    C2 2980   2.439   3.182   0.090  0.1078 -0.4515 -0.8204
  196MPD1    C3 2981   2.504   3.208   0.204 -0.8281 -0.8142 -0.5786
  196MPD1    C4 2982   2.538   3.338   0.235 -0.1494  0.6204 -0.9469
  196MPD1    C5 2983   2.516   3.431   0.135 -0.4320 -0.3943  0.2932
  196MPD1     H 2984   2.404   3.081   0.072  0.6928 -0.7088 -0.4897
  196MPD1    H1 2985   2.595   3.360   0.325  0.4150 -1.7978 -0.7020
  196MPD1    H2 2986   2.471   3.475  17.614 -0.0057  1.6519  0.4102
  196MPD1    H3 2987   2.563   3.528   0.142  0.7652 -1.0450  1.0895
  196MPD1     N 2988   2.519   3.115   0.304  0.2536 -0.5487 -0.3696
  196MPD1    H5 2989   2.551   3.145   0.395  0.5209  2.4188 -1.4597
  196MPD1    N1 2990   2.371   3.227  17.544  0.4359  0.3023 -0.2833
  196MPD1    H6 2991   2.339   3.301  17.481  0.7949  0.1728 -0.6121
  196MPD1    H7 2992   2.296   3.160  17.562  1.6003 -1.7072 -3.1435
  197MPD1     C 2993   1.421   0.799  17.468 -0.2364  0.1521 -0.0626
  197MPD1    C1 2994   1.453   0.667  17.443 -0.3120  0.3489 -0.2956
  197MPD1    C2 2995   1.569   0.632  17.371  0.4995  0.3111  0.1145
  197MPD1    C3 2996   1.641   0.737  17.306  0.2525 -0.0418  0.8915
  197MPD1    C4 2997   1.592   0.865  17.320 -0.1922 -0.1276 -1.3335
  197MPD1    C5 2998   1.486   0.894  17.401 -0.6580 -0.7117  0.7894
  197MPD1     H 2999   1.598   0.528  17.363  2.1506  0.6707  1.4331
  197MPD1    H1 3000   1.629   0.952  17.267  2.6985  0.0521  1.0289
  197MPD1    H2 3001   1.345   0.837  17.536 -0.3441 -0.8400  0.3598
  197MPD1    H3 3002   1.447   0.995  17.409 -0.3041 -0.5070 -0.0392
  197MPD1     N 3003   1.763   0.724  17.234 -0.2997  0.8101  0.3390
  197MPD1    H5 3004   1.802   0.812  17.203  0.6442  0.2320 -0.1221
  197MPD1    N1 3005   1.392   0.570  17.523  0.1966  0.0177  0.2644
  197MPD1    H6 3006   1.399   0.488  17.463 -1.5251 -0.0785  0.1868
  197MPD1    H7 3007   1.293   0.595  17.534  0.5876  2.0932 -0.9189
  198MPD1     C 3008   3.804   3.814  15.238  0.1246 -0.1191 -0.1768
  198MPD1    C1 3009   3.851   3.693  15.204  0.2458  0.4830 -0.0847
  198MPD1    C2 3010   3.919   3.623  15.297  0.2058  0.3635  0.8064
  198MPD1    C3 3011   3.940   3.670  15.429  0.5185 -0.3609  0.3159
  198MPD1    C4 3012   3.902   3.795  15.457  0.2492  0.2220  0.1069
  198MPD1    C5 3013   3.820   3.861  15.363  0.6449  0.1880  0.2685
  198MPD1     H 3014   3.967   3.533  15.259  1.6854  0.8279  1.5647
  198MPD1    H1 3015   3.930   3.839  15.552  1.3405  0.9131 -0.5411
  198MPD1    H2 3016   3.751   3.884  15.174 -1.1884 -0.1538  0.8773
  198MPD1    H3 3017   3.795   3.964  15.388 -0.0643  0.2003 -0.4760
  198MPD1     N 3018   4.020   3.594  15.517  0.1299 -0.1614  0.3946
  198MPD1    H5 3019   4.045   3.502  15.482 -1.5787 -1.0788  1.5873
  198MPD1    N1 3020   3.827   3.644  15.072  0.6715 -0.4355 -0.1117
  198MPD1    H6 3021   3.820   3.720  15.005  0.8135 -0.4011 -0.0888
  198MPD1    H7 3022   3.906   3.590  15.037  2.2459  0.2362  2.3943
  199MPD1     C 3023   1.671   0.693   9.963 -0.1660 -0.3361  0.1562
  199MPD1    C1 3024   1.688   0.650   9.828 -0.9924  0.0015 -0.1872
  199MPD1    C2 3025   1.584   0.572   9.778  0.2131 -0.6284 -0.2574
  199MPD1    C3 3026   1.459   0.565   9.834 -0.3831 -0.6239 -0.2676
  199MPD1    C4 3027   1.444   0.623   9.953  0.2583 -0.3317 -0.2257
  199MPD1    C5 3028   1.549   0.686  10.021  0.2035  0.4223  0.0629
  199MPD1     H 3029   1.602   0.510   9.691 -2.2763  1.7958 -2.4293
  199MPD1    H1 3030   1.348   0.613  10.003  0.2772 -0.9103 -0.3133
  199MPD1    H2 3031   1.752   0.734  10.022  0.3723 -2.8439  1.1523
  199MPD1    H3 3032   1.519   0.741  10.109 -0.5724  0.7004 -0.3751
  199MPD1     N 3033   1.356   0.482   9.780  0.7820 -0.1299 -0.0544
  199MPD1    H5 3034   1.265   0.483   9.824  0.4253 -1.8740 -0.7525
  199MPD1    N1 3035   1.814   0.652   9.776 -0.0352 -0.3390 -0.3199
  199MPD1    H6 3036   1.865   0.730   9.818  2.0944 -1.4642 -0.8303
  199MPD1    H7 3037   1.831   0.655   9.676  0.4336 -0.0811 -0.2320
  200MPD1     C 3038   4.565   0.250  14.726 -0.7935 -1.1865  0.0394
  200MPD1    C1 3039   4.512   0.214  14.602  0.3131 -0.0483 -0.5528
  200MPD1    C2 3040   4.596   0.159  14.504 -0.1937 -0.6770  1.0847
  200MPD1    C3 3041   0.013   0.152  14.519  0.3305 -0.8336  0.1894
  200MPD1    C4 3042   0.060   0.190  14.646 -0.1714  0.6910 -0.4385
  200MPD1    C5 3043   4.701   0.234  14.745 -0.3582 -0.2207 -0.2590
  200MPD1     H 3044   4.558   0.122  14.409  0.4826 -1.3539  1.0795
  200MPD1    H1 3045   0.164   0.210  14.665 -0.5857  1.6411  0.8221
  200MPD1    H2 3046   4.505   0.281  14.811  1.8629  2.0883  0.7071
  200MPD1    H3 3047   0.022   0.252  14.843  1.1604 -0.7400 -0.7894
  200MPD1     N 3048   0.100   0.102  14.422  0.0743  0.5144 -0.1413
  200MPD1    H5 3049   0.062   0.070  14.333  0.3162 -1.6749  0.5353
  200MPD1    N1 3050   4.373   0.220  14.584 -0.3076  0.1952  0.1001
  200MPD1    H6 3051   4.347   0.244  14.489  0.1767  0.6779  0.0942
  200MPD1    H7 3052   4.325   0.281  14.650 -0.1227 -0.6328  1.0002
  201MPD1     C 3053   2.254   3.473  12.273 -0.3281  0.3968 -0.8019
  201MPD1    C1 3054   2.230   3.339  12.260  0.6123 -0.6614  0.9987
  201MPD1    C2 3055   2.309   3.253  12.335  0.5674  0.0977  0.0784
  201MPD1    C3 3056   2.395   3.288  12.440 -0.6146  0.1088 -0.2720
  201MPD1    C4 3057   2.397   3.426  12.463  0.1303  0.6426  0.1369
  201MPD1    C5 3058   2.341   3.510  12.372 -0.0548  0.0090  0.8057
  201MPD1     H 3059   2.285   3.150  12.309  2.7182 -0.4839  0.4347
  201MPD1    H1 3060   2.456   3.465  12.544  0.7152  0.0394 -0.0012
  201MPD1    H2 3061   2.208   3.552  12.215 -1.8469  0.7705  0.8871
  201MPD1    H3 3062   2.348   3.616  12.396 -0.3358  0.1461  0.2844
  201MPD1     N 3063   2.463   3.188  12.518  0.1526 -0.4476 -0.1151
  201MPD1    H5 3064   2.454   3.090  12.492  0.3923 -1.0025  1.8729
  201MPD1    N1 3065   2.163   3.294  12.150 -0.2772 -0.5452  0.2447
  201MPD1    H6 3066   2.093   3.359  12.113 -0.9628 -1.1593  0.4599
  201MPD1    H7 3067   2.119   3.205  12.173 -0.9663 -0.0915  0.6830
  202MPD1     C 3068   2.494   3.263   8.918  1.2203  0.3656 -0.2291
  202MPD1    C1 3069   2.595   3.287   9.014  0.7537  0.4478 -0.0312
  202MPD1    C2 3070   2.550   3.278   9.145 -1.1099  0.6173  0.4148
  202MPD1    C3 3071   2.419   3.292   9.179 -0.1639  0.4573  0.2882
  202MPD1    C4 3072   2.324   3.294   9.084 -0.3612  0.1647  1.4169
  202MPD1    C5 3073   2.358   3.275   8.952  1.3192  0.3877 -0.5893
  202MPD1     H 3074   2.630   3.292   9.218 -0.6151 -0.3432  0.0513
  202MPD1    H1 3075   2.221   3.289   9.117 -0.9376 -1.4049 -0.6138
  202MPD1    H2 3076   2.518   3.248   8.813  1.8174 -0.2187 -0.0144
  202MPD1    H3 3077   2.278   3.283   8.879  1.7024  0.4271 -1.0082
  202MPD1     N 3078   2.369   3.299   9.314  0.0786 -0.9256 -0.4314
  202MPD1    H5 3079   2.270   3.323   9.326  0.3518 -1.7054  3.3447
  202MPD1    N1 3080   2.723   3.243   8.993 -0.1968 -0.1655 -0.4592
  202MPD1    H6 3081   2.763   3.262   8.902 -0.4008 -0.2791 -0.5726
  202MPD1    H7 3082   2.790   3.270   9.065  0.2529 -0.1008 -0.8976
  203MPD1     C 3083   0.756   4.450  12.724 -0.2132  0.0813  0.0407
  203MPD1    C1 3084   0.875   4.387  12.758 -0.0363  0.5484 -0.8888
  203MPD1    C2 3085   0.904   4.256  12.718 -0.3466  0.1869  0.7222
  203MPD1    C3 3086   0.804   4.176  12.665 -0.0818  0.8287  0.4142
  203MPD1    C4 3087   0.679   4.233  12.636 -0.6673  0.3234  0.5476
  203MPD1    C5 3088   0.660   4.366  12.672  0.4019 -0.6973  0.6517
  203MPD1     H 3089   0.997   4.204  12.738 -0.4459 -1.3223 -2.7034
  203MPD1    H1 3090   0.601   4.169  12.595  0.2318 -0.3158 -0.1547
  203MPD1    H2 3091   0.739   4.556  12.739 -1.4074 -0.1906  0.5825
  203MPD1    H3 3092   0.561   4.404  12.654  0.6411 -0.1368  0.5239
  203MPD1     N 3093   0.835   4.036  12.642 -0.4227  0.4437  0.5287
  203MPD1    H5 3094   0.927   3.999  12.665 -2.4608 -0.9893  6.3711
  203MPD1    N1 3095   0.973   4.471  12.801 -0.2604  0.2614 -0.1158
  203MPD1    H6 3096   0.954   4.565  12.835 -0.5800  0.5160 -0.9670
  203MPD1    H7 3097   1.043   4.425  12.858 -0.0513 -1.0451 -1.4188
  204MPD1     C 3098   4.406   4.559  17.653  0.0162 -0.6794  0.6714
  204MPD1    C1 3099   4.512   4.497   0.024  1.0412  0.4176 -0.3233
  204MPD1    C2 3100   4.582   4.411  17.618 -0.4258  0.1684  0.8928
  204MPD1    C3 3101   4.562   4.402  17.484  0.0850 -0.7767  1.1321
  204MPD1    C4 3102   4.456   4.476  17.433 -0.2486 -0.3324 -0.3556
  204MPD1    C5 3103   4.385   4.554  17.516 -0.3674 -0.4463  0.0743
  204MPD1     H 3104   4.669   4.367  17.666  1.1531  2.9124  0.5945
  204MPD1    H1 3105   4.439   4.490  17.327 -0.7961  1.2958 -0.0467
  204MPD1    H2 3106   4.338   4.613   0.038  2.2582  2.3752  0.5139
  204MPD1    H3 3107   4.313   4.620  17.469  0.1128  0.0764  0.0542
  204MPD1     N 3108   4.648   4.322  17.406  0.0807  0.4434 -0.0823
  204MPD1    H5 3109   0.010   4.283  17.452  1.2197  2.4129 -0.4243
  204MPD1    N1 3110   4.524   4.489   0.166  0.2407  0.5960  0.2028
  204MPD1    H6 3111   4.623   4.488   0.190  0.3907 -0.2698 -0.4372
  204MPD1    H7 3112   4.480   4.563   0.220 -1.2342  0.6577 -1.0796
  205MPD1     C 3113   1.693   3.639  17.520  0.7906 -0.3161  0.3165
  205MPD1    C1 3114   1.648   3.513  17.557  0.0500  0.3154  0.3643
  205MPD1    C2 3115   1.516   3.501  17.581  0.6026 -0.1026 -0.2793
  205MPD1    C3 3116   1.421   3.606  17.556 -0.6073 -0.5086  0.0815
  205MPD1    C4 3117   1.470   3.724  17.502 -1.1595 -0.4330  0.2799
  205MPD1    C5 3118   1.602   3.744  17.497  0.0777 -0.4626  0.1547
  205MPD1     H 3119   1.486   3.402  17.614 -1.0734  1.2352  2.1710
  205MPD1    H1 3120   1.402   3.795  17.457 -0.3353 -1.4654 -2.6068
  205MPD1    H2 3121   1.796   3.662  17.494 -0.0823  0.2128 -2.7063
  205MPD1    H3 3122   1.648   3.829  17.449 -0.4057  0.1823  0.8406
  205MPD1     N 3123   1.285   3.570  17.570 -0.1303 -0.2602  0.2559
  205MPD1    H5 3124   1.264   3.475  17.600  0.3592  0.2174  2.1058
  205MPD1    N1 3125   1.744   3.416  17.600 -0.4007  0.5594 -0.1191
  205MPD1    H6 3126   1.704   3.323  17.589 -0.0924  0.4726 -0.4985
  205MPD1    H7 3127   1.833   3.426  17.552 -0.7316  1.4285 -0.5439
  206MPD1     C 3128   1.522   1.844  16.498  0.0626  0.2711 -0.2385
  206MPD1    C1 3129   1.477   1.716  16.474  0.0813  0.6283  0.0071
  206MPD1    C2 3130   1.370   1.701  16.385 -0.0922  0.4426 -0.6864
  206MPD1    C3 3131   1.315   1.810  16.318  0.1510  0.5758  0.0388
  206MPD1    C4 3132   1.368   1.933  16.341 -0.0216 -0.8033  0.3054
  206MPD1    C5 3133   1.457   1.957  16.444  0.4789 -0.5916  0.2268
  206MPD1     H 3134   1.323   1.606  16.361  1.6672 -1.0727  1.7881
  206MPD1    H1 3135   1.320   2.022  16.301 -0.4257 -1.1373  0.0588
  206MPD1    H2 3136   1.599   1.844  16.575 -1.6518 -0.9697  1.4805
  206MPD1    H3 3137   1.484   2.061  16.460  0.4681 -1.0291  3.0134
  206MPD1     N 3138   1.218   1.798  16.219 -0.3374  0.0757 -0.1119
  206MPD1    H5 3139   1.195   1.887  16.176 -0.6049  0.9921  1.9405
  206MPD1    N1 3140   1.532   1.605  16.545 -0.1705  0.2352 -0.0668
  206MPD1    H6 3141   1.629   1.612  16.575 -0.2496 -1.4897  0.5700
  206MPD1    H7 3142   1.527   1.521  16.489  2.7587  0.6774 -0.9905
  207MPD1     C 3143   3.113   4.601   9.304 -0.3351 -0.1665  0.4021
  207MPD1    C1 3144   3.241   4.654   9.298  0.0031 -0.4563  0.6054
  207MPD1    C2 3145   3.320   4.664   9.415 -1.0525 -0.4196 -0.2763
  207MPD1    C3 3146   3.269   4.611   9.536 -0.0970  0.3328 -0.2702
  207MPD1    C4 3147   3.150   4.544   9.531 -0.3548  0.3420  0.3180
  207MPD1    C5 3148   3.072   4.539   9.419  0.2175  0.7043  0.1527
  207MPD1     H 3149   3.421   4.703   9.419 -2.2874  2.9819 -2.0769
  207MPD1    H1 3150   3.100   4.498   9.616  0.6581  1.1656  1.3569
  207MPD1    H2 3151   3.055   4.599   9.212 -0.6442  2.2039  0.5571
  207MPD1    H3 3152   2.976   4.488   9.417  0.2807  0.4900  2.9187
  207MPD1     N 3153   3.339   4.620   9.654 -0.0378 -0.3229  0.5148
  207MPD1    H5 3154   3.308   4.560   9.730 -1.6019 -0.4892 -0.2499
  207MPD1    N1 3155   3.271   0.005   9.181 -0.4349  0.0102  0.5031
  207MPD1    H6 3156   3.366   4.714   9.148 -0.3005 -0.5492  1.0822
  207MPD1    H7 3157   3.212   4.700   9.101 -1.1371 -1.1968  1.3903
  208MPD1     C 3158   1.621   3.521  17.204  0.5939 -0.3931 -0.5207
  208MPD1    C1 3159   1.496   3.476  17.181 -0.3273  0.5187  0.9796
  208MPD1    C2 3160   1.480   3.339  17.160  0.4103 -0.2647  0.7019
  208MPD1    C3 3161   1.587   3.254  17.160  0.0838  0.2629 -0.1476
  208MPD1    C4 3162   1.705   3.310  17.205 -0.0099  0.2779 -0.6467
  208MPD1    C5 3163   1.731   3.441  17.217  0.4251  0.5884  0.3941
  208MPD1     H 3164   1.382   3.308  17.126  0.5333 -0.0140  0.1208
  208MPD1    H1 3165   1.793   3.249  17.221 -0.7417 -0.3291  1.1508
  208MPD1    H2 3166   1.644   3.625  17.221 -0.3698 -0.2425 -0.1390
  208MPD1    H3 3167   1.823   3.486  17.251  1.5746 -0.0201 -1.8924
  208MPD1     N 3168   1.560   3.113  17.137 -0.5728 -0.4030 -0.1765
  208MPD1    H5 3169   1.463   3.082  17.137 -1.7452  3.3495  3.5742
  208MPD1    N1 3170   1.387   3.562  17.145 -0.5568 -0.6443 -0.1983
  208MPD1    H6 3171   1.299   3.528  17.182 -0.1669 -1.3148  0.1152
  208MPD1    H7 3172   1.398   3.659  17.172 -0.5800 -0.9226  0.8060
  209MPD1     C 3173   3.782   3.059  10.588  0.5414  0.0964 -0.4999
  209MPD1    C1 3174   3.886   3.119  10.649  0.3928  0.3477  0.1226
  209MPD1    C2 3175   3.884   3.257  10.656  0.5306 -0.1850 -0.1754
  209MPD1    C3 3176   3.778   3.332  10.600  0.4106 -0.2981 -0.0677
  209MPD1    C4 3177   3.665   3.269  10.560 -0.0452  0.6828  0.5032
  209MPD1    C5 3178   3.672   3.137  10.541  1.2803  0.1433  0.3067
  209MPD1     H 3179   3.964   3.309  10.708 -0.0818 -1.4687  2.0103
  209MPD1    H1 3180   3.579   3.315  10.514  1.8109  1.3935 -2.2729
  209MPD1    H2 3181   3.782   2.952  10.577  0.5716 -0.1677  2.1543
  209MPD1    H3 3182   3.594   3.086  10.485 -0.6797  2.2491  1.1154
  209MPD1     N 3183   3.786   3.473  10.603  0.0370  0.0395  0.1914
  209MPD1    H5 3184   3.871   3.510  10.644 -0.5821  3.7658 -1.9127
  209MPD1    N1 3185   4.002   3.045  10.676  0.3840 -0.0865  0.5745
  209MPD1    H6 3186   4.065   3.094  10.740 -0.4900  1.6001  0.1433
  209MPD1    H7 3187   3.973   2.953  10.709 -1.0407 -0.5070 -1.8686
  210MPD1     C 3188   4.064   4.298  11.104  0.4538  0.3150 -0.3080
  210MPD1    C1 3189   3.964   4.212  11.140 -0.6886 -0.0475  0.4005
  210MPD1    C2 3190   3.895   4.147  11.041 -0.1384 -0.8802  0.0715
  210MPD1    C3 3191   3.925   4.169  10.905 -0.1198  0.0677  0.8249
  210MPD1    C4 3192   4.024   4.263  10.875  0.3817 -0.2580 -0.2002
  210MPD1    C5 3193   4.087   4.325  10.974 -0.0626  0.5166  0.5571
  210MPD1     H 3194   3.816   4.078  11.069  0.3201 -0.2601  2.8966
  210MPD1    H1 3195   4.066   4.283  10.777 -3.4593 -3.9639 -2.6046
  210MPD1    H2 3196   4.120   4.352  11.180 -1.5205  0.0433  1.3519
  210MPD1    H3 3197   4.160   4.401  10.949 -0.2387  0.4392 -0.1975
  210MPD1     N 3198   3.887   4.081  10.797 -0.1404 -0.7933 -0.1784
  210MPD1    H5 3199   3.909   4.108  10.701 -2.6159  0.3652 -0.4281
  210MPD1    N1 3200   3.956   4.165  11.272 -0.2778 -0.1237 -0.0324
  210MPD1    H6 3201   3.972   4.238  11.341 -0.8635  2.1263 -2.2728
  210MPD1    H7 3202   3.872   4.118  11.303 -0.1465 -0.3164  0.0291
  211MPD1     C 3203   2.087   3.912  16.879 -0.4192  1.5322 -0.5015
  211MPD1    C1 3204   2.041   4.001  16.780 -0.3720  0.0545 -0.1786
  211MPD1    C2 3205   1.905   3.988  16.747 -0.1073  0.2856 -0.2311
  211MPD1    C3 3206   1.818   3.913  16.823 -0.2475  0.0245  0.5256
  211MPD1    C4 3207   1.860   3.844  16.934  0.0194  0.3321  0.3015
  211MPD1    C5 3208   1.994   3.846  16.962  0.0461  0.1999  0.3715
  211MPD1     H 3209   1.862   4.044  16.666 -0.9992 -0.2680 -0.1448
  211MPD1    H1 3210   1.793   3.782  16.993  1.2949  1.3210  2.7947
  211MPD1    H2 3211   2.191   3.904  16.906 -0.8474  1.2807  1.0756
  211MPD1    H3 3212   2.028   3.781  17.042 -1.4727 -0.0281  0.8306
  211MPD1     N 3213   1.684   3.918  16.776  0.2287  0.2401 -0.3238
  211MPD1    H5 3214   1.680   3.968  16.689 -1.4305  2.5205  1.0601
  211MPD1    N1 3215   2.122   4.074  16.697  0.4886 -0.5438  0.2767
  211MPD1    H6 3216   2.207   4.114  16.735 -0.0353 -0.3257  1.2267
  211MPD1    H7 3217   2.077   4.153  16.651  0.2904 -0.6934  0.2179
  212MPD1     C 3218   0.567   1.999  16.330  0.1431  0.1831 -0.0938
  212MPD1    C1 3219   0.451   2.062  16.359 -0.2821 -0.1883 -0.5047
  212MPD1    C2 3220   0.345   1.985  16.410 -0.7153 -0.2819  0.1190
  212MPD1    C3 3221   0.348   1.845  16.413  0.8939 -0.2555  0.0871
  212MPD1    C4 3222   0.465   1.789  16.378  0.0042  0.3921 -0.5621
  212MPD1    C5 3223   0.566   1.865  16.331 -0.6126  0.2347 -0.2438
  212MPD1     H 3224   0.259   2.028  16.459 -1.0951  0.3482 -1.1108
  212MPD1    H1 3225   0.488   1.685  16.393 -0.0141  0.6747  1.4208
  212MPD1    H2 3226   0.659   2.044  16.293  0.0269 -0.4525 -1.1629
  212MPD1    H3 3227   0.655   1.805  16.319 -1.9005 -1.5857 -0.6536
  212MPD1     N 3228   0.248   1.757  16.462  0.5791 -0.2398  0.1559
  212MPD1    H5 3229   0.281   1.663  16.483  2.4314  0.3600 -0.1386
  212MPD1    N1 3230   0.437   2.205  16.368  0.2553  0.0401  0.0623
  212MPD1    H6 3231   0.342   2.231  16.342  0.4501 -0.3219 -0.9814
  212MPD1    H7 3232   0.501   2.260  16.312  0.2371 -1.3869 -1.3679
  213MPD1     C 3233   2.315   3.013  14.966  0.6990  0.8374 -0.2455
  213MPD1    C1 3234   2.306   2.879  14.947 -0.5817  0.1917  0.2539
  213MPD1    C2 3235   2.429   2.817  14.920  0.3730  0.3328  0.0338
  213MPD1    C3 3236   2.550   2.872  14.963  0.0755  0.4207 -0.0389
  213MPD1    C4 3237   2.545   2.994  15.032  0.7195 -0.8898 -1.0050
  213MPD1    C5 3238   2.422   3.068  15.024 -0.4454 -0.3785  0.0287
  213MPD1     H 3239   2.427   2.714  14.887  0.9145  0.2946  0.1180
  213MPD1    H1 3240   2.633   3.045  15.070 -0.1605  1.0925 -1.6195
  213MPD1    H2 3241   2.225   3.074  14.961 -0.3033 -0.7561 -1.6065
  213MPD1    H3 3242   2.411   3.169  15.063  1.3660 -0.1021 -0.1855
  213MPD1     N 3243   2.677   2.803  14.938  0.4820  0.4541 -0.5359
  213MPD1    H5 3244   2.674   2.705  14.912  3.8699 -0.0930  1.1440
  213MPD1    N1 3245   2.192   2.833  14.876 -0.0644 -0.3279 -0.3782
  213MPD1    H6 3246   2.108   2.872  14.917 -1.4379 -1.5187 -2.0532
  213MPD1    H7 3247   2.194   2.732  14.890  0.5424 -0.2046  0.4486
  214MPD1     C 3248   2.801   1.947  14.881  0.5664 -0.4568 -0.0422
  214MPD1    C1 3249   2.928   1.992  14.849  0.0968  0.0072 -0.1045
  214MPD1    C2 3250   2.950   2.130  14.851  0.3154 -0.2932 -0.2414
  214MPD1    C3 3251   2.854   2.220  14.885  1.1955 -0.0621 -0.1791
  214MPD1    C4 3252   2.732   2.177  14.929  0.3154 -0.6004  0.6725
  214MPD1    C5 3253   2.706   2.045  14.927 -0.3742 -0.2734 -0.5413
  214MPD1     H 3254   3.050   2.169  14.832 -0.4631  1.1796 -1.3945
  214MPD1    H1 3255   2.651   2.233  14.974  1.9597  3.2425 -1.1739
  214MPD1    H2 3256   2.777   1.842  14.880  0.0916 -0.3633  3.1645
  214MPD1    H3 3257   2.611   2.022  14.974  0.2050  0.1211  0.8115
  214MPD1     N 3258   2.875   2.360  14.878 -0.4313  0.2730 -0.2011
  214MPD1    H5 3259   2.795   2.418  14.904 -0.6021 -0.6090  1.2709
  214MPD1    N1 3260   3.029   1.902  14.841  0.7019 -0.2431  0.0386
  214MPD1    H6 3261   3.104   1.940  14.783  0.7439 -1.2461 -0.5503
  214MPD1    H7 3262   2.996   1.813  14.806 -0.0083  0.4738 -1.1288
  215MPD1     C 3263   2.910   3.400  10.728  0.5333  0.0779 -0.4104
  215MPD1    C1 3264   3.041   3.379  10.694 -0.2802 -0.6092 -0.1392
  215MPD1    C2 3265   3.140   3.393  10.788 -0.1588 -0.4982 -1.2580
  215MPD1    C3 3266   3.110   3.424  10.915  0.2598 -0.5456 -0.1136
  215MPD1    C4 3267   2.975   3.428  10.955 -0.3965  0.2854  0.0090
  215MPD1    C5 3268   2.870   3.415  10.856 -0.3247  0.4918 -0.0828
  215MPD1     H 3269   3.241   3.392  10.750  0.2693 -0.8667 -0.0817
  215MPD1    H1 3270   2.940   3.450  11.055 -1.5387  0.4883 -0.4369
  215MPD1    H2 3271   2.842   3.391  10.644  0.5535  1.2297 -0.5400
  215MPD1    H3 3272   2.765   3.423  10.882 -0.7207 -0.5233 -1.3610
  215MPD1     N 3273   3.216   3.456  11.002  0.2966 -0.2478  0.2214
  215MPD1    H5 3274   3.306   3.450  10.955 -1.0318 -1.5413 -2.1865
  215MPD1    N1 3275   3.078   3.366  10.559  0.1554 -1.0622 -0.2651
  215MPD1    H6 3276   3.009   3.325  10.497 -0.8358 -1.1613  0.9197
  215MPD1    H7 3277   3.162   3.308  10.557  3.0387  3.1266 -0.1803
  216MPD1     C 3278   0.429   1.251  15.954 -0.3628 -0.2932 -0.4817
  216MPD1    C1 3279   0.408   1.117  15.992  0.0232 -0.2477 -0.2993
  216MPD1    C2 3280   0.409   1.082  16.120  0.1644 -0.6089  0.3766
  216MPD1    C3 3281   0.439   1.168  16.221  0.0275  0.4432  0.5934
  216MPD1    C4 3282   0.462   1.300  16.183 -1.1611  0.5185  0.2020
  216MPD1    C5 3283   0.457   1.338  16.056 -0.5590  0.6100  0.3536
  216MPD1     H 3284   0.357   0.992  16.148  0.8786 -1.2031 -0.2140
  216MPD1    H1 3285   0.477   1.375  16.261 -0.1911  1.2041 -0.6503
  216MPD1    H2 3286   0.435   1.282  15.851 -2.2033 -1.5046 -0.9549
  216MPD1    H3 3287   0.460   1.444  16.033 -2.6031  0.5717 -0.0745
  216MPD1     N 3288   0.431   1.117  16.351 -0.1207 -0.2699 -0.7256
  216MPD1    H5 3289   0.382   1.030  16.366  1.8074 -0.9872  1.4232
  216MPD1    N1 3290   0.357   1.024  15.899  0.3934 -0.1176  0.0943
  216MPD1    H6 3291   0.389   1.044  15.804  0.0074  0.7763  0.1531
  216MPD1    H7 3292   0.382   0.927  15.917 -2.4724 -0.7641  0.5776
  217MPD1     C 3293   2.237   3.948   8.495 -0.4399  0.3865  0.4895
  217MPD1    C1 3294   2.170   4.012   8.599 -0.0366 -1.0435 -0.0927
  217MPD1    C2 3295   2.101   3.924   8.685 -0.0129 -0.3930  0.2765
  217MPD1    C3 3296   2.101   3.785   8.678  0.0074 -0.1572  0.9038
  217MPD1    C4 3297   2.180   3.727   8.575 -0.4513 -0.1895  0.4614
  217MPD1    C5 3298   2.252   3.811   8.492 -0.3954  0.2956 -1.2415
  217MPD1     H 3299   2.045   3.972   8.764  3.4213  0.2569  2.3120
  217MPD1    H1 3300   2.183   3.621   8.552 -0.3660 -0.7456  3.0541
  217MPD1    H2 3301   2.285   4.008   8.419 -1.7999  1.6742  0.6562
  217MPD1    H3 3302   2.319   3.771   8.416 -0.0944  1.8464 -1.7906
  217MPD1     N 3303   2.024   3.693   8.750  0.1583  0.6816 -0.3679
  217MPD1    H5 3304   2.040   3.595   8.732  2.3339  1.2323 -1.4120
  217MPD1    N1 3305   2.131   4.147   8.585 -0.0996  0.2111 -0.3946
  217MPD1    H6 3306   2.082   4.191   8.662  2.1899  1.0489  0.5735
  217MPD1    H7 3307   2.210   4.204   8.555 -0.8408  1.7820  0.6825
  218MPD1     C 3308   2.799   0.207  12.641  1.3124  0.1393 -0.7075
  218MPD1    C1 3309   2.730   0.098  12.589 -0.3589 -0.5221 -0.0334
  218MPD1    C2 3310   2.802   4.708  12.538 -1.2634  0.1570  0.3889
  218MPD1    C3 3311   2.935   0.011  12.503 -0.2017  0.2858  0.1083
  218MPD1    C4 3312   2.997   0.127  12.543  0.0417  0.7744 -0.2453
  218MPD1    C5 3313   2.931   0.224  12.618 -0.0635 -0.3026 -0.5493
  218MPD1     H 3314   2.754   4.616  12.509  2.2561 -1.0765 -1.4865
  218MPD1    H1 3315   3.101   0.146  12.523 -0.4064  2.6311 -0.7895
  218MPD1    H2 3316   2.746   0.287  12.691 -0.9347 -0.6881 -1.7425
  218MPD1    H3 3317   2.987   0.313  12.645  0.4201 -0.3602 -1.3675
  218MPD1     N 3318   2.992   4.637  12.421 -0.3577  0.0697 -0.2041
  218MPD1    H5 3319   2.939   4.551  12.414 -0.7656  0.4997 -2.3989
  218MPD1    N1 3320   2.590   0.097  12.615  0.1116 -0.1587 -0.8232
  218MPD1    H6 3321   2.542   0.187  12.604  1.0653  0.3750 -0.6247
  218MPD1    H7 3322   2.554   0.039  12.540  3.0966 -1.9288 -0.9101
  219MPD1     C 3323   3.632   4.287  11.620  0.1970  0.1875  0.4604
  219MPD1    C1 3324   3.654   4.394  11.705  0.1742  0.3200  0.1839
  219MPD1    C2 3325   3.598   4.386  11.837  0.3634 -0.7990  0.3974
  219MPD1    C3 3326   3.497   4.288  11.867  0.2905  0.0233  0.7544
  219MPD1    C4 3327   3.471   4.194  11.766 -0.6546  0.2117 -0.3990
  219MPD1    C5 3328   3.546   4.187  11.654  0.5442  0.1491  1.0451
  219MPD1     H 3329   3.630   4.459  11.910 -1.1092  0.7867 -0.5220
  219MPD1    H1 3330   3.392   4.120  11.769 -1.7891  1.4374  0.0748
  219MPD1    H2 3331   3.692   4.286  11.530  1.0010  0.7316  0.9873
  219MPD1    H3 3332   3.539   4.113  11.574  1.2570  0.8080  0.3728
  219MPD1     N 3333   3.422   4.287  11.986 -0.2956 -0.0745 -1.0175
  219MPD1    H5 3334   3.344   4.223  12.001  1.0289 -1.1097  1.6207
  219MPD1    N1 3335   3.761   4.479  11.682 -0.0457 -0.3655 -0.0544
  219MPD1    H6 3336   3.768   4.573  11.721  1.2585 -0.3443 -0.3200
  219MPD1    H7 3337   3.784   4.487  11.583  2.3502 -0.6219  0.4742
  220MPD1     C 3338   3.163   0.203   9.920  0.7680  0.0326  0.3066
  220MPD1    C1 3339   3.226   0.208  10.039 -0.2009 -0.6849  0.4063
  220MPD1    C2 3340   3.220   0.089  10.121 -0.2438 -0.1006 -0.1601
  220MPD1    C3 3341   3.163   4.699  10.072 -0.0129  0.9293 -0.1034
  220MPD1    C4 3342   3.124   4.698   9.940 -0.6908 -0.1295  0.5286
  220MPD1    C5 3343   3.118   0.092   9.858 -0.2998  1.2316 -0.3371
  220MPD1     H 3344   3.262   0.074  10.220 -2.6243  0.5153  0.9576
  220MPD1    H1 3345   3.084   4.609   9.892 -0.3861  0.4913 -0.8558
  220MPD1    H2 3346   3.165   0.292   9.858 -1.1108 -0.1756 -0.0598
  220MPD1    H3 3347   3.076   0.087   9.759 -1.3525 -1.8006  0.2805
  220MPD1     N 3348   3.166   4.585  10.156 -0.5129 -0.4307  0.2777
  220MPD1    H5 3349   3.207   4.593  10.249  1.0430  1.2205 -0.5657
  220MPD1    N1 3350   3.277   0.333  10.078  0.0211 -0.1135 -0.2826
  220MPD1    H6 3351   3.346   0.328  10.153 -1.5960  2.3433  1.3886
  220MPD1    H7 3352   3.329   0.378  10.003 -0.9798 -1.1669 -1.5958
  221MPD1     C 3353   0.333   4.064  16.103  0.3645  0.0370  0.0526
  221MPD1    C1 3354   0.407   4.164  16.043  0.3647  0.3963  0.0177
  221MPD1    C2 3355   0.542   4.150  16.033 -0.3073 -0.0578 -0.3261
  221MPD1    C3 3356   0.614   4.042  16.082 -0.6023  0.0491  0.4086
  221MPD1    C4 3357   0.536   3.942  16.137  0.0833 -1.0089 -0.4132
  221MPD1    C5 3358   0.401   3.956  16.157 -0.0052 -0.6444  1.2413
  221MPD1     H 3359   0.590   4.230  15.978 -0.0108 -1.4662 -2.1409
  221MPD1    H1 3360   0.580   3.853  16.181  1.5063 -0.5238 -0.8845
  221MPD1    H2 3361   0.225   4.060  16.118  0.5876 -0.4998  1.4915
  221MPD1    H3 3362   0.338   3.875  16.193 -0.9689  0.2911  1.6615
  221MPD1     N 3363   0.755   4.031  16.086  0.0065 -0.1029  0.4875
  221MPD1    H5 3364   0.797   3.947  16.125 -0.1216 -0.5578 -0.3639
  221MPD1    N1 3365   0.344   4.266  15.973  0.4737 -0.0502 -0.1690
  221MPD1    H6 3366   0.394   4.355  15.966  0.4748  0.0011  0.5328
  221MPD1    H7 3367   0.250   4.288  16.005  0.0488 -1.4831 -0.4382
  222MPD1     C 3368   0.544   1.614  16.760 -0.3442  0.0314  0.6717
  222MPD1    C1 3369   0.415   1.614  16.808 -0.9292 -0.4350 -0.2648
  222MPD1    C2 3370   0.360   1.735  16.808  0.3109 -0.0759 -0.1960
  222MPD1    C3 3371   0.427   1.851  16.762  0.4416  0.1286  0.0922
  222MPD1    C4 3372   0.553   1.847  16.720 -0.9457  0.0344  0.2211
  222MPD1    C5 3373   0.609   1.720  16.718 -0.3971 -0.0707 -0.1563
  222MPD1     H 3374   0.257   1.743  16.840  0.2970  1.8065 -0.7073
  222MPD1    H1 3375   0.616   1.931  16.690  1.7476 -1.7420  0.8992
  222MPD1    H2 3376   0.605   1.526  16.749 -2.4915 -1.2730 -0.9191
  222MPD1    H3 3377   0.706   1.718  16.668 -0.8267  0.3773 -1.0124
  222MPD1     N 3378   0.357   1.979  16.756  0.1249  0.0387  0.2931
  222MPD1    H5 3379   0.408   2.056  16.714  3.2753 -1.9483  0.4563
  222MPD1    N1 3380   0.342   1.499  16.840 -0.4829 -0.1831  0.4180
  222MPD1    H6 3381   0.407   1.421  16.850 -0.1989  0.0216  0.1915
  222MPD1    H7 3382   0.283   1.511  16.921 -1.7677  1.0176 -0.6914
  223MPD1     C 3383   4.213   2.646  16.688 -0.2059  0.8226 -0.2799
  223MPD1    C1 3384   4.298   2.681  16.789 -0.1120 -0.0251 -0.4158
  223MPD1    C2 3385   4.423   2.619  16.799 -0.5466 -0.2125  0.6043
  223MPD1    C3 3386   4.459   2.528  16.704 -0.5076  0.0985 -0.2568
  223MPD1    C4 3387   4.381   2.495  16.599 -0.3342 -0.4533 -0.3607
  223MPD1    C5 3388   4.261   2.557  16.591 -0.0034  0.5361  0.4554
  223MPD1     H 3389   4.490   2.639  16.881  0.3893  1.6821 -0.6366
  223MPD1    H1 3390   4.414   2.425  16.524  0.4548 -0.0593 -0.3742
  223MPD1    H2 3391   4.112   2.684  16.686 -0.9014 -0.6893  4.2746
  223MPD1    H3 3392   4.187   2.541  16.513  0.7309  1.0273 -0.3318
  223MPD1     N 3393   4.586   2.467  16.733  0.2095  0.8451 -0.1012
  223MPD1    H5 3394   4.638   2.506  16.812  2.8103 -1.4298 -0.7138
  223MPD1    N1 3395   4.263   2.790  16.871 -0.5855 -0.0873  0.4118
  223MPD1    H6 3396   4.313   2.805  16.958  1.0400 -1.2158 -0.3395
  223MPD1    H7 3397   4.166   2.816  16.891 -1.1148 -2.0578  0.4553
  224MPD1     C 3398   1.487   4.137   9.032 -0.4181 -0.1747  0.0390
  224MPD1    C1 3399   1.603   4.061   9.032 -0.5463 -0.4429 -0.7512
  224MPD1    C2 3400   1.620   3.970   9.131  0.4450  0.5594  0.7676
  224MPD1    C3 3401   1.518   3.951   9.224 -0.2139 -0.2861 -0.3868
  224MPD1    C4 3402   1.399   4.020   9.215 -0.2279 -0.6008 -0.8968
  224MPD1    C5 3403   1.387   4.117   9.123  0.1174  0.3539  0.1001
  224MPD1     H 3404   1.707   3.906   9.136 -1.7655 -2.5095  0.3196
  224MPD1    H1 3405   1.314   4.009   9.281  0.3181 -0.9691 -0.2550
  224MPD1    H2 3406   1.465   4.211   8.957 -1.2967 -0.1957  0.2794
  224MPD1    H3 3407   1.292   4.166   9.104 -0.8853 -1.7834 -0.3898
  224MPD1     N 3408   1.524   3.849   9.323 -0.6283  0.2452  0.5209
  224MPD1    H5 3409   1.441   3.827   9.377 -1.6221 -1.6925 -1.8176
  224MPD1    N1 3410   1.706   4.071   8.938 -0.6863 -0.2291 -0.2954
  224MPD1    H6 3411   1.742   3.983   8.900  4.2229  1.2313  0.9775
  224MPD1    H7 3412   1.666   4.111   8.853 -1.1786  0.5370  0.3014
  225MPD1     C 3413   2.320   0.686  12.802  0.6942  0.9194  0.7487
  225MPD1    C1 3414   2.364   0.554  12.795  0.0446 -0.9626  0.1429
  225MPD1    C2 3415   2.332   0.483  12.678 -0.3658 -0.0447 -0.2354
  225MPD1    C3 3416   2.253   0.529  12.578  0.1581  0.4254 -0.4949
  225MPD1    C4 3417   2.204   0.660  12.590 -0.3779  0.3020 -0.0743
  225MPD1    C5 3418   2.245   0.731  12.698  0.2114  0.0549 -0.5682
  225MPD1     H 3419   2.357   0.378  12.688  0.9281  0.2433 -0.3633
  225MPD1    H1 3420   2.146   0.716  12.518 -0.0268 -0.4369 -0.9288
  225MPD1    H2 3421   2.351   0.753  12.881  3.7109  1.0537 -0.5383
  225MPD1    H3 3422   2.206   0.832  12.703 -0.5345 -0.2580 -0.1478
  225MPD1     N 3423   2.204   0.455  12.468  0.0789  0.2387  0.8530
  225MPD1    H5 3424   2.118   0.489  12.425 -0.7048 -0.5238  1.8037
  225MPD1    N1 3425   2.456   0.502  12.889 -0.0456 -0.1850 -0.4308
  225MPD1    H6 3426   2.453   0.401  12.897 -0.9804 -0.0533  0.8791
  225MPD1    H7 3427   2.468   0.545  12.980 -0.6295 -0.5055 -0.2038
  226MPD1     C 3428   0.595   0.787   8.995  0.3196  0.9723  0.4540
  226MPD1    C1 3429   0.588   0.654   9.045 -0.4999  0.0684  0.6563
  226MPD1    C2 3430   0.693   0.598   9.104 -0.1575 -0.4951  0.5638
  226MPD1    C3 3431   0.807   0.670   9.122 -0.4344 -0.7335 -0.6287
  226MPD1    C4 3432   0.815   0.800   9.074 -0.1749 -0.3891  0.1711
  226MPD1    C5 3433   0.711   0.860   9.013 -0.3042 -0.1473  0.1414
  226MPD1     H 3434   0.678   0.493   9.130  0.8206 -1.0949 -1.2619
  226MPD1    H1 3435   0.900   0.861   9.104 -2.3035  3.3046 -1.3896
  226MPD1    H2 3436   0.514   0.836   8.944  0.6421  1.4854  0.4334
  226MPD1    H3 3437   0.719   0.965   8.986  1.4086 -0.4381 -0.4720
  226MPD1     N 3438   0.916   0.609   9.185  0.6704  0.6588  0.0734
  226MPD1    H5 3439   0.899   0.516   9.221 -1.0886  0.0066 -2.4063
  226MPD1    N1 3440   0.476   0.576   9.030  0.6606 -0.0322  0.4620
  226MPD1    H6 3441   0.403   0.645   9.016  2.0602  1.5326  0.8565
  226MPD1    H7 3442   0.462   0.535   9.122 -0.1212 -0.3208  0.2129
  227MPD1     C 3443   1.985   0.574   9.443  0.0769 -0.2549  0.4188
  227MPD1    C1 3444   1.939   0.446   9.470  0.0499 -0.1356  0.2912
  227MPD1    C2 3445   1.807   0.428   9.452  0.0943  1.1463  0.9027
  227MPD1    C3 3446   1.726   0.524   9.398  0.2572  0.0486  0.5030
  227MPD1    C4 3447   1.778   0.642   9.346  0.7797  0.2625 -0.4605
  227MPD1    C5 3448   1.917   0.667   9.379 -0.0825 -0.0058 -0.8911
  227MPD1     H 3449   1.752   0.342   9.486 -0.2726  1.5583  1.3526
  227MPD1    H1 3450   1.708   0.707   9.294 -0.8309 -1.0946  0.0007
  227MPD1    H2 3451   2.077   0.614   9.484  0.1906  1.2697 -1.3055
  227MPD1    H3 3452   1.962   0.754   9.332  0.2536  0.7352  0.8234
  227MPD1     N 3453   1.585   0.488   9.382  0.0840  0.0972  0.3779
  227MPD1    H5 3454   1.559   0.392   9.404 -0.0058  0.2493  0.9345
  227MPD1    N1 3455   2.015   0.354   9.555 -0.1947 -0.4622  0.2138
  227MPD1    H6 3456   1.993   0.258   9.529 -0.5234  0.4653 -2.9100
  227MPD1    H7 3457   2.112   0.350   9.525 -0.2017 -1.0412  0.2700
  228MPD1     C 3458   3.816   2.569  12.326 -0.5217 -0.0902 -0.0267
  228MPD1    C1 3459   3.689   2.601  12.283  0.0519 -0.4906 -0.3198
  228MPD1    C2 3460   3.583   2.612  12.372 -0.2257  0.0326 -0.1995
  228MPD1    C3 3461   3.603   2.575  12.505  0.4681 -0.1972 -0.1383
  228MPD1    C4 3462   3.731   2.538  12.544 -0.2885  0.1196  0.5232
  228MPD1    C5 3463   3.837   2.548  12.456  0.3468 -0.1650 -0.2254
  228MPD1     H 3464   3.485   2.639  12.336 -0.9228  0.3154  1.9511
  228MPD1    H1 3465   3.754   2.517  12.647 -0.0912 -2.7798 -0.1013
  228MPD1    H2 3466   3.906   2.576  12.267 -1.2497 -1.6844 -1.2992
  228MPD1    H3 3467   3.942   2.540  12.482  0.2833 -0.8147 -0.1571
  228MPD1     N 3468   3.492   2.565  12.592  0.3927  0.1801 -0.2244
  228MPD1    H5 3469   3.411   2.618  12.562  1.2383  1.2614 -0.5703
  228MPD1    N1 3470   3.670   2.636  12.150 -0.2166  0.0468 -0.4329
  228MPD1    H6 3471   3.700   2.562  12.087 -1.7458 -0.8088 -0.1510
  228MPD1    H7 3472   3.570   2.634  12.131 -0.4884 -2.2303  1.2437
  229MPD1     C 3473   3.759   1.551  14.481 -0.0792 -0.0270  0.3099
  229MPD1    C1 3474   3.750   1.437  14.401  0.0363 -0.0828 -0.0245
  229MPD1    C2 3475   3.817   1.324  14.436 -0.1721 -0.1280 -0.4546
  229MPD1    C3 3476   3.923   1.329  14.532 -0.5323 -0.0949  0.0087
  229MPD1    C4 3477   3.948   1.451  14.597 -0.7959  0.6857  0.4625
  229MPD1    C5 3478   3.865   1.557  14.572  0.5707  0.8089 -0.2654
  229MPD1     H 3479   3.798   1.238  14.373 -0.6490 -0.2767 -0.1068
  229MPD1    H1 3480   4.031   1.451  14.668  0.0020 -1.2422 -0.4770
  229MPD1    H2 3481   3.698   1.638  14.459 -5.3397 -2.9931  3.0233
  229MPD1    H3 3482   3.886   1.652  14.620  3.2133 -0.1291  0.4436
  229MPD1     N 3483   3.987   1.214  14.586  0.1197  0.6749 -0.1874
  229MPD1    H5 3484   4.051   1.236  14.662  3.5763 -1.8365 -2.4015
  229MPD1    N1 3485   3.635   1.421  14.323  0.8944  0.0434  0.4642
  229MPD1    H6 3486   3.643   1.356  14.245  1.9065  1.6377 -0.7537
  229MPD1    H7 3487   3.608   1.512  14.285 -0.3484 -1.0441 -1.2371
  230MPD1     C 3488   4.301   1.148  15.385 -0.0508  0.0841  0.1277
  230MPD1    C1 3489   4.239   1.245  15.306 -0.1237 -0.6284 -0.1312
  230MPD1    C2 3490   4.184   1.202  15.186 -0.0391  0.3822 -0.6504
  230MPD1    C3 3491   4.213   1.073  15.138 -0.1101 -0.1814  0.5964
  230MPD1    C4 3492   4.275   0.982  15.216  0.7080 -0.1926  0.5305
  230MPD1    C5 3493   4.311   1.025  15.343  0.1975 -0.0484  0.5291
  230MPD1     H 3494   4.128   1.278  15.133 -2.1007  0.2591  1.3333
  230MPD1    H1 3495   4.296   0.880  15.185  0.5942 -0.7551  2.2563
  230MPD1    H2 3496   4.340   1.171  15.484 -0.5331  1.5659 -0.0260
  230MPD1    H3 3497   4.352   0.950  15.409 -1.5620 -1.3430  0.1486
  230MPD1     N 3498   4.177   1.049  15.003  0.7078  0.2587  0.2669
  230MPD1    H5 3499   4.123   1.116  14.949  1.3759  1.4323  1.0664
  230MPD1    N1 3500   4.208   1.370  15.367  0.1408 -0.1911 -0.4270
  230MPD1    H6 3501   4.218   1.443  15.296  0.7466  0.1135 -0.0298
  230MPD1    H7 3502   4.261   1.401  15.448  1.5111  0.5110 -1.6021
  231MPD1     C 3503   2.776   3.576  15.543 -0.4420 -0.3407  0.0631
  231MPD1    C1 3504   2.693   3.526  15.444 -0.2090  0.0425  0.7441
  231MPD1    C2 3505   2.723   3.548  15.312 -0.2278 -0.3868 -0.3613
  231MPD1    C3 3506   2.824   3.632  15.279  0.3452  0.2792 -0.3303
  231MPD1    C4 3507   2.893   3.696  15.378  0.4468  0.1827  0.0611
  231MPD1    C5 3508   2.867   3.670  15.508  0.0266 -0.0155  0.0117
  231MPD1     H 3509   2.661   3.498  15.238 -0.1320  0.1851 -0.8378
  231MPD1    H1 3510   2.973   3.765  15.353  0.2948  0.9464  1.7031
  231MPD1    H2 3511   2.753   3.567  15.648  3.4534 -2.7146  0.6867
  231MPD1    H3 3512   2.925   3.724  15.583  1.7898  0.8519 -1.9546
  231MPD1     N 3513   2.844   3.650  15.139 -0.5941  0.5450  0.1548
  231MPD1    H5 3514   2.792   3.588  15.078  2.4051 -0.5251 -1.3232
  231MPD1    N1 3515   2.598   3.429  15.480 -0.2485  0.0510  0.0181
  231MPD1    H6 3516   2.515   3.434  15.420  0.2050 -0.6353 -0.6763
  231MPD1    H7 3517   2.569   3.432  15.577  1.3049  1.2417  0.4325
  232MPD1     C 3518   4.569   0.005   0.362 -0.5258 -0.5152  0.0102
  232MPD1    C1 3519   4.557   0.091   0.249 -0.0881  0.5857 -0.2056
  232MPD1    C2 3520   4.423   0.111   0.214 -0.4288 -0.3691  0.6130
  232MPD1    C3 3521   4.315   0.058   0.280 -0.0988  0.0214  0.1002
  232MPD1    C4 3522   4.327   4.700   0.388 -0.3344  0.5319  0.8120
  232MPD1    C5 3523   4.456   4.678   0.425  0.2092  0.5829  0.1309
  232MPD1     H 3524   4.406   0.184   0.136 -1.1958 -0.6494  0.5148
  232MPD1    H1 3525   4.248   4.662   0.452 -1.2119  0.5277 -0.2715
  232MPD1    H2 3526   4.672   4.715   0.394 -0.0173 -1.0891 -1.7692
  232MPD1    H3 3527   4.483   4.617   0.511 -0.6046 -0.1577 -0.1387
  232MPD1     N 3528   4.198   0.107   0.231  0.2860 -0.0162  0.0150
  232MPD1    H5 3529   4.193   0.142   0.136  1.3522 -2.1390 -0.8232
  232MPD1    N1 3530   4.666   0.137   0.172 -0.1167 -0.1925  0.1030
  232MPD1    H6 3531   4.641   0.200   0.096  1.7756  1.5801  0.9622
  232MPD1    H7 3532   0.018   0.169   0.236  1.4861 -0.1247 -1.7206
  233MPD1     C 3533   0.731   4.178   0.554 -0.0178 -0.2525 -0.0932
  233MPD1    C1 3534   0.702   4.130   0.681 -0.4516 -0.2642  0.4214
  233MPD1    C2 3535   0.744   4.005   0.715 -0.5779 -0.1901 -0.0493
  233MPD1    C3 3536   0.823   3.930   0.624 -1.1038  0.0771 -1.3254
  233MPD1    C4 3537   0.864   3.982   0.507  0.8625 -0.5771  0.2202
  233MPD1    C5 3538   0.819   4.108   0.472 -0.2018 -0.2824 -0.2229
  233MPD1     H 3539   0.715   3.966   0.813  0.1321 -3.3653 -1.1195
  233MPD1    H1 3540   0.916   3.924   0.431 -0.9925 -0.3250 -1.2471
  233MPD1    H2 3541   0.677   4.265   0.521  1.7947  0.3433 -1.4649
  233MPD1    H3 3542   0.845   4.147   0.374 -3.3745 -0.5156 -1.1406
  233MPD1     N 3543   0.876   3.797   0.650  0.3713  0.1061  0.2200
  233MPD1    H5 3544   0.944   3.761   0.584  0.4424 -0.2451  0.4831
  233MPD1    N1 3545   0.601   4.188   0.755 -0.3409  0.7825  0.4061
  233MPD1    H6 3546   0.610   4.178   0.856  0.2388 -2.5023  0.0341
  233MPD1    H7 3547   0.603   4.289   0.738  3.6538  0.5407 -0.5559
  234MPD1     C 3548   2.113   1.961   9.541  0.3279  0.3532  0.1073
  234MPD1    C1 3549   2.155   2.025   9.659  0.5054 -0.3477  0.0263
  234MPD1    C2 3550   2.182   2.160   9.644 -0.3055  0.0271  0.0149
  234MPD1    C3 3551   2.136   2.235   9.533 -0.4820  0.2181  0.2563
  234MPD1    C4 3552   2.079   2.168   9.433 -0.4067  0.1801  0.2973
  234MPD1    C5 3553   2.076   2.033   9.431 -0.7215 -0.3733 -0.4585
  234MPD1     H 3554   2.228   2.210   9.728 -0.5719  0.2558  0.0237
  234MPD1    H1 3555   2.051   2.217   9.340  3.1058 -2.8641 -2.3797
  234MPD1    H2 3556   2.107   1.853   9.536  1.0379  0.3016  0.3942
  234MPD1    H3 3557   2.034   1.986   9.342  1.5627  0.5365 -2.0275
  234MPD1     N 3558   2.151   2.377   9.540 -0.2228 -0.5652  0.2451
  234MPD1    H5 3559   2.199   2.408   9.624 -1.5093 -1.1003  1.1690
  234MPD1    N1 3560   2.203   1.959   9.778  0.4057  0.3369  0.7109
  234MPD1    H6 3561   2.210   2.018   9.861 -1.9306  2.0754 -0.3298
  234MPD1    H7 3562   2.150   1.877   9.809 -2.7236  2.4454  0.9332
  235MPD1     C 3563   3.279   4.525  10.968 -0.0548  0.5662 -0.5362
  235MPD1    C1 3564   3.273   4.634  11.050  0.9805  0.7085  0.4560
  235MPD1    C2 3565   3.268   0.039  10.982  0.3018  0.3057  0.3098
  235MPD1    C3 3566   3.303   0.046  10.850 -1.0419 -0.2688  0.1596
  235MPD1    C4 3567   3.314   4.650  10.776 -0.7076 -1.0786  0.1093
  235MPD1    C5 3568   3.307   4.531  10.839  0.7319 -0.4392 -0.0144
  235MPD1     H 3569   3.260   0.130  11.040  3.1940  0.0601  1.1354
  235MPD1    H1 3570   3.327   4.648  10.668 -0.3240 -1.4978  0.1613
  235MPD1    H2 3571   3.261   4.424  11.004 -3.5720  1.7498  0.9823
  235MPD1    H3 3572   3.292   4.439  10.784  1.3031 -1.3831  1.4127
  235MPD1     N 3573   3.301   0.172  10.795  0.0926  0.9568 -0.4281
  235MPD1    H5 3574   3.268   0.250  10.852  1.5833 -0.5892  2.5397
  235MPD1    N1 3575   3.249   4.625  11.189 -0.9166 -0.0653 -0.1364
  235MPD1    H6 3576   3.245   4.529  11.220 -1.2903 -0.6956 -2.1236
  235MPD1    H7 3577   3.304   4.692  11.242 -1.7695 -0.6575  1.4970
  236MPD1     C 3578   2.586   1.381   9.679 -0.3029 -0.2214  0.2774
  236MPD1    C1 3579   2.579   1.252   9.726  0.7067  0.4771  0.4485
  236MPD1    C2 3580   2.641   1.230   9.849  0.2086 -0.0473  0.5994
  236MPD1    C3 3581   2.703   1.333   9.923 -0.6035  0.3419  0.0800
  236MPD1    C4 3582   2.700   1.456   9.874  0.1935 -0.0079 -0.8277
  236MPD1    C5 3583   2.636   1.481   9.756  0.1997 -0.8153 -0.3191
  236MPD1     H 3584   2.647   1.130   9.891  1.4609 -0.7960 -1.3757
  236MPD1    H1 3585   2.743   1.539   9.929 -0.4193 -0.5597  0.4812
  236MPD1    H2 3586   2.557   1.402   9.577  1.0112  0.8757  0.1361
  236MPD1    H3 3587   2.631   1.584   9.722 -0.2578 -0.4080  0.9872
  236MPD1     N 3588   2.760   1.299  10.044 -0.5059 -0.4155 -0.2271
  236MPD1    H5 3589   2.745   1.208  10.087  0.2518 -1.8194 -2.8755
  236MPD1    N1 3590   2.558   1.140   9.645 -0.1878 -0.6749 -0.0482
  236MPD1    H6 3591   2.485   1.148   9.574 -1.2163  0.3067  1.1168
  236MPD1    H7 3592   2.525   1.065   9.707 -0.8694  1.4778  2.1987
  237MPD1     C 3593   2.650   0.545  14.924 -0.2650  0.3953  0.2165
  237MPD1    C1 3594   2.713   0.444  14.988 -0.3456 -0.2128  0.2760
  237MPD1    C2 3595   2.661   0.320  14.997  0.4410  0.2171  0.4447
  237MPD1    C3 3596   2.547   0.289  14.925 -0.1096  0.4970  0.5411
  237MPD1    C4 3597   2.494   0.394  14.840 -0.2994  0.4135  0.9508
  237MPD1    C5 3598   2.549   0.520  14.838 -0.4097 -0.9981 -0.0274
  237MPD1     H 3599   2.707   0.243  15.058  0.2883  0.2398  0.5910
  237MPD1    H1 3600   2.412   0.368  14.774  0.4798  1.8559 -0.5770
  237MPD1    H2 3601   2.684   0.647  14.938  1.9832 -0.1681 -1.0430
  237MPD1    H3 3602   2.485   0.601  14.805  1.7683  0.6206 -0.2519
  237MPD1     N 3603   2.483   0.164  14.936  0.0820  0.0983  0.6504
  237MPD1    H5 3604   2.401   0.149  14.877  0.3410 -1.6697  0.7440
  237MPD1    N1 3605   2.817   0.471  15.073  0.0629 -0.8142 -0.0510
  237MPD1    H6 3606   2.876   0.391  15.092 -0.1290 -0.8048  0.5942
  237MPD1    H7 3607   2.878   0.540  15.030 -0.8454  0.2817  0.3822
  238MPD1     C 3608   0.127   2.710  15.008  0.1221  0.7120  0.1280
  238MPD1    C1 3609   0.164   2.750  14.883 -0.1793 -0.1670 -0.2966
  238MPD1    C2 3610   0.074   2.831  14.810  0.1472  0.2136 -0.5507
  238MPD1    C3 3611   4.676   2.883  14.873 -0.0968 -0.6001 -0.1488
  238MPD1    C4 3612   4.673   2.869  15.014  0.1491 -0.9325  0.7596
  238MPD1    C5 3613   0.026   2.773  15.075 -0.1124 -0.2255  0.1101
  238MPD1     H 3614   0.099   2.845  14.705 -2.1761 -0.5926 -1.1998
  238MPD1    H1 3615   4.602   2.921  15.077 -0.4631 -1.2047  0.2962
  238MPD1    H2 3616   0.181   2.641  15.071 -1.5706 -1.2306 -0.5339
  238MPD1    H3 3617   0.019   2.756  15.182 -2.9125  0.1312 -0.0119
  238MPD1     N 3618   4.569   2.943  14.808  0.3616  0.0533  0.4522
  238MPD1    H5 3619   4.507   2.985  14.875 -0.3696 -1.0396  0.4526
  238MPD1    N1 3620   0.269   2.674  14.827 -0.2092 -0.3184  0.2859
  238MPD1    H6 3621   0.312   2.734  14.758  1.1620 -0.3547  1.1076
  238MPD1    H7 3622   0.337   2.656  14.901 -0.4121  1.4200  0.8998
  239MPD1     C 3623   0.304   3.940  14.722 -0.6674 -0.0869 -0.3539
  239MPD1    C1 3624   0.349   3.863  14.618 -0.2927 -0.4096  0.4129
  239MPD1    C2 3625   0.259   3.841  14.518 -0.6565  0.1089  0.1492
  239MPD1    C3 3626   0.124   3.878  14.530  0.1526  0.4695  0.3784
  239MPD1    C4 3627   0.084   3.946  14.640 -0.2661  0.6424 -0.3853
  239MPD1    C5 3628   0.174   3.985  14.738  0.3550 -0.5406  0.1720
  239MPD1     H 3629   0.290   3.783  14.432 -3.0834 -0.6509 -0.2321
  239MPD1    H1 3630   4.701   3.981  14.654 -1.0744 -1.2982 -1.4188
  239MPD1    H2 3631   0.366   3.974  14.804  0.8993 -2.5374 -0.5536
  239MPD1    H3 3632   0.148   4.052  14.820 -1.5694 -0.6964 -0.3051
  239MPD1     N 3633   0.033   3.859  14.430 -0.2329 -0.6789  0.1410
  239MPD1    H5 3634   4.654   3.867  14.452  0.1794  2.7217  0.7345
  239MPD1    N1 3635   0.479   3.818  14.609 -0.1471  0.2262  0.7152
  239MPD1    H6 3636   0.524   3.812  14.700  1.0261  0.5832  0.1580
  239MPD1    H7 3637   0.486   3.736  14.549  1.4587 -0.8344  2.3712
  240MPD1     C 3638   4.070   4.210  13.849  0.4522 -0.0459  0.1127
  240MPD1    C1 3639   4.099   4.185  13.984 -0.8793 -0.5973  0.3549
  240MPD1    C2 3640   4.064   4.063  14.036  0.5815  0.3820  0.2330
  240MPD1    C3 3641   4.002   3.965  13.964  0.1264 -0.4886  0.3207
  240MPD1    C4 3642   3.977   3.992  13.831  0.1528 -0.1553 -0.2566
  240MPD1    C5 3643   4.015   4.111  13.772  0.1690 -0.9566  0.3232
  240MPD1     H 3644   4.077   4.039  14.141  3.0350 -1.1114 -0.4211
  240MPD1    H1 3645   3.954   3.913  13.761  1.9054 -1.0367  0.1514
  240MPD1    H2 3646   4.108   4.304  13.810 -3.4380 -0.4047 -4.4167
  240MPD1    H3 3647   4.013   4.105  13.664 -1.0279 -0.3401  0.3180
  240MPD1     N 3648   3.963   3.837  14.022 -0.8923 -0.1404  0.2089
  240MPD1    H5 3649   4.009   3.814  14.109  2.6793  0.3875 -1.5611
  240MPD1    N1 3650   4.198   4.258  14.055 -0.2202  0.0376  0.1141
  240MPD1    H6 3651   4.200   4.359  14.040  2.7483 -0.1094 -0.5305
  240MPD1    H7 3652   4.183   4.241  14.154  1.8000 -0.5549  0.3250
  241MPD1     C 3653   4.358   3.573  14.687  0.0990 -0.4790  0.4158
  241MPD1    C1 3654   4.360   3.470  14.597  0.4336 -0.6112  0.1868
  241MPD1    C2 3655   4.264   3.474  14.496  0.7212  0.3424 -0.4236
  241MPD1    C3 3656   4.154   3.567  14.496 -0.3128  0.4400 -0.0666
  241MPD1    C4 3657   4.152   3.664  14.592 -0.3563  0.0018  0.5788
  241MPD1    C5 3658   4.255   3.666  14.681 -0.2424  0.1371 -0.6298
  241MPD1     H 3659   4.275   3.404  14.414  0.4819 -1.1478  0.8155
  241MPD1    H1 3660   4.077   3.740  14.610 -1.1719 -0.1676 -2.0171
  241MPD1    H2 3661   4.426   3.578  14.772  2.1291 -3.1396 -1.0572
  241MPD1    H3 3662   4.252   3.739  14.761  0.2464 -0.9162  0.3505
  241MPD1     N 3663   4.052   3.560  14.402 -0.5654  0.0759 -0.0877
  241MPD1    H5 3664   3.984   3.635  14.402  1.0390  1.5167 -1.0535
  241MPD1    N1 3665   4.475   3.385  14.599 -0.2327  0.0666  0.1010
  241MPD1    H6 3666   4.466   3.298  14.547 -0.0877 -0.9803  1.8232
  241MPD1    H7 3667   4.519   3.374  14.690 -0.8558 -1.4892  0.2033
  242MPD1     C 3668   3.283   2.114  15.618  0.0455 -0.7894  0.3347
  242MPD1    C1 3669   3.204   2.093  15.515  0.1381  0.0480 -0.5727
  242MPD1    C2 3670   3.255   2.069  15.391 -0.0048 -0.4860  0.5138
  242MPD1    C3 3671   3.391   2.077  15.362  0.8649 -0.7813  0.7706
  242MPD1    C4 3672   3.476   2.099  15.470  0.1352 -0.2353  0.8357
  242MPD1    C5 3673   3.418   2.120  15.594  0.3882  0.5222  0.4166
  242MPD1     H 3674   3.195   2.047  15.303 -1.6452 -0.2490  1.5768
  242MPD1    H1 3675   3.585   2.106  15.467  0.0160 -0.2255 -2.8995
  242MPD1    H2 3676   3.244   2.123  15.718 -1.0922 -0.1009 -0.1766
  242MPD1    H3 3677   3.491   2.141  15.671 -2.3978  1.2359  2.8239
  242MPD1     N 3678   3.458   2.050  15.242  0.0998 -0.5296 -0.2445
  242MPD1    H5 3679   3.559   2.062  15.245  0.2380 -1.8397  0.1491
  242MPD1    N1 3680   3.071   2.065  15.546  0.1551 -0.0842  0.1720
  242MPD1    H6 3681   3.016   2.073  15.461  0.3824 -1.3139 -0.0829
  242MPD1    H7 3682   3.037   2.126  15.620 -0.3594  0.8298 -0.8148
  243MPD1     C 3683   0.603   1.703  15.901  0.2407 -0.0441 -0.0878
  243MPD1    C1 3684   0.686   1.619  15.832  0.1126  0.5814 -0.8383
  243MPD1    C2 3685   0.752   1.520  15.903 -0.0231 -0.2418 -0.0649
  243MPD1    C3 3686   0.749   1.504  16.045  0.2459 -0.3037  0.1946
  243MPD1    C4 3687   0.681   1.608  16.108 -0.1378 -0.3912 -1.1953
  243MPD1    C5 3688   0.604   1.698  16.037  0.1104  0.0948 -0.1260
  243MPD1     H 3689   0.797   1.440  15.846 -0.3871  0.4011 -1.2560
  243MPD1    H1 3690   0.681   1.616  16.216 -2.7715  0.0124 -1.2183
  243MPD1    H2 3691   0.547   1.779  15.848 -0.8376 -0.8145 -0.0337
  243MPD1    H3 3692   0.543   1.768  16.094  0.2314 -0.2975  0.4790
  243MPD1     N 3693   0.812   1.393  16.094  0.1088 -0.4798  0.0932
  243MPD1    H5 3694   0.841   1.320  16.030 -1.3747  0.0180 -1.1235
  243MPD1    N1 3695   0.674   1.602  15.699  0.3419  0.7743  0.2665
  243MPD1    H6 3696   0.642   1.686  15.651 -1.1212 -0.2416 -0.5253
  243MPD1    H7 3697   0.763   1.579  15.655 -0.6184 -0.5924 -0.9544
  244MPD1     C 3698   0.691   0.986  16.992  0.0966  0.0717 -0.0762
  244MPD1    C1 3699   0.761   1.100  16.955 -0.7652 -0.3463 -0.0126
  244MPD1    C2 3700   0.805   1.108  16.824 -0.1125 -0.3257  0.3114
  244MPD1    C3 3701   0.752   1.021  16.726  0.0079 -0.2477  0.0533
  244MPD1    C4 3702   0.667   0.917  16.768 -0.5211  0.2244 -0.4030
  244MPD1    C5 3703   0.642   0.900  16.897  0.2572  0.0327 -0.0161
  244MPD1     H 3704   0.870   1.184  16.782 -0.8818  0.4681  0.5579
  244MPD1    H1 3705   0.635   0.841  16.698 -0.1434  2.3395 -2.8580
  244MPD1    H2 3706   0.678   0.974  17.099 -0.3163 -2.7274 -0.4462
  244MPD1    H3 3707   0.587   0.816  16.937  1.8347 -0.4271  1.1625
  244MPD1     N 3708   0.787   1.032  16.593  0.1545  0.6266  0.1649
  244MPD1    H5 3709   0.853   1.104  16.565  0.1987  0.2922 -0.6147
  244MPD1    N1 3710   0.813   1.185  17.047 -0.3288  0.2685  0.0671
  244MPD1    H6 3711   0.738   1.197  17.115 -0.4368  0.5948 -0.1093
  244MPD1    H7 3712   0.838   1.277  17.011  1.1094  0.3063  1.1717
  245MPD1     C 3713   1.452   1.285  13.134  0.1403 -0.5049 -0.0584
  245MPD1    C1 3714   1.426   1.399  13.203  0.0257 -0.4429  0.0248
  245MPD1    C2 3715   1.537   1.459  13.261 -0.1829 -0.4685 -0.7458
  245MPD1    C3 3716   1.656   1.387  13.283 -0.3332  0.7699  0.0053
  245MPD1    C4 3717   1.668   1.257  13.231 -0.9204  0.1284  0.3710
  245MPD1    C5 3718   1.566   1.211  13.149  0.4199  0.3880  0.4890
  245MPD1     H 3719   1.526   1.555  13.310  0.9560 -0.6335 -0.1666
  245MPD1    H1 3720   1.752   1.190  13.241 -0.8152  0.3484  0.9304
  245MPD1    H2 3721   1.378   1.252  13.063  1.1862 -1.3740 -0.7515
  245MPD1    H3 3722   1.580   1.112  13.107  0.4849 -0.1034  1.6632
  245MPD1     N 3723   1.759   1.464  13.354 -1.1331  0.1719 -0.3319
  245MPD1    H5 3724   1.740   1.557  13.390 -0.0359  0.7031 -1.1393
  245MPD1    N1 3725   1.306   1.467  13.191  0.0324 -0.5828 -0.0057
  245MPD1    H6 3726   1.310   1.516  13.280 -2.4370  0.0298 -0.2145
  245MPD1    H7 3727   1.227   1.404  13.199  0.1951 -0.7129  0.5476
  246MPD1     C 3728   1.357   0.515   8.969  1.0441 -0.1537 -0.3907
  246MPD1    C1 3729   1.248   0.593   8.935  0.3259  0.1391  0.1208
  246MPD1    C2 3730   1.257   0.729   8.941  0.0792  0.5575  0.0636
  246MPD1    C3 3731   1.371   0.785   8.998 -0.1983 -0.1320  0.1434
  246MPD1    C4 3732   1.484   0.710   9.015  0.5220  0.5948  0.0107
  246MPD1    C5 3733   1.477   0.575   8.999  0.1508  0.0296  0.6888
  246MPD1     H 3734   1.174   0.793   8.916  0.1912  1.0653  0.9678
  246MPD1    H1 3735   1.584   0.740   9.041  0.3674  1.2459 -0.1534
  246MPD1    H2 3736   1.355   0.407   8.958  2.0911 -0.3294  1.0413
  246MPD1    H3 3737   1.563   0.512   8.977  0.7174  1.0752 -0.1397
  246MPD1     N 3738   1.371   0.917   9.019  0.7706  0.3501 -0.1728
  246MPD1    H5 3739   1.286   0.970   9.006  1.7677  2.1061  0.5032
  246MPD1    N1 3740   1.139   0.538   8.872  0.0883 -0.0126 -0.4826
  246MPD1    H6 3741   1.056   0.597   8.863  0.7357  1.1644  1.2143
  246MPD1    H7 3742   1.121   0.445   8.910  2.7070 -0.2533  0.1237
  247MPD1     C 3743   1.424   0.671  16.546  0.2781  0.4119 -0.3594
  247MPD1    C1 3744   1.359   0.750  16.457 -0.2831  0.6554  0.9194
  247MPD1    C2 3745   1.377   0.723  16.324  0.1635  0.4802 -0.5150
  247MPD1    C3 3746   1.437   0.602  16.284  0.0957 -0.7149  0.5604
  247MPD1    C4 3747   1.498   0.516  16.373 -0.0176  0.0102 -0.0513
  247MPD1    C5 3748   1.483   0.553  16.509 -0.2770 -0.6168 -0.0909
  247MPD1     H 3749   1.349   0.795  16.247 -0.7464 -0.0632 -0.6991
  247MPD1    H1 3750   1.544   0.421  16.345  2.1449  0.9630  0.2729
  247MPD1    H2 3751   1.407   0.685  16.652 -2.6145 -1.3190 -0.5949
  247MPD1    H3 3752   1.520   0.494  16.592  1.8325  0.5344 -0.2122
  247MPD1     N 3753   1.442   0.570  16.145  0.1518 -0.3743  0.2224
  247MPD1    H5 3754   1.500   0.491  16.119  1.4047  0.0492  1.7535
  247MPD1    N1 3755   1.316   0.874  16.503 -0.4033 -0.4203 -0.2532
  247MPD1    H6 3756   1.233   0.892  16.446 -0.6219  0.9313  0.4809
  247MPD1    H7 3757   1.286   0.860  16.599  1.2128 -1.5528  0.0879
  248MPD1     C 3758   1.825   0.261  17.520  0.5090  0.6133 -0.6279
  248MPD1    C1 3759   1.699   0.284  17.573  0.0814  0.7577 -0.3919
  248MPD1    C2 3760   1.680   0.413  17.615  0.4528  0.2003  0.7529
  248MPD1    C3 3761   1.782   0.508  17.621 -0.2086 -0.5673  0.3639
  248MPD1    C4 3762   1.907   0.480  17.575 -0.3598 -0.0162 -0.2601
  248MPD1    C5 3763   1.922   0.357  17.518  0.1868  0.7484 -0.4551
  248MPD1     H 3764   1.578   0.434  17.647 -0.2402 -0.5612 -0.9248
  248MPD1    H1 3765   1.995   0.540  17.594 -1.4145  1.4116  0.1513
  248MPD1    H2 3766   1.853   0.168  17.472 -0.0877  0.9396 -1.6282
  248MPD1    H3 3767   2.020   0.318  17.493 -0.2961  0.0762 -1.2804
  248MPD1     N 3768   1.752   0.641   0.000 -0.1883 -0.3403  0.2394
  248MPD1    H5 3769   1.662   0.657   0.045  1.2834  3.5855  1.7907
  248MPD1    N1 3770   1.597   0.188  17.566 -0.5037  0.0724 -0.2892
  248MPD1    H6 3771   1.532   0.207  17.642  0.1947  1.6583 -0.0773
  248MPD1    H7 3772   1.632   0.094  17.577 -0.5773  0.1889  0.9805
  249MPD1     C 3773   4.096   3.918  10.470  0.0428  0.0462  0.4315
  249MPD1    C1 3774   4.042   4.035  10.453 -0.4597  0.0444  0.1418
  249MPD1    C2 3775   3.954   4.053  10.350 -0.5274  0.3154 -0.1700
  249MPD1    C3 3776   3.927   3.962  10.255  0.5230  0.5953  0.0278
  249MPD1    C4 3777   3.989   3.838  10.271 -0.3562  0.3281  0.4091
  249MPD1    C5 3778   4.074   3.813  10.380  0.2471 -0.6095  0.5485
  249MPD1     H 3779   3.898   4.145  10.341 -0.5382  0.2349 -0.8696
  249MPD1    H1 3780   3.968   3.765  10.194 -0.4081 -0.1032  0.8281
  249MPD1    H2 3781   4.166   3.897  10.550  0.9474  0.2912 -0.2982
  249MPD1    H3 3782   4.125   3.718  10.388  3.1209  0.9299  0.4539
  249MPD1     N 3783   3.856   4.010  10.146 -0.1366  0.4295  0.2877
  249MPD1    H5 3784   3.843   4.110  10.132 -1.3808  0.3278  0.7014
  249MPD1    N1 3785   4.053   4.132  10.550  0.1344 -0.0952 -0.8807
  249MPD1    H6 3786   4.034   4.227  10.519 -2.3900 -0.1877  0.3727
  249MPD1    H7 3787   4.148   4.129  10.587  0.2024  1.1537 -0.9800
  250MPD2     C 3788   0.716   4.201  13.050  0.2322  0.1190 -0.1569
  250MPD2    C1 3789   0.604   4.279  13.079 -0.5647 -0.1034  0.4493
  250MPD2    C2 3790   0.478   4.220  13.082  0.0988 -0.3307 -0.3293
  250MPD2    C3 3791   0.466   4.090  13.033 -0.2269 -0.8107 -0.3364
  250MPD2    C4 3792   0.577   4.019  12.992 -0.6372  1.1422 -0.5987
  250MPD2    C5 3793   0.706   4.078  12.997 -0.2953  0.5448 -0.4975
  250MPD2     H 3794   0.390   4.280  13.102  0.3417  0.7660 -2.4863
  250MPD2    H1 3795   0.557   3.915  12.966  1.0609  0.7855 -0.4590
  250MPD2    H2 3796   0.820   4.227  13.062  0.4146 -0.9498  0.5759
  250MPD2    H3 3797   0.790   4.016  12.970 -0.5523 -0.0340  0.0467
  250MPD2     N 3798   0.340   4.033  13.004 -0.1130  0.2065 -0.1432
  250MPD2    H5 3799   0.343   3.958  12.936  0.0502  2.1610 -2.2780
  250MPD2    N1 3800   0.633   4.417  13.100  1.0800  0.0374 -0.1672
  250MPD2    H7 3801   0.732   4.439  13.092  1.3365 -0.7679  0.8466
  251TMC3    C1 3802   0.590   4.651  13.122 -0.3809  0.7949 -0.3143
  251TMC3    C2 3803   0.500   0.028  13.145  0.4684 -0.4247  0.0062
  251TMC3    C3 3804   0.515   0.143  13.073  0.0931 -0.3257  0.3522
  251TMC3    C4 3805   0.702   4.676  13.045 -0.0421 -0.0078 -0.3702
  251TMC3    C5 3806   0.712   0.076  12.979  0.7145 -0.0914  0.4492
  251TMC3    C6 3807   0.618   0.172  12.983  0.0034 -0.3697  0.1907
  251TMC3     C 3808   0.536   4.515  13.120  0.1622 -0.2461  0.6505
  251TMC3     O 3809   0.415   4.507  13.130 -0.1521 -0.0841  0.2732
  251TMC3     H 3810   0.408   0.015  13.200  0.2495  0.0211 -0.2502
  251TMC3    H1 3811   0.780   4.602  13.029  0.0371  0.1945 -0.9009
  251TMC3    H2 3812   0.633   0.274  12.950 -1.8673 -0.0560  0.3352
  251TMC3    C7 3813   0.841   0.104  12.910 -0.5857 -0.0914  0.1578
  251TMC3    C8 3814   0.417   0.243  13.112  0.2238 -0.6328 -0.2828
  251TMC3    O1 3815   0.919   0.016  12.892  0.6877  0.0086  0.4340
  251TMC3    O2 3816   0.392   0.249  13.229  0.2660 -0.4177 -0.0564
  252TMC3    C1 3817   0.307   1.112   9.328 -0.6425 -0.3760 -0.5906
  252TMC3    C2 3818   0.428   1.168   9.307  0.1733 -0.5074 -0.0080
  252TMC3    C3 3819   0.535   1.078   9.301 -0.1653 -0.6220 -0.4350
  252TMC3    C4 3820   0.294   0.974   9.338 -0.4998 -0.8246  0.8346
  252TMC3    C5 3821   0.406   0.899   9.334 -0.2899  0.6449 -0.1771
  252TMC3    C6 3822   0.533   0.946   9.317 -0.2090 -0.4724 -0.2169
  252TMC3     C 3823   0.200   1.206   9.290  1.1214 -0.1227 -0.0780
  252TMC3     O 3824   0.229   1.298   9.219  0.1933 -0.2231  0.5579
  252TMC3     H 3825   0.442   1.274   9.296 -2.0902 -0.4261 -2.0366
  252TMC3    H1 3826   0.197   0.928   9.351 -0.5638 -0.3566  1.9264
  252TMC3    H2 3827   0.612   0.874   9.299 -1.2542 -1.5392 -0.5560
  252TMC3    C7 3828   0.380   0.762   9.381  0.1539 -0.3834 -0.5046
  252TMC3    C8 3829   0.658   1.143   9.256 -0.1059  0.3694  0.3814
  252TMC3    O1 3830   0.273   0.707   9.365  0.2862  0.9145  0.0606
  252TMC3    O2 3831   0.645   1.251   9.202 -0.4601 -0.2343 -0.4196
  253MPD2     C 3832   2.055   0.050  15.190 -0.6955  0.6099 -0.4228
  253MPD2    C1 3833   1.933   4.711  15.171 -0.3885 -0.0002 -0.7482
  253MPD2    C2 3834   1.872   4.637  15.280  0.4192  0.5603  0.6141
  253MPD2    C3 3835   1.943   4.621  15.398  0.4041  0.8075 -0.1845
  253MPD2    C4 3836   2.067   4.670  15.403 -0.2791 -0.5122 -0.5436
  253MPD2    C5 3837   2.125   0.022  15.306 -0.4488 -0.1746 -0.0650
  253MPD2     H 3838   1.773   4.594  15.268  0.1586  1.1940  0.5328
  253MPD2    H1 3839   2.128   4.657  15.492  0.6211  0.6458 -0.9836
  253MPD2    H2 3840   2.098   0.104  15.106 -0.9557 -0.1213 -1.0201
  253MPD2    H3 3841   2.227   0.058  15.310 -1.0990  1.6260  0.1840
  253MPD2     N 3842   1.895   4.571  15.522  0.4644  0.1306  0.1789
  253MPD2    H5 3843   1.964   4.542  15.591  0.9957  0.8408 -0.0551
  253MPD2    N1 3844   1.862   0.002  15.051 -0.1541 -0.4202 -0.2336
  253MPD2    H7 3845   1.767   4.686  15.045 -0.5294  0.3534  1.0168
  254TMC3    C1 3846   1.743   4.475  15.672 -0.5508  0.9300 -0.4843
  254TMC3    C2 3847   1.624   4.516  15.727 -0.1430 -0.1176  0.4378
  254TMC3    C3 3848   1.607   4.502  15.862  0.3040 -0.2105  0.0969
  254TMC3    C4 3849   1.844   4.434  15.756  0.4719  0.0596 -0.8986
  254TMC3    C5 3850   1.820   4.424  15.886  0.7217  0.3144 -0.7328
  254TMC3    C6 3851   1.704   4.454  15.944  0.2440  0.3727  0.4216
  254TMC3     C 3852   1.764   4.534  15.539  1.1344  0.3642 -0.0986
  254TMC3     O 3853   1.671   4.563  15.464  0.1290  0.4641 -0.4482
  254TMC3     H 3854   1.542   4.558  15.669  1.6137  1.6832 -0.7436
  254TMC3    H1 3855   1.925   4.377  15.712 -1.0829 -2.1222 -0.9193
  254TMC3    H2 3856   1.698   4.432  16.050 -1.1015  0.6448  0.4030
  254TMC3    C7 3857   1.908   4.345  15.960  0.1301  0.3257  0.2716
  254TMC3    C8 3858   1.483   4.542  15.928 -0.2959  0.3475  1.0391
  254TMC3    O1 3859   1.855   4.270  16.036 -0.1618 -0.4916 -0.0770
  254TMC3    O2 3860   1.492   4.546  16.048  0.3524  0.6883  1.0262
  255MPD2     C 3861   0.321   2.509  10.410  0.8649 -0.2498 -0.5493
  255MPD2    C1 3862   0.306   2.538  10.279  0.0608  0.5504  0.4067
  255MPD2    C2 3863   0.388   2.458  10.197 -0.8804  0.0161  0.6537
  255MPD2    C3 3864   0.461   2.351  10.238  0.5085  0.0332  0.2962
  255MPD2    C4 3865   0.474   2.330  10.377 -0.1227 -0.5199  0.8798
  255MPD2    C5 3866   0.405   2.414  10.459  0.1393  0.4506 -0.1412
  255MPD2     H 3867   0.381   2.467  10.089  2.4580  0.3804  0.4644
  255MPD2    H1 3868   0.532   2.260  10.436  1.3387  0.3559  0.4743
  255MPD2    H2 3869   0.277   2.581  10.478 -1.3004 -1.0742 -1.0759
  255MPD2    H3 3870   0.416   2.404  10.567  0.7240 -0.2734 -0.2651
  255MPD2     N 3871   0.531   2.265  10.146  0.7662  0.6477 -0.2923
  255MPD2    H5 3872   0.524   2.288  10.048  0.0892  1.1352 -0.1328
  255MPD2    N1 3873   0.224   2.645  10.242  0.5089  0.2416 -0.0864
  255MPD2    H7 3874   0.156   2.682  10.307  0.5634 -0.6519  0.4802
  256TMC3    C1 3875   0.123   2.809  10.108 -0.2458  0.6319  0.0748
  256TMC3    C2 3876   0.152   2.931  10.046 -0.0214 -0.0190  0.7747
  256TMC3    C3 3877   0.049   3.022  10.028 -0.4280 -0.2958  0.1701
  256TMC3    C4 3878   4.713   2.774  10.125  0.0144 -0.2625  0.4564
  256TMC3    C5 3879   4.617   2.868  10.102 -0.0553 -0.1618 -0.3631
  256TMC3    C6 3880   4.637   2.997  10.071 -0.6577 -0.1517 -0.4703
  256TMC3     C 3881   0.228   2.701  10.121 -0.3918 -0.0739 -0.3448
  256TMC3     O 3882   0.302   2.680  10.033  0.1323 -0.2690 -0.4227
  256TMC3     H 3883   0.259   2.941  10.033 -0.2995  3.0962  0.9761
  256TMC3    H1 3884   4.689   2.670  10.146 -2.2093  0.6155  2.3010
  256TMC3    H2 3885   4.563   3.074  10.050 -0.9678 -0.0580  0.9922
  256TMC3    C7 3886   4.482   2.828  10.074 -0.0512 -0.2869 -0.6231
  256TMC3    C8 3887   0.079   3.161  10.006 -0.4266  0.2954 -0.0773
  256TMC3    O1 3888   4.486   2.728  10.002 -0.0790 -0.6031 -0.1154
  256TMC3    O2 3889   0.001   3.242  10.061 -0.0788 -0.0435 -0.0014
  257MPD2     C 3890   3.903   4.367  13.027  0.3715  0.2567 -0.0959
  257MPD2    C1 3891   3.909   4.254  12.945  0.4705 -0.0110  0.5110
  257MPD2    C2 3892   3.951   4.139  12.999  0.5413  0.0817 -0.1080
  257MPD2    C3 3893   3.970   4.123  13.132  0.1121 -0.2851 -0.5936
  257MPD2    C4 3894   3.945   4.225  13.215  0.2089 -0.9978 -0.6440
  257MPD2    C5 3895   3.918   4.346  13.160 -0.0085  0.3570  0.2918
  257MPD2     H 3896   3.974   4.058  12.930  1.7975 -0.7085  1.2497
  257MPD2    H1 3897   3.959   4.213  13.322 -1.3331 -3.4252 -0.7131
  257MPD2    H2 3898   3.858   4.460  12.993 -0.6082  0.0880  0.7258
  257MPD2    H3 3899   3.886   4.428  13.224  0.1660  1.4272 -1.0095
  257MPD2     N 3900   4.011   3.993  13.169 -0.5934  0.0738 -0.1007
  257MPD2    H5 3901   4.014   3.917  13.103 -0.9393 -0.4915  0.5381
  257MPD2    N1 3902   3.899   4.282  12.807 -0.0774  0.3906  0.2834
  257MPD2    H7 3903   3.878   4.377  12.779 -0.4983  1.2822  3.5451
  258TMC3    C1 3904   4.065   3.818  13.315 -0.1980 -0.1704  0.0220
  258TMC3    C2 3905   4.104   3.742  13.204  0.2809  0.2492 -1.0640
  258TMC3    C3 3906   4.172   3.625  13.235 -0.3672  0.8816 -0.4620
  258TMC3    C4 3907   4.083   3.775  13.439  0.0224  0.3167 -0.5445
  258TMC3    C5 3908   4.158   3.661  13.456 -0.0718  0.5918 -0.1808
  258TMC3    C6 3909   4.213   3.583  13.361 -0.5170 -0.2247 -0.6283
  258TMC3     C 3910   4.031   3.960  13.303  0.6021  0.1232  0.2721
  258TMC3     O 3911   4.028   4.030  13.403 -0.2999 -0.2758 -0.0844
  258TMC3     H 3912   4.112   3.776  13.101  3.2636  0.3350 -0.7943
  258TMC3    H1 3913   4.057   3.833  13.527 -0.9650  0.1181 -0.7005
  258TMC3    H2 3914   4.271   3.491  13.372 -0.9554 -0.1822  1.8344
  258TMC3    C7 3915   4.159   3.614  13.585  0.3610  0.2639  0.2555
  258TMC3    C8 3916   4.200   3.536  13.127  0.0063  0.3963 -0.5748
  258TMC3    O1 3917   4.068   3.644  13.653  0.1386  0.6888 -0.1591
  258TMC3    O2 3918   4.288   3.453  13.139 -0.0380  0.1337  0.0872
  259MPD2     C 3919   3.392   1.444   0.302  0.0557 -0.6617  0.4636
  259MPD2    C1 3920   3.437   1.325   0.339  0.6326  0.0276 -0.7604
  259MPD2    C2 3921   3.485   1.247   0.237  0.3110 -0.4290  0.2092
  259MPD2    C3 3922   3.488   1.287   0.098 -0.0765 -0.9629 -0.2868
  259MPD2    C4 3923   3.452   1.421   0.068  0.0823 -0.2754 -0.4456
  259MPD2    C5 3924   3.406   1.496   0.174 -0.0479  0.1354  0.0911
  259MPD2     H 3925   3.521   1.146   0.252  1.5810 -0.1473 -0.8860
  259MPD2    H1 3926   3.468   1.472  17.654  0.3963  0.6607  0.1117
  259MPD2    H2 3927   3.355   1.512   0.378 -0.6543 -1.2862  0.6817
  259MPD2    H3 3928   3.386   1.602   0.164 -0.6694  0.0284  0.2220
  259MPD2     N 3929   3.527   1.200  17.674  0.1547 -0.1183 -0.5506
  259MPD2    H5 3930   3.575   1.117   0.029  2.5846  1.0459 -1.1683
  259MPD2    N1 3931   3.409   1.271   0.469 -0.4393 -0.4822  0.2831
  259MPD2    H7 3932   3.350   1.326   0.531 -0.6174 -1.2335  0.7823
  260TMC3    C1 3933   3.553   1.132  17.447  0.3835  0.5212  0.2099
  260TMC3    C2 3934   3.682   1.094  17.471  0.6460 -0.1371 -0.4737
  260TMC3    C3 3935   3.753   1.016  17.388 -0.3672 -0.2738 -0.2647
  260TMC3    C4 3936   3.492   1.093  17.329 -0.2764  0.2782  0.1763
  260TMC3    C5 3937   3.561   1.013  17.239  0.1433 -0.4266  0.2329
  260TMC3    C6 3938   3.687   0.963  17.275  0.8035 -0.5012 -0.4382
  260TMC3     C 3939   3.480   1.212  17.545 -0.8223  0.0637  0.8079
  260TMC3     O 3940   3.376   1.270  17.510  0.1644  0.1845 -0.3006
  260TMC3     H 3941   3.723   1.127  17.566  0.4644 -0.7240 -0.1911
  260TMC3    H1 3942   3.392   1.132  17.313 -0.8923 -1.0453  0.8420
  260TMC3    H2 3943   3.742   0.902  17.205  1.6705 -2.4273  1.9239
  260TMC3    C7 3944   3.490   0.902  17.175  0.0339 -0.1772  0.4565
  260TMC3    C8 3945   3.835   0.918  17.452 -0.4969 -0.5319  0.1792
  260TMC3    O1 3946   3.542   0.794  17.151  0.3419 -0.0203 -0.4458
  260TMC3    O2 3947   3.825   0.807  17.413  0.4325  0.0360 -0.4798
  261MPD2     C 3948   4.517   4.554  12.691  0.5318  0.2981 -0.5710
  261MPD2    C1 3949   4.553   4.442  12.619 -0.6803 -0.3496 -0.5226
  261MPD2    C2 3950   4.534   4.444  12.479 -0.8439 -0.1540 -0.8509
  261MPD2    C3 3951   4.487   4.563  12.416 -0.1211  0.3461 -0.2485
  261MPD2    C4 3952   4.455   4.668  12.496 -0.2614  0.3080 -0.0050
  261MPD2    C5 3953   4.471   4.664  12.626  0.2381  0.2405 -0.1080
  261MPD2     H 3954   4.559   4.359  12.416 -0.3952 -0.9801  0.4245
  261MPD2    H1 3955   4.427   0.041  12.446 -0.7704  0.2809  0.2377
  261MPD2    H2 3956   4.530   4.561  12.798  0.1911  0.4186 -0.5366
  261MPD2    H3 3957   4.444   0.032  12.684  0.9104  1.0833 -1.0654
  261MPD2     N 3958   4.468   4.555  12.279  0.7259 -0.3693  0.4466
  261MPD2    H5 3959   4.479   4.466  12.233  2.9624  0.8011 -1.2561
  261MPD2    N1 3960   4.601   4.323  12.680 -0.1862 -0.0194 -0.6287
  261MPD2    H7 3961   4.624   4.241  12.626 -2.0165 -0.2916 -1.0060
  262TMC3    C1 3962   4.366   4.607  12.066  0.7666 -0.1320 -0.1888
  262TMC3    C2 3963   4.250   4.666  12.010  0.1718  0.0157 -0.9670
  262TMC3    C3 3964   4.212   4.638  11.883 -0.8717  0.4861  0.2502
  262TMC3    C4 3965   4.448   4.519  11.995 -0.3877 -0.5592 -0.2728
  262TMC3    C5 3966   4.408   4.508  11.863  0.4822 -0.3464 -0.3226
  262TMC3    C6 3967   4.292   4.557  11.811  0.3358 -0.0973  0.1795
  262TMC3     C 3968   4.402   4.649  12.199  0.5585  0.6040 -0.0892
  262TMC3     O 3969   4.356   0.035  12.230  0.0857  0.2063  0.0509
  262TMC3     H 3970   4.183   0.005  12.073  0.0539  0.9140 -1.9227
  262TMC3    H1 3971   4.546   4.489  12.032 -0.4929 -0.0059  0.4516
  262TMC3    H2 3972   4.272   4.553  11.705  2.3117  1.3329 -0.2362
  262TMC3    C7 3973   4.451   4.385  11.809 -0.0678  0.1928 -0.5945
  262TMC3    C8 3974   4.132   0.026  11.819 -0.1178  0.5973  0.0998
  262TMC3    O1 3975   4.494   4.317  11.899 -0.6874 -0.6273 -0.0559
  262TMC3    O2 3976   4.150   0.054  11.703 -0.3215 -0.2611  0.0209
  263MPD2     C 3977   0.988   3.417  11.105  0.0777  0.2022  0.6504
  263MPD2    C1 3978   1.059   3.533  11.129  0.0293 -0.0181  0.1929
  263MPD2    C2 3979   1.106   3.604  11.018  0.1895 -0.4639  0.2437
  263MPD2    C3 3980   1.091   3.554  10.888  0.2908  0.2612 -0.9257
  263MPD2    C4 3981   1.019   3.433  10.868  0.0957 -0.6502  1.1375
  263MPD2    C5 3982   0.971   3.370  10.977 -0.5281 -0.2815  0.6555
  263MPD2     H 3983   1.152   3.701  11.031  0.4915 -0.3181 -1.9275
  263MPD2    H1 3984   1.018   3.386  10.770  2.4799 -1.4064  1.4795
  263MPD2    H2 3985   0.945   3.362  11.188 -0.8901  1.9860  1.3270
  263MPD2    H3 3986   0.910   3.281  10.967 -1.7727  0.4097  2.2746
  263MPD2     N 3987   1.141   3.631  10.779 -0.6389 -0.4126 -0.4277
  263MPD2    H5 3988   1.167   3.729  10.789  4.6028 -1.7280 -1.1667
  263MPD2    N1 3989   1.090   3.565  11.261 -0.4706  0.1235  0.4548
  263MPD2    H7 3990   1.067   3.499  11.334  0.5761 -0.3429  0.3661
  264TMC3    C1 3991   1.191   3.671  10.555 -0.1225 -0.1674 -0.2392
  264TMC3    C2 3992   1.114   3.783  10.539  0.0647  0.0601  0.1247
  264TMC3    C3 3993   1.143   3.869  10.432  0.3384  0.9513  1.0329
  264TMC3    C4 3994   1.276   3.638  10.453 -0.2606 -0.5387 -0.6274
  264TMC3    C5 3995   1.290   3.714  10.340 -0.4450 -0.4615  0.2369
  264TMC3    C6 3996   1.223   3.833  10.327  0.4392 -0.1982 -0.1812
  264TMC3     C 3997   1.158   3.574  10.657  0.0214  0.4710 -0.0877
  264TMC3     O 3998   1.158   3.454  10.615  0.1812 -0.3547  0.2311
  264TMC3     H 3999   1.049   3.819  10.618  0.1068  1.2911 -0.3929
  264TMC3    H1 4000   1.347   3.559  10.478  0.2141  0.1913  0.3306
  264TMC3    H2 4001   1.229   3.893  10.237  0.8635 -1.6266 -1.1072
  264TMC3    C7 4002   1.418   3.719  10.279  0.2827 -0.0852  0.3608
  264TMC3    C8 4003   1.152   4.008  10.457 -0.1590  0.4692  0.1795
  264TMC3    O1 4004   1.502   3.644  10.330  0.0093  0.0206 -0.4506
  264TMC3    O2 4005   1.242   4.062  10.396 -0.2492  0.5711  0.1821
  265MPD2     C 4006   3.230   3.664  15.308  0.5044  0.6898 -0.6204
  265MPD2    C1 4007   3.284   3.786  15.278  0.4033 -0.8730  0.2842
  265MPD2    C2 4008   3.337   3.803  15.144  0.0105 -0.1856 -0.3483
  265MPD2    C3 4009   3.349   3.695  15.060  0.1567 -0.0366 -0.1417
  265MPD2    C4 4010   3.275   3.576  15.087 -0.2101 -0.6361  0.2584
  265MPD2    C5 4011   3.209   3.570  15.210  0.6216  0.5165  0.1583
  265MPD2     H 4012   3.377   3.898  15.108 -0.5866 -0.1379 -0.8833
  265MPD2    H1 4013   3.268   3.495  15.015  1.9772 -1.1758  0.6688
  265MPD2    H2 4014   3.184   3.633  15.401  2.5897  1.3526  0.6415
  265MPD2    H3 4015   3.147   3.486  15.241  2.2717 -0.5090  0.6836
  265MPD2     N 4016   3.422   3.690  14.938  0.4749 -0.5417 -1.0177
  265MPD2    H5 4017   3.426   3.600  14.890 -0.1736 -0.6997 -0.7718
  265MPD2    N1 4018   3.267   3.897  15.370 -0.2956 -0.6872 -0.6563
  265MPD2    H7 4019   3.290   3.987  15.329  2.7189 -0.8382  0.6686
  266TMC3    C1 4020   3.232   4.013  15.571  0.2889 -0.3056  0.0026
  266TMC3    C2 4021   3.249   4.002  15.703  0.6597  0.6828  0.4847
  266TMC3    C3 4022   3.275   4.125  15.755 -0.5210 -0.3885 -0.1113
  266TMC3    C4 4023   3.211   4.133  15.505  0.0970  0.4900 -0.5167
  266TMC3    C5 4024   3.238   4.250  15.560 -0.4531  0.0081 -0.6177
  266TMC3    C6 4025   3.268   4.250  15.695 -0.8681 -0.4461  0.2569
  266TMC3     C 4026   3.229   3.883  15.504 -0.0464  0.2731  0.4119
  266TMC3     O 4027   3.226   3.780  15.571  0.1469 -0.2012 -0.5898
  266TMC3     H 4028   3.262   3.911  15.761  0.2275 -0.4360 -1.1736
  266TMC3    H1 4029   3.209   4.122  15.398 -1.7364 -0.0288 -0.4417
  266TMC3    H2 4030   3.294   4.344  15.742 -2.7457 -0.3804  1.1906
  266TMC3    C7 4031   3.234   4.374  15.489  0.4631  0.3860 -1.1010
  266TMC3    C8 4032   3.247   4.132  15.894 -0.0253  0.2184 -0.3052
  266TMC3    O1 4033   3.260   4.470  15.561  0.4808 -0.4066 -0.4212
  266TMC3    O2 4034   3.263   4.033  15.962  0.1844 -0.0617  0.0774
  267MPD2     C 4035   0.281   1.124  17.444 -0.5819  0.3179 -0.1678
  267MPD2    C1 4036   0.394   1.173  17.379  0.7527 -0.5228  0.2419
  267MPD2    C2 4037   0.392   1.175  17.240  0.0531  0.3829 -0.2452
  267MPD2    C3 4038   0.287   1.129  17.167  0.8722 -0.4724 -0.0413
  267MPD2    C4 4039   0.173   1.102  17.236  0.1449 -0.3695  1.0272
  267MPD2    C5 4040   0.168   1.092  17.374 -0.4395  0.3285 -0.5804
  267MPD2     H 4041   0.474   1.206  17.177 -0.1332  0.4420 -0.4621
  267MPD2    H1 4042   0.081   1.082  17.182  0.3454  0.3578  0.4202
  267MPD2    H2 4043   0.261   1.118  17.550 -2.0716 -4.0873 -0.7177
  267MPD2    H3 4044   0.083   1.050  17.426 -0.5840 -0.0927 -1.1577
  267MPD2     N 4045   0.284   1.098  17.034  0.0155  0.2324  0.8353
  267MPD2    H5 4046   0.202   1.053  16.995  1.5690 -1.2853 -0.6703
  267MPD2    N1 4047   0.503   1.216  17.462 -0.5856  0.6442  0.1935
  267MPD2    H7 4048   0.498   1.206  17.562 -1.8358  1.7602  0.2464
  268TMC3    C1 4049   0.731   1.246  17.501  0.2521  0.4561 -0.0501
  268TMC3    C2 4050   0.859   1.253  17.456  0.7343 -0.3328 -0.3832
  268TMC3    C3 4051   0.967   1.242  17.537 -0.1640  0.3322 -0.7368
  268TMC3    C4 4052   0.717   1.210  17.635 -0.3011 -0.4699  0.4192
  268TMC3    C5 4053   0.824   1.197   0.040 -0.0246  0.2265 -0.1421
  268TMC3    C6 4054   0.951   1.188  17.662  0.1166  0.0104 -0.2747
  268TMC3     C 4055   0.630   1.242  17.406  0.2099  0.9508 -0.2525
  268TMC3     O 4056   0.666   1.250  17.285 -0.1077 -0.5939  0.0445
  268TMC3     H 4057   0.875   1.258  17.349  1.1517  0.3757 -0.2875
  268TMC3    H1 4058   0.620   1.203   0.002 -1.0819 -1.7740 -1.4048
  268TMC3    H2 4059   1.038   1.166   0.043  1.5552  0.1713 -2.2975
  268TMC3    C7 4060   0.813   1.105   0.152  0.8884  0.2266  0.9986
  268TMC3    C8 4061   1.096   1.247  17.474  0.3672 -0.3487 -0.2842
  268TMC3    O1 4062   0.913   1.039   0.182  0.1169 -0.2436  0.4707
  268TMC3    O2 4063   1.176   1.156  17.507  0.0486 -0.1020 -0.2807
  269MPD2     C 4064   1.110   4.704  15.239 -0.0857  0.7527 -0.4552
  269MPD2    C1 4065   1.016   0.005  15.333  0.3099 -0.5127 -0.1553
  269MPD2    C2 4066   0.973   0.130  15.366  0.0746  0.4849 -0.0178
  269MPD2    C3 4067   1.027   0.238  15.295 -0.6836 -0.8502 -0.5046
  269MPD2    C4 4068   1.133   0.221  15.208 -0.5008 -0.2420 -0.2292
  269MPD2    C5 4069   1.176   0.089  15.186  0.3116  0.1865  0.4946
  269MPD2     H 4070   0.896   0.148  15.439  0.9774  0.0624  1.0491
  269MPD2    H1 4071   1.185   0.300  15.154 -0.1990 -0.0613  0.3249
  269MPD2    H2 4072   1.160   4.610  15.219 -0.4701  0.2142  1.0381
  269MPD2    H3 4073   1.268   0.070  15.133  0.0603 -1.5697  0.6919
  269MPD2     N 4074   0.969   0.373  15.305  0.4247  0.5500 -0.8541
  269MPD2    H5 4075   0.894   0.380  15.372  1.2730  0.5015  0.1029
  269MPD2    N1 4076   0.967   4.600  15.392 -0.1213  0.0056 -0.4038
  269MPD2    H7 4077   1.014   4.517  15.357  0.7768  1.3983 -2.5021
  270TMC3    C1 4078   0.839   4.453  15.534 -0.0043 -0.8115 -0.3728
  270TMC3    C2 4079   0.714   4.409  15.515  0.3440 -0.2286  0.0927
  270TMC3    C3 4080   0.690   4.279  15.542  0.0142  0.7312 -0.6932
  270TMC3    C4 4081   0.950   4.380  15.556 -0.1962  0.1671 -0.5460
  270TMC3    C5 4082   0.920   4.251  15.585  0.2414 -0.8863  0.3446
  270TMC3    C6 4083   0.793   4.193  15.586  0.4956 -0.4065 -0.2042
  270TMC3     C 4084   0.864   4.589  15.487  0.2462 -0.3852  0.3965
  270TMC3     O 4085   0.796   4.671  15.543 -0.1140 -0.2706 -0.6290
  270TMC3     H 4086   0.630   4.477  15.507 -1.2484 -2.1281  0.6907
  270TMC3    H1 4087   1.048   4.426  15.558 -1.2318  2.3662 -0.2832
  270TMC3    H2 4088   0.773   4.090  15.612  0.3381 -0.2533  0.2883
  270TMC3    C7 4089   1.023   4.162  15.549 -0.3257 -0.2896  0.0981
  270TMC3    C8 4090   0.620   4.204  15.437  0.6466 -0.1933 -0.1471
  270TMC3    O1 4091   1.137   4.191  15.572  0.3681  0.4207  0.5157
  270TMC3    O2 4092   0.685   4.115  15.388  0.0461 -0.1625  0.1719
  271MPD2     C 4093   0.131   4.081  13.618 -0.7996 -0.4071 -0.4691
  271MPD2    C1 4094   0.067   4.121  13.737 -0.1774  0.6037 -0.4485
  271MPD2    C2 4095   4.671   4.201  13.734  0.3317 -0.4428 -0.8869
  271MPD2    C3 4096   4.626   4.251  13.616 -0.0785 -0.2178  0.0282
  271MPD2    C4 4097   4.691   4.205  13.503  0.3536 -0.5177  0.4017
  271MPD2    C5 4098   0.076   4.123  13.505 -0.6334 -0.1370 -0.7285
  271MPD2     H 4099   4.616   4.218  13.825  2.8764  1.8554  0.2367
  271MPD2    H1 4100   4.659   4.221  13.401 -1.5998  1.2727  1.2914
  271MPD2    H2 4101   0.223   4.023  13.618 -0.2054  0.5180  1.4573
  271MPD2    H3 4102   0.124   4.095  13.412 -2.8499  0.9524 -2.2096
  271MPD2     N 4103   4.523   4.342  13.598  0.1412  0.1986 -0.1050
  271MPD2    H5 4104   4.505   4.376  13.504  1.5373 -0.7800 -0.7206
  271MPD2    N1 4105   0.117   4.094  13.861 -0.5474  0.4026 -0.0172
  271MPD2    H7 4106   0.058   4.112  13.942  0.8770 -0.6993  1.2661
  272TMC3    C1 4107   0.273   4.043  14.029  0.1497 -0.9778 -0.0548
  272TMC3    C2 4108   0.390   3.989  14.074  0.4318  0.4545  0.5174
  272TMC3    C3 4109   0.428   3.993  14.204 -0.5681  0.8612 -0.3360
  272TMC3    C4 4110   0.209   4.124  14.113 -0.3576  0.2268  0.5378
  272TMC3    C5 4111   0.248   4.127  14.248  0.7240 -0.6215  0.0630
  272TMC3    C6 4112   0.350   4.051  14.295  0.8207  0.0590 -0.2962
  272TMC3     C 4113   0.237   4.035  13.889 -0.8646  0.8639  0.7122
  272TMC3     O 4114   0.323   3.988  13.817  0.3443 -0.4467 -0.4081
  272TMC3     H 4115   0.459   3.937  14.007 -1.8797 -0.3701 -1.2268
  272TMC3    H1 4116   0.136   4.195  14.077  2.0810  2.3922 -0.1319
  272TMC3    H2 4117   0.379   4.058  14.399 -0.4284  0.5819  0.0201
  272TMC3    C7 4118   0.172   4.221  14.333 -0.4150  0.1453  0.6867
  272TMC3    C8 4119   0.572   4.020  14.217  0.4494  0.8279 -0.3579
  272TMC3    O1 4120   0.063   4.254  14.286  0.4128  0.2656 -0.4586
  272TMC3    O2 4121   0.625   4.055  14.113 -0.5332 -0.2496 -0.0667
  273MPD2     C 4122   1.311   2.383  11.737 -0.0077 -0.0028  0.6311
  273MPD2    C1 4123   1.414   2.480  11.752  0.1991 -0.2201 -0.0581
  273MPD2    C2 4124   1.460   2.543  11.641  0.4351 -0.4169  0.2068
  273MPD2    C3 4125   1.413   2.510  11.515  0.4262 -0.1996 -0.6862
  273MPD2    C4 4126   1.318   2.414  11.505 -0.2007 -0.9916  0.1753
  273MPD2    C5 4127   1.271   2.353  11.613 -0.3214  0.2168 -0.1327
  273MPD2     H 4128   1.531   2.624  11.647  0.5982 -0.4419 -1.2715
  273MPD2    H1 4129   1.287   2.388  11.405 -1.8523 -0.6111  0.5842
  273MPD2    H2 4130   1.271   2.327  11.821  0.8693  0.4658  1.3611
  273MPD2    H3 4131   1.199   2.272  11.607  0.3948 -0.4415  0.2266
  273MPD2     N 4132   1.461   2.565  11.393 -0.7733 -0.2127  0.0529
  273MPD2    H5 4133   1.442   2.511  11.308  1.1339 -0.3938 -0.2591
  273MPD2    N1 4134   1.457   2.514  11.883  0.4371 -0.6166 -0.4089
  273MPD2    H7 4135   1.423   2.455  11.959  1.3994  2.0319  2.0578
  274TMC3    C1 4136   1.531   2.737  11.246  0.1952  0.5524 -0.7292
  274TMC3    C2 4137   1.441   2.692  11.152 -0.0657 -0.6889  0.3144
  274TMC3    C3 4138   1.435   2.766  11.035  0.6046 -0.1271 -0.2114
  274TMC3    C4 4139   1.609   2.848  11.229 -0.5044 -0.9515 -0.1661
  274TMC3    C5 4140   1.605   2.904  11.107  0.2132 -0.3453 -0.1329
  274TMC3    C6 4141   1.525   2.862  11.004  0.2564  0.2223  0.5212
  274TMC3     C 4142   1.508   2.694  11.384 -0.1305 -0.8173 -0.2422
  274TMC3     O 4143   1.513   2.773  11.477  0.2547  0.3410 -0.0879
  274TMC3     H 4144   1.370   2.610  11.159 -1.1973  0.3495  0.7692
  274TMC3    H1 4145   1.671   2.898  11.303 -0.7684  1.7290 -1.7415
  274TMC3    H2 4146   1.504   2.933  10.925  1.3982  1.6657  1.5191
  274TMC3    C7 4147   1.676   3.027  11.085 -0.7152 -0.4986 -0.4122
  274TMC3    C8 4148   1.332   2.738  10.938 -0.1096  1.4550  0.2163
  274TMC3    O1 4149   1.701   3.063  10.970 -0.1958  0.5464 -0.2541
  274TMC3    O2 4150   1.247   2.665  10.980  0.4453  0.2467  0.6704
  275MPD2     C 4151   1.709   0.476  14.221  0.6093  0.2629 -0.3674
  275MPD2    C1 4152   1.615   0.570  14.238  0.4184  0.5551  0.1570
  275MPD2    C2 4153   1.480   0.545  14.218  0.4609 -0.4543  0.5461
  275MPD2    C3 4154   1.425   0.417  14.210 -0.3305 -0.0598 -0.0201
  275MPD2    C4 4155   1.524   0.319  14.203 -0.7923 -0.3423  0.0323
  275MPD2    C5 4156   1.658   0.347  14.203 -0.0353 -0.1569  0.2931
  275MPD2     H 4157   1.418   0.631  14.239 -0.4012 -1.1941  0.9979
  275MPD2    H1 4158   1.486   0.217  14.199 -1.3174 -0.1308 -0.2823
  275MPD2    H2 4159   1.816   0.483  14.204  0.6592  1.9432  0.6504
  275MPD2    H3 4160   1.730   0.273  14.170  0.3985  1.1129 -1.6370
  275MPD2     N 4161   1.284   0.385  14.201 -0.1910 -0.4530 -0.4619
  275MPD2    H5 4162   1.267   0.285  14.197 -0.0850 -0.5244  0.9771
  275MPD2    N1 4163   1.653   0.706  14.256 -0.4349  0.2621  0.6585
  275MPD2    H7 4164   1.572   0.768  14.255  0.2231  1.1284  0.4643
  276TMC3    C1 4165   1.771   0.888  14.306  0.4229 -0.2184  0.1796
  276TMC3    C2 4166   1.638   0.927  14.330 -0.6095 -0.3941 -1.0201
  276TMC3    C3 4167   1.611   0.965  14.463 -0.2234 -0.1712 -0.1258
  276TMC3    C4 4168   1.867   0.886  14.408 -0.5211  0.3997  0.3669
  276TMC3    C5 4169   1.837   0.943  14.526  0.0891 -0.4851 -0.3386
  276TMC3    C6 4170   1.701   0.959  14.562 -0.0428  0.0761 -0.8040
  276TMC3     C 4171   1.774   0.754  14.244  0.7853  0.4543  0.5127
  276TMC3     O 4172   1.885   0.701  14.247 -0.6810  0.6245 -0.7131
  276TMC3     H 4173   1.567   0.934  14.249 -0.1521 -0.5944 -1.4387
  276TMC3    H1 4174   1.972   0.871  14.385 -0.7092 -0.6631  0.2036
  276TMC3    H2 4175   1.670   0.961  14.666 -2.4545 -1.2042 -1.4906
  276TMC3    C7 4176   1.926   0.938  14.639 -0.3503  0.1795  0.5345
  276TMC3    C8 4177   1.490   0.897  14.508  0.1547 -0.0629 -0.3148
  276TMC3    O1 4178   1.874   0.958  14.750 -0.1976 -0.4768 -0.0522
  276TMC3    O2 4179   1.393   0.934  14.447 -0.0402  0.0210  0.5375
  277MPD2     C 4180   3.025   4.345  13.336  0.1881 -0.1643 -0.6543
  277MPD2    C1 4181   2.909   4.365  13.266  0.2220  0.4560  0.0109
  277MPD2    C2 4182   2.810   4.266  13.275  0.1171 -0.1576 -0.7681
  277MPD2    C3 4183   2.838   4.156  13.359 -0.7249  0.5522 -0.7259
  277MPD2    C4 4184   2.953   4.143  13.426 -0.1024 -0.6088 -0.4305
  277MPD2    C5 4185   3.045   4.237  13.413 -0.6578  0.8505 -0.2631
  277MPD2     H 4186   2.714   4.272  13.226 -0.2515 -1.7066 -0.2450
  277MPD2    H1 4187   2.973   4.058  13.490  0.0652  1.1404  1.8114
  277MPD2    H2 4188   3.107   4.413  13.318  0.7057 -1.1427 -1.9805
  277MPD2    H3 4189   3.135   4.239  13.474 -2.8382  2.5641  2.9279
  277MPD2     N 4190   2.732   4.064  13.392  0.3643 -0.1708  0.3642
  277MPD2    H5 4191   2.642   4.104  13.366  1.6512  2.1828 -0.4322
  277MPD2    N1 4192   2.905   4.471  13.172 -0.3597  0.2930 -0.2983
  277MPD2    H7 4193   2.994   4.518  13.155  1.5167 -2.2781  2.2265
  278TMC3    C1 4194   2.614   3.864  13.474  0.2318  0.1686  0.2334
  278TMC3    C2 4195   2.625   3.728  13.489 -1.5159  0.3902 -0.0637
  278TMC3    C3 4196   2.515   3.651  13.484  0.1978 -0.4654  0.3368
  278TMC3    C4 4197   2.494   3.928  13.462  0.0350  0.4429 -0.5149
  278TMC3    C5 4198   2.388   3.857  13.486 -0.4807  0.3086 -0.0876
  278TMC3    C6 4199   2.391   3.715  13.491 -0.6721  0.1587  0.1064
  278TMC3     C 4200   2.738   3.937  13.457  0.5981 -0.4436 -0.4488
  278TMC3     O 4201   2.837   3.871  13.475 -0.4610 -0.3593 -0.7180
  278TMC3     H 4202   2.723   3.685  13.474 -1.3040  0.0584  2.3407
  278TMC3    H1 4203   2.492   4.036  13.460  0.9733  0.4789  0.3384
  278TMC3    H2 4204   2.302   3.657  13.513 -0.6071  0.1985  0.4850
  278TMC3    C7 4205   2.260   3.922  13.471 -0.3762 -0.1125 -0.2336
  278TMC3    C8 4206   2.526   3.511  13.439  0.5684 -0.6061 -0.0325
  278TMC3    O1 4207   2.268   4.022  13.397  0.4100 -0.1438  0.4003
  278TMC3    O2 4208   2.440   3.466  13.365 -0.3767 -0.4029 -0.2584
  279MPD2     C 4209   1.857   4.393   0.252  0.0159  0.3232  0.1932
  279MPD2    C1 4210   1.863   4.507   0.175 -0.0968 -0.5672  0.5491
  279MPD2    C2 4211   1.933   4.502   0.053 -0.3249  0.0773  0.6963
  279MPD2    C3 4212   1.986   4.387   0.006  0.1856  0.3626  0.5781
  279MPD2    C4 4213   1.979   4.272   0.088  0.2052  0.3200  0.3992
  279MPD2    C5 4214   1.908   4.276   0.203  0.8154 -0.7420 -0.6234
  279MPD2     H 4215   1.934   4.596  17.680 -1.8637 -0.4131 -0.1885
  279MPD2    H1 4216   2.016   4.174   0.062 -2.5827 -0.1121 -1.9477
  279MPD2    H2 4217   1.803   4.397   0.345 -0.2709  1.4231 -0.0233
  279MPD2    H3 4218   1.901   4.182   0.257 -0.5693 -0.4131 -0.2293
  279MPD2     N 4219   2.062   4.385  17.570 -0.8820 -0.0022  0.1351
  279MPD2    H5 4220   2.119   4.305  17.546 -1.1296  0.1488 -0.9781
  279MPD2    N1 4221   1.804   4.628   0.208  0.8147 -0.4441  0.5470
  279MPD2    H7 4222   1.829   4.709   0.153  1.1470 -2.0619 -1.6982
  280TMC3    C1 4223   1.681   0.071   0.314  0.3831  0.0840 -0.2339
  280TMC3    C2 4224   1.791   0.157   0.318 -0.0261  0.4946 -0.0206
  280TMC3    C3 4225   1.768   0.292   0.322  0.3525  0.4829 -0.1611
  280TMC3    C4 4226   1.553   0.111   0.334  0.5088 -0.3877 -0.3672
  280TMC3    C5 4227   1.537   0.244   0.331  0.2714 -0.0386 -0.1609
  280TMC3    C6 4228   1.643   0.339   0.350 -0.5290 -0.6693  0.2356
  280TMC3     C 4229   1.706   4.643   0.301 -0.1065  0.2099  0.2317
  280TMC3     O 4230   1.631   4.560   0.346 -0.4897  0.1236  0.2631
  280TMC3     H 4231   1.889   0.114   0.301 -0.4996 -0.3206 -0.6774
  280TMC3    H1 4232   1.480   0.031   0.330  0.5724 -0.3798 -1.8414
  280TMC3    H2 4233   1.623   0.446   0.350  2.0993 -0.1833 -1.8903
  280TMC3    C7 4234   1.428   0.301   0.256 -0.1253  0.3149 -0.5118
  280TMC3    C8 4235   1.877   0.393   0.300  0.2131  0.1747  0.3241
  280TMC3    O1 4236   1.401   0.423   0.268 -1.0555  0.1577 -0.5965
  280TMC3    O2 4237   1.863   0.510   0.340 -0.2612 -0.2998 -0.2082
  281TMC3    C1 4238   1.231   4.696  13.102  0.3195 -0.4156  0.2251
  281TMC3    C2 4239   1.268   0.079  13.017 -0.6311 -0.1873 -0.5600
  281TMC3    C3 4240   1.311   0.049  12.886 -0.3603 -0.1278  0.8857
  281TMC3    C4 4241   1.258   4.564  13.067  0.6026  0.2865 -0.1235
  281TMC3    C5 4242   1.312   4.541  12.944  0.1252  0.5525 -0.2529
  281TMC3    C6 4243   1.331   4.642  12.852 -0.7249 -0.2181  0.2857
  281TMC3     C 4244   1.137   0.008  13.209 -0.8998  0.1094  0.2824
  281TMC3     O 4245   1.098   4.638  13.291 -0.5423 -0.2225 -0.2786
  281TMC3     H 4246   1.268   0.186  13.032 -1.5115 -0.0063 -1.8380
  281TMC3    H1 4247   1.242   4.491  13.145 -0.4773 -1.7533 -2.2469
  281TMC3    H2 4248   1.385   4.620  12.760  0.5722  0.2182  0.9535
  281TMC3    C7 4249   1.375   4.412  12.915 -0.9084  0.3616 -0.9369
  281TMC3    C8 4250   1.387   0.142  12.808 -0.2388 -0.3325  0.0558
  281TMC3    O1 4251   1.475   4.422  12.845 -0.3779 -0.3405  0.2672
  281TMC3    O2 4252   1.492   0.094  12.765 -0.1132 -1.1100 -0.1064
  282MPD2     C 4253   2.723   1.226  14.804  0.9627  0.6085 -0.3191
  282MPD2    C1 4254   2.689   1.363  14.812 -0.2295  0.3328  0.9029
  282MPD2    C2 4255   2.640   1.428  14.703  0.7452 -0.0749  0.3081
  282MPD2    C3 4256   2.632   1.372  14.580  0.1762  0.0717 -0.5699
  282MPD2    C4 4257   2.673   1.241  14.556  0.9629  0.1335  0.5292
  282MPD2    C5 4258   2.725   1.180  14.669 -0.3361  0.7170 -0.1735
  282MPD2     H 4259   2.602   1.529  14.714 -1.1917 -1.1326  3.3998
  282MPD2    H1 4260   2.675   1.185  14.463  1.9600  1.5983 -0.3238
  282MPD2    H2 4261   2.743   1.165  14.891 -0.6355  1.1665  0.4381
  282MPD2    H3 4262   2.756   1.078  14.653 -1.0546  0.6832 -1.3684
  282MPD2     N 4263   2.589   1.444  14.472  0.8175  0.2669  0.5307
  282MPD2    H5 4264   2.573   1.540  14.501 -0.3100 -0.0734  0.9949
  282MPD2    N1 4265   2.688   1.421  14.943 -0.2301  0.1943  0.6356
  282MPD2    H7 4266   2.693   1.353  15.018 -3.1408 -1.9041 -1.1127
  283TMC3    C1 4267   2.636   1.571  15.125  0.3379  0.2745 -1.2218
  283TMC3    C2 4268   2.669   1.698  15.168  0.9344 -0.1503  0.0228
  283TMC3    C3 4269   2.680   1.709  15.299 -0.0913  1.0095  0.4445
  283TMC3    C4 4270   2.616   1.464  15.208  0.3311  0.1814  0.2105
  283TMC3    C5 4271   2.622   1.486  15.343  1.1591  0.3622  0.6257
  283TMC3    C6 4272   2.662   1.611  15.392 -0.5935  0.4372 -0.1958
  283TMC3     C 4273   2.652   1.551  14.979 -0.1317 -0.8030 -0.0471
  283TMC3     O 4274   2.632   1.644  14.900  0.0475  0.0034  0.5574
  283TMC3     H 4275   2.697   1.780  15.102  0.8366 -0.3257 -0.2347
  283TMC3    H1 4276   2.574   1.373  15.167 -0.2821  0.0999  1.0094
  283TMC3    H2 4277   2.652   1.629  15.498 -2.5701 -0.7697 -0.1808
  283TMC3    C7 4278   2.600   1.386  15.447 -0.6007 -0.8044  0.3632
  283TMC3    C8 4279   2.727   1.835  15.343 -0.3180  0.0083  0.6422
  283TMC3    O1 4280   2.577   1.426  15.562  0.9797  0.2081 -0.2841
  283TMC3    O2 4281   2.691   1.867  15.454 -0.9675 -0.0474 -0.1130
  284MPD2     C 4282   1.162   0.405  11.821 -0.2809  0.0139  0.3141
  284MPD2    C1 4283   1.175   0.353  11.691  0.6716 -0.0298 -0.2165
  284MPD2    C2 4284   1.097   0.243  11.656  0.0782 -0.7334 -0.2065
  284MPD2    C3 4285   1.005   0.191  11.740 -0.2130  0.0517  0.0966
  284MPD2    C4 4286   1.005   0.234  11.870  0.6002  0.7080 -0.1291
  284MPD2    C5 4287   1.084   0.337  11.908 -0.0382  0.1063 -0.3417
  284MPD2     H 4288   1.105   0.213  11.552  0.7281  1.9440 -0.9328
  284MPD2    H1 4289   0.941   0.210  11.954  2.0375  0.2067  0.8160
  284MPD2    H2 4290   1.206   0.497  11.857 -0.4720  0.1390  0.2298
  284MPD2    H3 4291   1.071   0.377  12.007 -2.2587 -1.8936  0.1799
  284MPD2     N 4292   0.918   0.088  11.703  0.0852 -0.1236 -0.4492
  284MPD2    H5 4293   0.878   0.033  11.778 -1.2863  1.0078 -0.3347
  284MPD2    N1 4294   1.256   0.412  11.589  0.2620 -0.4521 -0.3216
  284MPD2    H7 4295   1.236   0.383  11.494  0.4571  1.7317 -1.0365
  285TMC3    C1 4296   1.424   0.557  11.499 -0.2652 -0.1094 -0.0558
  285TMC3    C2 4297   1.458   0.467  11.405  0.0730 -0.1016  0.7165
  285TMC3    C3 4298   1.547   0.504  11.308 -0.2075  0.2901 -0.5020
  285TMC3    C4 4299   1.477   0.678  11.513  0.1692 -0.0851 -0.1268
  285TMC3    C5 4300   1.574   0.708  11.422  0.4395  0.0659 -0.3806
  285TMC3    C6 4301   1.607   0.626  11.314 -0.0335  0.2849  0.5279
  285TMC3     C 4302   1.350   0.510  11.616 -0.5946  0.3365  0.2487
  285TMC3     O 4303   1.389   0.545  11.727  0.1869  0.1531 -0.1216
  285TMC3     H 4304   1.423   0.365  11.401 -2.8787  0.9736 -0.8121
  285TMC3    H1 4305   1.444   0.750  11.586 -1.6809 -2.3128  1.2286
  285TMC3    H2 4306   1.681   0.651  11.239  0.7688 -2.8729  0.2832
  285TMC3    C7 4307   1.639   0.837  11.435  0.6009  0.6902  0.0642
  285TMC3    C8 4308   1.573   0.406  11.207  0.2006  0.0897  0.2880
  285TMC3    O1 4309   1.617   0.899  11.542  0.0854  0.5784  1.0021
  285TMC3    O2 4310   1.477   0.358  11.148  0.2630 -0.6601 -0.6500
  286MPD2     C 4311   1.914   3.829   1.452 -0.1404  0.4873  0.4694
  286MPD2    C1 4312   1.836   3.755   1.358  0.3217 -0.2494 -0.3118
  286MPD2    C2 4313   1.872   3.638   1.301 -0.2748 -0.7003  0.4681
  286MPD2    C3 4314   1.999   3.596   1.334  0.8365  0.6698  0.4539
  286MPD2    C4 4315   2.072   3.662   1.434 -0.0557 -0.1034  0.1786
  286MPD2    C5 4316   2.033   3.782   1.495  0.7881 -1.0861 -0.1290
  286MPD2     H 4317   1.832   3.587   1.214 -1.6062  0.4168  0.4233
  286MPD2    H1 4318   2.167   3.622   1.464 -0.3212  0.5564  1.8762
  286MPD2    H2 4319   1.899   3.928   1.492  0.1640  1.0560 -0.8296
  286MPD2    H3 4320   2.096   3.834   1.565  0.6260 -0.4959 -0.4205
  286MPD2     N 4321   2.060   3.486   1.274  0.0026  0.0480  0.6818
  286MPD2    H5 4322   2.151   3.464   1.313  0.5949  1.0371 -0.1525
  286MPD2    N1 4323   1.706   3.809   1.320  0.2939 -0.3788  0.2126
  286MPD2    H7 4324   1.649   3.763   1.250  0.5679  2.4412 -1.8593
  287TMC3    C1 4325   2.102   3.299   1.155 -0.2904  0.2046 -0.3745
  287TMC3    C2 4326   2.126   3.257   1.025  0.7671  0.4666  0.5106
  287TMC3    C3 4327   2.220   3.163   1.008  0.8482  0.0914 -0.4324
  287TMC3    C4 4328   2.176   3.255   1.261  0.0975 -0.3754  0.3727
  287TMC3    C5 4329   2.266   3.159   1.235  0.0942 -0.0555 -0.3219
  287TMC3    C6 4330   2.290   3.108   1.112  0.0064 -0.2727 -0.2589
  287TMC3     C 4331   2.023   3.419   1.164 -0.4229  0.1974 -0.6118
  287TMC3     O 4332   1.929   3.442   1.092 -0.0563 -0.0249  0.1028
  287TMC3     H 4333   2.053   3.293   0.954  1.9116 -0.3417 -1.0532
  287TMC3    H1 4334   2.154   3.281   1.364  1.2678  1.5310  0.1537
  287TMC3    H2 4335   2.363   3.028   1.101 -2.0612 -2.0621 -1.0281
  287TMC3    C7 4336   2.368   3.141   1.336 -0.6605  0.6131 -0.1081
  287TMC3    C8 4337   2.250   3.118   0.868  0.0341  0.1893  0.7181
  287TMC3    O1 4338   2.394   3.238   1.405  0.2557 -0.5798  0.3444
  287TMC3    O2 4339   2.295   3.007   0.849  0.0692 -0.1269  0.4090
  288TMC3    C1 4340   3.610   4.171  13.781  0.4809  0.2978  0.5147
  288TMC3    C2 4341   3.657   4.112  13.893 -0.1607  0.4138 -0.1911
  288TMC3    C3 4342   3.560   4.074  13.985  0.4773  0.0936  0.0815
  288TMC3    C4 4343   3.482   4.195  13.753 -0.4502 -0.7517  0.1651
  288TMC3    C5 4344   3.391   4.155  13.838  0.7064  0.0496  0.2633
  288TMC3    C6 4345   3.425   4.100  13.957 -0.2968  0.7403 -0.0519
  288TMC3     C 4346   3.697   4.286  13.746  0.8516  0.7875 -0.4553
  288TMC3     O 4347   3.685   4.328  13.628 -0.1847 -0.2811  0.6318
  288TMC3     H 4348   3.762   4.096  13.914 -0.2330 -1.4637 -1.2894
  288TMC3    H1 4349   3.455   4.267  13.676  1.9205  0.2323  0.2379
  288TMC3    H2 4350   3.355   4.073  14.036  1.0513  0.1420  0.9565
  288TMC3    C7 4351   3.257   4.183  13.787  0.3323 -0.5187 -0.0308
  288TMC3    C8 4352   3.593   4.072  14.126  0.0072 -0.7026 -0.5602
  288TMC3    O1 4353   3.239   4.212  13.669  0.3360  0.4772  0.3340
  288TMC3    O2 4354   3.687   4.147  14.152  0.4563 -0.5843  0.1135
  289MPD2     C 4355   3.579   3.009  14.107 -0.0165  0.2506 -0.3061
  289MPD2    C1 4356   3.535   3.141  14.116 -0.2667  0.3899 -0.0055
  289MPD2    C2 4357   3.400   3.171  14.137  0.7466 -0.1427  0.5868
  289MPD2    C3 4358   3.302   3.069  14.126 -0.3493  1.0006 -0.0282
  289MPD2    C4 4359   3.348   2.939  14.110  0.4066 -0.5986 -0.5367
  289MPD2    C5 4360   3.486   2.908  14.099 -0.7275 -0.1497  0.2650
  289MPD2     H 4361   3.366   3.273  14.152 -0.5309 -0.6139  0.8964
  289MPD2    H1 4362   3.274   2.862  14.097 -0.9215  0.3557  1.3675
  289MPD2    H2 4363   3.683   2.980  14.107 -0.1539 -0.2387 -0.9457
  289MPD2    H3 4364   3.522   2.806  14.095  2.1333  1.0066 -3.1885
  289MPD2     N 4365   3.163   3.089  14.143 -0.0638  0.5396  0.1134
  289MPD2    H5 4366   3.105   3.006  14.139  0.1460  0.4685 -1.3597
  289MPD2    N1 4367   3.639   3.238  14.110 -0.1794 -0.8336  0.3529
  289MPD2    H7 4368   3.736   3.210  14.111  0.9015  2.9005  0.6373
  290TMC3    C1 4369   2.958   3.196  14.137  0.3248  0.1194 -1.3029
  290TMC3    C2 4370   2.897   3.307  14.081 -0.2976 -0.4235  0.1048
  290TMC3    C3 4371   2.775   3.292  14.034 -0.4123  0.1410 -0.0057
  290TMC3    C4 4372   2.908   3.072  14.144  0.6536  0.6172 -0.3666
  290TMC3    C5 4373   2.778   3.066  14.102  0.5739  0.0593  0.1116
  290TMC3    C6 4374   2.713   3.172  14.044  0.3572  0.5829  0.1251
  290TMC3     C 4375   3.103   3.208  14.143 -0.3860 -0.3945  1.0198
  290TMC3     O 4376   3.156   3.320  14.137  0.9815 -0.4898  0.2248
  290TMC3     H 4377   2.960   3.395  14.081 -0.4039 -0.3557 -1.5135
  290TMC3    H1 4378   2.947   2.990  14.202 -0.3910  2.5773  3.1087
  290TMC3    H2 4379   2.610   3.163  14.013  0.3644 -1.3623  0.6213
  290TMC3    C7 4380   2.703   2.982  14.189  0.5134  0.1702 -0.4882
  290TMC3    C8 4381   2.707   3.408  13.986  0.1105 -0.9080  0.2485
  290TMC3    O1 4382   2.589   3.024  14.217  0.3845  0.4806  0.2474
  290TMC3    O2 4383   2.604   3.379  13.927  0.7244  0.4574  0.5411
  291MPD2     C 4384   2.747   2.524   0.406 -0.2422 -0.3864  0.4046
  291MPD2    C1 4385   2.723   2.405   0.337  0.3788  0.4314  0.2251
  291MPD2    C2 4386   2.736   2.400   0.201 -0.1331  0.6770 -0.1576
  291MPD2    C3 4387   2.781   2.510   0.139 -0.4905  0.1101 -0.4645
  291MPD2    C4 4388   2.801   2.622   0.208  0.5069  0.0809 -0.4491
  291MPD2    C5 4389   2.784   2.635   0.341 -0.0367  0.0277  0.1347
  291MPD2     H 4390   2.728   2.305   0.149 -0.8450 -0.0408  1.2612
  291MPD2    H1 4391   2.839   2.715   0.167 -0.4430  1.3939  1.6785
  291MPD2    H2 4392   2.735   2.533   0.513  0.2062 -0.4016  0.4551
  291MPD2    H3 4393   2.788   2.734   0.384  0.5961  0.1896 -0.2965
  291MPD2     N 4394   2.813   2.522  17.679  0.2514  0.2543  0.4093
  291MPD2    H5 4395   2.841   2.613  17.645 -1.5043  0.2026 -1.2156
  291MPD2    N1 4396   2.680   2.282   0.402  0.1367 -0.0675 -0.4136
  291MPD2    H7 4397   2.664   2.202   0.341 -1.3601  0.6071 -0.8996
  292TMC3    C1 4398   2.558   2.154   0.572 -0.2047 -0.3158  0.4346
  292TMC3    C2 4399   2.493   2.163   0.691  0.3286 -0.4694  0.0335
  292TMC3    C3 4400   2.447   2.039   0.733 -0.1296 -0.6898 -0.4936
  292TMC3    C4 4401   2.569   2.049   0.483 -0.0934 -0.3903 -0.3275
  292TMC3    C5 4402   2.500   1.936   0.527 -0.8350 -0.2659 -0.5949
  292TMC3    C6 4403   2.440   1.932   0.649  0.1680  0.9245 -0.5711
  292TMC3     C 4404   2.621   2.280   0.532 -0.1445 -0.4888 -0.0516
  292TMC3     O 4405   2.612   2.370   0.614 -0.1890  0.1522  0.0827
  292TMC3     H 4406   2.490   2.251   0.755  0.9733 -0.6063  0.2516
  292TMC3    H1 4407   2.603   2.051   0.381  0.8737  1.2903  0.0433
  292TMC3    H2 4408   2.401   1.839   0.687  1.9104  0.5645  0.3213
  292TMC3    C7 4409   2.474   1.835   0.423  0.4891  0.0610 -0.2157
  292TMC3    C8 4410   2.363   2.024   0.851 -0.1587 -0.0269  0.1613
  292TMC3    O1 4411   2.538   1.843   0.316  0.2165  0.1354  0.0659
  292TMC3    O2 4412   2.261   1.951   0.845 -0.3893  0.0930  0.0180
  293MPD2     C 4413   4.151   4.163  12.378 -0.2992 -0.0545 -0.0411
  293MPD2    C1 4414   4.138   4.056  12.462 -0.3043  0.3960 -0.2946
  293MPD2    C2 4415   4.166   4.079  12.597 -0.7326  0.3338  0.8955
  293MPD2    C3 4416   4.201   4.201  12.644 -0.3733  0.4073 -0.8808
  293MPD2    C4 4417   4.220   4.305  12.555  0.3152 -0.3099 -0.4333
  293MPD2    C5 4418   4.188   4.280  12.422  0.4194 -0.2559  0.3640
  293MPD2     H 4419   4.146   4.000  12.668  0.1157  0.8066  1.6513
  293MPD2    H1 4420   4.258   4.403  12.584  2.2569 -1.3308  0.4260
  293MPD2    H2 4421   4.124   4.158  12.273  2.1980  0.7439 -0.7206
  293MPD2    H3 4422   4.211   4.363  12.356 -1.6780 -0.7227 -0.9595
  293MPD2     N 4423   4.227   4.217  12.778  0.2217 -0.2266  0.3120
  293MPD2    H5 4424   4.241   4.130  12.829  1.4483 -0.1305  0.1390
  293MPD2    N1 4425   4.082   3.932  12.412 -0.0719  0.2734  0.1816
  293MPD2    H7 4426   4.063   3.931  12.313 -1.6926 -1.3824  0.5204
  294TMC3    C1 4427   3.950   3.734  12.412  0.4622 -0.8659  0.2509
  294TMC3    C2 4428   3.828   3.711  12.467 -1.1878  0.4353  0.4166
  294TMC3    C3 4429   3.718   3.725  12.390  0.6692  0.2287  0.3065
  294TMC3    C4 4430   3.956   3.747  12.280  0.1207 -1.2006 -0.2850
  294TMC3    C5 4431   3.853   3.736  12.202  0.1311 -0.6376 -0.1686
  294TMC3    C6 4432   3.727   3.735  12.251  0.0863  0.0810  0.2573
  294TMC3     C 4433   4.023   3.836  12.487  0.3884  0.5414 -0.1820
  294TMC3     O 4434   4.018   3.837  12.608  0.1138  0.0956 -0.1376
  294TMC3     H 4435   3.815   3.708  12.575  0.8746  0.7378  0.6690
  294TMC3    H1 4436   4.051   3.773  12.233 -0.1135 -1.0310 -0.6641
  294TMC3    H2 4437   3.640   3.773  12.199  1.7271  1.0701 -1.7561
  294TMC3    C7 4438   3.861   3.821  12.090  0.7449  0.6999  0.3091
  294TMC3    C8 4439   3.591   3.695  12.446 -0.0195 -0.4124 -0.0900
  294TMC3    O1 4440   3.795   3.925  12.089  0.3341 -0.3856  0.9762
  294TMC3    O2 4441   3.568   3.738  12.554  0.2437 -0.0304  0.1121
  295MPD2     C 4442   4.424   2.183   0.331  0.3618 -0.2160  0.0191
  295MPD2    C1 4443   4.456   2.311   0.371  0.1809  1.2408 -0.5364
  295MPD2    C2 4444   4.386   2.371   0.475 -0.0613 -0.3657 -0.3795
  295MPD2    C3 4445   4.305   2.286   0.551  0.1202  0.4756 -0.6513
  295MPD2    C4 4446   4.275   2.159   0.505  0.2558  0.2418 -0.0289
  295MPD2    C5 4447   4.339   2.104   0.399  0.3261  0.2392  0.8354
  295MPD2     H 4448   4.406   2.469   0.516  0.6570 -0.6309 -0.0750
  295MPD2    H1 4449   4.199   2.100   0.555 -1.6190  2.8333  0.1882
  295MPD2    H2 4450   4.461   2.143   0.237 -1.2124 -0.3584 -0.5402
  295MPD2    H3 4451   4.316   2.003   0.365  1.2379 -0.1468  1.3573
  295MPD2     N 4452   4.239   2.326   0.671  0.6708 -0.7254  0.0228
  295MPD2    H5 4453   4.167   2.264   0.707 -0.1165  0.4069  0.3922
  295MPD2    N1 4454   4.552   2.394   0.306 -0.2196 -0.1928  0.6432
  295MPD2    H7 4455   4.553   2.487   0.347 -0.3021 -0.1653  0.5825
  296TMC3    C1 4456   4.128   2.487   0.795  0.4160  0.8541  0.6253
  296TMC3    C2 4457   4.075   2.616   0.783  0.3706  0.2923  0.3845
  296TMC3    C3 4458   3.956   2.638   0.848  0.1619  0.3048  0.1411
  296TMC3    C4 4459   4.091   2.393   0.891 -0.3827  0.2184  0.6170
  296TMC3    C5 4460   3.972   2.421   0.956  0.1996 -0.8883  0.0185
  296TMC3    C6 4461   3.904   2.534   0.925  0.1998  0.1931  0.6022
  296TMC3     C 4462   4.237   2.453   0.711 -0.5152 -0.5139 -0.5415
  296TMC3     O 4463   4.300   2.552   0.682 -0.1362  0.3129 -0.1343
  296TMC3     H 4464   4.114   2.688   0.712  0.0668  1.8498  1.7880
  296TMC3    H1 4465   4.131   2.292   0.898  1.9037  1.0492 -0.3884
  296TMC3    H2 4466   3.813   2.569   0.973  0.8896  1.6366  0.8733
  296TMC3    C7 4467   3.897   2.325   1.031 -0.0002  0.1299  0.4225
  296TMC3    C8 4468   3.879   2.761   0.846 -0.3070 -0.2854  1.3467
  296TMC3    O1 4469   3.776   2.345   1.043  0.0272  0.5089 -0.0283
  296TMC3    O2 4470   3.764   2.764   0.806  0.0522 -0.0070  0.6177
  297MPD2     C 4471   2.267   0.025  16.071 -0.9963 -0.0413 -0.8499
  297MPD2    C1 4472   2.263   0.137  15.992  0.4520  0.0283  0.0681
  297MPD2    C2 4473   2.363   0.230  15.990  0.1312 -0.4438 -0.0658
  297MPD2    C3 4474   2.473   0.214  16.071 -1.1783  0.1598  0.0461
  297MPD2    C4 4475   2.472   0.097  16.144 -0.2002  0.1937 -0.0055
  297MPD2    C5 4476   2.371   0.002  16.146  0.6539  0.3443 -0.4780
  297MPD2     H 4477   2.363   0.316  15.923 -1.4584 -0.4163 -0.0370
  297MPD2    H1 4478   2.560   0.082  16.205 -1.0464  2.4246  1.7715
  297MPD2    H2 4479   2.199   4.660  16.071 -0.6470 -0.3167 -0.0140
  297MPD2    H3 4480   2.387   4.639  16.215 -1.1255  0.1433 -0.3127
  297MPD2     N 4481   2.585   0.302  16.059  0.4596 -0.1925 -0.0196
  297MPD2    H5 4482   2.566   0.390  16.013 -3.5950 -0.1540  1.6972
  297MPD2    N1 4483   2.160   0.171  15.901 -0.4199  0.2237  0.2460
  297MPD2    H7 4484   2.167   0.260  15.852 -0.4675  0.3670  0.4964
  298TMC3    C1 4485   1.958   0.139  15.774  0.0031 -0.0481  0.8170
  298TMC3    C2 4486   2.009   0.220  15.676 -0.2116  0.1747  0.4579
  298TMC3    C3 4487   1.921   0.254  15.577  0.5118 -0.1265  0.4625
  298TMC3    C4 4488   1.831   0.087  15.771 -0.0377  0.2127 -0.6215
  298TMC3    C5 4489   1.734   0.135  15.689 -0.3036  0.5462 -0.3952
  298TMC3    C6 4490   1.781   0.222  15.588  0.0040 -0.4289  0.1567
  298TMC3     C 4491   2.043   0.100  15.882 -0.7333 -0.4678 -0.1941
  298TMC3     O 4492   2.005   0.002  15.951 -0.5623 -0.3588 -0.6638
  298TMC3     H 4493   2.106   0.266  15.688 -0.3588  0.4855  0.4494
  298TMC3    H1 4494   1.798   0.036  15.861 -0.7952  1.3774 -0.2397
  298TMC3    H2 4495   1.715   0.261  15.512 -1.1586  0.5363  1.6757
  298TMC3    C7 4496   1.616   0.171  15.759 -0.4859  0.0863 -0.2172
  298TMC3    C8 4497   1.958   0.335  15.461  0.0445 -0.0785  0.4602
  298TMC3    O1 4498   1.619   0.170  15.880 -0.1237 -0.5264 -0.1807
  298TMC3    O2 4499   1.870   0.390  15.392  0.2367  0.0373  0.2257
  299MPD2     C 4500   2.923   0.539   9.961 -0.3607 -0.2298  0.5164
  299MPD2    C1 4501   2.881   0.410   9.997 -0.0808 -0.4504 -0.0520
  299MPD2    C2 4502   2.782   0.347   9.918  0.3570 -0.4125 -0.0341
  299MPD2    C3 4503   2.710   0.424   9.827 -0.7659  0.3187 -0.1048
  299MPD2    C4 4504   2.743   0.557   9.807  0.0261  0.3252  0.7914
  299MPD2    C5 4505   2.860   0.613   9.863 -0.2650 -0.1911 -0.4914
  299MPD2     H 4506   2.747   0.247   9.937 -1.5926  0.8288  2.7890
  299MPD2    H1 4507   2.684   0.617   9.738  2.5135  1.6515 -0.1756
  299MPD2    H2 4508   3.017   0.577  10.001  0.0106 -0.8803  0.2642
  299MPD2    H3 4509   2.895   0.714   9.846  2.0498 -1.0364 -0.8085
  299MPD2     N 4510   2.589   0.378   9.766  0.1225  0.5916 -0.2439
  299MPD2    H5 4511   2.534   0.448   9.718  0.6189  0.5605 -0.8654
  299MPD2    N1 4512   2.953   0.355  10.106 -0.0759  0.0455  0.2328
  299MPD2    H7 4513   3.018   0.415  10.155 -3.5151  2.1001  2.2844
  300TMC3    C1 4514   2.394   0.253   9.755  0.9399  0.2580 -0.0531
  300TMC3    C2 4515   2.332   0.362   9.826 -0.7143 -0.0770 -0.8145
  300TMC3    C3 4516   2.204   0.347   9.876  0.4064 -0.5000 -0.3254
  300TMC3    C4 4517   2.336   0.130   9.749 -0.0625  0.5394  0.1832
  300TMC3    C5 4518   2.207   0.112   9.799  0.8784  0.7077 -0.3093
  300TMC3    C6 4519   2.138   0.221   9.857 -0.4212  0.4127 -0.3486
  300TMC3     C 4520   2.540   0.250   9.769 -0.1417  0.1444 -0.4958
  300TMC3     O 4521   2.589   0.138   9.790 -0.1500 -0.0372  0.2652
  300TMC3     H 4522   2.376   0.460   9.842 -0.4026 -0.6087  1.5936
  300TMC3    H1 4523   2.390   0.048   9.702 -1.0964 -0.6765  1.1163
  300TMC3    H2 4524   2.033   0.210   9.883 -0.5725 -2.8810 -2.2841
  300TMC3    C7 4525   2.166   4.693   9.828 -0.0210  0.4658 -0.2085
  300TMC3    C8 4526   2.172   0.421   9.988 -0.1499 -0.0931  0.2945
  300TMC3    O1 4527   2.214   4.604   9.760 -0.3526 -0.1028 -0.3267
  300TMC3    O2 4528   2.259   0.485  10.032  0.0755 -0.8487  0.3767
  301MPD2     C 4529   0.362   0.765   1.450 -0.1241 -0.1168 -0.6484
  301MPD2    C1 4530   0.287   0.750   1.336 -0.6260  0.4317  0.1400
  301MPD2    C2 4531   0.347   0.696   1.228 -0.1427  0.7968  0.8365
  301MPD2    C3 4532   0.477   0.647   1.238  0.0696  0.0231 -0.4482
  301MPD2    C4 4533   0.557   0.677   1.347 -0.5933  0.2341  0.1778
  301MPD2    C5 4534   0.498   0.738   1.451 -0.6206 -0.2857 -0.2998
  301MPD2     H 4535   0.293   0.691   1.134 -0.9715 -0.9493  1.4019
  301MPD2    H1 4536   0.663   0.658   1.347 -0.7444 -0.5639  1.4775
  301MPD2    H2 4537   0.315   0.821   1.530 -0.9966 -1.2761 -0.3568
  301MPD2    H3 4538   0.558   0.769   1.535 -0.5026  1.7655 -1.1499
  301MPD2     N 4539   0.535   0.582   1.128  0.4421 -0.0581  0.0309
  301MPD2    H5 4540   0.636   0.573   1.136  0.1659  0.6100  4.0802
  301MPD2    N1 4541   0.153   0.795   1.319 -0.4239  0.3075 -0.2576
  301MPD2    H7 4542   0.108   0.773   1.231 -1.2869 -0.3088  0.3409
  302TMC3    C1 4543   0.557   0.467   0.926  0.2510 -0.0827 -0.0456
  302TMC3    C2 4544   0.675   0.410   0.954 -0.5737 -0.2223 -0.0344
  302TMC3    C3 4545   0.742   0.353   0.851 -0.7249 -0.3535  0.1156
  302TMC3    C4 4546   0.508   0.475   0.796  0.3753 -0.5043  0.0996
  302TMC3    C5 4547   0.584   0.408   0.700  0.9512  0.5531  0.1753
  302TMC3    C6 4548   0.706   0.357   0.722 -0.1618  0.3264  1.0243
  302TMC3     C 4549   0.467   0.519   1.025 -0.5584  0.0412 -0.1394
  302TMC3     O 4550   0.348   0.515   0.999  0.2182  0.7695  0.2672
  302TMC3     H 4551   0.718   0.425   1.052 -0.0561 -1.3333 -0.0928
  302TMC3    H1 4552   0.407   0.512   0.785  0.5038 -0.5623 -1.2959
  302TMC3    H2 4553   0.766   0.320   0.640 -1.9026 -3.3755  1.4268
  302TMC3    C7 4554   0.528   0.411   0.567  0.0637 -0.4259  0.7684
  302TMC3    C8 4555   0.832   0.248   0.885 -0.1819  0.4901 -0.2272
  302TMC3    O1 4556   0.610   0.422   0.477 -0.3550 -0.3923  0.5063
  302TMC3    O2 4557   0.901   0.206   0.792 -0.3580 -0.1743  0.0402
  303MPD2     C 4558   0.170   4.629  10.141  0.2174  0.3867 -0.3636
  303MPD2    C1 4559   0.075   4.569  10.065 -0.3062 -0.0900  0.2681
  303MPD2    C2 4560   0.111   4.495   9.948 -0.5370 -0.7875  0.4895
  303MPD2    C3 4561   0.246   4.484   9.917  0.2176  0.1003  0.5550
  303MPD2    C4 4562   0.337   4.549   9.998  0.2734  0.7329 -0.0596
  303MPD2    C5 4563   0.300   4.615  10.109 -0.8849 -0.2052 -0.2299
  303MPD2     H 4564   0.039   4.466   9.872 -0.0027 -0.6322 -0.0797
  303MPD2    H1 4565   0.443   4.536   9.979  0.7534  2.6439  1.3996
  303MPD2    H2 4566   0.137   4.674  10.234  0.8587  0.0308  0.0446
  303MPD2    H3 4567   0.381   4.650  10.171 -0.8187  0.2629 -0.5851
  303MPD2     N 4568   0.295   4.409   9.805  0.4987  0.5849 -0.0919
  303MPD2    H5 4569   0.393   4.427   9.788  0.7572  0.5899  1.3945
  303MPD2    N1 4570   4.662   4.573  10.117  0.0818  0.3067  0.6859
  303MPD2    H7 4571   4.646   4.622  10.204 -0.7571  1.2680 -0.0080
  304TMC3    C1 4572   4.427   4.528  10.128  0.3531  0.2455  0.1475
  304TMC3    C2 4573   4.349   4.613  10.063 -0.2742 -0.3738 -0.2982
  304TMC3    C3 4574   4.221   4.580  10.031 -0.0453  0.4376 -0.1864
  304TMC3    C4 4575   4.370   4.405  10.165  0.2831  0.2750 -0.7220
  304TMC3    C5 4576   4.234   4.382  10.168  0.2384 -0.5851 -0.2201
  304TMC3    C6 4577   4.157   4.477  10.102 -0.1913  0.2877  0.2796
  304TMC3     C 4578   4.553   4.510  10.056  0.4207  0.3209 -0.1437
  304TMC3     O 4579   4.535   4.436   9.959  0.0745  0.5164  0.4750
  304TMC3     H 4580   4.396   4.676   9.988  0.3191 -0.1383  0.2634
  304TMC3    H1 4581   4.436   4.334  10.214  1.6734  0.7259 -1.9454
  304TMC3    H2 4582   4.049   4.463  10.098 -0.1660  0.4600 -1.3689
  304TMC3    C7 4583   4.203   4.245  10.132 -0.6000 -0.5563  0.3933
  304TMC3    C8 4584   4.185   4.585   9.894  0.4210  0.3391  0.3599
  304TMC3    O1 4585   4.117   4.239  10.047  0.7097 -0.3595  0.0861
  304TMC3    O2 4586   4.229   4.668   9.815 -0.2661 -0.0898  0.0417
  305MPD2     C 4587   2.708   0.785  13.981  0.2396 -0.0923  0.4208
  305MPD2    C1 4588   2.745   0.912  13.957  0.2919  0.3957  0.4444
  305MPD2    C2 4589   2.711   0.975  13.837 -0.7226  0.6209 -0.4288
  305MPD2    C3 4590   2.637   0.902  13.744  0.0475 -0.2090  0.1628
  305MPD2    C4 4591   2.602   0.776  13.771 -0.8476  0.2078  0.9187
  305MPD2    C5 4592   2.634   0.722  13.894  0.6278  0.2139  0.7275
  305MPD2     H 4593   2.741   1.077  13.814  0.3460  0.2069 -0.8691
  305MPD2    H1 4594   2.555   0.714  13.696 -0.5990 -0.1005  1.0199
  305MPD2    H2 4595   2.752   0.728  14.063  2.3447 -1.7714 -1.8302
  305MPD2    H3 4596   2.601   0.621  13.917  2.3950 -0.9624 -1.9198
  305MPD2     N 4597   2.596   0.944  13.617 -0.2642  0.8503  0.4322
  305MPD2    H5 4598   2.553   0.868  13.564  0.5610  2.1018 -2.0296
  305MPD2    N1 4599   2.811   0.986  14.061 -0.4400 -0.5636  0.4820
  305MPD2    H7 4600   2.857   0.940  14.139 -1.9008  1.6372  2.6316
  306TMC3    C1 4601   2.901   1.187  14.167 -0.0446  0.1777 -0.0952
  306TMC3    C2 4602   2.965   1.108  14.268 -0.4930 -0.5573  0.1933
  306TMC3    C3 4603   3.030   1.175  14.373  0.2678  0.0726  0.2826
  306TMC3    C4 4604   2.899   1.328  14.184 -0.8345  0.4335  0.0551
  306TMC3    C5 4605   2.977   1.386  14.288 -0.8486 -0.3931 -0.2745
  306TMC3    C6 4606   3.047   1.306  14.376  0.2660  0.3799 -0.0753
  306TMC3     C 4607   2.819   1.124  14.063  0.1191  0.4143 -0.2449
  306TMC3     O 4608   2.751   1.202  13.999  0.3466  0.1013 -0.3204
  306TMC3     H 4609   2.970   1.000  14.262 -0.1356 -0.4734 -1.0319
  306TMC3    H1 4610   2.842   1.391  14.118 -0.0761 -0.3120 -1.3242
  306TMC3    H2 4611   3.091   1.359  14.459  0.3543  0.4935 -0.1941
  306TMC3    C7 4612   2.969   1.532  14.309 -0.0128  0.3225  0.2793
  306TMC3    C8 4613   3.124   1.104  14.458  0.0024  0.2061 -0.5366
  306TMC3    O1 4614   2.865   1.583  14.275  0.2039  0.4791  0.2349
  306TMC3    O2 4615   3.171   0.993  14.431 -0.1375 -0.3031  0.3120
  307MPD2     C 4616   0.377   2.860   0.982 -0.1177  0.6032 -0.0576
  307MPD2    C1 4617   0.402   2.993   0.957 -0.3866  0.3002 -0.2613
  307MPD2    C2 4618   0.303   3.083   0.976 -0.1511 -0.3671 -0.0016
  307MPD2    C3 4619   0.181   3.047   1.025  0.1316  0.5472  0.3892
  307MPD2    C4 4620   0.159   2.914   1.059 -0.1654 -0.1345 -0.3102
  307MPD2    C5 4621   0.259   2.822   1.035 -0.1065  0.5272 -0.2031
  307MPD2     H 4622   0.328   3.187   0.955 -0.9300  0.3243  2.5240
  307MPD2    H1 4623   0.062   2.873   1.084 -0.0987  1.0947  1.9510
  307MPD2    H2 4624   0.452   2.784   0.967 -0.6586  0.2201 -0.8201
  307MPD2    H3 4625   0.238   2.718   1.058  1.8065  0.2105  0.1599
  307MPD2     N 4626   0.091   3.154   1.025  0.6667  0.7665 -0.0159
  307MPD2    H5 4627   0.138   3.241   1.002  2.4466 -0.2159 -0.0753
  307MPD2    N1 4628   0.521   3.040   0.887 -0.2826  0.4830  0.4154
  307MPD2    H7 4629   0.526   3.140   0.872  0.3990  0.1925 -1.2421
  308TMC3    C1 4630   4.515   3.423   0.897  0.4281  0.4894  0.7951
  308TMC3    C2 4631   4.591   3.527   0.932 -0.0484  0.2864 -0.0362
  308TMC3    C3 4632   4.688   3.503   1.030 -0.5146 -0.3272  0.1543
  308TMC3    C4 4633   4.528   3.303   0.956  0.2649  0.0769  0.0253
  308TMC3    C5 4634   4.627   3.286   1.046 -0.0991  0.1502  0.1626
  308TMC3    C6 4635   4.710   3.380   1.090  0.0743 -0.1758  0.4236
  308TMC3     C 4636   4.403   3.426   0.802  0.1578 -0.4955  0.6836
  308TMC3     O 4637   4.309   3.346   0.806 -0.5022 -0.2246  0.0613
  308TMC3     H 4638   4.567   3.630   0.908  2.3043  0.2243 -2.7315
  308TMC3    H1 4639   4.450   3.229   0.937  0.9052 -0.4383 -0.5941
  308TMC3    H2 4640   0.068   3.371   1.165  0.2376  1.2412  0.4322
  308TMC3    C7 4641   4.679   3.151   1.058 -0.2780  0.3392 -0.4423
  308TMC3    C8 4642   0.034   3.615   1.097 -0.4860 -0.1221 -0.3423
  308TMC3    O1 4643   4.602   3.057   1.080 -0.0548 -0.0534 -0.3505
  308TMC3    O2 4644   0.082   3.595   1.208  0.2905  0.3722  0.3320
  309MPD2     C 4645   0.031   4.117  16.793  0.2918  0.2910 -0.6032
  309MPD2    C1 4646   0.010   4.223  16.715  0.0144  0.1306  0.1372
  309MPD2    C2 4647   4.619   4.305  16.744  0.3890  0.7163 -0.9040
  309MPD2    C3 4648   4.541   4.280  16.859 -0.4458 -0.0354 -0.2389
  309MPD2    C4 4649   4.568   4.176  16.943  1.1623  0.1671  0.0207
  309MPD2    C5 4650   4.672   4.095  16.906 -0.7523  0.0430  0.6057
  309MPD2     H 4651   4.594   4.388  16.679  1.2744  0.6721 -1.2902
  309MPD2    H1 4652   4.511   4.157  17.033  0.2780 -0.8763 -0.7476
  309MPD2    H2 4653   0.107   4.041  16.780 -1.7524 -1.9452  0.4788
  309MPD2    H3 4654   4.698   4.001  16.954 -0.1031 -1.1010 -1.9333
  309MPD2     N 4655   4.430   4.362  16.889  0.3626 -0.4515  0.3995
  309MPD2    H5 4656   4.377   4.332  16.970 -0.1670  1.0321  0.6178
  309MPD2    N1 4657   0.082   4.250  16.595 -1.0402  0.5680  0.4450
  309MPD2    H7 4658   0.060   4.332  16.540  0.9639  0.6818 -0.1631
  310TMC3    C1 4659   0.270   4.240  16.436  0.5502 -0.1731  0.9900
  310TMC3    C2 4660   0.235   4.352  16.366  0.1420  0.0395 -0.3040
  310TMC3    C3 4661   0.339   4.433  16.312 -0.1833 -0.2002 -0.2701
  310TMC3    C4 4662   0.407   4.194  16.428  0.8231 -0.5063 -0.6139
  310TMC3    C5 4663   0.503   4.276  16.373  0.0167  0.3415 -0.4909
  310TMC3    C6 4664   0.471   4.400  16.322 -0.2749  0.6103  0.1639
  310TMC3     C 4665   0.180   4.173  16.537  0.5480 -0.9162 -0.4440
  310TMC3     O 4666   0.217   4.062  16.568  0.0475  0.1445  0.1796
  310TMC3     H 4667   0.131   4.376  16.347 -0.4201 -1.4790  0.8149
  310TMC3    H1 4668   0.431   4.096  16.467  3.1328  0.3805  0.1576
  310TMC3    H2 4669   0.550   4.469  16.295 -1.0102  1.6746  0.7501
  310TMC3    C7 4670   0.642   4.228  16.388  0.3934 -0.1272 -0.2799
  310TMC3    C8 4671   0.296   4.512  16.203  0.3278  1.0662  0.2534
  310TMC3    O1 4672   0.655   4.155  16.486 -0.7126 -0.1065 -0.2107
  310TMC3    O2 4673   0.182   4.497  16.169 -0.1343  0.3599 -0.0056
  311MPD2     C 4674   1.704   0.930  12.845 -0.5576 -0.8254 -0.0110
  311MPD2    C1 4675   1.700   1.046  12.775  0.3584 -0.2036  0.0576
  311MPD2    C2 4676   1.581   1.119  12.766  1.0704 -0.5525  0.2569
  311MPD2    C3 4677   1.469   1.083  12.830 -0.3993  0.3096  0.0981
  311MPD2    C4 4678   1.471   0.965  12.903  0.2242 -0.2624 -0.0372
  311MPD2    C5 4679   1.582   0.895  12.910  0.1401 -0.5861  0.2850
  311MPD2     H 4680   1.589   1.211  12.710 -0.5347 -1.1806 -1.0113
  311MPD2    H1 4681   1.388   0.931  12.965 -0.1233 -0.0523 -0.3880
  311MPD2    H2 4682   1.792   0.869  12.860  0.7525  0.8894 -0.7420
  311MPD2    H3 4683   1.569   0.805  12.969  2.6264 -0.1949  1.4006
  311MPD2     N 4684   1.356   1.163  12.820  0.1860  0.4158 -0.2358
  311MPD2    H5 4685   1.376   1.244  12.762  0.1088  1.8081  1.6745
  311MPD2    N1 4686   1.810   1.114  12.715  0.0935  0.2670  0.1277
  311MPD2    H7 4687   1.792   1.198  12.663  0.1020  0.3060  0.1877
  312TMC3    C1 4688   1.150   1.260  12.862 -0.1313 -0.3904  0.9361
  312TMC3    C2 4689   1.026   1.233  12.811 -0.1166  0.1001 -0.0717
  312TMC3    C3 4690   0.971   1.340  12.741 -0.1066 -0.1537 -0.7844
  312TMC3    C4 4691   1.199   1.391  12.881 -0.1693 -0.3648 -0.0795
  312TMC3    C5 4692   1.122   1.489  12.828 -0.5647 -0.4744 -0.6011
  312TMC3    C6 4693   1.017   1.469  12.750 -0.0816  0.1623  0.2281
  312TMC3     C 4694   1.234   1.148  12.876  0.1144  0.0105  0.1388
  312TMC3     O 4695   1.185   1.056  12.940 -0.7073 -0.5581  0.2452
  312TMC3     H 4696   0.990   1.130  12.804  1.8205 -0.6246  0.6140
  312TMC3    H1 4697   1.284   1.411  12.944 -0.8451  1.9682  0.0890
  312TMC3    H2 4698   0.953   1.556  12.752  0.5740  0.6637 -0.9597
  312TMC3    C7 4699   1.163   1.628  12.834  0.1782 -0.0204  0.1251
  312TMC3    C8 4700   0.856   1.306  12.657  0.4164  0.4568 -0.7707
  312TMC3    O1 4701   1.121   1.701  12.744 -0.3954  0.4310  0.1355
  312TMC3    O2 4702   0.828   1.186  12.653 -0.2682 -0.2015 -0.4069
  313MPD2     C 4703   1.807   0.349  10.646  0.4601  0.0719 -0.0269
  313MPD2    C1 4704   1.668   0.358  10.607 -0.3026  0.0204  0.4022
  313MPD2    C2 4705   1.636   0.298  10.491  0.2685  0.3100 -0.7163
  313MPD2    C3 4706   1.726   0.242  10.401  0.5175 -0.0943 -0.6553
  313MPD2    C4 4707   1.859   0.234  10.438  0.6540 -0.5164  0.3734
  313MPD2    C5 4708   1.893   0.282  10.562  0.1320  0.4031  0.1084
  313MPD2     H 4709   1.531   0.306  10.465  0.3501  0.1389 -1.0994
  313MPD2    H1 4710   1.937   0.194  10.375  0.1771 -0.4416 -0.2627
  313MPD2    H2 4711   1.860   0.402  10.724  1.4067 -0.8578 -0.0354
  313MPD2    H3 4712   1.997   0.275  10.588 -0.4705 -0.9981  2.0956
  313MPD2     N 4713   1.668   0.185  10.286  0.1641 -0.0298  0.1586
  313MPD2    H5 4714   1.567   0.172  10.292  0.0905  0.2798 -0.4221
  313MPD2    N1 4715   1.569   0.436  10.674 -0.3803 -0.4934  0.0204
  313MPD2    H7 4716   1.471   0.436  10.646  0.0381  0.7702 -1.4388
  314TMC3    C1 4717   1.481   0.589  10.822  0.7197 -0.0724 -1.1546
  314TMC3    C2 4718   1.470   0.633  10.946  0.3999 -0.0935  0.4192
  314TMC3    C3 4719   1.371   0.714  10.981 -0.7310  0.9968  0.7425
  314TMC3    C4 4720   1.397   0.619  10.721  0.3373  0.8680 -0.0209
  314TMC3    C5 4721   1.288   0.695  10.757 -0.2115  0.3042 -0.1303
  314TMC3    C6 4722   1.281   0.744  10.888 -0.3274 -0.0402  0.3027
  314TMC3     C 4723   1.592   0.509  10.791 -0.8102  0.0463  0.1170
  314TMC3     O 4724   1.692   0.512  10.861 -0.4472 -0.2432  0.4960
  314TMC3     H 4725   1.550   0.602  11.012  0.3185  0.3024  0.7061
  314TMC3    H1 4726   1.415   0.584  10.619 -0.9024 -0.4365  0.1997
  314TMC3    H2 4727   1.206   0.814  10.921  1.0094  1.6931 -0.3171
  314TMC3    C7 4728   1.205   0.765  10.655 -0.1511 -0.3823  0.2050
  314TMC3    C8 4729   1.406   0.826  11.069  0.1236 -0.2212 -0.5255
  314TMC3    O1 4730   1.092   0.802  10.689  0.2710 -0.1329 -0.0646
  314TMC3    O2 4731   1.524   0.859  11.063  0.3074 -0.3197  0.1681
  315MPD2     C 4732   0.993   4.077   0.076  0.8928  0.1817 -0.9672
  315MPD2    C1 4733   1.115   4.099   0.017 -0.2350 -0.1149  0.0778
  315MPD2    C2 4734   1.131   4.184  17.590  0.0294  0.3463  0.2806
  315MPD2    C3 4735   1.020   4.245  17.532 -0.4399 -0.0774  0.0670
  315MPD2    C4 4736   0.895   4.214  17.577  0.0812  0.2830  0.3310
  315MPD2    C5 4737   0.889   4.130   0.007  0.2968 -0.3111  0.1840
  315MPD2     H 4738   1.230   4.213  17.558  0.6574 -1.3050  0.7357
  315MPD2    H1 4739   0.801   4.242  17.532 -1.2385 -0.5621  2.5431
  315MPD2    H2 4740   0.979   4.020   0.167 -1.6934  3.5980  0.7435
  315MPD2    H3 4741   0.795   4.096   0.048 -0.7952  0.4048 -1.7245
  315MPD2     N 4742   1.043   4.334  17.425 -0.1169  1.0436 -0.3422
  315MPD2    H5 4743   1.139   4.354  17.396 -0.2168  1.0912 -0.6348
  315MPD2    N1 4744   1.241   4.062   0.080  0.2246 -0.2043  0.0360
  315MPD2    H7 4745   1.317   4.120   0.046 -1.4413  0.9340 -1.7261
  316TMC3    C1 4746   1.005   4.496  17.264  0.1046 -1.2778  0.4758
  316TMC3    C2 4747   1.097   4.583  17.308  0.8292 -0.1029 -0.3194
  316TMC3    C3 4748   1.128   4.690  17.232 -0.1825 -0.6534  0.7561
  316TMC3    C4 4749   0.932   4.529  17.153 -0.0751  0.3711 -0.4120
  316TMC3    C5 4750   0.972   4.630  17.069  0.0370 -0.6834  0.4273
  316TMC3    C6 4751   1.072   4.713  17.107 -0.2270 -0.3101  0.1588
  316TMC3     C 4752   0.948   4.400  17.353 -0.4758 -0.0024 -0.0967
  316TMC3     O 4753   0.824   4.384  17.352  0.4510  0.2229 -0.0766
  316TMC3     H 4754   1.131   4.578  17.411  0.9834  0.3264 -0.3490
  316TMC3    H1 4755   0.848   4.464  17.133  0.4800 -0.7854  0.9937
  316TMC3    H2 4756   1.101   0.079  17.048  2.8931 -2.3019 -1.2351
  316TMC3    C7 4757   0.875   4.672  16.970  0.3045 -0.4709 -0.2618
  316TMC3    C8 4758   1.136   0.094  17.303 -0.6258 -0.6066 -0.3451
  316TMC3    O1 4759   0.768   4.609  16.966  0.8214 -0.7450  0.0204
  316TMC3    O2 4760   1.074   0.189  17.258 -0.6847 -0.0080  0.4467
  317MPD2     C 4761   3.156   3.513  13.121 -0.4505  1.2413  0.6530
  317MPD2    C1 4762   3.084   3.399  13.094  0.2771 -0.5277 -0.2046
  317MPD2    C2 4763   3.116   3.288  13.167  0.4244  0.5067 -0.5378
  317MPD2    C3 4764   3.208   3.289  13.269 -0.2121 -1.1129  0.2219
  317MPD2    C4 4765   3.276   3.407  13.301 -0.1712 -0.5714 -0.0034
  317MPD2    C5 4766   3.247   3.517  13.222 -0.4948  0.0977  0.6535
  317MPD2     H 4767   3.066   3.195  13.141 -1.1030  1.0986  0.3493
  317MPD2    H1 4768   3.355   3.402  13.376  1.2977  0.7657 -1.4645
  317MPD2    H2 4769   3.148   3.609  13.071 -2.7625 -0.0399 -1.4628
  317MPD2    H3 4770   3.302   3.607  13.246  0.0327  0.3902 -1.6891
  317MPD2     N 4771   3.223   3.168  13.345  0.7715 -0.6937 -0.2652
  317MPD2    H5 4772   3.156   3.097  13.320  0.0648 -1.0720  2.6460
  317MPD2    N1 4773   2.995   3.391  12.990 -0.1019 -0.0949  0.3164
  317MPD2    H7 4774   2.956   3.299  12.967  0.2822 -0.2778  0.3996
  318TMC3    C1 4775   3.340   3.001  13.443 -0.6318  0.1529  0.1683
  318TMC3    C2 4776   3.220   2.948  13.466  0.1765  0.1892 -0.1889
  318TMC3    C3 4777   3.201   2.815  13.430 -0.6266 -0.0783 -0.2152
  318TMC3    C4 4778   3.446   2.929  13.385  0.2244 -0.1236 -0.8957
  318TMC3    C5 4779   3.421   2.797  13.350 -0.1333 -0.1759 -0.6059
  318TMC3    C6 4780   3.300   2.736  13.379  0.3558 -0.3199 -0.1724
  318TMC3     C 4781   3.342   3.133  13.401 -0.7476  0.5671 -0.1025
  318TMC3     O 4782   3.450   3.186  13.388  0.6593  0.0801 -0.6880
  318TMC3     H 4783   3.139   3.007  13.507 -0.3661 -0.6247 -0.0728
  318TMC3    H1 4784   3.538   2.984  13.376 -0.2956  0.8426 -0.3394
  318TMC3    H2 4785   3.283   2.630  13.361 -1.7521 -0.0848  0.4447
  318TMC3    C7 4786   3.501   2.753  13.235  0.5335 -1.0139 -0.0961
  318TMC3    C8 4787   3.084   2.747  13.480  0.4614  0.4465 -0.0739
  318TMC3    O1 4788   3.436   2.725  13.132  0.3993  0.2095  0.0921
  318TMC3    O2 4789   3.017   2.817  13.554  0.6886 -0.2907 -0.1041
  319MPD2     C 4790   3.954   4.043  16.445 -0.7622  0.2635  0.0953
  319MPD2    C1 4791   3.859   3.949  16.464 -0.3198  0.6560 -0.0932
  319MPD2    C2 4792   3.772   3.908  16.370 -0.0921  0.6459  0.3792
  319MPD2    C3 4793   3.787   3.957  16.241  0.0652 -0.6106  0.2864
  319MPD2    C4 4794   3.878   4.053  16.223 -0.8522 -0.3818 -0.3644
  319MPD2    C5 4795   3.956   4.107  16.321  0.5836  0.0040 -0.0583
  319MPD2     H 4796   3.690   3.843  16.401 -0.2009 -0.3069 -1.8491
  319MPD2    H1 4797   3.881   4.093  16.122  1.2391  2.2404  0.7535
  319MPD2    H2 4798   4.034   4.062  16.517 -2.7540  0.8520  2.1416
  319MPD2    H3 4799   4.020   4.194  16.308 -1.0379  1.1815 -0.1323
  319MPD2     N 4800   3.708   3.912  16.134  0.0974  0.4354 -0.1721
  319MPD2    H5 4801   3.738   3.953  16.046 -3.2908  1.1333 -0.9922
  319MPD2    N1 4802   3.827   3.898  16.594 -0.2811  0.3030  0.2176
  319MPD2    H7 4803   3.743   3.844  16.610 -1.3002  1.8217 -0.0802
  320TMC3    C1 4804   3.559   3.803  16.001 -0.8596  0.2639  0.0620
  320TMC3    C2 4805   3.559   3.913  15.918  0.9687  0.6616 -0.4941
  320TMC3    C3 4806   3.605   3.902  15.790  0.3694  0.1431  1.2183
  320TMC3    C4 4807   3.616   3.686  15.957 -0.3350  0.4664  0.2490
  320TMC3    C5 4808   3.652   3.679  15.826  0.4325  0.5320  0.1543
  320TMC3    C6 4809   3.649   3.786  15.740 -0.5071  0.3599 -0.1553
  320TMC3     C 4810   3.603   3.822  16.137  0.4910  0.2662  1.1786
  320TMC3     O 4811   3.570   3.746  16.228  0.7047 -0.4501 -0.2491
  320TMC3     H 4812   3.507   4.004  15.942  1.1492  0.8652 -0.8707
  320TMC3    H1 4813   3.618   3.603  16.027  1.1877  0.9958  0.8346
  320TMC3    H2 4814   3.704   3.773  15.648  0.0745 -0.9826  0.3833
  320TMC3    C7 4815   3.730   3.569  15.775 -0.6065 -0.1606 -0.4780
  320TMC3    C8 4816   3.628   4.024  15.711  0.8814 -0.1827 -0.3510
  320TMC3    O1 4817   3.719   3.542  15.656 -0.3427  0.0660  0.4293
  320TMC3    O2 4818   3.661   4.129  15.766  0.0059  0.7582 -0.5002
  321TMC3    C1 4819   3.845   3.888  16.843 -0.7480  0.4208 -0.8363
  321TMC3    C2 4820   3.832   3.766  16.903 -0.0040  0.8042  0.0882
  321TMC3    C3 4821   3.816   3.765  17.038  1.2271  0.5367 -0.4420
  321TMC3    C4 4822   3.859   4.004  16.911  0.1717  0.0147  0.9954
  321TMC3    C5 4823   3.846   3.999  17.051  0.4044 -0.0641  0.5149
  321TMC3    C6 4824   3.825   3.880  17.114  0.5404 -0.2356  0.8124
  321TMC3     C 4825   3.908   3.901  16.708 -0.5078 -0.1124  0.0716
  321TMC3     O 4826   4.011   3.961  16.728  0.0914  0.2752 -0.6944
  321TMC3     H 4827   3.839   3.675  16.845  2.2222  1.4386 -0.6358
  321TMC3    H1 4828   3.892   4.096  16.865 -0.2319  0.2413  1.1608
  321TMC3    H2 4829   3.806   3.888  17.221 -0.1069  1.7422  0.5416
  321TMC3    C7 4830   3.958   4.077  17.107 -0.2984 -0.0474  0.4915
  321TMC3    C8 4831   3.901   3.668  17.109 -0.2112  0.1324  0.3087
  321TMC3    O1 4832   3.981   4.193  17.061 -1.1848 -0.2624 -0.2103
  321TMC3    O2 4833   3.961   3.727  17.199  0.0610  0.0563  0.4757
  322MPD2     C 4834   2.827   0.584  13.545  0.2043  0.2904 -0.1760
  322MPD2    C1 4835   2.895   0.536  13.659  0.3580  0.0396  0.1083
  322MPD2    C2 4836   2.953   0.412  13.648 -0.0003 -0.1875  0.4559
  322MPD2    C3 4837   2.956   0.328  13.537  0.3323 -0.0174 -0.6866
  322MPD2    C4 4838   2.889   0.377  13.427 -0.3094  0.4164 -0.3648
  322MPD2    C5 4839   2.824   0.497  13.430  0.0541 -0.4032 -0.0809
  322MPD2     H 4840   3.008   0.366  13.729  0.8767 -0.1311 -0.1118
  322MPD2    H1 4841   2.885   0.322  13.334 -0.2556  2.2165 -1.4372
  322MPD2    H2 4842   2.780   0.681  13.545  0.6532  0.5057 -0.7026
  322MPD2    H3 4843   2.766   0.529  13.344 -0.8423  0.8394  0.9962
  322MPD2     N 4844   3.021   0.202  13.540  0.0370 -0.2791 -0.6436
  322MPD2    H5 4845   3.078   0.184  13.621  3.6158  1.4114 -2.7751
  322MPD2    N1 4846   2.913   0.616  13.771  0.7269 -0.1266  0.1724
  322MPD2    H7 4847   2.910   0.716  13.756  1.5770  0.1257  1.6786
  323TMC3    C1 4848   3.011   0.640  13.987 -0.8839 -0.0115  0.2991
  323TMC3    C2 4849   3.081   0.753  13.943 -0.7410  0.5336  0.5054
  323TMC3    C3 4850   3.137   0.837  14.036 -0.4096  0.7674 -0.2574
  323TMC3    C4 4851   3.043   0.593  14.109 -0.5480  0.3158 -0.1502
  323TMC3    C5 4852   3.099   0.675  14.199 -0.7954  0.3833  1.1038
  323TMC3    C6 4853   3.145   0.799  14.170  0.2206 -0.5755  0.0544
  323TMC3     C 4854   2.938   0.556  13.894  0.0457  0.1773 -0.1774
  323TMC3     O 4855   2.905   0.446  13.934 -0.0903 -0.4014  0.8161
  323TMC3     H 4856   3.062   0.789  13.842  0.5310  1.7812  0.7196
  323TMC3    H1 4857   2.997   0.501  14.144  0.5437 -0.4669 -0.8027
  323TMC3    H2 4858   3.194   0.873  14.233 -0.3857  1.3320 -1.7053
  323TMC3    C7 4859   3.160   0.610  14.308  0.4373  0.2950  1.1096
  323TMC3    C8 4860   3.210   0.953  13.996 -0.7394  0.4006  0.6522
  323TMC3    O1 4861   3.164   0.489  14.302 -0.0001 -0.4920 -0.2249
  323TMC3    O2 4862   3.285   1.000  14.085  0.2445  0.5100  0.8034
  324MPD2     C 4863   4.579   2.217  13.854  0.3243  0.6286 -0.3798
  324MPD2    C1 4864   4.639   2.099  13.897  0.3614 -0.4191 -0.4437
  324MPD2    C2 4865   4.555   1.992  13.930  0.3942  0.3162 -0.1789
  324MPD2    C3 4866   4.415   1.998  13.920  0.4370 -0.0777 -0.2906
  324MPD2    C4 4867   4.362   2.122  13.882 -0.8029 -0.5567  0.7143
  324MPD2    C5 4868   4.443   2.230  13.868  0.9956 -0.8675  0.2000
  324MPD2     H 4869   4.603   1.903  13.967 -0.8304 -0.1441  0.2924
  324MPD2    H1 4870   4.255   2.143  13.884 -0.4124  1.4265  0.7168
  324MPD2    H2 4871   4.622   2.315  13.838  1.8066 -0.1921 -1.4284
  324MPD2    H3 4872   4.395   2.326  13.848  1.9741 -1.0020 -2.8348
  324MPD2     N 4873   4.330   1.893  13.968  0.3414 -0.2504 -0.5678
  324MPD2    H5 4874   4.233   1.919  13.959  0.5579  0.9001  0.4244
  324MPD2    N1 4875   0.063   2.094  13.920 -0.1213 -0.8067  0.1986
  324MPD2    H7 4876   0.105   2.010  13.958 -1.0925 -1.4531 -0.1586
  325TMC3    C1 4877   4.253   1.701  14.071 -0.8843  0.5362  0.4221
  325TMC3    C2 4878   4.132   1.739  14.029  0.4999  0.0051 -0.0924
  325TMC3    C3 4879   4.030   1.715  14.119 -0.7025 -0.3914 -0.2329
  325TMC3    C4 4880   4.274   1.616  14.180 -0.8031  0.3000  1.2574
  325TMC3    C5 4881   4.168   1.595  14.260  0.1237  0.9576  0.3280
  325TMC3    C6 4882   4.038   1.633  14.231  0.3254 -0.1739 -0.0612
  325TMC3     C 4883   4.362   1.767  14.008  0.2078 -0.0665 -0.4200
  325TMC3     O 4884   4.471   1.709  14.016 -0.5169  0.2808  0.0171
  325TMC3     H 4885   4.112   1.796  13.939 -1.3726  0.5716  0.6908
  325TMC3    H1 4886   4.377   1.602  14.212  0.0660  2.5037 -0.5575
  325TMC3    H2 4887   3.958   1.602  14.296  0.2047 -1.4796 -0.8428
  325TMC3    C7 4888   4.189   1.596  14.404 -0.5802  0.1624 -0.5659
  325TMC3    C8 4889   3.895   1.744  14.070 -0.0017  0.3440  0.0236
  325TMC3    O1 4890   4.259   1.507  14.454  0.3858  0.3674  0.5929
  325TMC3    O2 4891   3.878   1.786  13.956  0.4804 -0.5586  0.1799
  326MPD2     C 4892   0.864   2.815  11.064 -0.1864  0.2791  0.2985
  326MPD2    C1 4893   0.879   2.849  10.928  0.3903  0.9397 -0.4981
  326MPD2    C2 4894   0.971   2.942  10.898  0.7438 -0.2587  0.3184
  326MPD2    C3 4895   1.059   2.998  10.993 -0.0156 -0.3821  0.0783
  326MPD2    C4 4896   1.039   2.972  11.126 -0.2364  0.3580  0.1331
  326MPD2    C5 4897   0.944   2.878  11.159  0.0945 -1.1248 -0.7151
  326MPD2     H 4898   0.973   2.979  10.797 -2.3723  1.0103  0.7394
  326MPD2    H1 4899   1.095   3.015  11.209 -0.8254 -1.7083  1.6038
  326MPD2    H2 4900   0.790   2.745  11.102 -1.3311  1.9746  1.1976
  326MPD2    H3 4901   0.935   2.850  11.263 -1.3413 -0.9969 -0.8085
  326MPD2     N 4902   1.165   3.090  10.962 -0.1352 -0.1265  0.5332
  326MPD2    H5 4903   1.218   3.132  11.038  1.1246  0.1677 -0.4999
  326MPD2    N1 4904   0.805   2.783  10.830 -0.4094  0.1710 -0.5125
  326MPD2    H7 4905   0.830   2.811  10.736  2.0607  0.3735  0.2171
  327TMC3    C1 4906   0.650   2.633  10.728  0.5582 -0.2220  0.3114
  327TMC3    C2 4907   0.577   2.721  10.651  0.7424  0.1239  0.2796
  327TMC3    C3 4908   0.577   2.693  10.516  0.6797  0.9638  0.2561
  327TMC3    C4 4909   0.724   2.531  10.683  0.1978  0.3698  0.1614
  327TMC3    C5 4910   0.746   2.525  10.547 -0.3273  0.0679  0.3760
  327TMC3    C6 4911   0.663   2.597  10.467 -0.1988  0.1758 -0.0307
  327TMC3     C 4912   0.703   2.692  10.849 -0.3902  0.9409 -0.1948
  327TMC3     O 4913   0.663   2.625  10.945  0.0958 -0.2236 -0.1276
  327TMC3     H 4914   0.541   2.817  10.688 -1.1717 -0.5255  0.0819
  327TMC3    H1 4915   0.780   2.481  10.761  1.0617 -0.3457 -0.9280
  327TMC3    H2 4916   0.682   2.591  10.360  0.7973  2.6501  0.0148
  327TMC3    C7 4917   0.883   2.544  10.507 -0.3474 -0.1594 -0.1649
  327TMC3    C8 4918   0.519   2.799  10.423 -0.0796  0.4781 -0.2527
  327TMC3    O1 4919   0.892   2.554  10.386 -0.7712 -0.1104 -0.5500
  327TMC3    O2 4920   0.591   2.840  10.334  0.0308  0.6400  0.1223
  328MPD2     C 4921   3.968   2.275  16.716  0.8442 -0.6934 -0.6046
  328MPD2    C1 4922   3.838   2.271  16.676 -0.2269  0.4542 -0.2128
  328MPD2    C2 4923   3.754   2.374  16.702 -0.0898  0.1782  0.4229
  328MPD2    C3 4924   3.804   2.484  16.768 -0.4418  0.6212 -0.4567
  328MPD2    C4 4925   3.942   2.492  16.795 -0.3681  0.0475 -0.0012
  328MPD2    C5 4926   4.023   2.385  16.772 -0.4654  0.1198  0.0007
  328MPD2     H 4927   3.647   2.370  16.689 -0.4167  3.0389  2.1878
  328MPD2    H1 4928   3.975   2.570  16.863 -1.4941  0.7826 -0.3078
  328MPD2    H2 4929   4.039   2.196  16.695  0.5545 -0.9163 -0.7417
  328MPD2    H3 4930   4.128   2.400  16.796  0.0669 -0.6979 -1.8200
  328MPD2     N 4931   3.726   2.591  16.813  0.3337  0.7634 -1.1649
  328MPD2    H5 4932   3.781   2.663  16.859  0.6093 -0.5692  0.6090
  328MPD2    N1 4933   3.797   2.149  16.621 -0.7170 -0.4554  0.1779
  328MPD2    H7 4934   3.848   2.064  16.646 -1.1817 -0.0590  2.5256
  329TMC3    C1 4935   3.600   2.009  16.609  0.3388 -0.3625  0.4855
  329TMC3    C2 4936   3.464   2.032  16.581  0.5075  0.1872  0.0694
  329TMC3    C3 4937   3.373   2.016  16.683  0.9125 -0.4817  0.6238
  329TMC3    C4 4938   3.642   1.951  16.721 -0.7590 -0.2137  0.5475
  329TMC3    C5 4939   3.549   1.918  16.815 -0.3144  0.1332 -0.1448
  329TMC3    C6 4940   3.419   1.966  16.809 -0.0838  0.5608 -0.1041
  329TMC3     C 4941   3.673   2.127  16.555 -0.2916  0.4489 -0.6600
  329TMC3     O 4942   3.609   2.215  16.503  0.2738  0.0412 -0.4474
  329TMC3     H 4943   3.432   2.056  16.480  2.2682  0.6004 -0.3947
  329TMC3    H1 4944   3.749   1.935  16.723 -1.1127 -2.5039  0.9014
  329TMC3    H2 4945   3.338   1.932  16.873  0.2499  1.5433  0.8389
  329TMC3    C7 4946   3.582   1.793  16.881  0.7487  0.2184 -0.0690
  329TMC3    C8 4947   3.249   2.086  16.682 -0.0804  0.0632 -0.1051
  329TMC3    O1 4948   3.676   1.735  16.827  0.5722  0.1386  0.4520
  329TMC3    O2 4949   3.221   2.140  16.577  0.2784  0.3674 -0.6328
  330TMC3    C1 4950   1.724   2.316   9.437 -0.5632  0.2155 -0.0449
  330TMC3    C2 4951   1.661   2.231   9.350  0.4890 -0.5731  0.4209
  330TMC3    C3 4952   1.664   2.097   9.371  0.0104 -0.1437 -0.6500
  330TMC3    C4 4953   1.776   2.263   9.552 -0.0543 -0.2349  0.3539
  330TMC3    C5 4954   1.762   2.128   9.568 -0.1779 -0.0741 -0.5023
  330TMC3    C6 4955   1.716   2.039   9.483  0.2849  0.1583  0.3048
  330TMC3     C 4956   1.714   2.459   9.418 -0.1831 -0.1414  0.1287
  330TMC3     O 4957   1.795   2.534   9.469  0.1557  0.1768 -0.2063
  330TMC3     H 4958   1.628   2.279   9.258 -0.4998 -0.8373  0.6412
  330TMC3    H1 4959   1.803   2.333   9.629 -2.1283  0.9643 -0.0250
  330TMC3    H2 4960   1.711   1.933   9.505 -0.1217 -0.5445 -3.2618
  330TMC3    C7 4961   1.786   2.063   9.694 -0.5694  0.3054 -0.7568
  330TMC3    C8 4962   1.582   2.024   9.277  0.0196 -0.4309  0.3309
  330TMC3    O1 4963   1.716   1.971   9.736  0.1468 -0.4215  0.0411
  330TMC3    O2 4964   1.543   2.082   9.178 -0.1173 -0.0394  0.1757
  331MPD2     C 4965   3.490   1.118  12.568 -0.7391  0.0437 -0.3129
  331MPD2    C1 4966   3.578   1.186  12.485 -1.4926 -0.3278  0.3188
  331MPD2    C2 4967   3.626   1.125  12.374  0.3195  0.3240 -0.1595
  331MPD2    C3 4968   3.591   1.001  12.338 -1.1434  0.0349 -0.1028
  331MPD2    C4 4969   3.497   0.936  12.414  0.0577 -0.0855  0.3494
  331MPD2    C5 4970   3.451   0.994  12.530 -0.2409  0.3053  0.5161
  331MPD2     H 4971   3.710   1.175  12.325  1.4545 -0.4638  0.9979
  331MPD2    H1 4972   3.462   0.835  12.395  0.4313 -0.2748  0.6513
  331MPD2    H2 4973   3.447   1.154  12.660 -0.3008 -3.6134  1.3315
  331MPD2    H3 4974   3.382   0.939  12.592 -1.1381 -0.4608 -1.1752
  331MPD2     N 4975   3.659   0.944  12.230  0.6609  0.1223 -0.1537
  331MPD2    H5 4976   3.731   1.002  12.188 -0.1695  1.9083  0.8879
  331MPD2    N1 4977   3.631   1.312  12.511  0.2262 -0.5697 -0.2845
  331MPD2    H7 4978   3.716   1.345  12.467 -0.1199 -0.0088 -0.5306
  332TMC3    C1 4979   3.766   0.793  12.105 -0.7498 -0.5408  0.4313
  332TMC3    C2 4980   3.799   0.888  12.022 -0.2657 -0.1652  0.7883
  332TMC3    C3 4981   3.929   0.895  11.978 -0.1302  0.9343 -0.9297
  332TMC3    C4 4982   3.850   0.696  12.145 -0.3218 -0.4070  0.0331
  332TMC3    C5 4983   3.989   0.720  12.126  0.2796  0.2175  0.4576
  332TMC3    C6 4984   4.027   0.817  12.037  0.2012 -0.7123  0.0379
  332TMC3     C 4985   3.653   0.813  12.197  0.1718 -0.5881  0.6261
  332TMC3     O 4986   3.605   0.720  12.259 -0.4159 -0.2396 -0.3143
  332TMC3     H 4987   3.728   0.965  11.994 -0.8047 -0.5665  1.0707
  332TMC3    H1 4988   3.824   0.631  12.228  0.7110  0.2879  0.8997
  332TMC3    H2 4989   4.127   0.832  11.998  1.0076  0.9303  2.6979
  332TMC3    C7 4990   4.085   0.677  12.228 -0.1181 -0.1893  0.0853
  332TMC3    C8 4991   3.968   1.005  11.897  0.1936 -0.0892 -0.3296
  332TMC3    O1 4992   4.046   0.602  12.314  0.4051 -0.2350  0.5645
  332TMC3    O2 4993   4.084   1.044  11.903 -1.0262  0.1304 -0.2617
  333MPD2     C 4994   4.074   1.454  11.032 -0.1098 -0.6151  0.1986
  333MPD2    C1 4995   4.115   1.383  10.921 -1.2232 -0.4215  0.5655
  333MPD2    C2 4996   4.053   1.263  10.894  0.6406  0.0479 -0.4199
  333MPD2    C3 4997   3.970   1.200  10.984 -0.3391 -0.2465  0.4718
  333MPD2    C4 4998   3.933   1.271  11.098 -0.4316 -0.1777  0.7686
  333MPD2    C5 4999   3.982   1.395  11.123 -1.1060 -0.6536 -0.8104
  333MPD2     H 5000   4.076   1.208  10.803  0.4685 -0.1883 -0.3203
  333MPD2    H1 5001   3.866   1.224  11.169 -0.6511  0.3430  0.9080
  333MPD2    H2 5002   4.117   1.553  11.043  2.2472 -1.4793 -1.2688
  333MPD2    H3 5003   3.955   1.450  11.212 -2.1707  2.9740 -3.3911
  333MPD2     N 5004   3.928   1.068  10.960  0.1937  0.1884  0.2375
  333MPD2    H5 5005   3.975   1.017  10.886  1.4770  1.7863 -0.0438
  333MPD2    N1 5006   4.214   1.436  10.827 -0.3648  0.3986 -0.1739
  333MPD2    H7 5007   4.258   1.524  10.850  1.1672  0.2609 -2.5497
  334TMC3    C1 5008   4.370   1.443  10.641  0.4389  0.3107 -0.0740
  334TMC3    C2 5009   4.459   1.368  10.573 -0.4277 -1.2965  0.6883
  334TMC3    C3 5010   4.577   1.436  10.529  0.0786  0.1843 -0.8074
  334TMC3    C4 5011   4.396   1.574  10.663 -0.4405 -0.1131  0.3847
  334TMC3    C5 5012   4.517   1.626  10.636  0.3515  0.4281  1.2051
  334TMC3    C6 5013   4.612   1.564  10.557  0.1234 -0.3035 -0.6036
  334TMC3     C 5014   4.270   1.365  10.718 -0.3854 -0.2233 -0.2047
  334TMC3     O 5015   4.267   1.247  10.693 -0.2644  0.5560  0.2211
  334TMC3     H 5016   4.441   1.263  10.548 -0.2818 -1.0761 -0.3662
  334TMC3    H1 5017   4.328   1.623  10.732 -1.4559 -0.3565 -0.4507
  334TMC3    H2 5018   4.701   1.612  10.517  0.9018 -0.9927  0.2932
  334TMC3    C7 5019   4.566   1.748  10.694  0.3834 -0.1627 -0.3463
  334TMC3    C8 5020   4.665   1.361  10.442 -0.0408  0.2640  0.7695
  334TMC3    O1 5021   4.687   1.768  10.701  0.0806  0.0771 -0.2325
  334TMC3    O2 5022   4.614   1.273  10.376  0.0064 -0.0195  0.2007
  335TMC3    C1 5023   4.371   2.573  17.629 -0.5518 -0.5345 -0.2118
  335TMC3    C2 5024   4.347   2.443  17.579  0.0737 -0.2130  0.0610
  335TMC3    C3 5025   4.439   2.395  17.488 -0.2721 -0.1932 -0.7631
  335TMC3    C4 5026   4.462   2.653  17.568  0.3596 -0.2949 -0.4411
  335TMC3    C5 5027   4.547   2.598  17.474  0.4756  0.1295 -0.1416
  335TMC3    C6 5028   4.540   2.467  17.440 -0.5364 -0.6625  0.1634
  335TMC3     C 5029   4.280   2.637   0.050 -0.2063 -0.0374  0.2040
  335TMC3     O 5030   4.308   2.752   0.075  0.1294 -0.4464 -0.3088
  335TMC3     H 5031   4.267   2.378  17.612 -0.0720 -0.6876 -1.2266
  335TMC3    H1 5032   4.463   2.759  17.586  3.4411 -0.8831  2.7883
  335TMC3    H2 5033   4.605   2.440  17.357 -0.3766 -0.0221  0.0818
  335TMC3    C7 5034   4.646   2.675  17.413  0.2878  0.8636 -0.5088
  335TMC3    C8 5035   4.376   2.302  17.397 -0.1647 -0.0732 -0.3921
  335TMC3    O1 5036   4.709   2.628  17.320  0.1328  0.1401  0.6836
  335TMC3    O2 5037   4.287   2.240  17.447 -0.1863 -0.1532  0.1072
  336MPD2     C 5038   4.029   0.402  15.971  0.2479  0.0198  0.5310
  336MPD2    C1 5039   4.084   0.345  15.857  0.2647 -0.6407 -0.1345
  336MPD2    C2 5040   4.174   0.238  15.873 -0.2127  0.1477 -0.8549
  336MPD2    C3 5041   4.203   0.182  15.995 -0.4860  0.3466  0.3466
  336MPD2    C4 5042   4.141   0.240  16.103  0.3478  0.0256 -0.4622
  336MPD2    C5 5043   4.060   0.345  16.089  0.1609  0.2425  0.3263
  336MPD2     H 5044   4.223   0.198  15.784 -0.6283  0.0452 -1.0359
  336MPD2    H1 5045   4.154   0.203  16.204  0.4370  2.8228  0.5227
  336MPD2    H2 5046   3.955   0.480  15.961  1.7813  1.2709 -0.9986
  336MPD2    H3 5047   4.005   0.384  16.174  1.1304  1.9076  0.1789
  336MPD2     N 5048   4.275   0.059  16.022  0.6182  0.3557  0.2626
  336MPD2    H5 5049   4.280   0.032  16.119  2.1908 -1.7816 -0.4253
  336MPD2    N1 5050   4.067   0.404  15.729 -0.5186 -0.4162  0.7292
  336MPD2    H7 5051   4.141   0.386  15.662 -0.7947 -1.0053  0.5751
  337TMC3    C1 5052   3.964   0.520  15.553  0.3736 -0.1645  0.6621
  337TMC3    C2 5053   3.851   0.565  15.489 -0.4307 -0.5822  0.2258
  337TMC3    C3 5054   3.865   0.676  15.413  0.1431  0.0227 -0.2880
  337TMC3    C4 5055   4.081   0.587  15.525  0.4685 -0.4947  0.0209
  337TMC3    C5 5056   4.087   0.704  15.447  0.9337 -0.5288  0.4144
  337TMC3    C6 5057   3.976   0.745  15.387 -0.0037  0.1328 -0.5167
  337TMC3     C 5058   3.947   0.458  15.683  0.7917  0.2843  0.1914
  337TMC3     O 5059   3.837   0.448  15.732  0.4619 -0.2289  0.0682
  337TMC3     H 5060   3.752   0.547  15.530 -0.5080 -0.2339  0.1946
  337TMC3    H1 5061   4.176   0.549  15.560  0.2855  0.4649  1.5741
  337TMC3    H2 5062   3.975   0.818  15.306 -4.4546  0.2320 -0.3589
  337TMC3    C7 5063   4.126   0.802  15.539 -0.6016  0.3696  0.1156
  337TMC3    C8 5064   3.746   0.745  15.382  0.3373  0.2766 -0.6097
  337TMC3    O1 5065   4.218   0.772  15.612  0.4502 -0.0818  0.0607
  337TMC3    O2 5066   3.733   0.861  15.429  0.1764  0.6514 -0.5535
  338MPD2     C 5067   4.543   4.388   0.724  0.2858  0.0384 -0.0437
  338MPD2    C1 5068   4.422   4.398   0.674 -0.2762 -0.8843  0.3245
  338MPD2    C2 5069   4.328   4.453   0.761 -0.3236  0.6549  0.5685
  338MPD2    C3 5070   4.344   4.502   0.893 -0.9523  0.4520 -0.7876
  338MPD2    C4 5071   4.471   4.480   0.942  0.3341 -0.7997  0.1227
  338MPD2    C5 5072   4.565   4.424   0.856 -0.0167 -0.1530 -0.1976
  338MPD2     H 5073   4.226   4.467   0.726  0.3296  0.3830 -1.4351
  338MPD2    H1 5074   4.504   4.510   1.041 -2.7645  3.3282 -0.1405
  338MPD2    H2 5075   4.630   4.357   0.666 -0.4479 -1.4444 -0.3704
  338MPD2    H3 5076   4.665   4.419   0.898 -0.2542  2.7489  0.7251
  338MPD2     N 5077   4.233   4.553   0.960  0.3714  0.1351 -0.1606
  338MPD2    H5 5078   4.152   4.579   0.904  1.6205  2.3918 -0.9285
  338MPD2    N1 5079   4.381   4.354   0.544  0.0080  0.3031 -0.0465
  338MPD2    H7 5080   4.284   4.362   0.514  0.4214  1.6175 -1.0071
  339TMC3    C1 5081   4.119   4.660   1.128 -0.1699 -0.2885  0.1313
  339TMC3    C2 5082   4.041   4.614   1.229 -0.1341 -0.0178  0.4518
  339TMC3    C3 5083   3.916   4.669   1.238 -0.3708  0.0443 -0.1962
  339TMC3    C4 5084   4.082   0.034   1.038 -0.0249  0.1389 -0.4164
  339TMC3    C5 5085   3.957   0.081   1.054  0.4119  0.5938 -0.1969
  339TMC3    C6 5086   3.865   0.042   1.149 -1.1244  0.1904 -0.5860
  339TMC3     C 5087   4.230   4.579   1.096  0.3701  0.1730  0.2993
  339TMC3     O 5088   4.302   4.543   1.191 -0.8475 -0.6732  0.1784
  339TMC3     H 5089   4.077   4.535   1.294 -0.1533 -1.5240 -1.3767
  339TMC3    H1 5090   4.157   0.080   0.975 -1.8349  1.3489 -1.7207
  339TMC3    H2 5091   3.764   0.081   1.155 -0.3670  2.2402 -1.1117
  339TMC3    C7 5092   3.916   0.147   0.927  0.4803  0.0152  0.2163
  339TMC3    C8 5093   3.821   4.627   1.339  0.2493 -0.1249  0.0789
  339TMC3    O1 5094   3.988   0.128   0.835  0.0369 -0.1198 -0.7478
  339TMC3    O2 5095   3.709   4.678   1.333  0.0316 -0.1015 -0.3915
  340MPD2     C 5096   4.025   2.751  10.272  0.8154 -0.8599  0.2651
  340MPD2    C1 5097   4.076   2.705  10.156  0.7017  0.1488  0.3776
  340MPD2    C2 5098   4.208   2.740  10.120  1.0709 -0.1366  0.3942
  340MPD2    C3 5099   4.274   2.825  10.211 -0.2434 -0.3678  0.1230
  340MPD2    C4 5100   4.219   2.873  10.321  0.0824  0.1590 -0.1898
  340MPD2    C5 5101   4.090   2.836  10.353 -0.6818  0.4672  0.3054
  340MPD2     H 5102   4.255   2.700  10.031 -0.4590 -2.3811  0.5950
  340MPD2    H1 5103   4.259   2.956  10.377 -0.5470 -0.3928  1.0808
  340MPD2    H2 5104   3.919   2.740  10.292  0.5565  1.1743  0.0541
  340MPD2    H3 5105   4.040   2.897  10.427 -1.3999  0.2738 -0.0211
  340MPD2     N 5106   4.401   2.869  10.178 -0.0872  0.4660 -0.6501
  340MPD2    H5 5107   4.454   2.923  10.245 -0.5370 -0.8866  0.7788
  340MPD2    N1 5108   3.999   2.625  10.080  0.0708 -0.0429 -0.5047
  340MPD2    H7 5109   3.904   2.609  10.114  0.2445 -0.5344 -0.2487
  341TMC3    C1 5110   3.927   2.496   9.890  0.7703 -0.0151 -0.3572
  341TMC3    C2 5111   3.866   2.405   9.970  0.2775 -0.0120  0.0962
  341TMC3    C3 5112   3.825   2.291   9.907 -0.5006  0.1643  0.1456
  341TMC3    C4 5113   3.938   2.490   9.754  0.3248  0.5994  0.4319
  341TMC3    C5 5114   3.898   2.376   9.695  0.4550 -0.3224 -0.0781
  341TMC3    C6 5115   3.836   2.272   9.768  0.0322 -0.5600 -0.4425
  341TMC3     C 5116   4.029   2.585   9.952 -0.1459  0.0418 -0.1566
  341TMC3     O 5117   4.108   2.632   9.877  0.2252 -0.0136 -0.0761
  341TMC3     H 5118   3.898   2.395  10.073  0.2532  1.7650  0.2894
  341TMC3    H1 5119   3.999   2.566   9.706  0.8928 -0.9685 -1.2868
  341TMC3    H2 5120   3.797   2.184   9.717 -0.8067  0.3391 -1.3515
  341TMC3    C7 5121   3.946   2.339   9.568  0.1872  0.6320  0.1106
  341TMC3    C8 5122   3.790   2.171   9.981 -0.1457  0.1393  0.5694
  341TMC3    O1 5123   3.971   2.434   9.497 -0.3196  0.2985  0.0557
  341TMC3    O2 5124   3.806   2.068   9.924  0.0264  0.5762 -0.1026
  342MPD2     C 5125   2.327   0.489  17.357  0.3226 -0.2390 -0.9205
  342MPD2    C1 5126   2.416   0.560  17.284  0.1149 -0.0009  0.1412
  342MPD2    C2 5127   2.442   0.692  17.324 -0.2299 -0.0062  0.0815
  342MPD2    C3 5128   2.366   0.754  17.425 -0.3900  0.4386 -0.3229
  342MPD2    C4 5129   2.277   0.670  17.507 -0.4545 -0.6098  0.0444
  342MPD2    C5 5130   2.266   0.536  17.472  0.6835 -0.4921  0.6384
  342MPD2     H 5131   2.509   0.756  17.268 -2.1327  1.0157 -0.9990
  342MPD2    H1 5132   2.208   0.711  17.581  1.6809 -0.5554  1.9892
  342MPD2    H2 5133   2.304   0.388  17.326 -2.7176  0.4484 -0.8495
  342MPD2    H3 5134   2.212   0.470  17.540 -2.5919  1.5915  0.0811
  342MPD2     N 5135   2.358   0.893  17.445 -0.2245  0.1570  0.4603
  342MPD2    H5 5136   2.289   0.930  17.509 -0.3573  2.7148 -1.1929
  342MPD2    N1 5137   2.467   0.519  17.155 -0.1874 -0.4938 -0.0820
  342MPD2    H7 5138   2.535   0.582  17.114  1.3530  0.0882  3.3398
  343TMC3    C1 5139   2.495   0.381  16.964 -0.4650 -0.3405 -0.5691
  343TMC3    C2 5140   2.630   0.398  16.958 -0.6527 -0.3793  0.9190
  343TMC3    C3 5141   2.699   0.334  16.863  0.4232  0.9893 -0.2694
  343TMC3    C4 5142   2.434   0.306  16.870  0.1436 -0.2362  0.5068
  343TMC3    C5 5143   2.504   0.248  16.771 -0.0525 -0.6752 -0.3991
  343TMC3    C6 5144   2.643   0.253  16.766 -0.0372  0.5206 -0.3242
  343TMC3     C 5145   2.423   0.408  17.089 -0.4015  0.6886 -0.0048
  343TMC3     O 5146   2.310   0.352  17.094 -0.1667 -0.3743 -0.0719
  343TMC3     H 5147   2.680   0.456  17.035 -1.2114  0.8668  0.3460
  343TMC3    H1 5148   2.326   0.307  16.866  0.1438 -1.5073  0.1715
  343TMC3    H2 5149   2.691   0.193  16.690  1.2629  2.2741 -0.8972
  343TMC3    C7 5150   2.432   0.157  16.679  0.2881 -0.6326  0.7277
  343TMC3    C8 5151   2.839   0.367  16.852 -0.1289 -0.8815  0.6834
  343TMC3    O1 5152   2.475   0.151  16.563  0.6157  0.0560 -0.2747
  343TMC3    O2 5153   2.894   0.456  16.914 -0.2246  0.2054  0.3421
  344MPD2     C 5154   3.005   0.665  10.770 -1.0898 -0.3419  0.9599
  344MPD2    C1 5155   3.060   0.655  10.642  0.2336  0.0744  0.6551
  344MPD2    C2 5156   3.108   0.768  10.582  0.9482  0.3648  0.1125
  344MPD2    C3 5157   3.110   0.888  10.660  0.0496 -0.0849  0.9580
  344MPD2    C4 5158   3.060   0.890  10.791 -0.6102  0.2695 -0.2749
  344MPD2    C5 5159   3.006   0.780  10.843 -0.2985 -0.3429 -0.0488
  344MPD2     H 5160   3.142   0.758  10.479  0.2017  0.0240 -0.1001
  344MPD2    H1 5161   3.052   0.980  10.849 -0.1881  0.7142 -0.9039
  344MPD2    H2 5162   2.971   0.579  10.826  0.9987 -0.0821  2.6457
  344MPD2    H3 5163   2.968   0.791  10.944 -2.4435 -0.7031 -0.8170
  344MPD2     N 5164   3.164   1.006  10.618  0.0675  0.0604  0.0969
  344MPD2    H5 5165   3.155   1.088  10.677 -0.3821  0.5823 -0.6925
  344MPD2    N1 5166   3.059   0.533  10.569  0.3162  0.5078 -0.1600
  344MPD2    H7 5167   3.098   0.540  10.475 -0.6363  1.0513 -0.5140
  345TMC3    C1 5168   3.264   1.162  10.467  0.9954  0.1923 -0.1750
  345TMC3    C2 5169   3.326   1.215  10.576  0.0787 -0.4680  0.0481
  345TMC3    C3 5170   3.356   1.349  10.566  0.0050  0.6123  0.5294
  345TMC3    C4 5171   3.227   1.234  10.352 -0.4489 -0.1306  0.4841
  345TMC3    C5 5172   3.278   1.361  10.350 -0.5939  0.4205  0.4989
  345TMC3    C6 5173   3.337   1.428  10.451 -0.0101  0.3511  0.1241
  345TMC3     C 5174   3.221   1.028  10.496 -0.5170  1.2463 -0.6549
  345TMC3     O 5175   3.216   0.964  10.389 -0.1990  0.3096 -0.4046
  345TMC3     H 5176   3.363   1.157  10.659 -0.8986 -1.7043 -0.3688
  345TMC3    H1 5177   3.158   1.185  10.284 -2.4057  2.0738  0.8819
  345TMC3    H2 5178   3.374   1.529  10.443 -1.1256  0.7570  0.1357
  345TMC3    C7 5179   3.234   1.453  10.243  0.1730  0.3072 -0.3334
  345TMC3    C8 5180   3.376   1.423  10.691  0.4217  0.7824  0.2300
  345TMC3    O1 5181   3.247   1.573  10.264  0.8911 -0.2156  0.1111
  345TMC3    O2 5182   3.335   1.372  10.796  0.0289 -0.2372  0.1836
  346MPD2     C 5183   3.440   2.610  14.516  0.3370 -0.0631 -0.1255
  346MPD2    C1 5184   3.492   2.541  14.405  0.0503 -0.2427 -0.4735
  346MPD2    C2 5185   3.630   2.523  14.401  0.2838  0.2003  0.0176
  346MPD2    C3 5186   3.717   2.572  14.502 -0.0873 -0.7966  0.1214
  346MPD2    C4 5187   3.657   2.648  14.606  0.0461  0.3800 -0.3124
  346MPD2    C5 5188   3.527   2.674  14.600 -0.5796 -0.1876  0.0195
  346MPD2     H 5189   3.669   2.463  14.320  1.1012 -0.9905  1.2916
  346MPD2    H1 5190   3.711   2.692  14.688  0.3816 -1.2947  0.3622
  346MPD2    H2 5191   3.334   2.630  14.528  0.6146  0.9173  0.6263
  346MPD2    H3 5192   3.492   2.742  14.677 -0.1865 -0.8620  0.7997
  346MPD2     N 5193   3.855   2.542  14.496  0.2241 -0.5083 -0.0497
  346MPD2    H5 5194   3.890   2.488  14.417  0.5708 -0.4838  0.0859
  346MPD2    N1 5195   3.422   2.498  14.285  0.8851  0.6411 -0.6165
  346MPD2    H7 5196   3.472   2.464  14.204 -0.9745  0.8608 -1.8427
  347TMC3    C1 5197   4.058   2.497  14.617  0.7007 -0.7724 -0.0035
  347TMC3    C2 5198   4.023   2.368  14.617 -0.6667 -0.2828 -0.0687
  347TMC3    C3 5199   4.073   2.286  14.707 -0.3579  0.1741 -1.2165
  347TMC3    C4 5200   4.153   2.542  14.708 -0.1480  0.9226 -0.0106
  347TMC3    C5 5201   4.204   2.457  14.801  0.2412  0.1312 -0.2075
  347TMC3    C6 5202   4.177   2.320  14.795 -0.3559  0.5257 -0.4507
  347TMC3     C 5203   3.948   2.592  14.582  0.1599 -0.2054  0.0858
  347TMC3     O 5204   3.947   2.704  14.627 -0.0771  0.1630 -0.2091
  347TMC3     H 5205   3.944   2.341  14.549 -2.1949  1.2072  1.0940
  347TMC3    H1 5206   4.182   2.646  14.713  0.1257  0.8125  0.6449
  347TMC3    H2 5207   4.244   2.257  14.853 -2.9744 -0.6414  1.2732
  347TMC3    C7 5208   4.313   2.505  14.881  0.2623 -0.2085  0.8657
  347TMC3    C8 5209   4.036   2.147  14.673  0.1336  1.1040  0.2046
  347TMC3    O1 5210   4.392   2.416  14.913 -0.4287  0.2656 -0.1585
  347TMC3    O2 5211   3.990   2.118  14.563 -0.0648 -0.7747  0.3399
  348MPD2     C 5212   1.388   1.791  12.052  0.7261  0.1300  0.3786
  348MPD2    C1 5213   1.523   1.831  12.058  0.0692 -0.0479 -0.1842
  348MPD2    C2 5214   1.571   1.919  11.958 -0.1860 -0.2077  0.6661
  348MPD2    C3 5215   1.481   1.973  11.866  0.0469  0.2575  0.1281
  348MPD2    C4 5216   1.344   1.935  11.868  0.1161  0.0197 -0.4691
  348MPD2    C5 5217   1.302   1.855  11.969 -0.2596 -0.1517 -0.9258
  348MPD2     H 5218   1.673   1.955  11.954 -0.3130  0.3201  2.3188
  348MPD2    H1 5219   1.271   1.985  11.806  0.1287 -1.2901 -1.5388
  348MPD2    H2 5220   1.348   1.732  12.133 -0.7492 -2.4879 -2.2158
  348MPD2    H3 5221   1.196   1.836  11.983 -0.2005  1.0854  1.3074
  348MPD2     N 5222   1.534   2.055  11.766  0.7288 -0.5431  0.4831
  348MPD2    H5 5223   1.633   2.071  11.752  0.6690 -0.2791  0.3627
  348MPD2    N1 5224   1.616   1.777  12.147 -0.0513  0.6982 -0.1757
  348MPD2    H7 5225   1.711   1.811  12.134  2.1439 -5.9537 -1.4003
  349TMC3    C1 5226   1.713   1.612  12.303  0.1005  0.6923  0.3025
  349TMC3    C2 5227   1.695   1.483  12.345 -0.0757 -0.4511 -0.2139
  349TMC3    C3 5228   1.811   1.415  12.365  0.1639  0.3528 -0.4670
  349TMC3    C4 5229   1.835   1.672  12.286  0.6639 -0.3711 -0.0552
  349TMC3    C5 5230   1.940   1.596  12.309  0.4665 -0.1372  0.0040
  349TMC3    C6 5231   1.928   1.464  12.334  0.6439 -0.7059  0.4147
  349TMC3     C 5232   1.601   1.671  12.235  0.2266  0.5019 -0.6703
  349TMC3     O 5233   1.502   1.607  12.256  0.0415  0.6762 -0.3512
  349TMC3     H 5234   1.596   1.438  12.351 -0.3586  0.3734  1.3491
  349TMC3    H1 5235   1.844   1.780  12.281 -0.9537 -0.2339  0.0167
  349TMC3    H2 5236   2.019   1.406  12.347 -0.5026 -2.1980  1.6313
  349TMC3    C7 5237   2.073   1.647  12.306 -0.2707  0.3298  1.2888
  349TMC3    C8 5238   1.792   1.275  12.368 -0.4883 -0.2551  0.0198
  349TMC3    O1 5239   2.145   1.599  12.396  0.2895  0.0519 -0.1128
  349TMC3    O2 5240   1.730   1.223  12.458  0.2391 -0.1788  0.2009
  350MPD2     C 5241   0.826   4.675   9.984 -0.0438 -0.0708  0.6432
  350MPD2    C1 5242   0.915   4.568   9.979 -0.3080 -0.0613  0.0720
  350MPD2    C2 5243   1.053   4.594   9.987 -0.0939  0.1067 -0.0343
  350MPD2    C3 5244   1.102   0.006   9.996 -0.3148  0.4518 -0.3926
  350MPD2    C4 5245   1.006   0.109   9.989  0.4447  0.5245 -0.6950
  350MPD2    C5 5246   0.872   0.084   9.992  0.6593 -0.1862 -0.4999
  350MPD2     H 5247   1.117   4.507   9.983 -2.5704 -1.8072  1.7156
  350MPD2    H1 5248   1.034   0.213   9.998  0.6144  0.4289 -0.1099
  350MPD2    H2 5249   0.721   4.651   9.971  0.1515 -1.0658  0.9300
  350MPD2    H3 5250   0.810   0.173   9.995  0.0793 -0.6000 -0.3523
  350MPD2     N 5251   1.246   0.029  10.004  0.4428 -0.6933 -0.2432
  350MPD2    H5 5252   1.313   4.672  10.002  1.8089  0.4368  1.9780
  350MPD2    N1 5253   0.880   4.435   9.958 -0.1941  0.0564  0.9013
  350MPD2    H7 5254   0.959   4.374   9.938 -1.3822 -2.1605  2.9390
  351TMC3    C1 5255   0.735   4.243   9.967  0.4269 -0.8755  0.1229
  351TMC3    C2 5256   0.830   4.161   9.904 -0.2161 -0.2157  0.2431
  351TMC3    C3 5257   0.794   4.029   9.878 -0.2128 -0.2295 -0.0090
  351TMC3    C4 5258   0.610   4.191   9.980  0.4494  0.4128 -0.0526
  351TMC3    C5 5259   0.587   4.058   9.960  0.0108  0.7225 -0.0989
  351TMC3    C6 5260   0.677   3.971   9.911 -0.2679 -0.5254 -0.0474
  351TMC3     C 5261   0.753   4.389   9.979  0.3933 -0.1865 -0.1103
  351TMC3     O 5262   0.651   4.448  10.015  0.3652 -0.1145  0.4791
  351TMC3     H 5263   0.930   4.196   9.882 -0.3493 -0.2251 -0.3911
  351TMC3    H1 5264   0.536   4.255  10.026  0.1325 -0.3552  0.4999
  351TMC3    H2 5265   0.653   3.870   9.880 -3.4911  0.6595 -1.4381
  351TMC3    C7 5266   0.443   4.013   9.946 -0.7086 -0.2185  0.6371
  351TMC3    C8 5267   0.908   3.943   9.854 -1.0774  0.7006 -0.0124
  351TMC3    O1 5268   0.425   3.916   9.873  0.1936 -0.5993  0.5279
  351TMC3    O2 5269   0.991   3.985   9.774  0.0441  0.2796 -0.2158
  352MPD2     C 5270   4.414   1.583   1.038 -0.3690  0.9495 -0.1665
  352MPD2    C1 5271   4.308   1.524   1.097 -0.7975 -0.0061 -0.3115
  352MPD2    C2 5272   4.327   1.407   1.163  0.2922  0.1327  0.0915
  352MPD2    C3 5273   4.455   1.345   1.155 -0.1392  0.1529  0.7272
  352MPD2    C4 5274   4.564   1.418   1.107 -0.0687  0.5758  1.4189
  352MPD2    C5 5275   4.545   1.535   1.039  0.1668  0.3400 -0.4611
  352MPD2     H 5276   4.243   1.354   1.207 -0.0570  1.0514  0.5284
  352MPD2    H1 5277   4.665   1.378   1.106 -0.2380  0.2252 -0.5060
  352MPD2    H2 5278   4.392   1.676   0.988  1.1095  1.6023  0.3853
  352MPD2    H3 5279   4.628   1.585   0.989 -2.5456  3.6581 -1.6073
  352MPD2     N 5280   4.492   1.221   1.218 -0.3975 -1.1597 -0.5822
  352MPD2    H5 5281   4.590   1.192   1.215  0.2024  0.8460 -0.2080
  352MPD2    N1 5282   4.183   1.589   1.078  0.4906  0.2568 -0.4483
  352MPD2    H7 5283   4.182   1.679   1.031 -1.8773  0.0241 -0.8336
  353TMC3    C1 5284   4.466   1.002   1.307 -0.0177  0.3692 -0.8879
  353TMC3    C2 5285   4.598   0.999   1.351  0.1920  0.4575 -0.5142
  353TMC3    C3 5286   4.658   0.876   1.354 -0.7892  0.0874  0.3588
  353TMC3    C4 5287   4.397   0.892   1.273 -0.4519  0.3652  0.2489
  353TMC3    C5 5288   4.457   0.773   1.288  0.2698 -0.3880 -0.4896
  353TMC3    C6 5289   4.594   0.757   1.317  0.5454 -0.0581  0.8688
  353TMC3     C 5290   4.401   1.127   1.267 -0.1190  0.3685  0.5460
  353TMC3     O 5291   4.278   1.121   1.257  0.6359 -1.2586 -0.2821
  353TMC3     H 5292   4.656   1.085   1.382  0.5048  0.5553 -1.3728
  353TMC3    H1 5293   4.296   0.892   1.234 -0.9411 -0.0798  1.5160
  353TMC3    H2 5294   4.646   0.664   1.332  1.7208  0.8861  2.6077
  353TMC3    C7 5295   4.394   0.659   1.225  0.3717  0.5600  0.1855
  353TMC3    C8 5296   0.072   0.866   1.410 -0.5409  0.9442  0.3006
  353TMC3    O1 5297   4.337   0.688   1.124  0.1701 -0.4729  0.1364
  353TMC3    O2 5298   0.091   0.920   1.516  1.1059 -0.5231  0.4833
  354TMC3    C1 5299   1.265   3.166  13.291 -0.0021 -0.2262 -0.0345
  354TMC3    C2 5300   1.352   3.275  13.291  0.7292  0.3989 -0.1089
  354TMC3    C3 5301   1.442   3.295  13.189 -0.9166  0.5977 -0.1794
  354TMC3    C4 5302   1.270   3.081  13.184 -0.0973 -0.3218  0.2195
  354TMC3    C5 5303   1.370   3.098  13.087  0.8995 -0.2486 -0.2038
  354TMC3    C6 5304   1.460   3.200  13.097 -0.6312  0.0557 -0.3743
  354TMC3     C 5305   1.235   3.102  13.419  0.3493 -0.9590  0.9364
  354TMC3     O 5306   1.148   3.016  13.402 -0.0252 -0.2861  0.3923
  354TMC3     H 5307   1.344   3.357  13.361  3.2021 -0.5689  1.3071
  354TMC3    H1 5308   1.234   2.979  13.184 -2.5616  0.5407  0.9946
  354TMC3    H2 5309   1.558   3.185  13.054 -0.6358 -2.2807  0.3971
  354TMC3    C7 5310   1.295   3.122  12.967 -0.2736  0.1015  0.0857
  354TMC3    C8 5311   1.408   3.411  13.102 -0.0819  0.3372 -0.5380
  354TMC3    O1 5312   1.175   3.125  12.984 -0.5552 -0.6231 -0.0860
  354TMC3    O2 5313   1.292   3.442  13.102  0.0625  0.0289  0.3541
  355MPD2     C 5314   1.133   3.874  11.876  0.2891  0.5175 -0.6014
  355MPD2    C1 5315   1.173   3.907  11.749  0.3184  0.5635  0.7131
  355MPD2    C2 5316   1.309   3.912  11.711  0.0235  0.3913 -0.4582
  355MPD2    C3 5317   1.406   3.894  11.805  0.3744  0.3031 -0.0855
  355MPD2    C4 5318   1.363   3.880  11.931  0.8587 -0.5829 -1.1582
  355MPD2    C5 5319   1.231   3.866  11.963  0.4039 -0.0084 -0.8031
  355MPD2     H 5320   1.337   3.935  11.609  1.2925  1.9512  0.2450
  355MPD2    H1 5321   1.429   3.874  12.017 -0.2811  0.7171 -0.1992
  355MPD2    H2 5322   1.030   3.862  11.906  1.4329 -2.5490  2.1268
  355MPD2    H3 5323   1.206   3.864  12.068 -2.2114 -0.7473 -1.4446
  355MPD2     N 5324   1.546   3.908  11.787  0.0709  0.3357  0.2608
  355MPD2    H5 5325   1.604   3.910  11.871  0.4998 -0.4626 -0.0154
  355MPD2    N1 5326   1.066   3.920  11.656  0.2568  0.0648 -0.2372
  355MPD2    H7 5327   0.977   3.888  11.692 -0.0168  0.0480 -0.9195
  356TMC3    C1 5328   1.758   3.975  11.668  0.0805 -0.1026  1.0678
  356TMC3    C2 5329   1.803   4.057  11.573  0.0057  0.3776  0.4332
  356TMC3    C3 5330   1.902   4.153  11.596 -0.6036 -0.4339  0.4340
  356TMC3    C4 5331   1.806   3.990  11.799 -0.1042 -0.0264  0.8083
  356TMC3    C5 5332   1.895   4.090  11.825 -0.0144  0.3097 -0.1334
  356TMC3    C6 5333   1.941   4.181  11.726  0.0197 -0.5585 -0.9737
  356TMC3     C 5334   1.610   3.944  11.658 -0.2472 -0.3597 -0.6938
  356TMC3     O 5335   1.560   3.965  11.550 -0.2250  0.2692 -0.0292
  356TMC3     H 5336   1.768   4.043  11.471  0.7693 -3.4159  0.6908
  356TMC3    H1 5337   1.765   3.931  11.880  2.3272 -1.4805  0.9921
  356TMC3    H2 5338   2.038   4.224  11.746  0.0753 -1.6586  1.1593
  356TMC3    C7 5339   1.946   4.087  11.963  0.4324 -0.0331  0.3675
  356TMC3    C8 5340   1.949   4.241  11.487 -0.0698  0.1011 -0.1464
  356TMC3    O1 5341   1.919   4.001  12.041  0.3333 -0.3078 -0.5266
  356TMC3    O2 5342   1.906   4.209  11.374  0.6572  0.4394 -0.2564
  357MPD2     C 5343   1.534   3.481   0.245 -0.5511 -0.6467  0.5632
  357MPD2    C1 5344   1.543   3.407   0.360 -0.1021 -0.3920 -0.0549
  357MPD2    C2 5345   1.438   3.414   0.452  0.0474  0.8401 -0.3385
  357MPD2    C3 5346   1.330   3.502   0.433  0.4569  0.7696  0.5741
  357MPD2    C4 5347   1.328   3.576   0.323 -0.0881 -0.0119 -0.3463
  357MPD2    C5 5348   1.428   3.566   0.233  0.1411  0.0655 -0.4987
  357MPD2     H 5349   1.450   3.360   0.545  0.7224 -0.3316 -1.1047
  357MPD2    H1 5350   1.246   3.642   0.298 -1.1497 -0.7638  1.1364
  357MPD2    H2 5351   1.620   3.480   0.179  0.5996  1.5795  2.0293
  357MPD2    H3 5352   1.434   3.633   0.147  1.1629 -0.3178 -0.7246
  357MPD2     N 5353   1.223   3.509   0.521  0.3005  0.1391 -0.4779
  357MPD2    H5 5354   1.156   3.584   0.511 -0.5288 -0.4657  0.5987
  357MPD2    N1 5355   1.650   3.317   0.378 -0.9118  0.0795 -0.0934
  357MPD2    H7 5356   1.723   3.317   0.307  0.1749  1.1739  1.0154
  358TMC3    C1 5357   1.774   3.142   0.469 -0.2892  0.2808 -0.9711
  358TMC3    C2 5358   1.752   3.070   0.360 -0.0974  0.3420  0.5041
  358TMC3    C3 5359   1.752   2.933   0.370 -0.4745 -0.3259 -0.4655
  358TMC3    C4 5360   1.800   3.083   0.591 -0.3898 -0.5674  0.2665
  358TMC3    C5 5361   1.814   2.946   0.598 -0.6564 -0.1714 -0.6070
  358TMC3    C6 5362   1.794   2.870   0.482 -0.0624 -0.5837 -0.5188
  358TMC3     C 5363   1.674   3.238   0.488 -0.1290  0.5851  0.1464
  358TMC3     O 5364   1.616   3.222   0.594 -0.0948  0.0360 -0.4660
  358TMC3     H 5365   1.712   3.115   0.271 -3.3302  1.5213  2.5589
  358TMC3    H1 5366   1.833   3.140   0.678  1.3452 -0.0632 -0.7215
  358TMC3    H2 5367   1.770   2.765   0.500  1.8786 -0.8973  0.2193
  358TMC3    C7 5368   1.782   2.889   0.726  0.3795  0.0550  0.0988
  358TMC3    C8 5369   1.735   2.858   0.250 -0.4866  0.8856  0.1270
  358TMC3    O1 5370   1.721   2.958   0.806 -0.0510 -0.3669  1.0299
  358TMC3    O2 5371   1.748   2.923   0.146 -0.0516  0.6024 -0.1842
  359MPD2     C 5372   1.025   2.644  12.155  0.4192 -0.0861 -0.2999
  359MPD2    C1 5373   1.111   2.604  12.256 -0.2431 -0.5427  0.0579
  359MPD2    C2 5374   1.070   2.494  12.333 -0.3178  0.0393  0.2145
  359MPD2    C3 5375   0.947   2.430  12.307  0.0250  0.3926  0.3242
  359MPD2    C4 5376   0.861   2.484  12.212 -0.0949  0.6602 -0.8735
  359MPD2    C5 5377   0.894   2.594  12.139 -0.2599  0.0821  0.7461
  359MPD2     H 5378   1.132   2.456  12.413  2.0469  2.7649 -0.3540
  359MPD2    H1 5379   0.765   2.436  12.195 -0.2619  0.7369 -0.1479
  359MPD2    H2 5380   1.058   2.729  12.096  0.0205  0.3559  0.1096
  359MPD2    H3 5381   0.833   2.642  12.064  0.7580  0.3684  0.1072
  359MPD2     N 5382   0.892   2.334  12.391 -0.2389 -0.2201 -0.4205
  359MPD2    H5 5383   0.803   2.294  12.363  0.5411 -0.7788 -2.1254
  359MPD2    N1 5384   1.238   2.655  12.279  0.1206 -0.5483 -0.1060
  359MPD2    H7 5385   1.305   2.603  12.335  2.2327  0.1766 -1.9507
  360TMC3    C1 5386   1.419   2.765  12.192  0.5158 -0.2230  0.6918
  360TMC3    C2 5387   1.492   2.873  12.189  0.4248  0.6363 -0.3342
  360TMC3    C3 5388   1.615   2.866  12.135  0.0329 -0.2091  0.4533
  360TMC3    C4 5389   1.447   2.648  12.134  0.5670 -0.5257  0.5454
  360TMC3    C5 5390   1.563   2.641  12.057 -0.1520  0.0345  0.8401
  360TMC3    C6 5391   1.650   2.748  12.074  0.2103  0.3590 -0.7626
  360TMC3     C 5392   1.285   2.776  12.227 -0.1166 -0.6005  0.5872
  360TMC3     O 5393   1.223   2.871  12.187  0.0642 -0.0468 -0.2133
  360TMC3     H 5394   1.459   2.951  12.257 -1.3080 -2.7423  2.6902
  360TMC3    H1 5395   1.375   2.570  12.112 -0.0798  0.3175 -0.3429
  360TMC3    H2 5396   1.735   2.746  12.007  1.4490 -0.8518  0.8537
  360TMC3    C7 5397   1.540   2.612  11.918 -0.0355 -0.4939  0.0815
  360TMC3    C8 5398   1.689   2.992  12.109 -1.4482  0.4011 -0.0295
  360TMC3    O1 5399   1.578   2.706  11.847 -0.2363 -0.3106 -0.2353
  360TMC3    O2 5400   1.627   3.097  12.114  0.4454  0.4081 -0.0950
  361MPD2     C 5401   3.616   1.486  16.361  0.5627 -0.5920  0.2822
  361MPD2    C1 5402   3.556   1.482  16.487 -0.1491  0.4777  0.1235
  361MPD2    C2 5403   3.607   1.383  16.576  0.6650  0.2687  0.9441
  361MPD2    C3 5404   3.709   1.296  16.536 -0.2860  0.5161  0.1701
  361MPD2    C4 5405   3.759   1.310  16.405 -0.1608 -0.1559 -0.8081
  361MPD2    C5 5406   3.719   1.402  16.319  0.6330  0.4141 -0.0302
  361MPD2     H 5407   3.559   1.369  16.672  0.7484 -0.3369  0.8947
  361MPD2    H1 5408   3.836   1.243  16.369 -0.1624  0.6063 -2.2108
  361MPD2    H2 5409   3.585   1.558  16.285 -0.0889 -2.3599 -1.1244
  361MPD2    H3 5410   3.778   1.417  16.230 -0.0526 -0.4598 -0.6287
  361MPD2     N 5411   3.754   1.188  16.615  0.4302  0.2427  0.0007
  361MPD2    H5 5412   3.809   1.124  16.558  1.3007 -1.2972  2.5906
  361MPD2    N1 5413   3.447   1.558  16.531  0.2834  0.4959 -0.2776
  361MPD2    H7 5414   3.427   1.551  16.631  1.9269  0.4488  0.0445
  362TMC3    C1 5415   3.269   1.710  16.519  0.1960 -0.7936  0.3224
  362TMC3    C2 5416   3.206   1.675  16.632  1.0905 -0.6907  0.0812
  362TMC3    C3 5417   3.084   1.738  16.669 -0.7286 -1.0883  0.0988
  362TMC3    C4 5418   3.208   1.802  16.432  0.1195 -0.2226  0.1012
  362TMC3    C5 5419   3.098   1.864  16.472  0.2247 -0.7225 -0.4914
  362TMC3    C6 5420   3.033   1.835  16.591  0.7246  0.0024 -0.0071
  362TMC3     C 5421   3.372   1.634  16.446 -0.0000  0.0377 -0.4848
  362TMC3     O 5422   3.397   1.665  16.333 -0.9759  0.0477 -0.0258
  362TMC3     H 5423   3.247   1.592  16.689 -0.4768 -1.5929 -0.1053
  362TMC3    H1 5424   3.255   1.836  16.340 -0.1873 -0.6176 -0.1986
  362TMC3    H2 5425   2.949   1.894  16.627  0.1963 -0.4292 -0.5322
  362TMC3    C7 5426   3.035   1.951  16.371  0.2216  0.2572 -0.4791
  362TMC3    C8 5427   3.023   1.706  16.797 -0.4390  0.1306  0.3336
  362TMC3    O1 5428   3.111   2.003  16.288 -0.4173 -1.1814 -0.5498
  362TMC3    O2 5429   3.094   1.660  16.883 -0.4845  0.6129 -0.5293
  363TMC3    C1 5430   1.963   4.285   9.217 -0.5450  0.4920 -0.0814
  363TMC3    C2 5431   1.954   4.183   9.310  0.7959 -0.2380 -0.2273
  363TMC3    C3 5432   1.836   4.175   9.381  0.0589 -0.0887  0.2222
  363TMC3    C4 5433   1.856   4.372   9.197  0.4328  0.1142 -0.5766
  363TMC3    C5 5434   1.740   4.359   9.266 -0.1515 -0.4537  0.7651
  363TMC3    C6 5435   1.734   4.265   9.363  0.1066  0.3965  0.5031
  363TMC3     C 5436   2.099   4.310   9.172 -0.2308 -0.0666 -0.6186
  363TMC3     O 5437   2.181   4.223   9.159  0.3304 -0.0331  0.5609
  363TMC3     H 5438   2.039   4.119   9.331  1.0259  0.0344 -0.3393
  363TMC3    H1 5439   1.863   4.449   9.121  2.7719  1.0390  0.5890
  363TMC3    H2 5440   1.650   4.273   9.431  1.1925  0.7351  1.7925
  363TMC3    C7 5441   1.643   4.469   9.254 -0.7093 -0.7139 -0.0954
  363TMC3    C8 5442   1.820   4.072   9.481  0.0772  0.8109 -0.1939
  363TMC3    O1 5443   1.677   4.573   9.207 -0.6917 -0.4107  0.7457
  363TMC3    O2 5444   1.710   4.075   9.538 -0.4158 -0.0448  0.1238
  364MPD2     C 5445   0.185   3.177  10.341  0.3949  0.9529 -0.3557
  364MPD2    C1 5446   0.311   3.162  10.292 -0.4704 -0.2518  0.3431
  364MPD2    C2 5447   0.389   3.054  10.335 -0.4239 -0.4571 -0.4957
  364MPD2    C3 5448   0.336   2.958  10.418 -0.3299 -0.8975  0.2954
  364MPD2    C4 5449   0.203   2.971  10.457 -0.1834  0.7019 -0.8823
  364MPD2    C5 5450   0.131   3.084  10.428  0.6997 -0.8320 -0.2000
  364MPD2     H 5451   0.488   3.043  10.292  0.6721 -1.1880  2.2512
  364MPD2    H1 5452   0.164   2.885  10.512  0.1284  0.7317 -0.6124
  364MPD2    H2 5453   0.125   3.266  10.322  0.0632  0.3923 -1.9003
  364MPD2    H3 5454   0.029   3.110  10.453  1.2125 -0.4458  1.5105
  364MPD2     N 5455   0.397   2.839  10.461  0.4156  0.2509 -0.3845
  364MPD2    H5 5456   0.367   2.791  10.545 -0.1667  0.6373 -0.3730
  364MPD2    N1 5457   0.357   3.273  10.220 -0.1372  0.5479 -0.1811
  364MPD2    H7 5458   0.294   3.352  10.230 -0.2290  0.4294  0.1990
  365TMC3    C1 5459   0.520   3.408  10.106  0.5184  0.4221  0.2761
  365TMC3    C2 5460   0.610   3.408   9.997 -0.2630 -0.4661  0.6004
  365TMC3    C3 5461   0.671   3.522   9.962  0.1721  0.2961 -0.0736
  365TMC3    C4 5462   0.479   3.525  10.166 -0.7073 -0.5528 -0.1178
  365TMC3    C5 5463   0.550   3.636  10.132  0.0871 -0.1298  0.1675
  365TMC3    C6 5464   0.645   3.633  10.035 -0.3464 -0.7164 -0.1078
  365TMC3     C 5465   0.479   3.279  10.157 -0.4034 -0.4219 -0.0298
  365TMC3     O 5466   0.548   3.184  10.124 -0.1652 -0.3196 -0.0790
  365TMC3     H 5467   0.632   3.315   9.945  1.1777 -0.2364  0.7994
  365TMC3    H1 5468   0.405   3.533  10.246  0.0946 -0.9674  0.6568
  365TMC3    H2 5469   0.701   3.724  10.016 -0.5850 -1.0398 -2.3610
  365TMC3    C7 5470   0.531   3.763  10.205  0.4486 -0.2126 -0.3239
  365TMC3    C8 5471   0.762   3.524   9.845 -0.1704  0.5294 -0.6668
  365TMC3    O1 5472   0.610   3.855  10.179  0.8121  0.0224 -0.4021
  365TMC3    O2 5473   0.754   3.621   9.771 -0.2651 -0.5634 -0.0998
  366MPD2     C 5474   4.068   3.896  15.025 -0.2993  0.1317  0.5059
  366MPD2    C1 5475   4.110   4.008  14.958  0.3879  0.3499 -0.2652
  366MPD2    C2 5476   4.239   4.039  14.930 -0.3889  0.6489  0.0639
  366MPD2    C3 5477   4.341   3.957  14.966 -0.2172  0.4429  0.5615
  366MPD2    C4 5478   4.304   3.847  15.032  0.1577 -0.1790  0.7624
  366MPD2    C5 5479   4.169   3.810  15.055  0.3209 -0.4426 -0.4406
  366MPD2     H 5480   4.259   4.133  14.879 -0.0828 -0.5180 -1.9304
  366MPD2    H1 5481   4.383   3.777  15.061  0.7506  1.3225  2.8086
  366MPD2    H2 5482   3.963   3.875  15.039 -0.3618  0.7484  0.9597
  366MPD2    H3 5483   4.150   3.713  15.099  0.5251 -0.9721 -1.5241
  366MPD2     N 5484   4.471   4.009  14.963  0.6176 -0.6942  0.7785
  366MPD2    H5 5485   4.542   3.975  15.027  1.5032 -1.0513 -0.3959
  366MPD2    N1 5486   4.017   4.113  14.934  0.7502 -0.5325 -0.1179
  366MPD2    H7 5487   4.054   4.203  14.907 -0.5175 -0.6430 -2.2122
  367TMC3    C1 5488   3.817   4.225  14.979  0.5759 -0.1674  0.7652
  367TMC3    C2 5489   3.887   4.300  15.076 -0.5615  0.2971  0.0367
  367TMC3    C3 5490   3.866   4.433  15.083  0.0587  0.3039 -0.6282
  367TMC3    C4 5491   3.727   4.277  14.895  0.5324 -0.0218 -0.2259
  367TMC3    C5 5492   3.694   4.409  14.915 -0.4318  0.2826 -0.3140
  367TMC3    C6 5493   3.772   4.489  14.996  0.2930 -0.1804  0.1463
  367TMC3     C 5494   3.881   4.100  14.944  0.3941  0.0985 -0.4194
  367TMC3     O 5495   3.811   4.003  14.917 -0.0501 -0.4837 -0.0287
  367TMC3     H 5496   3.950   4.240  15.141 -0.9468 -0.0180  0.1180
  367TMC3    H1 5497   3.686   4.220  14.812 -0.6395 -0.8330  0.9132
  367TMC3    H2 5498   3.740   4.592  15.008  1.4445  0.1058  0.7690
  367TMC3    C7 5499   3.587   4.468  14.836 -0.1413  0.6795 -0.3227
  367TMC3    C8 5500   3.962   4.514  15.157 -0.8967 -0.8668  0.1198
  367TMC3    O1 5501   3.591   4.589  14.813  0.0964 -0.6718  0.1372
  367TMC3    O2 5502   4.044   4.452  15.224  0.6204 -0.6131  0.7975
  368MPD2     C 5503   4.190   1.763  13.258 -0.1285  0.1609 -0.2064
  368MPD2    C1 5504   4.240   1.846  13.157 -0.3318 -0.3675 -0.3608
  368MPD2    C2 5505   4.346   1.801  13.078 -0.3325  0.2476  0.3611
  368MPD2    C3 5506   4.403   1.679  13.094 -0.1304 -0.5826  0.5057
  368MPD2    C4 5507   4.350   1.601  13.197 -0.1252  0.3213 -0.6195
  368MPD2    C5 5508   4.252   1.645  13.282  0.6470 -0.7313  0.3795
  368MPD2     H 5509   4.382   1.872  13.004  1.1855 -1.4447 -0.5126
  368MPD2    H1 5510   4.397   1.504  13.211 -1.9765 -0.6264 -0.9389
  368MPD2    H2 5511   4.118   1.796  13.332 -0.8599 -1.1041 -0.3656
  368MPD2    H3 5512   4.217   1.583  13.363  0.9462 -1.2632  0.0996
  368MPD2     N 5513   4.503   1.628  13.012  0.0692 -1.1198  0.2867
  368MPD2    H5 5514   4.561   1.553  13.048 -0.1232 -2.2684 -1.7700
  368MPD2    N1 5515   4.175   1.969  13.136 -0.5679  0.0448 -0.2734
  368MPD2    H7 5516   4.078   1.971  13.165 -0.0233  0.6095  1.4935
  369TMC3    C1 5517   4.129   2.165  12.998 -0.8233  0.0757  0.7402
  369TMC3    C2 5518   4.162   2.235  12.881 -0.1724  0.2981  0.3133
  369TMC3    C3 5519   4.055   2.281  12.813 -0.0195  0.0310 -0.7166
  369TMC3    C4 5520   4.005   2.158  13.051 -0.3105  0.3072  0.0685
  369TMC3    C5 5521   3.909   2.227  12.982  0.0971 -0.2646  0.9361
  369TMC3    C6 5522   3.925   2.271  12.854 -0.7896 -0.3652 -0.4214
  369TMC3     C 5523   4.227   2.076  13.063  1.1395 -0.8669  0.5851
  369TMC3     O 5524   4.341   2.110  13.039  0.4046  1.0407  0.5831
  369TMC3     H 5525   4.257   2.231  12.829 -1.2393 -0.9197 -1.5487
  369TMC3    H1 5526   3.990   2.112  13.148  3.8464 -1.2658 -0.0205
  369TMC3    H2 5527   3.846   2.324  12.801 -1.0593 -0.6071 -0.2612
  369TMC3    C7 5528   3.787   2.233  13.051 -0.3411 -0.9300  0.3093
  369TMC3    C8 5529   4.091   2.374  12.703  0.1687  0.6821 -0.4513
  369TMC3    O1 5530   3.802   2.223  13.171 -0.1251 -0.2406  0.1295
  369TMC3    O2 5531   4.026   2.371  12.596  0.1519 -0.3111 -0.2292
  370TMC3    C1 5532   4.704   2.234  16.144  0.1957  0.0814  0.2883
  370TMC3    C2 5533   4.627   2.198  16.253  0.0327  0.3223  0.4323
  370TMC3    C3 5534   4.499   2.156  16.225 -0.0593  0.2260 -0.3273
  370TMC3    C4 5535   4.653   2.238  16.018 -0.5751  0.5558  0.2936
  370TMC3    C5 5536   4.534   2.188  15.998 -0.7255 -0.6594  0.1008
  370TMC3    C6 5537   4.447   2.151  16.102 -0.3835 -0.5861  0.1550
  370TMC3     C 5538   0.106   2.309  16.170 -0.4207  0.0127 -0.2004
  370TMC3     O 5539   0.173   2.272  16.262 -0.4421  0.3430 -0.0559
  370TMC3     H 5540   4.674   2.197  16.351 -1.4352  0.9308  1.1487
  370TMC3    H1 5541   4.710   2.273  15.933  2.6870 -3.2344  0.9140
  370TMC3    H2 5542   4.352   2.102  16.084  0.1094 -1.1269 -1.0093
  370TMC3    C7 5543   4.531   2.104  15.880 -0.2071 -0.4183  0.3728
  370TMC3    C8 5544   4.449   2.058  16.317 -0.2262  0.4138 -0.5264
  370TMC3    O1 5545   4.636   2.084  15.815  0.6256 -0.1627 -0.2527
  370TMC3    O2 5546   4.381   1.968  16.267  0.8234  0.3802 -0.0610
  371TMC3    C1 5547   0.929   0.610  15.265  0.5934  0.1161  0.1356
  371TMC3    C2 5548   0.794   0.585  15.299  0.0366 -0.3347 -1.2208
  371TMC3    C3 5549   0.720   0.701  15.304  0.0741 -0.1299 -0.2967
  371TMC3    C4 5550   0.981   0.730  15.241 -0.2678 -0.1924 -0.8275
  371TMC3    C5 5551   0.897   0.844  15.254  0.6086 -0.0791  0.7645
  371TMC3    C6 5552   0.765   0.827  15.278  0.6785 -0.2945 -0.0352
  371TMC3     C 5553   1.000   0.484  15.225  0.4268  0.2285 -0.5357
  371TMC3     O 5554   1.080   0.501  15.132  0.0451 -0.1129 -0.2020
  371TMC3     H 5555   0.747   0.489  15.314  2.4793 -1.0938  1.5006
  371TMC3    H1 5556   1.076   0.733  15.189 -0.7027  0.3477 -1.5858
  371TMC3    H2 5557   0.701   0.914  15.283  0.6573 -0.2405 -1.4893
  371TMC3    C7 5558   0.933   0.976  15.195  0.1262 -0.1230 -0.1570
  371TMC3    C8 5559   0.583   0.678  15.340  0.3975 -0.2573  0.1218
  371TMC3    O1 5560   0.838   1.050  15.174 -0.2399 -0.1764 -0.1477
  371TMC3    O2 5561   0.550   0.560  15.320  0.7551 -0.1497 -0.5656
  372MPD2     C 5562   0.032   2.000  13.235 -0.3955 -1.0667 -0.5508
  372MPD2    C1 5563   0.140   1.920  13.265 -0.2100 -0.2329  0.9887
  372MPD2    C2 5564   0.118   1.803  13.335  0.0664 -0.5982  0.7073
  372MPD2    C3 5565   4.715   1.758  13.382  0.0910  0.3073 -0.1953
  372MPD2    C4 5566   4.606   1.841  13.349  0.2133 -0.2597 -0.2231
  372MPD2    C5 5567   4.625   1.959  13.273 -0.7295  0.8781  0.5395
  372MPD2     H 5568   0.199   1.735  13.359 -0.3113 -1.7630 -1.4211
  372MPD2    H1 5569   4.507   1.806  13.375 -0.4663  1.0617 -1.0345
  372MPD2    H2 5570   0.039   2.086  13.168  0.1670 -1.0996 -0.5364
  372MPD2    H3 5571   4.537   2.017  13.248 -0.9024 -0.6369 -2.2902
  372MPD2     N 5572   4.708   1.641  13.460  0.3772  0.2226 -0.1614
  372MPD2    H5 5573   0.068   1.578  13.460  0.1261 -0.0988 -0.1431
  372MPD2    N1 5574   0.272   1.955  13.218  0.2227 -0.1865 -0.3722
  372MPD2    H7 5575   0.355   1.899  13.233 -0.4837 -0.5128  2.2306
  373TMC3    C1 5576   4.608   1.478  13.613  0.0687 -0.8641 -0.5144
  373TMC3    C2 5577   4.591   1.485  13.746 -0.0001  0.0619 -0.2880
  373TMC3    C3 5578   4.663   1.401  13.820 -0.2332 -0.4808  0.0545
  373TMC3    C4 5579   4.679   1.380  13.552 -0.0996 -0.2718  0.6244
  373TMC3    C5 5580   0.035   1.300  13.634 -0.1154 -0.4368  0.6790
  373TMC3    C6 5581   0.028   1.304  13.769  0.1679 -0.7821  0.6061
  373TMC3     C 5582   4.596   1.608  13.543 -0.0836 -0.2740  0.0891
  373TMC3     O 5583   4.513   1.686  13.584  0.0019 -0.2091  0.5201
  373TMC3     H 5584   4.557   1.577  13.793 -0.5373 -1.1167  1.6412
  373TMC3    H1 5585   4.710   1.377  13.448 -0.2119 -1.2709  0.6138
  373TMC3    H2 5586   0.089   1.250  13.841  1.7301 -3.1525 -2.5256
  373TMC3    C7 5587   0.122   1.197  13.581 -0.0123  0.1192  0.4376
  373TMC3    C8 5588   0.007   1.466  13.933  0.3094  0.5889 -0.1704
  373TMC3    O1 5589   0.107   1.164  13.466  0.1087 -0.0188  0.1542
  373TMC3    O2 5590   0.073   1.561  13.899  0.4711 -0.3232 -0.6135
  374TMC3    C1 5591   1.088   1.961   9.462  0.0008 -0.0538  0.5827
  374TMC3    C2 5592   1.178   2.045   9.517 -0.8603  0.1542 -0.3097
  374TMC3    C3 5593   1.247   2.129   9.434  0.9210 -0.3648 -0.4423
  374TMC3    C4 5594   1.073   1.945   9.323 -0.1436 -0.0827 -0.5624
  374TMC3    C5 5595   1.147   2.030   9.241  0.3104 -0.2312  0.0826
  374TMC3    C6 5596   1.222   2.132   9.298  0.0100  0.4454 -0.2369
  374TMC3     C 5597   1.026   1.858   9.543  0.2790  0.5065  0.2754
  374TMC3     O 5598   0.956   1.774   9.484 -0.1466 -0.3579 -0.5176
  374TMC3     H 5599   1.195   2.035   9.624  1.9618  1.0654 -0.6923
  374TMC3    H1 5600   1.001   1.877   9.280 -1.1382  0.2917  0.5001
  374TMC3    H2 5601   1.299   2.172   9.233  2.1604 -1.2012  1.3101
  374TMC3    C7 5602   1.124   2.040   9.104  0.4978  0.1407 -0.3484
  374TMC3    C8 5603   1.331   2.238   9.497  0.1973  0.2631  0.0736
  374TMC3    O1 5604   1.203   2.105   9.037 -0.4127  0.1039  0.2942
  374TMC3    O2 5605   1.349   2.335   9.428  0.0936 -0.4795 -0.3168
  375MPD2     C 5606   1.161   3.114  16.964 -0.5596  0.5392  0.2688
  375MPD2    C1 5607   1.110   2.984  16.946 -0.7619 -0.3153 -0.1268
  375MPD2    C2 5608   1.176   2.899  16.859  0.1529 -0.2345  0.0611
  375MPD2    C3 5609   1.293   2.931  16.801 -0.2142 -0.2208 -0.6311
  375MPD2    C4 5610   1.338   3.056  16.829 -0.4653 -0.7770  0.1306
  375MPD2    C5 5611   1.283   3.145  16.915  0.1423  0.9774  0.3013
  375MPD2     H 5612   1.130   2.801  16.850  1.0624 -0.6444 -0.0490
  375MPD2    H1 5613   1.431   3.080  16.779 -0.5427  0.3961  0.5591
  375MPD2    H2 5614   1.109   3.187  17.023 -0.5346  1.2680 -0.6144
  375MPD2    H3 5615   1.317   3.246  16.932 -0.0437  1.3939 -1.7644
  375MPD2     N 5616   1.357   2.856  16.698  0.1741  0.4865 -0.1859
  375MPD2    H5 5617   1.453   2.872  16.669  0.8889 -0.9034  1.4017
  375MPD2    N1 5618   0.980   2.947  16.978 -0.3772 -0.3746  0.0263
  375MPD2    H7 5619   0.953   2.849  16.975 -0.6288 -0.2536 -1.7307
  376TMC3    C1 5620   1.356   2.739  16.498  0.0902 -0.7853  0.0157
  376TMC3    C2 5621   1.486   2.775  16.487  0.1032  0.1351  0.4710
  376TMC3    C3 5622   1.532   2.841  16.370 -0.0237 -1.3528  0.0332
  376TMC3    C4 5623   1.285   2.734  16.379 -0.2107 -0.5733  0.1278
  376TMC3    C5 5624   1.333   2.781  16.260  0.1665 -0.6197  0.2435
  376TMC3    C6 5625   1.459   2.830  16.253 -0.0349  0.0401 -0.0986
  376TMC3     C 5626   1.276   2.774  16.616 -0.6063 -0.1511 -0.3226
  376TMC3     O 5627   1.152   2.762  16.615 -0.1110 -0.0726  0.2834
  376TMC3     H 5628   1.540   2.771  16.581  0.9673  1.4909  0.0339
  376TMC3    H1 5629   1.177   2.723  16.388 -0.2010 -1.2873 -0.6211
  376TMC3    H2 5630   1.495   2.878  16.163 -0.0201 -1.8183 -1.0848
  376TMC3    C7 5631   1.257   2.757  16.135  0.0714 -0.2681 -0.2574
  376TMC3    C8 5632   1.678   2.831  16.359  0.0529  0.0555 -0.1825
  376TMC3    O1 5633   1.317   2.784  16.032  0.2855  0.2350  0.2083
  376TMC3    O2 5634   1.736   2.941  16.346 -0.2039  0.6986 -0.3997
  377MPD2     C 5635   3.140   2.210  12.087  0.4922 -0.1357 -0.3083
  377MPD2    C1 5636   3.174   2.202  12.225  0.0448  0.5020 -0.0236
  377MPD2    C2 5637   3.090   2.148  12.318 -0.0152 -0.6417  0.7567
  377MPD2    C3 5638   2.974   2.091  12.262  0.4745 -0.2712 -0.3351
  377MPD2    C4 5639   2.947   2.092  12.129 -0.6092 -0.6210 -0.5548
  377MPD2    C5 5640   3.026   2.154  12.042  0.9262  0.7238 -0.5679
  377MPD2     H 5641   3.115   2.137  12.423  0.3439 -0.2441  0.7132
  377MPD2    H1 5642   2.862   2.046  12.081 -0.0779 -3.5102  1.2870
  377MPD2    H2 5643   3.207   2.253  12.013  0.9094 -0.1991  0.0312
  377MPD2    H3 5644   2.991   2.173  11.942  0.1532 -1.1521 -0.6594
  377MPD2     N 5645   2.889   2.008  12.330 -0.2350 -0.0759  0.1999
  377MPD2    H5 5646   2.819   1.960  12.274  0.4185  0.6569 -1.2513
  377MPD2    N1 5647   3.303   2.244  12.254 -0.0385  0.2052 -0.8183
  377MPD2    H7 5648   3.341   2.284  12.169 -1.7862  0.0591 -1.6605
  378TMC3    C1 5649   3.688   2.254  12.229 -0.5264  0.0491 -0.1190
  378TMC3    C2 5650   3.561   2.287  12.249  0.3286  0.3548 -0.3213
  378TMC3    C3 5651   3.506   2.275  12.371  0.9582  0.3022 -0.7474
  378TMC3    C4 5652   3.756   2.194  12.325 -0.4512 -0.1859 -0.2807
  378TMC3    C5 5653   3.699   2.178  12.447 -0.0378  0.1898 -0.2527
  378TMC3    C6 5654   3.572   2.225  12.476  0.2002 -0.0566  0.1331
  378TMC3     C 5655   3.745   2.308  12.110 -0.0648 -0.7124 -0.2853
  378TMC3     O 5656   3.671   2.375  12.041  0.1720  0.3258  0.1178
  378TMC3     H 5657   3.505   2.342  12.174  0.4815  2.5917  1.2165
  378TMC3    H1 5658   3.854   2.152  12.302 -0.5591 -1.4392  1.5424
  378TMC3    H2 5659   3.520   2.218  12.571  0.9708  1.8858  0.6920
  378TMC3    C7 5660   3.769   2.130  12.564 -0.8154 -0.5484  0.4106
  378TMC3    C8 5661   3.360   2.255  12.382 -0.0529  0.2376 -0.1815
  378TMC3    O1 5662   3.704   2.115  12.666 -0.9402 -0.1214 -0.8726
  378TMC3    O2 5663   3.311   2.228  12.494  0.1947  0.1946  0.0131
  379MPD2     C 5664   0.390   0.159  15.855  0.5476 -0.7361 -1.1085
  379MPD2    C1 5665   0.276   0.091  15.875  0.0047  0.0705 -0.1571
  379MPD2    C2 5666   0.265   0.003  15.984 -0.2356 -0.1420 -0.6510
  379MPD2    C3 5667   0.373   4.710  16.076  0.2821 -0.3750  0.4004
  379MPD2    C4 5668   0.481   0.063  16.049  0.9993 -0.1817 -0.6928
  379MPD2    C5 5669   0.492   0.154  15.945 -0.1569  0.4218 -0.7711
  379MPD2     H 5670   0.180   4.656  15.994 -1.3595  1.1602 -1.6389
  379MPD2    H1 5671   0.565   0.054  16.117  0.0861 -1.3279  0.2855
  379MPD2    H2 5672   0.395   0.227  15.771 -1.0303  0.2041 -0.4519
  379MPD2    H3 5673   0.578   0.220  15.937 -0.5200  1.2336  2.0500
  379MPD2     N 5674   0.383   4.613  16.176 -0.6615 -0.0711 -0.3133
  379MPD2    H5 5675   0.466   4.620  16.234  0.4345  0.3153 -1.9177
  379MPD2    N1 5676   0.176   0.109  15.774  0.3254 -0.1695 -0.0127
  379MPD2    H7 5677   0.201   0.154  15.686 -1.3182  1.6169  0.4618
  380TMC3    C1 5678   4.696   0.049  15.674  0.0083  1.0523 -0.4505
  380TMC3    C2 5679   0.047   4.706  15.567 -0.9274 -1.2261 -0.3914
  380TMC3    C3 5680   4.717   4.707  15.441 -0.3710  0.3764  0.6195
  380TMC3    C4 5681   4.576   0.099  15.663 -0.5593 -0.1234 -0.1736
  380TMC3    C5 5682   4.525   0.098  15.533 -0.0355 -0.0931  0.0957
  380TMC3    C6 5683   4.594   0.041  15.427  0.5809  0.3222 -0.5017
  380TMC3     C 5684   0.047   0.073  15.797 -0.3646 -0.6740  0.0553
  380TMC3     O 5685   4.711   0.059  15.906  0.0612  0.8356 -0.3534
  380TMC3     H 5686   0.130   4.639  15.585 -0.5580 -0.3355  1.2158
  380TMC3    H1 5687   4.522   0.146  15.744  0.5466  2.0621 -0.7134
  380TMC3    H2 5688   4.544   0.037  15.331 -0.2126  0.1190 -0.0882
  380TMC3    C7 5689   4.392   0.149  15.508  0.4463 -0.2532  0.2633
  380TMC3    C8 5690   0.095   0.007  15.336 -0.2053  0.0163 -0.3389
  380TMC3    O1 5691   4.353   0.251  15.565 -0.3233 -0.1925 -0.1763
  380TMC3    O2 5692   0.054   0.050  15.231  0.1340 -0.3048 -0.1622
  381TMC3    C1 5693   4.108   1.744  16.129  0.8972 -0.2062 -0.4459
  381TMC3    C2 5694   4.233   1.765  16.074 -0.5115  0.6665  0.0951
  381TMC3    C3 5695   4.299   1.649  16.040 -0.3897  0.3691 -0.4759
  381TMC3    C4 5696   4.067   1.619  16.167  0.2415  0.2606  0.5559
  381TMC3    C5 5697   4.140   1.508  16.142 -0.5293  0.5663  0.7928
  381TMC3    C6 5698   4.253   1.519  16.068 -0.1763  0.1045  0.1205
  381TMC3     C 5699   4.026   1.865  16.151 -0.1499  0.1866  0.4199
  381TMC3     O 5700   4.072   1.977  16.138 -0.3576 -0.0041 -0.6609
  381TMC3     H 5701   4.280   1.861  16.056 -0.1559  0.8081  1.7939
  381TMC3    H1 5702   3.972   1.611  16.219 -0.4006 -1.0781 -0.8087
  381TMC3    H2 5703   4.326   1.439  16.073 -0.0931  0.3679  3.0072
  381TMC3    C7 5704   4.122   1.384  16.215  0.0595 -0.2611  0.3085
  381TMC3    C8 5705   4.437   1.657  16.029  0.6545 -0.0111 -0.0619
  381TMC3    O1 5706   4.171   1.278  16.172  0.2110  0.4824  0.7863
  381TMC3    O2 5707   4.500   1.573  15.967  0.5434  0.2116 -0.4585
  382MPD2     C 5708   3.806   3.727   0.240  0.2757 -1.0249  0.5187
  382MPD2    C1 5709   3.733   3.737   0.123 -0.5357  0.5195  0.4889
  382MPD2    C2 5710   3.674   3.617   0.066  0.2449 -0.9334 -0.4816
  382MPD2    C3 5711   3.682   3.498   0.130  0.1380 -0.0309  0.1722
  382MPD2    C4 5712   3.757   3.491   0.250 -0.6537  0.2516 -0.4495
  382MPD2    C5 5713   3.809   3.606   0.306 -0.4723 -0.1511 -0.5067
  382MPD2     H 5714   3.625   3.626  17.649  2.1494  0.6691 -1.2897
  382MPD2    H1 5715   3.770   3.405   0.314 -1.1879  0.6838  0.2243
  382MPD2    H2 5716   3.860   3.807   0.289  0.1033 -0.2180 -0.6272
  382MPD2    H3 5717   3.851   3.599   0.405 -0.6949 -2.0124 -0.5473
  382MPD2     N 5718   3.642   3.380   0.067 -0.8231 -0.1295  0.6978
  382MPD2    H5 5719   3.671   3.293   0.111 -2.4787 -0.5898  0.9141
  382MPD2    N1 5720   3.711   3.862   0.055 -0.4010  0.0872 -0.2971
  382MPD2    H7 5721   3.660   3.861  17.648 -0.8001  3.5780 -0.0710
  383TMC3    C1 5722   3.525   3.237  17.598  0.1599 -0.0249 -0.1910
  383TMC3    C2 5723   3.498   3.194  17.468  0.2025 -0.2325  0.0483
  383TMC3    C3 5724   3.439   3.072  17.452  0.2029  0.5147 -0.6264
  383TMC3    C4 5725   3.505   3.151   0.022  0.5689  0.1288  0.0637
  383TMC3    C5 5726   3.468   3.018  17.680 -0.7516 -0.2219  0.3990
  383TMC3    C6 5727   3.418   2.983  17.555  0.3057  0.6783 -0.6638
  383TMC3     C 5728   3.571   3.374  17.627 -0.0233  0.0523 -0.8112
  383TMC3     O 5729   3.527   3.465  17.560 -0.1186 -0.0764 -0.4679
  383TMC3     H 5730   3.528   3.258  17.386  1.4915 -1.4161 -0.4016
  383TMC3    H1 5731   3.509   3.187   0.124 -1.6972 -0.2331  0.2832
  383TMC3    H2 5732   3.331   2.920  17.543  0.5792  0.1797 -0.0159
  383TMC3    C7 5733   3.413   2.956   0.115  0.1969  0.3787  0.3919
  383TMC3    C8 5734   3.392   3.035  17.318 -0.2034 -0.0502  0.1701
  383TMC3    O1 5735   3.400   3.028   0.210  0.2182  0.1762 -0.1168
  383TMC3    O2 5736   3.340   3.128  17.255 -0.0035  0.5914  0.4419
  384MPD2     C 5737   4.430   0.202  11.764  1.0946 -0.3614  0.1364
  384MPD2    C1 5738   4.506   0.189  11.880 -0.3095 -0.4943 -0.5484
  384MPD2    C2 5739   4.607   0.097  11.874 -0.7521  0.3088 -0.1936
  384MPD2    C3 5740   4.633   0.026  11.756 -0.2423  0.0868 -0.1531
  384MPD2    C4 5741   4.555   0.040  11.649  0.3341  0.0794  0.4756
  384MPD2    C5 5742   4.458   0.125  11.659 -0.6102  0.2843 -0.0995
  384MPD2     H 5743   4.656   0.072  11.967 -1.3738  3.0404  0.8875
  384MPD2    H1 5744   4.567   4.706  11.556 -1.2041 -0.0906  0.3716
  384MPD2    H2 5745   4.340   0.261  11.764  0.6352 -1.0589 -1.3330
  384MPD2    H3 5746   4.388   0.127  11.576  1.7799 -0.3546 -2.1427
  384MPD2     N 5747   0.019   4.652  11.764 -0.0616 -0.6814 -0.0332
  384MPD2    H5 5748   0.061   4.645  11.856  1.0484  1.9698 -0.3342
  384MPD2    N1 5749   4.474   0.253  12.001 -0.3061  0.2307 -1.1187
  384MPD2    H7 5750   4.540   0.236  12.077 -1.5524  1.1057  0.1700
  385TMC3    C1 5751   0.150   4.466  11.731  0.8859 -0.3782 -0.6548
  385TMC3    C2 5752   0.115   4.335  11.719  0.1322 -0.4958 -0.4333
  385TMC3    C3 5753   0.105   4.255  11.837 -0.3073  0.1612  0.4352
  385TMC3    C4 5754   0.197   4.518  11.850 -0.8046 -0.1371 -0.4792
  385TMC3    C5 5755   0.190   4.442  11.968 -0.1198  0.3032  0.2256
  385TMC3    C6 5756   0.135   4.318  11.958  0.4273  0.0041  0.7754
  385TMC3     C 5757   0.066   4.564  11.672 -0.7223  0.2625 -0.4991
  385TMC3     O 5758   0.020   4.538  11.563 -0.0896 -0.4718 -0.5537
  385TMC3     H 5759   0.070   4.298  11.628  0.0131 -2.4632  0.4119
  385TMC3    H1 5760   0.235   4.620  11.848  0.6874 -0.6959  0.0168
  385TMC3    H2 5761   0.113   4.271  12.054  0.4108  0.1563  0.8473
  385TMC3    C7 5762   0.147   4.536  12.074  1.1774  0.1048 -0.1740
  385TMC3    C8 5763   0.070   4.112  11.825  0.3721  0.5127 -0.3278
  385TMC3    O1 5764   0.112   4.646  12.035 -0.4272  0.3824 -0.0287
  385TMC3    O2 5765   0.033   4.059  11.929 -0.2491  0.6508  0.4399
  386TMC3    C1 5766   0.603   2.135  11.897  0.4130  0.4073 -0.0323
  386TMC3    C2 5767   0.635   2.089  11.775  0.0752 -0.1779 -0.0965
  386TMC3    C3 5768   0.566   2.128  11.665  0.2683  0.6032 -1.0831
  386TMC3    C4 5769   0.524   2.248  11.907  0.3311 -0.3038 -0.2302
  386TMC3    C5 5770   0.448   2.286  11.800  1.0675  0.1674 -0.3102
  386TMC3    C6 5771   0.473   2.230  11.672  0.7065  0.3478  0.0989
  386TMC3     C 5772   0.711   2.133  11.995 -0.0109  0.8606 -0.0540
  386TMC3     O 5773   0.741   2.241  12.041  0.1927 -0.7669  0.3173
  386TMC3     H 5774   0.722   2.026  11.768  1.8246  2.2790 -0.5687
  386TMC3    H1 5775   0.515   2.288  12.007 -0.7660  0.1896 -0.5260
  386TMC3    H2 5776   0.405   2.244  11.590  0.9591 -1.5671 -0.4351
  386TMC3    C7 5777   0.348   2.390  11.817 -0.1166 -0.1165 -0.1521
  386TMC3    C8 5778   0.601   2.078  11.540 -0.9685 -1.1314 -0.2111
  386TMC3    O1 5779   0.302   2.407  11.929  0.1568 -0.5103  0.1956
  386TMC3    O2 5780   0.667   1.975  11.544  0.2028  0.4563 -0.5563
  387MPD2     C 5781   2.775   2.683   9.471 -0.0635 -0.0208  0.0918
  387MPD2    C1 5782   2.859   2.709   9.573 -0.2655 -0.1159  0.2148
  387MPD2    C2 5783   2.959   2.619   9.608  0.4246 -0.2111  0.6209
  387MPD2    C3 5784   2.971   2.493   9.550 -0.1518  0.2695 -0.0295
  387MPD2    C4 5785   2.894   2.466   9.442  0.6784 -0.2352  0.8324
  387MPD2    C5 5786   2.799   2.561   9.404  0.8709  0.2689 -0.4531
  387MPD2     H 5787   3.026   2.660   9.683  0.9141  1.8602 -0.9438
  387MPD2    H1 5788   2.895   2.367   9.399  0.6321 -0.4607  1.3542
  387MPD2    H2 5789   2.695   2.746   9.433  0.3170  0.8874  0.8263
  387MPD2    H3 5790   2.734   2.529   9.323  0.0914  1.0345 -0.1392
  387MPD2     N 5791   3.057   2.401   9.618  0.1029  0.3152  0.7361
  387MPD2    H5 5792   3.110   2.442   9.694 -1.1664 -0.8815  2.2726
  387MPD2    N1 5793   2.848   2.827   9.648 -0.5310 -0.0218 -0.0755
  387MPD2    H7 5794   2.915   2.847   9.721  0.9569  0.2632 -1.5217
  388TMC3    C1 5795   2.749   2.989   9.772  0.0338 -0.5545 -0.1140
  388TMC3    C2 5796   2.692   3.115   9.780  0.2713 -0.1238 -0.0954
  388TMC3    C3 5797   2.676   3.172   9.909  0.1951 -0.6131 -0.0690
  388TMC3    C4 5798   2.780   2.918   9.891  0.0146 -0.3752  0.4311
  388TMC3    C5 5799   2.768   2.983  10.017  0.3536  0.1348 -0.0111
  388TMC3    C6 5800   2.708   3.105  10.028 -0.4553 -0.2298  0.5187
  388TMC3     C 5801   2.747   2.916   9.647  0.5037  0.1879  0.4163
  388TMC3     O 5802   2.645   2.935   9.583 -0.4314 -0.3371  0.8354
  388TMC3     H 5803   2.681   3.169   9.687  1.5020 -0.9872 -0.7397
  388TMC3    H1 5804   2.813   2.816   9.880  3.0809  0.7904 -1.2707
  388TMC3    H2 5805   2.698   3.149  10.126 -1.0007  0.2143  0.2657
  388TMC3    C7 5806   2.833   2.921  10.141  0.0296 -0.0579 -0.0344
  388TMC3    C8 5807   2.611   3.297   9.916  0.2811 -0.4556  0.0684
  388TMC3    O1 5808   2.780   2.944  10.249 -0.0062  0.5892  0.2384
  388TMC3    O2 5809   2.548   3.322  10.020  0.0361 -0.1427  0.7638
  389MPD2     C 5810   2.393   0.565  11.378 -0.0423  0.3228 -0.2048
  389MPD2    C1 5811   2.286   0.537  11.299 -0.1659 -0.5861 -0.0864
  389MPD2    C2 5812   2.171   0.490  11.361 -0.0775  0.2300 -0.1609
  389MPD2    C3 5813   2.174   0.483  11.502  0.1140 -1.0781 -0.3370
  389MPD2    C4 5814   2.288   0.512  11.578  0.3295 -0.0546 -0.5824
  389MPD2    C5 5815   2.396   0.551  11.512 -0.4569  1.2306  0.2796
  389MPD2     H 5816   2.077   0.477  11.307  0.2958 -1.6479 -0.3737
  389MPD2    H1 5817   2.300   0.509  11.686  1.9495 -1.0711 -0.8010
  389MPD2    H2 5818   2.481   0.598  11.323 -0.2880  1.3110 -0.0049
  389MPD2    H3 5819   2.480   0.575  11.575 -0.4228  1.6111  0.0888
  389MPD2     N 5820   2.063   0.437  11.579 -0.7014  0.3047 -0.5828
  389MPD2    H5 5821   2.081   0.410  11.675 -0.1767 -2.3239 -1.4035
  389MPD2    N1 5822   2.302   0.548  11.160  0.2871  0.1879 -0.2257
  389MPD2    H7 5823   2.398   0.565  11.130 -0.5159  0.4673 -2.6061
  390TMC3    C1 5824   1.857   0.337  11.613  0.4268 -0.0806 -0.6529
  390TMC3    C2 5825   1.907   0.232  11.683  0.1609 -0.0750  0.5864
  390TMC3    C3 5826   1.813   0.153  11.752  0.1909  0.0061 -0.3442
  390TMC3    C4 5827   1.719   0.351  11.614  0.2141  0.6821  0.0853
  390TMC3    C5 5828   1.633   0.258  11.656  0.2605 -0.2691 -0.1429
  390TMC3    C6 5829   1.683   0.162  11.743  0.1069  0.0245  0.4344
  390TMC3     C 5830   1.940   0.420  11.528  0.9010  0.1378 -0.0747
  390TMC3     O 5831   1.885   0.478  11.435  0.0994  0.1881 -0.5450
  390TMC3     H 5832   2.013   0.213  11.696  0.5287 -1.1107 -4.1357
  390TMC3    H1 5833   1.675   0.419  11.542  0.7857  0.7876 -0.1642
  390TMC3    H2 5834   1.620   0.085  11.784  1.5610 -1.2817  0.2447
  390TMC3    C7 5835   1.575   0.195  11.543 -0.5219 -0.1357  0.2213
  390TMC3    C8 5836   1.847   0.015  11.738 -0.1137  0.6008 -0.3285
  390TMC3    O1 5837   1.636   0.199  11.435 -0.0952 -0.0738 -0.5269
  390TMC3    O2 5838   1.857   4.691  11.624 -0.2008 -0.7848 -0.2168
  391MPD2     C 5839   1.325   1.927  11.028  0.2559  0.0387  0.1116
  391MPD2    C1 5840   1.454   1.973  11.044 -0.3051  0.3834 -0.4944
  391MPD2    C2 5841   1.525   2.006  10.927 -0.1833  0.6010 -0.4043
  391MPD2    C3 5842   1.467   1.993  10.800  0.3163 -0.6564  0.3171
  391MPD2    C4 5843   1.342   1.935  10.791  0.0681  0.4298  0.4164
  391MPD2    C5 5844   1.271   1.917  10.909  0.7999  0.6207  0.6795
  391MPD2     H 5845   1.617   2.063  10.932  0.7055 -0.9223  0.6831
  391MPD2    H1 5846   1.292   1.924  10.696  1.1344 -1.2119  0.0475
  391MPD2    H2 5847   1.267   1.898  11.115 -0.1421  2.0239  0.5086
  391MPD2    H3 5848   1.177   1.864  10.899  2.8006 -2.4586 -1.8251
  391MPD2     N 5849   1.543   2.035  10.691 -0.0921  0.5209  0.4377
  391MPD2    H5 5850   1.641   2.055  10.705 -0.3200 -0.0487  2.7046
  391MPD2    N1 5851   1.500   1.996  11.180 -0.4204 -0.7861 -0.0222
  391MPD2    H7 5852   1.435   1.976  11.256  0.0436 -2.0328  0.0435
  392TMC3    C1 5853   1.594   2.096  10.475 -0.0484 -0.6289 -0.0860
  392TMC3    C2 5854   1.551   2.099  10.344  0.1102 -0.3447  0.2614
  392TMC3    C3 5855   1.607   2.187  10.257  0.1049  0.3714 -0.1328
  392TMC3    C4 5856   1.691   2.179  10.522 -0.1293  0.1648  0.2640
  392TMC3    C5 5857   1.743   2.270  10.435 -0.7653  0.7365  0.3877
  392TMC3    C6 5858   1.701   2.279  10.304  0.3468  0.3194 -0.5052
  392TMC3     C 5859   1.490   2.063  10.565 -0.0655  0.3231  0.0092
  392TMC3     O 5860   1.374   2.061  10.521  0.2525 -0.2473 -0.0354
  392TMC3     H 5861   1.471   2.034  10.310 -0.7625  0.3082  1.0690
  392TMC3    H1 5862   1.717   2.190  10.626  1.2722 -1.3775  0.0615
  392TMC3    H2 5863   1.753   2.347  10.237 -1.0456  0.4684 -1.4441
  392TMC3    C7 5864   1.817   2.383  10.491  0.0874 -0.3457 -0.4742
  392TMC3    C8 5865   1.559   2.193  10.118  0.4356 -0.2151 -0.1572
  392TMC3    O1 5866   1.834   2.382  10.613  0.0741 -0.3093  0.5412
  392TMC3    O2 5867   1.477   2.105  10.081  0.6246  0.2826 -0.2922
  393TMC3    C1 5868   0.887   4.536  10.349 -0.2321 -0.4297 -0.1649
  393TMC3    C2 5869   0.763   4.509  10.395 -0.3169  0.2120  0.4768
  393TMC3    C3 5870   0.725   4.378  10.364  0.7095  0.6329 -0.0091
  393TMC3    C4 5871   0.988   4.455  10.310  0.0834 -0.6526 -0.4250
  393TMC3    C5 5872   0.943   4.328  10.293  0.1959 -0.5675 -0.1256
  393TMC3    C6 5873   0.813   4.291  10.315  0.3223 -0.1706  0.4076
  393TMC3     C 5874   0.922   4.678  10.368  0.4271  0.5309  0.4337
  393TMC3     O 5875   1.029   4.715  10.416  0.4594 -0.3204 -0.0535
  393TMC3     H 5876   0.707   4.584  10.450  0.3816 -0.4510  2.0840
  393TMC3    H1 5877   1.083   4.496  10.279  0.3379  0.5408  1.9693
  393TMC3    H2 5878   0.783   4.188  10.298 -0.1482 -0.2096  1.4535
  393TMC3    C7 5879   1.029   4.235  10.216  0.4168  0.2306  0.3893
  393TMC3    C8 5880   0.589   4.344  10.355  0.2505 -0.6943  0.4191
  393TMC3    O1 5881   0.987   4.122  10.187 -0.5193  0.2229  0.6184
  393TMC3    O2 5882   0.564   4.244  10.284  0.1516 -0.3141 -0.6866
  394TMC3    C1 5883   2.232   0.563  10.930  1.1015 -1.0485  0.1001
  394TMC3    C2 5884   2.135   0.586  10.834 -0.0904 -0.6211 -0.2790
  394TMC3    C3 5885   2.176   0.623  10.711 -0.2389 -0.8188  0.1240
  394TMC3    C4 5886   2.369   0.565  10.898  0.0721  0.2548  0.6303
  394TMC3    C5 5887   2.399   0.580  10.768 -0.6122 -0.0348 -0.6247
  394TMC3    C6 5888   2.307   0.608  10.671  0.7921 -0.9596 -0.3156
  394TMC3     C 5889   2.198   0.545  11.071  0.4607 -0.5485 -0.2109
  394TMC3     O 5890   2.076   0.542  11.093  0.1867  0.3638  0.3467
  394TMC3     H 5891   2.030   0.564  10.853 -0.2783 -0.8690 -1.5937
  394TMC3    H1 5892   2.448   0.540  10.968  1.8143  1.5554 -0.8468
  394TMC3    H2 5893   2.329   0.636  10.568  1.3439 -0.7984 -0.1543
  394TMC3    C7 5894   2.530   0.594  10.719  0.3172  0.5456 -0.2438
  394TMC3    C8 5895   2.071   0.623  10.606 -0.4272  0.3968 -0.8659
  394TMC3    O1 5896   2.608   0.654  10.795  0.8751 -0.8435 -0.1195
  394TMC3    O2 5897   1.968   0.682  10.635  0.1757 -0.4737 -0.7959
  395TMC3    C1 5898   2.345   2.787  14.550 -0.1239  0.1961  0.1396
  395TMC3    C2 5899   2.226   2.865  14.541  0.1070  0.2142  0.0839
  395TMC3    C3 5900   2.225   2.999  14.563  0.9484  0.0626 -0.6668
  395TMC3    C4 5901   2.459   2.853  14.566  0.8239 -0.0627  0.3813
  395TMC3    C5 5902   2.458   2.987  14.593 -0.1976 -0.1733  0.1819
  395TMC3    C6 5903   2.343   3.058  14.600 -0.3926  0.0384 -0.0720
  395TMC3     C 5904   2.338   2.648  14.566 -1.1927  1.6195  0.1016
  395TMC3     O 5905   2.430   2.592  14.624  0.0516  0.0131  0.3293
  395TMC3     H 5906   2.132   2.813  14.524  0.6991 -1.7299  2.7429
  395TMC3    H1 5907   2.549   2.795  14.583 -0.8320 -1.8649  2.9790
  395TMC3    H2 5908   2.345   3.160  14.636  0.0274  0.8101 -2.2804
  395TMC3    C7 5909   2.579   3.050  14.650  0.1114  0.4339 -0.1841
  395TMC3    C8 5910   2.111   3.057  14.627 -0.1240  0.0525 -0.2161
  395TMC3    O1 5911   2.563   3.149  14.722 -0.5909 -0.3390 -0.5031
  395TMC3    O2 5912   2.121   3.177  14.649  0.6383 -0.6048 -0.4855
  396MPD2     C 5913   1.801   3.277  16.896  0.0802  0.1582  0.8509
  396MPD2    C1 5914   1.918   3.320  16.952  0.5459  0.3844  0.3276
  396MPD2    C2 5915   1.979   3.433  16.893  0.0428 -0.9665 -0.0000
  396MPD2    C3 5916   1.921   3.490  16.781  0.3084 -0.5559 -0.3800
  396MPD2    C4 5917   1.797   3.454  16.736 -0.3192  0.0581 -0.0294
  396MPD2    C5 5918   1.744   3.343  16.790  0.2059  0.0158  0.6094
  396MPD2     H 5919   2.076   3.461  16.931  0.3425 -2.0630  0.0301
  396MPD2    H1 5920   1.745   3.509  16.658  1.5625 -0.0769 -1.3790
  396MPD2    H2 5921   1.744   3.189  16.923 -1.3659  0.4018 -1.4133
  396MPD2    H3 5922   1.643   3.315  16.760  0.2840 -0.3322  0.6640
  396MPD2     N 5923   2.006   3.573  16.717  0.7835  0.3860 -0.2270
  396MPD2    H5 5924   2.093   3.586  16.769 -0.1200 -0.1076  1.4039
  396MPD2    N1 5925   1.984   3.229  17.042 -0.3578  0.0501  0.1536
  396MPD2    H7 5926   1.942   3.138  17.057  0.0669 -0.3202 -0.9572
  397TMC3    C1 5927   2.194   3.140  17.124  0.4753  0.1943  0.3735
  397TMC3    C2 5928   2.280   3.140  17.021  0.5832 -0.3724  0.6635
  397TMC3    C3 5929   2.238   3.074  16.904  0.2360  0.3865  0.6869
  397TMC3    C4 5930   2.103   3.030  17.128 -0.2718 -0.0132 -0.5458
  397TMC3    C5 5931   2.094   2.944  17.017  0.1459 -0.0485 -0.5276
  397TMC3    C6 5932   2.152   2.972  16.904 -0.1746  0.0597 -0.6110
  397TMC3     C 5933   2.117   3.258  17.087 -0.2007 -0.0992 -0.1155
  397TMC3     O 5934   2.171   3.364  17.102 -0.2038  0.4770 -0.6900
  397TMC3     H 5935   2.341   3.229  17.011 -0.5738  0.1385 -1.8416
  397TMC3    H1 5936   2.034   3.021  17.211  1.7457  1.7448  1.3435
  397TMC3    H2 5937   2.123   2.913  16.817  2.0632  1.7694 -2.5211
  397TMC3    C7 5938   2.036   2.817  17.035  0.5999 -0.1864 -0.5270
  397TMC3    C8 5939   2.250   3.134  16.768 -0.1069  0.0814  0.3596
  397TMC3    O1 5940   1.970   2.758  16.951  1.2621  0.0384  0.0037
  397TMC3    O2 5941   2.167   3.101  16.689 -0.1933  0.2038 -0.5516
  398MPD2     C 5942   4.493   3.885   0.039  0.0452 -0.3746 -0.3745
  398MPD2    C1 5943   4.556   3.815   0.138 -0.1332  0.1324 -0.1406
  398MPD2    C2 5944   4.653   3.872   0.214  0.0377  0.3145  0.4972
  398MPD2    C3 5945   4.706   3.994   0.183 -0.0279 -0.0915 -0.1592
  398MPD2    C4 5946   4.648   4.063   0.082 -0.6421  0.0927  0.1297
  398MPD2    C5 5947   4.543   4.013   0.007 -0.6301 -0.8450 -0.1812
  398MPD2     H 5948   4.696   3.801   0.284  0.0062 -1.1516 -0.9499
  398MPD2    H1 5949   4.682   4.162   0.054  1.2639 -0.2868  1.1197
  398MPD2    H2 5950   4.404   3.858  17.663 -0.9095  1.0845  0.4071
  398MPD2    H3 5951   4.505   4.070  17.603  0.5380  2.0106  1.2435
  398MPD2     N 5952   0.101   4.029   0.248  0.2674 -0.2321  0.5626
  398MPD2    H5 5953   0.144   3.965   0.314 -0.2102 -1.4547 -0.3186
  398MPD2    N1 5954   4.512   3.689   0.178 -0.2902 -0.4125 -0.1124
  398MPD2    H7 5955   4.560   3.655   0.261 -0.7690 -0.4611  0.1443
  399TMC3    C1 5956   4.368   3.497   0.214  0.0590 -0.5622 -0.5499
  399TMC3    C2 5957   4.464   3.446   0.305 -0.0227 -0.8067 -0.1545
  399TMC3    C3 5958   4.443   3.327   0.364 -1.0657 -0.7412  0.1528
  399TMC3    C4 5959   4.261   3.419   0.186  0.5784  0.1683 -0.2257
  399TMC3    C5 5960   4.242   3.295   0.243 -0.5769 -0.4348  0.0653
  399TMC3    C6 5961   4.339   3.246   0.328  0.0999  0.0542 -0.6379
  399TMC3     C 5962   4.399   3.621   0.136  0.1673  0.1849  0.2697
  399TMC3     O 5963   4.323   3.643   0.042  0.0098 -0.0898  0.0767
  399TMC3     H 5964   4.537   3.517   0.340 -0.8042  0.6121 -1.4270
  399TMC3    H1 5965   4.178   3.465   0.133 -0.4179 -1.0627  0.2889
  399TMC3    H2 5966   4.323   3.150   0.376  0.7523  0.6267  0.7120
  399TMC3    C7 5967   4.159   3.199   0.182 -0.4993 -0.7878  0.4903
  399TMC3    C8 5968   4.559   3.269   0.426 -0.0723  0.3905  0.4493
  399TMC3    O1 5969   4.122   3.108   0.256  0.2054 -0.4887 -0.0094
  399TMC3    O2 5970   4.652   3.347   0.446 -0.3904 -0.4123  0.5621
  400TMC3    C1 5971   3.548   2.745  16.828  0.8142  0.5065  0.3457
  400TMC3    C2 5972   3.438   2.802  16.767  0.1257  0.7842  0.4646
  400TMC3    C3 5973   3.401   2.932  16.786  0.5653 -0.6854  0.0881
  400TMC3    C4 5974   3.618   2.820  16.918 -0.8499  0.3156 -0.0901
  400TMC3    C5 5975   3.579   2.949  16.943 -0.3088  0.1744 -0.1086
  400TMC3    C6 5976   3.477   3.004  16.876  0.5299  0.0945 -0.3049
  400TMC3     C 5977   3.589   2.606  16.790  0.5129 -0.6106  0.5081
  400TMC3     O 5978   3.513   2.550  16.716  0.0244 -0.5586  0.2742
  400TMC3     H 5979   3.388   2.745  16.690  0.5104  0.5448  0.3872
  400TMC3    H1 5980   3.713   2.792  16.964 -0.2407  0.5889 -1.1793
  400TMC3    H2 5981   3.455   3.109  16.893 -0.8533 -0.5793  2.0216
  400TMC3    C7 5982   3.660   3.034  17.032  0.2493  0.0551  0.0725
  400TMC3    C8 5983   3.350   2.996  16.664 -0.9453 -0.6743 -0.2947
  400TMC3    O1 5984   3.771   2.993  17.059 -0.1730 -0.1110  0.7237
  400TMC3    O2 5985   3.392   3.107  16.639  0.8706 -0.3079 -0.3085
  401MPD2     C 5986   1.335   1.550   1.256 -0.1331 -0.8075 -0.4329
  401MPD2    C1 5987   1.435   1.461   1.242  0.8410  0.3667 -0.0991
  401MPD2    C2 5988   1.402   1.330   1.244 -0.0475  0.1321 -0.1077
  401MPD2    C3 5989   1.266   1.285   1.251  0.4950 -0.0315  0.1108
  401MPD2    C4 5990   1.165   1.384   1.261  0.5549  0.1009  0.3762
  401MPD2    C5 5991   1.202   1.520   1.258  0.0850  0.8100  1.2075
  401MPD2     H 5992   1.482   1.263   1.217  0.7291  1.5486 -1.3319
  401MPD2    H1 5993   1.059   1.363   1.270  0.3859  0.3034 -1.1615
  401MPD2    H2 5994   1.360   1.655   1.259  1.7158 -1.2604 -0.2798
  401MPD2    H3 5995   1.120   1.591   1.255 -0.2369  0.3570 -0.5186
  401MPD2     N 5996   1.246   1.146   1.251 -0.7503 -0.1547  0.4280
  401MPD2    H5 5997   1.333   1.096   1.236  0.9608  2.8336  0.4667
  401MPD2    N1 5998   1.568   1.502   1.216 -0.0453  0.1263  0.1301
  401MPD2    H7 5999   1.641   1.434   1.197 -0.2610  0.4186 -1.8121
  402TMC3    C1 6000   1.142   0.948   1.214  0.0347 -0.2596 -0.1593
  402TMC3    C2 6001   1.273   0.907   1.233  0.0107  0.2205 -0.1922
  402TMC3    C3 6002   1.347   0.860   1.130 -0.2491  0.4467 -0.1004
  402TMC3    C4 6003   1.083   0.941   1.094  0.2725  0.2719  0.3386
  402TMC3    C5 6004   1.160   0.900   0.987  0.5129  0.2078 -0.1117
  402TMC3    C6 6005   1.290   0.856   1.004 -0.1350 -0.0452  0.7966
  402TMC3     C 6006   1.124   1.080   1.263 -0.1137 -0.0357  0.5230
  402TMC3     O 6007   1.014   1.124   1.297  0.7455 -0.4898  0.1067
  402TMC3     H 6008   1.315   0.919   1.333 -3.2747 -0.2931  1.2570
  402TMC3    H1 6009   0.987   0.990   1.079  1.3135  1.4350 -2.5345
  402TMC3    H2 6010   1.345   0.824   0.916 -0.6856  0.5426  0.2408
  402TMC3    C7 6011   1.110   0.944   0.858 -0.6969  0.0734  0.1584
  402TMC3    C8 6012   1.490   0.869   1.124 -0.0773  0.2556  0.2803
  402TMC3    O1 6013   0.992   0.983   0.851  0.1327  0.3087  0.4518
  402TMC3    O2 6014   1.538   0.876   1.009 -0.0996  0.8123  0.0158
  403MPD2     C 6015   4.577   0.110  13.120  0.1216 -0.1547  0.5928
  403MPD2    C1 6016   4.591   4.710  13.182 -0.7693  0.2535  1.2373
  403MPD2    C2 6017   4.694   4.689  13.269 -0.6453  0.9682  0.3610
  403MPD2    C3 6018   0.066   0.073  13.299 -0.0222  0.2158 -0.7580
  403MPD2    C4 6019   0.055   0.192  13.239 -0.6248  0.1373  1.0073
  403MPD2    C5 6020   4.662   0.209  13.155 -0.6158 -0.3959  0.0161
  403MPD2     H 6021   4.706   4.598  13.326  0.1398  0.2510 -0.9598
  403MPD2    H1 6022   0.120   0.277  13.254  0.0281  0.3835 -3.2158
  403MPD2    H2 6023   4.492   0.124  13.055 -1.2184 -0.3730  2.2776
  403MPD2    H3 6024   4.640   0.304  13.108  3.8518  0.5537 -0.1416
  403MPD2     N 6025   0.166   0.038  13.393 -0.7091  0.2040 -0.5930
  403MPD2    H5 6026   0.165   4.660  13.424  0.4271  0.3046 -0.2361
  403MPD2    N1 6027   4.502   4.603  13.150  0.3715  0.9767  0.4774
  403MPD2    H7 6028   4.430   4.621  13.080  1.4913 -3.0281 -1.7058
  404TMC3    C1 6029   4.393   4.396  13.161 -0.3223 -0.3493 -0.8677
  404TMC3    C2 6030   4.388   4.273  13.220  0.3402  0.4691 -0.6039
  404TMC3    C3 6031   4.340   4.168  13.148 -0.5679 -0.5619 -0.2769
  404TMC3    C4 6032   4.339   4.421  13.041  0.5763  1.0796  0.0666
  404TMC3    C5 6033   4.289   4.310  12.974  0.0189 -0.2023 -0.9262
  404TMC3    C6 6034   4.279   4.182  13.027  1.0792  0.2224  0.1475
  404TMC3     C 6035   4.488   4.489  13.221 -0.9045  0.3374  0.2649
  404TMC3     O 6036   4.539   4.467  13.331 -0.4607  0.2848 -0.3361
  404TMC3     H 6037   4.435   4.256  13.317 -1.2376 -3.0043 -0.4440
  404TMC3    H1 6038   4.357   4.516  12.993 -1.4260  0.9341 -0.9922
  404TMC3    H2 6039   4.222   4.099  12.987  0.0041  2.8729 -3.8588
  404TMC3    C7 6040   4.232   4.339  12.845 -0.5418  0.7890 -0.2665
  404TMC3    C8 6041   4.362   4.033  13.197  0.0617  0.5551 -0.3916
  404TMC3    O1 6042   4.205   4.455  12.811 -0.6305  0.0472 -0.0275
  404TMC3    O2 6043   4.368   3.940  13.119 -0.3104  0.1238  0.0982
  405MPD2     C 6044   0.293   0.600  14.264 -0.6271 -0.7505 -0.0303
  405MPD2    C1 6045   0.265   0.493  14.175 -0.3369 -0.2946 -0.3711
  405MPD2    C2 6046   0.151   0.501  14.098  0.2408  0.2693 -0.8422
  405MPD2    C3 6047   0.066   0.613  14.106 -0.3397 -0.0781  0.5896
  405MPD2    C4 6048   0.094   0.717  14.187  0.8038 -0.1839  0.4240
  405MPD2    C5 6049   0.208   0.707  14.270 -0.2647 -0.0814 -0.5968
  405MPD2     H 6050   0.127   0.423  14.026 -0.6530  1.1021 -1.4516
  405MPD2    H1 6051   0.028   0.802  14.195  1.5516  0.4120  0.2604
  405MPD2    H2 6052   0.372   0.584  14.335  0.6405 -3.3645 -2.0145
  405MPD2    H3 6053   0.224   0.768  14.358  3.8856  1.0014 -2.0881
  405MPD2     N 6054   4.674   0.611  14.016  0.6095 -0.0124  0.0671
  405MPD2    H5 6055   4.673   0.527  13.959  1.6810 -0.4545  0.6786
  405MPD2    N1 6056   0.345   0.369  14.177  0.1019  0.2131  0.2912
  405MPD2    H7 6057   0.417   0.361  14.248 -1.3221 -1.1617  1.5816
  406TMC3    C1 6058   4.246   0.641  13.851 -0.0124  0.0331 -0.1041
  406TMC3    C2 6059   4.279   0.560  13.748 -0.3179 -0.6338  0.1203
  406TMC3    C3 6060   4.411   0.526  13.747  0.1948 -0.4582  0.2691
  406TMC3    C4 6061   4.333   0.689  13.944  0.9343 -0.9937  0.6907
  406TMC3    C5 6062   4.474   0.673  13.917 -0.3204  0.5774 -0.4343
  406TMC3    C6 6063   4.511   0.577  13.825  0.1014  0.0695  0.9820
  406TMC3     C 6064   4.113   0.686  13.852 -0.5350  0.3048 -0.1741
  406TMC3     O 6065   4.043   0.691  13.751 -0.2570 -0.5057 -0.4717
  406TMC3     H 6066   4.212   0.500  13.687  0.0409 -0.8758 -0.0411
  406TMC3    H1 6067   4.304   0.768  14.012  0.5829 -0.5376  0.0126
  406TMC3    H2 6068   4.616   0.572  13.800  0.4664  3.3234  1.8214
  406TMC3    C7 6069   4.570   0.705  14.022 -0.0596  0.0977 -0.9709
  406TMC3    C8 6070   4.445   0.406  13.679  0.0683  1.0047  0.6328
  406TMC3    O1 6071   4.528   0.785  14.106 -0.0270 -0.6140 -0.1127
  406TMC3    O2 6072   4.406   0.384  13.564 -0.2946  0.0903 -0.2647
  407MPD2     C 6073   2.471   2.228   9.333  0.1350 -0.3231  0.3292
  407MPD2    C1 6074   2.526   2.119   9.404  0.4525 -0.3730 -0.5123
  407MPD2    C2 6075   2.603   2.147   9.514 -1.0381  0.1961  0.1178
  407MPD2    C3 6076   2.603   2.280   9.559  0.6114  0.4304 -0.0974
  407MPD2    C4 6077   2.536   2.381   9.494  0.3219 -0.4945  0.3560
  407MPD2    C5 6078   2.476   2.354   9.381 -0.0431  0.3820  0.6471
  407MPD2     H 6079   2.644   2.076   9.585  0.7984 -1.0001 -2.1569
  407MPD2    H1 6080   2.526   2.479   9.538  0.7294 -0.5929  0.6764
  407MPD2    H2 6081   2.429   2.225   9.233 -0.9387 -1.5612  0.8173
  407MPD2    H3 6082   2.423   2.430   9.324 -0.7756  0.2735  1.1784
  407MPD2     N 6083   2.657   2.314   9.686  0.3587 -0.2572 -0.0790
  407MPD2    H5 6084   2.653   2.409   9.721  1.0647 -0.8739  1.6906
  407MPD2    N1 6085   2.499   1.983   9.368  0.6005 -0.1711  1.1455
  407MPD2    H7 6086   2.531   1.906   9.426  1.7921 -0.3000  0.3187
  408TMC3    C1 6087   2.391   1.803   9.256  0.7386 -0.1834 -0.2698
  408TMC3    C2 6088   2.490   1.729   9.303 -0.1447  0.7422 -0.2802
  408TMC3    C3 6089   2.466   1.603   9.339  0.4315  0.2094  0.1780
  408TMC3    C4 6090   2.263   1.759   9.256 -0.0244  0.2551  0.2921
  408TMC3    C5 6091   2.245   1.639   9.309  0.0604 -0.3391  0.1586
  408TMC3    C6 6092   2.342   1.555   9.357  0.6100  0.7750 -0.2805
  408TMC3     C 6093   2.402   1.944   9.275  0.5847 -0.9445  0.2403
  408TMC3     O 6094   2.319   2.018   9.221 -0.3651  0.4392  0.2610
  408TMC3     H 6095   2.589   1.771   9.292 -0.2558  0.6724 -1.5383
  408TMC3    H1 6096   2.177   1.814   9.220 -0.3201 -0.6943 -0.4506
  408TMC3    H2 6097   2.322   1.455   9.392  0.5282  0.6369 -0.7216
  408TMC3    C7 6098   2.105   1.593   9.302 -0.1400 -0.1508 -0.5263
  408TMC3    C8 6099   2.577   1.506   9.336  0.3883  0.0759  0.2393
  408TMC3    O1 6100   2.025   1.627   9.218  0.7201  0.2566 -0.5175
  408TMC3    O2 6101   2.552   1.386   9.310  0.3729 -0.3089  0.2526
  409MPD2     C 6102   2.189   2.633  16.702  0.4043 -0.0752  0.9267
  409MPD2    C1 6103   2.305   2.562  16.742  0.7566  0.0423 -0.2146
  409MPD2    C2 6104   2.423   2.618  16.720 -0.3942 -0.0715  1.0587
  409MPD2    C3 6105   2.434   2.752  16.669  0.3495 -0.1031  0.4823
  409MPD2    C4 6106   2.322   2.810  16.615 -0.3223  0.4245 -0.4073
  409MPD2    C5 6107   2.200   2.749  16.629 -0.3375 -0.2709  0.0785
  409MPD2     H 6108   2.509   2.570  16.766  0.4181  0.8910  0.5331
  409MPD2    H1 6109   2.329   2.910  16.573  0.2855  0.0722 -1.1596
  409MPD2    H2 6110   2.095   2.582  16.722  0.5250 -0.0881  1.4598
  409MPD2    H3 6111   2.108   2.793  16.593  1.3879  0.5232 -3.3735
  409MPD2     N 6112   2.559   2.822  16.652  0.7166 -0.9758 -0.3686
  409MPD2    H5 6113   2.559   2.910  16.602 -0.8879 -1.1304 -0.6098
  409MPD2    N1 6114   2.302   2.449  16.826 -0.0967 -0.0112 -0.4413
  409MPD2    H7 6115   2.384   2.392  16.846  0.8883  1.1956 -0.9681
  410TMC3    C1 6116   2.777   2.883  16.694  0.2569 -0.3278  0.5635
  410TMC3    C2 6117   2.872   2.881  16.787  0.7394 -0.7142 -0.3100
  410TMC3    C3 6118   2.971   2.971  16.773 -0.2212 -0.0433 -0.0423
  410TMC3    C4 6119   2.769   2.978  16.596 -0.7547  0.2006  0.1161
  410TMC3    C5 6120   2.865   3.072  16.591 -0.0100 -0.5418  0.2933
  410TMC3    C6 6121   2.972   3.069  16.675  0.3734 -0.1955 -0.3728
  410TMC3     C 6122   2.672   2.791  16.717 -0.2689  0.3570  0.0339
  410TMC3     O 6123   2.708   2.704  16.794 -0.4969 -0.6863 -0.0664
  410TMC3     H 6124   2.873   2.824  16.878  4.4703  0.6800  0.5516
  410TMC3    H1 6125   2.686   2.984  16.527 -1.7298  3.2767  1.5571
  410TMC3    H2 6126   3.058   3.130  16.650 -0.6328  1.4245  0.0731
  410TMC3    C7 6127   2.883   3.139  16.462  0.3934 -0.4082 -0.1152
  410TMC3    C8 6128   3.080   2.961  16.865 -0.0427  0.3049 -0.0037
  410TMC3    O1 6129   2.842   3.078  16.361  0.4870 -0.0385  0.5249
  410TMC3    O2 6130   3.143   3.065  16.880 -0.4901 -0.7856 -0.4562
  411MPD2     C 6131   2.785   3.558  14.401  0.7373  0.5769  0.2787
  411MPD2    C1 6132   2.661   3.605  14.398 -0.3096 -0.4248 -0.6475
  411MPD2    C2 6133   2.556   3.520  14.361 -0.1534  0.7361  0.8871
  411MPD2    C3 6134   2.569   3.386  14.346 -0.2125  0.1034 -0.0589
  411MPD2    C4 6135   2.698   3.335  14.361 -0.4506 -0.0337 -0.1319
  411MPD2    C5 6136   2.804   3.416  14.382 -0.0633  0.6158 -0.7956
  411MPD2     H 6137   2.459   3.555  14.327 -1.4126 -2.4108  1.2263
  411MPD2    H1 6138   2.716   3.232  14.332  2.3529  0.6755 -0.8775
  411MPD2    H2 6139   2.868   3.624  14.423 -1.0001  3.1461 -0.9799
  411MPD2    H3 6140   2.898   3.364  14.390  1.9558  4.2658 -0.7646
  411MPD2     N 6141   2.466   3.295  14.308  0.2473 -0.1457  0.7274
  411MPD2    H5 6142   2.498   3.200  14.294 -0.5721 -0.3735  0.3665
  411MPD2    N1 6143   2.627   3.741  14.398  0.5365 -0.2273  0.7562
  411MPD2    H7 6144   2.529   3.766  14.389  0.6864 -0.8315 -2.4541
  412TMC3    C1 6145   2.245   3.223  14.243 -0.0897 -0.0827  0.2120
  412TMC3    C2 6146   2.106   3.225  14.258  0.1325 -0.0690  0.5802
  412TMC3    C3 6147   2.034   3.137  14.180  0.5704  0.3998 -0.4241
  412TMC3    C4 6148   2.304   3.134  14.160  0.2451  0.2475 -0.0534
  412TMC3    C5 6149   2.226   3.032  14.097  0.2321  0.6239  0.0106
  412TMC3    C6 6150   2.089   3.034  14.111  0.1804 -0.1821  0.4880
  412TMC3     C 6151   2.332   3.317  14.321  0.5950 -0.3734 -0.7282
  412TMC3     O 6152   2.279   3.406  14.382  1.0050 -0.4151  0.1118
  412TMC3     H 6153   2.055   3.298  14.320  2.4264  1.2088  0.9485
  412TMC3    H1 6154   2.409   3.136  14.135  0.4240 -1.4071  0.5621
  412TMC3    H2 6155   2.033   2.953  14.065 -2.2466  0.9980  1.3689
  412TMC3    C7 6156   2.272   2.973  13.971 -0.1419  0.5282 -0.1134
  412TMC3    C8 6157   1.944   3.212  14.091  0.2424 -0.1137  0.2700
  412TMC3    O1 6158   2.180   2.926  13.903  0.1991  0.1522 -0.2861
  412TMC3    O2 6159   1.883   3.311  14.135  0.5376  0.5608  0.6595
  413MPD2     C 6160   4.042   1.908  15.248  0.0774  0.5537  0.5581
  413MPD2    C1 6161   3.989   1.840  15.143  0.5499 -0.2869  0.7056
  413MPD2    C2 6162   4.058   1.723  15.100  0.1504  0.5539 -0.5059
  413MPD2    C3 6163   4.170   1.675  15.161 -0.8395 -0.3114 -0.1815
  413MPD2    C4 6164   4.214   1.740  15.278 -0.1461  0.2183 -0.2156
  413MPD2    C5 6165   4.148   1.855  15.317 -0.4278 -0.0146 -0.0866
  413MPD2     H 6166   4.018   1.668  15.015  2.1639  0.1366 -1.1663
  413MPD2    H1 6167   4.299   1.702  15.333  0.2108  1.2819 -0.0422
  413MPD2    H2 6168   4.008   2.004  15.286 -0.8618 -0.9310  3.4597
  413MPD2    H3 6169   4.199   1.900  15.401  1.4043 -0.2218 -1.0947
  413MPD2     N 6170   4.245   1.574  15.093 -0.6061  0.1394 -0.2033
  413MPD2    H5 6171   4.189   1.530  15.022 -2.0389 -0.8586  1.5394
  413MPD2    N1 6172   3.881   1.894  15.076 -0.3644 -0.1314 -0.1621
  413MPD2    H7 6173   3.842   1.985  15.096 -2.3829 -0.9823 -0.1462
  414TMC3    C1 6174   4.424   1.422  15.052 -0.4121 -0.6175  0.1850
  414TMC3    C2 6175   4.519   1.337  15.106  0.0492 -0.0891 -0.6719
  414TMC3    C3 6176   4.540   1.217  15.037  0.5052 -0.4382 -0.2218
  414TMC3    C4 6177   4.365   1.399  14.928 -0.3631 -0.1030 -0.2332
  414TMC3    C5 6178   4.394   1.285  14.862  0.0877 -0.6168 -0.2205
  414TMC3    C6 6179   4.475   1.190  14.915 -0.3877  0.1501 -0.4207
  414TMC3     C 6180   4.369   1.528  15.133  0.3858  0.0484  0.1589
  414TMC3     O 6181   4.433   1.556  15.233  0.0040 -0.5442  0.2408
  414TMC3     H 6182   4.553   1.348  15.209 -0.6924  1.2778 -0.5724
  414TMC3    H1 6183   4.301   1.475  14.886 -2.1665 -1.2550  0.4088
  414TMC3    H2 6184   4.486   1.100  14.857 -1.5766  0.4328 -1.0722
  414TMC3    C7 6185   4.314   1.256  14.742 -0.3419  0.6774  0.7412
  414TMC3    C8 6186   4.632   1.121  15.076 -0.9734 -0.1311  0.1412
  414TMC3    O1 6187   4.198   1.286  14.761 -0.3987  0.8655 -0.2685
  414TMC3    O2 6188   4.618   1.007  15.027 -0.5515  0.0009 -0.5622
  415TMC3    C1 6189   0.305   4.236   9.635 -0.4445 -0.0442 -0.0675
  415TMC3    C2 6190   0.442   4.235   9.642 -0.6961  0.0348  0.4154
  415TMC3    C3 6191   0.508   4.155   9.552  0.3969 -0.3609  0.5595
  415TMC3    C4 6192   0.240   4.181   9.523 -0.5297 -0.0809 -0.2009
  415TMC3    C5 6193   0.311   4.110   9.420  0.3217  0.4712 -0.4344
  415TMC3    C6 6194   0.444   4.096   9.442  0.8613 -0.6953  0.1831
  415TMC3     C 6195   0.221   4.320   9.727  0.2882  0.3953  0.3507
  415TMC3     O 6196   0.103   4.289   9.729  0.0101 -0.3583 -0.0911
  415TMC3     H 6197   0.490   4.255   9.737  0.2241 -0.8843  0.1521
  415TMC3    H1 6198   0.135   4.203   9.511 -0.5477 -0.0093  0.1111
  415TMC3    H2 6199   0.506   4.029   9.383  0.9106  2.0604 -2.9320
  415TMC3    C7 6200   0.250   4.016   9.329 -0.6105 -0.5988 -0.2418
  415TMC3    C8 6201   0.653   4.163   9.559  0.3562 -0.8770  0.9502
  415TMC3    O1 6202   0.324   3.972   9.244  0.1537 -0.3717 -1.1190
  415TMC3    O2 6203   0.723   4.091   9.482 -0.9142  0.0188 -0.2006
  416MPD2     C 6204   1.734   3.515  11.211 -0.7240 -0.3454  0.1463
  416MPD2    C1 6205   1.662   3.452  11.308 -0.0792 -0.3288  0.4684
  416MPD2    C2 6206   1.645   3.318  11.309  0.0212  0.3858  0.1641
  416MPD2    C3 6207   1.692   3.245  11.201 -0.2630 -0.1710  0.4647
  416MPD2    C4 6208   1.765   3.305  11.098  0.3193  0.5109 -0.1544
  416MPD2    C5 6209   1.786   3.442  11.105  0.0594 -0.4315  0.5522
  416MPD2     H 6210   1.592   3.268  11.389  0.3249  2.0740  1.4280
  416MPD2    H1 6211   1.814   3.242  11.025  1.5043  0.8131  0.3919
  416MPD2    H2 6212   1.754   3.621  11.215 -1.4383 -0.2599  1.5305
  416MPD2    H3 6213   1.853   3.495  11.039  2.9911 -1.7982  2.4591
  416MPD2     N 6214   1.658   3.109  11.196  0.2337 -0.3155 -0.8905
  416MPD2    H5 6215   1.603   3.075  11.274  2.2045  0.6214  0.8927
  416MPD2    N1 6216   1.591   3.530  11.405  0.1332  0.0376 -0.5867
  416MPD2    H7 6217   1.601   3.631  11.398 -1.1225 -0.0094 -3.2836
  417TMC3    C1 6218   1.400   3.577  11.536  0.0601 -0.6621 -0.0727
  417TMC3    C2 6219   1.319   3.545  11.647 -0.9829  0.4464 -0.2500
  417TMC3    C3 6220   1.191   3.577  11.647 -0.3847 -0.3131 -0.4413
  417TMC3    C4 6221   1.350   3.635  11.426 -0.5548 -0.6392  0.2811
  417TMC3    C5 6222   1.212   3.660  11.431 -0.1607 -0.7635  1.0067
  417TMC3    C6 6223   1.127   3.625  11.537 -0.7660 -0.6925 -0.0204
  417TMC3     C 6224   1.499   3.478  11.497  0.2224  0.0899 -0.3026
  417TMC3     O 6225   1.515   3.377  11.564 -0.1080 -0.1299  0.3639
  417TMC3     H 6226   1.363   3.501  11.736 -2.6315 -0.8287 -0.0748
  417TMC3    H1 6227   1.406   3.651  11.335 -1.7293  0.7278 -0.2048
  417TMC3    H2 6228   1.030   3.672  11.527  0.8915  2.9333  0.6804
  417TMC3    C7 6229   1.157   3.678  11.303  0.1864  0.3152 -0.4888
  417TMC3    C8 6230   1.106   3.541  11.763 -0.4080 -0.4647 -0.0458
  417TMC3    O1 6231   1.195   3.774  11.240  0.4242  0.3952 -0.0458
  417TMC3    O2 6232   1.155   3.504  11.872 -0.1874 -0.5051  0.4948
  418TMC3    C1 6233   0.465   4.004   0.363  0.0473 -0.4982  0.4431
  418TMC3    C2 6234   0.393   4.083   0.270 -0.3035 -0.1862  0.4595
  418TMC3    C3 6235   0.283   4.144   0.315  0.0204 -0.0518 -0.0220
  418TMC3    C4 6236   0.448   4.003   0.494 -0.4571  0.0026  0.7546
  418TMC3    C5 6237   0.344   4.078   0.538  0.2211 -0.1123  0.2363
  418TMC3    C6 6238   0.256   4.135   0.444  0.1283 -0.3886  0.7752
  418TMC3     C 6239   0.574   3.929   0.305  0.5452  0.3712  0.0615
  418TMC3     O 6240   0.632   3.975   0.209  0.1952  0.3869 -0.3061
  418TMC3     H 6241   0.420   4.068   0.166 -3.5082  1.4110 -0.6066
  418TMC3    H1 6242   0.514   3.947   0.559 -1.7962 -1.8149  0.5533
  418TMC3    H2 6243   0.169   4.191   0.478 -0.6947 -1.3014  0.1898
  418TMC3    C7 6244   0.283   4.037   0.666 -0.0346 -0.0779 -0.0417
  418TMC3    C8 6245   0.173   4.145   0.227 -0.3670 -0.2328 -0.1542
  418TMC3    O1 6246   0.160   4.037   0.678 -0.1237  0.2336  0.2832
  418TMC3    O2 6247   0.143   4.251   0.175 -0.1516  0.1393 -0.1920
  419MPD2     C 6248   3.384   2.918  12.724 -0.2478 -0.7643 -0.0511
  419MPD2    C1 6249   3.341   3.020  12.644  0.7365 -0.8215 -0.6444
  419MPD2    C2 6250   3.344   3.146  12.696  0.1141  0.4963  0.3199
  419MPD2    C3 6251   3.382   3.170  12.824 -0.5839  0.1572  0.2350
  419MPD2    C4 6252   3.428   3.064  12.905 -0.3452 -0.3258  0.0637
  419MPD2    C5 6253   3.422   2.934  12.853  0.1148  0.2667 -0.6011
  419MPD2     H 6254   3.315   3.228  12.631  0.7279  0.2036 -0.3302
  419MPD2    H1 6255   3.465   3.075  13.006 -4.2046  1.1401  1.3392
  419MPD2    H2 6256   3.380   2.814  12.694 -1.3255 -1.3295  2.0232
  419MPD2    H3 6257   3.460   2.851  12.912 -0.0185  0.0687 -0.7979
  419MPD2     N 6258   3.375   3.297  12.880  0.0308 -0.2934  0.3208
  419MPD2    H5 6259   3.431   3.308  12.964  0.5752 -0.6323  0.0034
  419MPD2    N1 6260   3.291   2.999  12.521  0.4225  0.3684  0.7842
  419MPD2    H7 6261   3.254   3.083  12.477  1.5552  0.4866  0.0677
  420TMC3    C1 6262   3.347   3.536  12.858  0.6962 -0.0143 -0.5391
  420TMC3    C2 6263   3.258   3.633  12.831  0.6347  0.2947  0.5365
  420TMC3    C3 6264   3.273   3.755  12.897  0.1728 -0.1760  0.1738
  420TMC3    C4 6265   3.455   3.562  12.938 -0.2069  0.0830  0.9311
  420TMC3    C5 6266   3.470   3.687  12.993 -0.3768  0.4065 -0.6252
  420TMC3    C6 6267   3.377   3.786  12.976  0.4421 -0.1274  0.3656
  420TMC3     C 6268   3.313   3.406  12.818  0.1744  0.3690  0.1411
  420TMC3     O 6269   3.215   3.401  12.745 -0.3638 -0.1015  0.1837
  420TMC3     H 6270   3.183   3.618  12.754  1.0017 -0.7225  0.3847
  420TMC3    H1 6271   3.535   3.488  12.933 -1.5799 -1.5522  3.4223
  420TMC3    H2 6272   3.386   3.887  13.016  1.3901 -1.1455  2.7470
  420TMC3    C7 6273   3.548   3.687  13.118 -0.6467 -1.0164 -0.2727
  420TMC3    C8 6274   3.200   3.865  12.836 -0.6021 -0.2262  0.1073
  420TMC3    O1 6275   3.599   3.578  13.147  0.0702  0.5926 -0.2092
  420TMC3    O2 6276   3.252   3.977  12.835  0.3368  0.6262  0.2929
  421TMC3    C1 6277   0.361   0.069  13.523  0.1069  0.7492  0.4473
  421TMC3    C2 6278   0.420   0.158  13.617  0.7420 -0.0477  0.3331
  421TMC3    C3 6279   0.532   0.116  13.690  0.1398  0.5536 -0.7617
  421TMC3    C4 6280   0.418   4.667  13.494 -0.5855 -0.7412  0.5224
  421TMC3    C5 6281   0.541   4.639  13.561 -0.3316 -0.5641  0.9034
  421TMC3    C6 6282   0.599   0.002  13.654 -0.0577  0.3940  0.1345
  421TMC3     C 6283   0.254   0.132  13.449  0.1937 -0.6071  0.2232
  421TMC3     O 6284   0.230   0.253  13.454 -0.0125 -0.6880  0.2552
  421TMC3     H 6285   0.383   0.260  13.622  2.4319  0.6517 -1.1511
  421TMC3    H1 6286   0.369   4.610  13.415 -0.3583  1.4290 -1.1786
  421TMC3    H2 6287   0.691   4.695  13.707  0.2842  1.1940 -0.0617
  421TMC3    C7 6288   0.631   4.545  13.504  0.1829  0.1294 -0.5350
  421TMC3    C8 6289   0.604   0.212  13.775  0.5006  0.6481 -0.1930
  421TMC3    O1 6290   0.754   4.559  13.525  0.0629 -0.2388  0.4386
  421TMC3    O2 6291   0.709   0.183  13.824 -0.1242 -0.0490 -1.0031
  422TMC3    C1 6292   2.225   1.149  12.512 -0.0894  0.3475 -0.1201
  422TMC3    C2 6293   2.227   1.286  12.531 -0.1144  0.2652 -0.4839
  422TMC3    C3 6294   2.142   1.341  12.619 -0.2420 -0.3328  0.4264
  422TMC3    C4 6295   2.134   1.069  12.570  0.2202  0.4095  0.2359
  422TMC3    C5 6296   2.033   1.138  12.637  0.1061 -0.0634  0.6932
  422TMC3    C6 6297   2.041   1.270  12.674 -0.5708 -0.0249  0.0069
  422TMC3     C 6298   2.296   1.114  12.388  0.6228  0.2865  0.5375
  422TMC3     O 6299   2.309   1.188  12.292 -0.2994  0.0476 -0.3204
  422TMC3     H 6300   2.300   1.355  12.491  0.8364 -0.6520 -0.3167
  422TMC3    H1 6301   2.129   0.962  12.556 -1.8511  0.5137  0.0661
  422TMC3    H2 6302   1.962   1.316  12.731 -2.0220  0.0994 -2.0696
  422TMC3    C7 6303   1.932   1.053  12.700  0.2753  0.1617 -0.8191
  422TMC3    C8 6304   2.206   1.423  12.716  0.7347  0.0252 -0.7294
  422TMC3    O1 6305   1.968   0.939  12.727  0.0469 -0.1739  0.0910
  422TMC3    O2 6306   2.261   1.522  12.668  0.3721 -0.3536 -0.1521
  423MPD2     C 6307   3.905   1.979   0.546 -0.1138 -0.1078  0.7584
  423MPD2    C1 6308   3.933   1.845   0.545  0.7959  0.3704  0.7191
  423MPD2    C2 6309   3.988   1.785   0.431 -0.2121  0.4683  0.5393
  423MPD2    C3 6310   4.001   1.851   0.317 -0.1443  1.0131 -0.4988
  423MPD2    C4 6311   3.966   1.988   0.318  0.3671  0.3924 -0.1360
  423MPD2    C5 6312   3.925   2.052   0.433 -0.3818 -0.1908  0.3307
  423MPD2     H 6313   3.999   1.677   0.437  0.0235  0.3590 -1.5749
  423MPD2    H1 6314   3.980   2.049   0.229  0.4127 -2.2807 -1.9772
  423MPD2    H2 6315   3.874   2.026   0.639 -2.1212 -2.3412  1.2104
  423MPD2    H3 6316   3.890   2.155   0.432  2.0213  0.5946 -1.3397
  423MPD2     N 6317   4.060   1.805   0.197 -0.3267 -0.1140  0.2976
  423MPD2    H5 6318   4.044   1.865   0.116  3.9340 -1.2153 -1.3629
  423MPD2    N1 6319   3.928   1.776   0.669 -0.2367 -0.1487  0.1576
  423MPD2    H7 6320   3.974   1.686   0.673 -0.9998 -0.5810 -0.8081
  424TMC3    C1 6321   3.843   1.708   0.883 -0.6193 -0.9764  0.5017
  424TMC3    C2 6322   3.965   1.666   0.942 -0.1848 -0.3312  0.2377
  424TMC3    C3 6323   3.958   1.620   1.072 -0.1188 -0.0559 -0.2097
  424TMC3    C4 6324   3.737   1.731   0.964 -0.3096 -0.0879  0.1832
  424TMC3    C5 6325   3.740   1.681   1.091  0.0398  0.0958 -0.4492
  424TMC3    C6 6326   3.848   1.620   1.144 -0.3501 -0.0842 -0.8846
  424TMC3     C 6327   3.846   1.811   0.780 -0.1539  0.4077 -0.6254
  424TMC3     O 6328   3.780   1.912   0.804  0.0412  0.2778 -1.0549
  424TMC3     H 6329   4.053   1.651   0.880  0.7304  0.5782  1.3183
  424TMC3    H1 6330   3.649   1.774   0.919  0.4684  0.8298 -0.4768
  424TMC3    H2 6331   3.838   1.582   1.245 -0.3942  1.6941 -0.2187
  424TMC3    C7 6332   3.617   1.699   1.171 -0.7846  0.9615  0.2122
  424TMC3    C8 6333   4.065   1.535   1.122 -0.0253 -0.3950 -0.5921
  424TMC3    O1 6334   3.534   1.774   1.126  0.1922  0.2458  0.5199
  424TMC3    O2 6335   4.037   1.448   1.207 -0.0314  0.1804  0.4907
  425MPD2     C 6336   2.415   1.600  16.793  0.1934  0.0295  0.5680
  425MPD2    C1 6337   2.501   1.493  16.800  0.4661  0.1984  0.3890
  425MPD2    C2 6338   2.542   1.446  16.921 -0.2038  0.0799  0.4456
  425MPD2    C3 6339   2.489   1.486  17.041 -0.2451  0.2631 -0.7682
  425MPD2    C4 6340   2.382   1.579  17.029  0.3478  0.3157  0.0921
  425MPD2    C5 6341   2.349   1.632  16.911  0.1295 -0.0811 -0.5893
  425MPD2     H 6342   2.605   1.357  16.922 -1.2061 -0.6397  0.1838
  425MPD2    H1 6343   2.325   1.623  17.110 -1.8309  0.7366 -1.6550
  425MPD2    H2 6344   2.394   1.646  16.698  0.2200 -0.2288  0.4352
  425MPD2    H3 6345   2.278   1.714  16.902 -0.3993 -0.7429 -2.3778
  425MPD2     N 6346   2.509   1.413  17.165  0.2601  0.2724 -0.3922
  425MPD2    H5 6347   2.579   1.340  17.175  0.3832  0.2938 -1.0953
  425MPD2    N1 6348   2.559   1.438  16.684  0.4151 -1.2988 -0.0815
  425MPD2    H7 6349   2.552   1.501  16.606  0.4327  0.1792  1.1078
  426TMC3    C1 6350   2.675   1.267  16.545 -0.1987  0.8675  0.6188
  426TMC3    C2 6351   2.686   1.138  16.512 -0.1096 -0.7855  0.8864
  426TMC3    C3 6352   2.794   1.098  16.436  0.1679  0.4233 -0.0294
  426TMC3    C4 6353   2.786   1.356  16.519 -0.0274  0.1771 -0.4471
  426TMC3    C5 6354   2.896   1.307  16.457 -0.6511  1.0297  0.3342
  426TMC3    C6 6355   2.901   1.176  16.405  0.1747 -0.2531 -0.2642
  426TMC3     C 6356   2.587   1.301  16.660 -0.1323  0.3786  0.5635
  426TMC3     O 6357   2.553   1.207  16.733 -0.2641  0.0075  0.3823
  426TMC3     H 6358   2.610   1.065  16.538 -0.1928 -1.1392 -0.3329
  426TMC3    H1 6359   2.781   1.458  16.554 -3.5398 -0.1509  0.0884
  426TMC3    H2 6360   2.982   1.133  16.347  2.2863  2.9063  0.3253
  426TMC3    C7 6361   3.023   1.360  16.489 -0.0362 -0.5867  0.5667
  426TMC3    C8 6362   2.824   0.955  16.418 -0.1052 -0.2478  0.1563
  426TMC3    O1 6363   3.003   1.469  16.546 -0.8612 -0.0498 -0.3023
  426TMC3    O2 6364   2.939   0.918  16.415  0.7122  0.2646  0.1949
  427MPD2     C 6365   1.726   3.821  14.951 -0.4828  0.7653  0.6727
  427MPD2    C1 6366   1.727   3.685  14.950 -1.1241  0.0128 -0.1997
  427MPD2    C2 6367   1.620   3.613  14.889 -0.0199  0.7485 -0.0181
  427MPD2    C3 6368   1.517   3.682  14.825  0.2451 -0.4188  0.6878
  427MPD2    C4 6369   1.534   3.814  14.817  0.2328  0.4292  0.1157
  427MPD2    C5 6370   1.628   3.880  14.882  0.3734  0.2788 -0.1461
  427MPD2     H 6371   1.613   3.505  14.888 -0.7159  0.8315 -2.8202
  427MPD2    H1 6372   1.474   3.875  14.750 -0.2743 -1.8434 -1.5243
  427MPD2    H2 6373   1.807   3.878  14.995  1.6923 -0.7546 -1.4012
  427MPD2    H3 6374   1.619   3.988  14.886  0.1222  0.2179  1.0133
  427MPD2     N 6375   1.411   3.627  14.755 -0.1004  0.3153  0.0893
  427MPD2    H5 6376   1.342   3.691  14.719 -1.7417 -1.7334 -0.4157
  427MPD2    N1 6377   1.847   3.620  15.003 -0.0148 -0.2511  0.2373
  427MPD2    H7 6378   1.921   3.682  15.032  0.4671  0.1592 -1.8820
  428TMC3    C1 6379   1.973   3.448  15.103  0.1386 -0.2741 -0.2427
  428TMC3    C2 6380   1.976   3.314  15.152 -0.6830  0.1121 -0.2542
  428TMC3    C3 6381   2.077   3.274  15.229 -0.2020 -0.3901  0.1943
  428TMC3    C4 6382   2.076   3.532  15.130 -0.0631  0.0765 -0.0147
  428TMC3    C5 6383   2.177   3.484  15.208  0.0546  0.2105  0.5154
  428TMC3    C6 6384   2.182   3.357  15.256  0.1675  0.0400 -0.1177
  428TMC3     C 6385   1.853   3.486  15.026  0.2066  0.3444  0.9404
  428TMC3     O 6386   1.764   3.400  15.020  0.0479 -0.3181  0.6936
  428TMC3     H 6387   1.891   3.249  15.135  0.7884 -1.7700 -0.4160
  428TMC3    H1 6388   2.088   3.629  15.083  1.4889 -0.7038 -1.2691
  428TMC3    H2 6389   2.272   3.332  15.311 -0.2814  0.5162  0.8490
  428TMC3    C7 6390   2.303   3.556  15.214  0.2836  0.1478  0.4995
  428TMC3    C8 6391   2.080   3.135  15.283  0.7980  0.5307  0.1052
  428TMC3    O1 6392   2.371   3.529  15.316  0.4191 -0.0992 -0.6967
  428TMC3    O2 6393   2.008   3.051  15.226  0.1916 -0.0067  0.3424
  429MPD2     C 6394   3.075   3.313   0.135  0.9801 -0.3968  0.2362
  429MPD2    C1 6395   3.013   3.366   0.029  0.0356  0.0233  0.6450
  429MPD2    C2 6396   3.071   3.476  17.648 -0.4973 -0.5766  0.2464
  429MPD2    C3 6397   3.184   3.543   0.014  0.5485  1.3215  0.1910
  429MPD2    C4 6398   3.251   3.478   0.116 -0.5697 -0.0904  0.3846
  429MPD2    C5 6399   3.198   3.358   0.172  0.5056 -0.6268  0.5528
  429MPD2     H 6400   3.015   3.516  17.564 -1.3840 -0.2988  0.9626
  429MPD2    H1 6401   3.350   3.509   0.147 -0.8412  0.9538  0.2002
  429MPD2    H2 6402   3.038   3.236   0.202  0.4142 -1.1228 -0.9067
  429MPD2    H3 6403   3.244   3.300   0.252  1.8528 -2.3365 -1.4362
  429MPD2     N 6404   3.239   3.667  17.645 -0.5133  0.7519 -0.4213
  429MPD2    H5 6405   3.320   3.708   0.010  0.5326 -1.1895 -0.5593
  429MPD2    N1 6406   2.892   3.314  17.648  0.4762  0.2768  0.1579
  429MPD2    H7 6407   2.844   3.372  17.579  0.7835 -0.7299 -0.8922
  430TMC3    C1 6408   3.286   3.836  17.490 -0.7278  0.3123  0.5146
  430TMC3    C2 6409   3.232   3.911  17.388 -0.0731 -0.0610  0.7698
  430TMC3    C3 6410   3.291   3.915  17.265 -0.1553  0.7391 -0.0549
  430TMC3    C4 6411   3.416   3.802  17.485  0.2654  0.1843  0.2823
  430TMC3    C5 6412   3.473   3.814  17.361  1.0803  0.6735 -0.1127
  430TMC3    C6 6413   3.416   3.867  17.250  0.1301  0.0333 -0.5018
  430TMC3     C 6414   3.189   3.742  17.543  0.6967 -0.0194  0.0618
  430TMC3     O 6415   3.083   3.734  17.481  0.2134 -0.0587 -0.0199
  430TMC3     H 6416   3.126   3.932  17.391 -0.1661 -0.2711 -1.0106
  430TMC3    H1 6417   3.462   3.731  17.553  0.2985  0.7580  0.8536
  430TMC3    H2 6418   3.461   3.855  17.153  1.8467  0.0396  0.2922
  430TMC3    C7 6419   3.581   3.713  17.335  0.5452 -0.0457 -0.0460
  430TMC3    C8 6420   3.225   3.974  17.144 -0.3111 -0.5483 -0.2474
  430TMC3    O1 6421   3.676   3.736  17.410  0.0390  0.7734 -0.1956
  430TMC3    O2 6422   3.259   3.927  17.030  0.2362  0.0738  0.1345
  431MPD2     C 6423   3.297   3.663  12.450  0.3370 -0.2174  0.1362
  431MPD2    C1 6424   3.372   3.591  12.365  0.4543  0.3209 -0.6245
  431MPD2    C2 6425   3.314   3.482  12.305 -0.2443  0.2757  0.2574
  431MPD2    C3 6426   3.184   3.436  12.340  0.6299  0.0770  0.1220
  431MPD2    C4 6427   3.109   3.522  12.413 -0.0686 -0.2518  0.0615
  431MPD2    C5 6428   3.167   3.632  12.469  0.3262  0.0793  0.2897
  431MPD2     H 6429   3.381   3.424  12.243 -0.0836  0.0320  0.6612
  431MPD2    H1 6430   3.009   3.496  12.445 -0.5333  1.5366  0.0205
  431MPD2    H2 6431   3.342   3.756  12.483  0.3439 -0.0452 -0.3592
  431MPD2    H3 6432   3.104   3.689  12.536 -0.9275 -0.2478 -0.6086
  431MPD2     N 6433   3.130   3.316  12.291 -0.0201 -0.1803  0.7503
  431MPD2    H5 6434   3.039   3.284  12.324  0.0095 -0.9179  0.1110
  431MPD2    N1 6435   3.511   3.624  12.353  0.1652  0.4850 -0.2149
  431MPD2    H7 6436   3.565   3.587  12.276 -1.9974 -0.9118 -1.0431
  432TMC3    C1 6437   3.163   3.096  12.190  0.2130  0.0233  0.0376
  432TMC3    C2 6438   3.207   3.025  12.080  0.2400  0.5719 -0.3806
  432TMC3    C3 6439   3.261   2.900  12.113  0.0536  0.6377 -0.5441
  432TMC3    C4 6440   3.156   3.037  12.319  1.2854  0.2010  0.5602
  432TMC3    C5 6441   3.196   2.907  12.336 -0.1400 -0.4151 -0.5246
  432TMC3    C6 6442   3.242   2.834  12.233  0.0298  0.2132  0.1986
  432TMC3     C 6443   3.192   3.236  12.191 -0.0637 -0.5831 -0.2529
  432TMC3     O 6444   3.272   3.276  12.106  0.4371 -0.0394  0.2786
  432TMC3     H 6445   3.232   3.067  11.983  2.7774 -0.3903 -0.1442
  432TMC3    H1 6446   3.104   3.089  12.399 -1.4767 -1.7928  0.0421
  432TMC3    H2 6447   3.288   2.739  12.257 -0.1055 -0.1886 -1.1392
  432TMC3    C7 6448   3.265   2.877  12.464 -0.5470 -0.1084  0.2067
  432TMC3    C8 6449   3.341   2.826  12.020 -1.0081 -0.0828 -0.2948
  432TMC3    O1 6450   3.300   2.761  12.493  0.5262 -0.0269  0.2553
  432TMC3    O2 6451   3.361   2.712  12.053  0.0360 -0.4888  0.3292
  433MPD2     C 6452   2.339   2.788  10.817 -0.1188  0.0696  0.1935
  433MPD2    C1 6453   2.270   2.683  10.875  0.7684 -0.2892  0.3197
  433MPD2    C2 6454   2.264   2.679  11.015  0.5564  0.8418  0.0688
  433MPD2    C3 6455   2.324   2.782  11.088  0.4844 -0.3142 -0.3364
  433MPD2    C4 6456   2.388   2.885  11.027  0.1514  0.2438 -0.6904
  433MPD2    C5 6457   2.394   2.893  10.892  0.0452  0.7096 -0.2084
  433MPD2     H 6458   2.218   2.597  11.069  0.6425  0.9927  0.3700
  433MPD2    H1 6459   2.418   2.967  11.091  0.5785  0.7736 -1.5750
  433MPD2    H2 6460   2.347   2.787  10.709 -0.9971  1.9011  0.1166
  433MPD2    H3 6461   2.434   2.977  10.836  1.9897  0.8247  1.3610
  433MPD2     N 6462   2.309   2.771  11.226  0.2582 -0.0306  0.3877
  433MPD2    H5 6463   2.270   2.687  11.266 -0.4498  0.7600  1.3582
  433MPD2    N1 6464   2.230   2.576  10.788  0.0639 -0.6116  0.4225
  433MPD2    H7 6465   2.237   2.591  10.688 -0.9688  1.4398  0.6536
  434TMC3    C1 6466   2.121   2.374  10.730 -1.1512  0.1179 -0.2736
  434TMC3    C2 6467   2.105   2.251  10.793  0.3852  0.6504 -0.2821
  434TMC3    C3 6468   2.139   2.134  10.736 -0.9465  0.4448 -0.1887
  434TMC3    C4 6469   2.197   2.372  10.614 -0.2795 -1.1987  0.7097
  434TMC3    C5 6470   2.233   2.245  10.559  0.7319 -0.7002 -0.5446
  434TMC3    C6 6471   2.210   2.126  10.624  0.0961  0.4682 -0.7134
  434TMC3     C 6472   2.154   2.471  10.830 -0.2569 -0.6378 -0.2759
  434TMC3     O 6473   2.098   2.453  10.935  0.3979 -0.3824  0.3283
  434TMC3     H 6474   2.059   2.239  10.891  2.3299  0.5943  0.6314
  434TMC3    H1 6475   2.223   2.456  10.551 -1.8302 -0.3122  1.2561
  434TMC3    H2 6476   2.249   2.028  10.599 -1.3223  0.6056 -3.5350
  434TMC3    C7 6477   2.274   2.249  10.420 -0.6440  0.0694  0.1856
  434TMC3    C8 6478   2.164   2.043  10.843 -0.0756 -0.7994  0.2961
  434TMC3    O1 6479   2.283   2.354  10.356  0.2784 -0.8765  0.1936
  434TMC3    O2 6480   2.218   2.088  10.945 -0.3294  0.1906 -0.3092
  435MPD2     C 6481   4.384   2.254  15.277 -0.4443 -0.1139 -0.1115
  435MPD2    C1 6482   4.378   2.184  15.391  0.3354  0.6154  0.5383
  435MPD2    C2 6483   4.485   2.110  15.436 -0.2810  0.8645  0.4024
  435MPD2    C3 6484   4.610   2.118  15.369 -0.2539  0.1249  0.2152
  435MPD2    C4 6485   4.617   2.192  15.253 -0.0582  0.0140  0.0505
  435MPD2    C5 6486   4.501   2.243  15.204 -0.3139  0.2170  0.1764
  435MPD2     H 6487   4.482   2.040  15.519  0.6134  0.8527  0.4245
  435MPD2    H1 6488   4.706   2.207  15.192  0.9757 -2.2932  0.9577
  435MPD2    H2 6489   4.311   2.321  15.233 -0.8768 -1.4289 -1.3923
  435MPD2    H3 6490   4.505   2.300  15.111 -0.7135  0.1928  0.1426
  435MPD2     N 6491   0.005   2.056  15.420  0.4437  0.2156  0.6613
  435MPD2    H5 6492   4.704   1.988  15.493  1.8530  1.3356  2.0914
  435MPD2    N1 6493   4.264   2.175  15.465  0.4136  0.8939 -0.2173
  435MPD2    H7 6494   4.267   2.136  15.559 -0.5814  1.4587  0.0477
  436TMC3    C1 6495   4.006   2.281  15.759 -0.0676  0.0879 -0.3369
  436TMC3    C2 6496   4.097   2.245  15.659  0.0655  0.2074 -0.2110
  436TMC3    C3 6497   4.052   2.254  15.536  0.4455  0.0745  0.1392
  436TMC3    C4 6498   3.884   2.326  15.717 -0.2543 -0.6450 -0.3460
  436TMC3    C5 6499   3.852   2.352  15.585 -0.1992 -0.2751  0.0214
  436TMC3    C6 6500   3.939   2.311  15.490 -0.7603 -0.6191 -0.3512
  436TMC3     C 6501   4.062   2.304  15.886 -0.2471  0.1069 -0.5815
  436TMC3     O 6502   4.175   2.262  15.901  0.2505  0.6670 -0.3043
  436TMC3     H 6503   4.198   2.214  15.686 -0.2480 -1.4574 -0.9402
  436TMC3    H1 6504   3.810   2.355  15.790  0.1155 -0.8667  0.1214
  436TMC3    H2 6505   3.926   2.346  15.389 -0.4057 -3.3404 -1.3470
  436TMC3    C7 6506   3.721   2.382  15.537  0.1121  0.1580  0.3270
  436TMC3    C8 6507   4.137   2.218  15.421 -0.2220  0.3747 -0.2541
  436TMC3    O1 6508   3.692   2.338  15.425 -0.3863 -0.1909  0.4385
  436TMC3    O2 6509   4.106   2.239  15.304  0.5338  0.5332  0.2426
  437TMC3    C1 6510   3.050   3.941  13.179 -0.1628 -0.2818 -0.5942
  437TMC3    C2 6511   2.930   3.869  13.185 -0.3206 -0.1462  0.4855
  437TMC3    C3 6512   2.826   3.915  13.104  0.2504  0.2507  0.0821
  437TMC3    C4 6513   3.074   4.041  13.089  0.2433  0.0495 -0.3608
  437TMC3    C5 6514   2.965   4.082  13.014  0.4158  0.0977 -0.1414
  437TMC3    C6 6515   2.842   4.029  13.027  0.2498  0.2584  0.5817
  437TMC3     C 6516   3.159   3.919  13.276 -0.4471  0.3914  0.0498
  437TMC3     O 6517   3.267   3.954  13.233 -0.0868 -0.2538  0.2574
  437TMC3     H 6518   2.929   3.776  13.241  0.8179 -1.4384 -1.6217
  437TMC3    H1 6519   3.164   4.099  13.106  1.2853 -2.2376  1.9697
  437TMC3    H2 6520   2.758   4.070  12.971  0.9059  1.5516  0.5512
  437TMC3    C7 6521   2.982   4.196  12.923 -0.5144 -0.1005 -0.0015
  437TMC3    C8 6522   2.699   3.846  13.122 -0.0451 -0.0688  0.0649
  437TMC3    O1 6523   2.877   4.257  12.898 -0.2188 -0.3524 -0.3328
  437TMC3    O2 6524   2.699   3.737  13.177  0.0808 -0.1123  0.2024
  438MPD2     C 6525   0.372   4.662  16.563 -0.0897 -0.7756 -0.4815
  438MPD2    C1 6526   0.468   4.584  16.629  0.5610  0.7278 -0.4906
  438MPD2    C2 6527   0.422   4.500  16.737  0.2856 -0.0221 -0.5167
  438MPD2    C3 6528   0.285   4.504  16.780  0.4211  0.4928 -0.1364
  438MPD2    C4 6529   0.199   4.586  16.716 -0.6526  0.3120  0.5316
  438MPD2    C5 6530   0.245   4.670  16.610 -0.0295  0.0246 -0.8779
  438MPD2     H 6531   0.488   4.426  16.782  0.0843  0.4980  0.6356
  438MPD2    H1 6532   0.097   4.605  16.749  0.4172  1.3344  3.2508
  438MPD2    H2 6533   0.394   4.719  16.474 -0.5088 -1.9114 -1.3125
  438MPD2    H3 6534   0.172   0.007  16.553 -0.5128 -0.6585 -0.9399
  438MPD2     N 6535   0.233   4.426  16.884  0.6299  0.3159 -0.4849
  438MPD2    H5 6536   0.133   4.432  16.905  0.8376 -2.9254  1.5146
  438MPD2    N1 6537   0.599   4.572  16.585 -0.5910  0.1422  0.2743
  438MPD2    H7 6538   0.653   4.509  16.645  0.1747 -0.0733 -0.6407
  439TMC3    C1 6539   0.804   4.621  16.480 -0.2469 -0.5017 -0.3671
  439TMC3    C2 6540   0.867   4.688  16.379 -0.0068  0.5073  0.6495
  439TMC3    C3 6541   1.006   4.687  16.380  0.3363  0.1696  0.0356
  439TMC3    C4 6542   0.867   4.568  16.587  0.0768  0.1734  0.1940
  439TMC3    C5 6543   1.005   4.567  16.581 -0.1421 -0.2557  0.2240
  439TMC3    C6 6544   1.074   4.643  16.489  0.0099  0.5433  0.4410
  439TMC3     C 6545   0.659   4.633  16.483 -0.7686 -0.7891 -0.3941
  439TMC3     O 6546   0.610   4.698  16.392 -0.8075  0.8649 -0.3935
  439TMC3     H 6547   0.814   0.009  16.293  0.4282 -0.7729 -0.2175
  439TMC3    H1 6548   0.813   4.539  16.677  0.8109 -2.7353 -0.3235
  439TMC3    H2 6549   1.182   4.632  16.477 -0.1284  0.5779 -0.8640
  439TMC3    C7 6550   1.078   4.509  16.695 -0.3343 -0.2432 -1.0856
  439TMC3    C8 6551   1.096   4.709  16.262 -0.2807 -0.2053 -0.8305
  439TMC3    O1 6552   1.191   4.547  16.710 -0.2753  0.3723  0.4189
  439TMC3    O2 6553   1.212   0.023  16.274  0.6774 -0.4393 -0.6275
  440MPD2     C 6554   4.505   0.561  14.397 -0.3500 -0.5625  0.2013
  440MPD2    C1 6555   4.515   0.645  14.502  0.2402  0.8971  0.4515
  440MPD2    C2 6556   4.631   0.637  14.575 -0.1582  0.3856 -0.9072
  440MPD2    C3 6557   0.014   0.558  14.536  0.0369  0.1048 -0.4758
  440MPD2    C4 6558   0.002   0.476  14.434  0.2557  0.0572  0.3400
  440MPD2    C5 6559   4.599   0.476  14.370  0.0910  0.5529  0.4522
  440MPD2     H 6560   4.634   0.681  14.674 -1.0009 -1.1112 -0.2194
  440MPD2    H1 6561   0.081   0.403  14.418  0.1117 -0.0702  0.2188
  440MPD2    H2 6562   4.419   0.557  14.332 -0.2306 -0.4294  0.0341
  440MPD2    H3 6563   4.576   0.406  14.290  0.9762 -0.2893  0.9313
  440MPD2     N 6564   0.135   0.549  14.612 -0.2069 -0.5878  0.5502
  440MPD2    H5 6565   0.207   0.488  14.577  1.8801  1.6811  0.8896
  440MPD2    N1 6566   4.411   0.719  14.556 -0.6373  0.0153  0.2134
  440MPD2    H7 6567   4.419   0.759  14.649  0.5423  0.6252 -0.1461
  441TMC3    C1 6568   0.306   0.604  14.748  0.2017  0.7987 -0.5871
  441TMC3    C2 6569   0.384   0.711  14.794 -0.3551  0.6716  0.8294
  441TMC3    C3 6570   0.461   0.682  14.902  0.7217 -0.9785  0.4256
  441TMC3    C4 6571   0.315   0.485  14.813  0.0829 -0.3570  0.9797
  441TMC3    C5 6572   0.387   0.461  14.925  0.0958 -0.7759 -0.5754
  441TMC3    C6 6573   0.467   0.566  14.969  0.7752  0.5778  0.3472
  441TMC3     C 6574   0.179   0.644  14.698  0.2954  0.2116  0.0843
  441TMC3     O 6575   0.141   0.755  14.728 -0.4867 -0.4226  0.3382
  441TMC3     H 6576   0.378   0.806  14.744  0.8170  0.6592  0.6593
  441TMC3    H1 6577   0.262   0.397  14.778  4.3716 -2.8540  0.7597
  441TMC3    H2 6578   0.516   0.568  15.066 -1.0881  0.8034  1.2827
  441TMC3    C7 6579   0.345   0.360  15.021 -0.0170 -0.0818 -0.0071
  441TMC3    C8 6580   0.478   0.791  14.988  0.0888  0.0137 -0.5373
  441TMC3    O1 6581   0.242   0.297  14.999 -0.4793 -0.6355  0.0472
  441TMC3    O2 6582   0.593   0.828  15.013  0.2274 -0.5175 -0.4369
  442MPD2     C 6583   2.733   1.264  16.072  0.3341 -0.4985  0.0182
  442MPD2    C1 6584   2.630   1.181  16.105 -0.4261 -0.0963  0.1758
  442MPD2    C2 6585   2.648   1.047  16.077 -0.2303  0.7200 -0.2950
  442MPD2    C3 6586   2.766   0.996  16.023 -0.1088  0.3246  0.1914
  442MPD2    C4 6587   2.864   1.085  15.983  0.6002 -0.7172 -0.1585
  442MPD2    C5 6588   2.838   1.219  16.005  0.3518  0.1669  0.2337
  442MPD2     H 6589   2.574   0.975  16.112 -1.3840  0.4822 -3.2657
  442MPD2    H1 6590   2.953   1.054  15.929  0.4892  1.6392 -1.6744
  442MPD2    H2 6591   2.735   1.370  16.098 -1.8625 -0.2981 -0.6382
  442MPD2    H3 6592   2.906   1.295  15.967  1.9027 -2.2494 -1.8322
  442MPD2     N 6593   2.804   0.859  16.021  0.1947  0.5858  0.5831
  442MPD2    H5 6594   2.903   0.837  16.026  0.2913  0.6681 -0.9699
  442MPD2    N1 6595   2.522   1.235  16.183  0.6272  0.0543 -0.4058
  442MPD2    H7 6596   2.503   1.334  16.172 -2.7223 -0.5603 -0.0720
  443TMC3    C1 6597   2.365   1.254  16.349  0.0000  0.3151  0.0638
  443TMC3    C2 6598   2.351   1.391  16.320 -0.2179  0.2063  0.7221
  443TMC3    C3 6599   2.283   1.473  16.407  0.5008 -0.8148 -0.1578
  443TMC3    C4 6600   2.326   1.206  16.473 -0.1362  0.4013  0.4019
  443TMC3    C5 6601   2.268   1.298  16.564 -0.0287 -0.4059 -1.1347
  443TMC3    C6 6602   2.252   1.431  16.532 -0.3397 -0.0530  0.4746
  443TMC3     C 6603   2.449   1.167  16.274  0.3983 -0.3229 -0.0898
  443TMC3     O 6604   2.470   1.055  16.319  0.5330 -0.0391 -0.5674
  443TMC3     H 6605   2.384   1.443  16.231 -0.0099  1.5644  1.6063
  443TMC3    H1 6606   2.339   1.105  16.511 -2.4380  0.1068  0.3807
  443TMC3    H2 6607   2.208   1.498  16.605  1.1108 -0.4019  1.6703
  443TMC3    C7 6608   2.229   1.236  16.694  0.2417  0.5757 -0.1084
  443TMC3    C8 6609   2.270   1.611  16.381  0.1276 -0.6459 -1.2905
  443TMC3    O1 6610   2.202   1.113  16.686 -0.0771 -0.2506  0.2474
  443TMC3    O2 6611   2.310   1.680  16.472 -0.3640 -0.0056 -0.2601
  444MPD2     C 6612   3.103   0.398  16.714  0.0120  0.4942  0.3690
  444MPD2    C1 6613   3.039   0.277  16.737 -0.5890 -0.2789  0.5784
  444MPD2    C2 6614   3.109   0.159  16.716 -0.1876  0.0936  0.2263
  444MPD2    C3 6615   3.243   0.164  16.667 -0.0167  0.0226 -0.3344
  444MPD2    C4 6616   3.305   0.283  16.653 -0.3368  0.2943  0.1261
  444MPD2    C5 6617   3.229   0.394  16.675  0.5584 -0.0367  0.0668
  444MPD2     H 6618   3.063   0.062  16.728 -0.6419  0.1653 -0.9000
  444MPD2    H1 6619   3.412   0.287  16.636 -0.2585  0.4327  0.6334
  444MPD2    H2 6620   3.065   0.500  16.721  0.8162  0.8588 -0.6306
  444MPD2    H3 6621   3.279   0.489  16.660 -1.5544  1.0434 -0.1481
  444MPD2     N 6622   3.310   0.042  16.635  0.7078 -0.4349  0.0912
  444MPD2    H5 6623   3.275   4.674  16.673  1.1780 -0.2067  1.0321
  444MPD2    N1 6624   2.906   0.271  16.782  0.3036 -0.0736 -0.7879
  444MPD2    H7 6625   2.865   0.178  16.782  0.9386 -0.3525 -0.5059
  445TMC3    C1 6626   3.479   4.622  16.546  0.2559 -0.4645  0.2991
  445TMC3    C2 6627   3.404   4.513  16.538 -0.1718  0.1621 -0.2066
  445TMC3    C3 6628   3.467   4.390  16.548  0.1561  0.0283 -0.1297
  445TMC3    C4 6629   3.613   4.617  16.547 -0.0461  0.7781  0.1337
  445TMC3    C5 6630   3.669   4.497  16.576 -0.3108 -1.0966 -0.6142
  445TMC3    C6 6631   3.596   4.380  16.591 -0.2434  0.1060  0.1804
  445TMC3     C 6632   3.421   0.035  16.555 -0.4707 -0.3289  0.0128
  445TMC3     O 6633   3.481   0.119  16.489  0.1381  0.2325 -0.0768
  445TMC3     H 6634   3.296   4.523  16.534 -0.2114  0.2453  1.2987
  445TMC3    H1 6635   3.668   4.707  16.525 -0.6472  1.3226  0.8777
  445TMC3    H2 6636   3.639   4.286  16.624  0.7548  1.0156  1.4761
  445TMC3    C7 6637   3.802   4.480  16.523 -0.5521  0.3167  0.2323
  445TMC3    C8 6638   3.379   4.272  16.561  0.4090  0.9252 -0.4179
  445TMC3    O1 6639   3.834   4.528  16.416  0.1807 -0.0452  0.3422
  445TMC3    O2 6640   3.275   4.293  16.624  0.0721  0.3045  0.6133
  446MPD2     C 6641   1.966   1.867  11.436 -0.6428 -0.4829  0.5072
  446MPD2    C1 6642   1.969   1.880  11.296 -0.0536 -0.5878 -0.2284
  446MPD2    C2 6643   2.058   1.971  11.234  0.3143 -0.2683 -0.3312
  446MPD2    C3 6644   2.146   2.043  11.311 -0.3250  0.4387  0.5936
  446MPD2    C4 6645   2.133   2.038  11.448 -0.2921 -0.6504  0.4931
  446MPD2    C5 6646   2.048   1.952  11.505 -0.0376 -0.8431  0.4443
  446MPD2     H 6647   2.067   1.970  11.126  0.1487 -1.3431 -0.3323
  446MPD2    H1 6648   2.195   2.088  11.522 -0.8834 -0.8058  1.0991
  446MPD2    H2 6649   1.895   1.806  11.490 -2.2392 -0.6144 -1.7477
  446MPD2    H3 6650   2.036   1.953  11.613  0.5780 -0.8227  0.5138
  446MPD2     N 6651   2.248   2.121  11.243  0.4477  0.2313  0.5314
  446MPD2    H5 6652   2.243   2.121  11.142 -1.0491 -1.3905  0.6112
  446MPD2    N1 6653   1.889   1.797  11.211  0.0759  0.4085 -0.0621
  446MPD2    H7 6654   1.873   1.828  11.116 -0.9160  0.4008  0.1058
  447TMC3    C1 6655   2.420   2.276  11.208 -0.1340 -0.1130 -0.2389
  447TMC3    C2 6656   2.384   2.292  11.075  0.0695 -0.5056  0.0184
  447TMC3    C3 6657   2.464   2.383  11.008  0.6650 -0.2455  0.0575
  447TMC3    C4 6658   2.518   2.351  11.271  0.2175  0.7847  0.3479
  447TMC3    C5 6659   2.592   2.439  11.192  0.3656 -0.3790  0.9049
  447TMC3    C6 6660   2.567   2.455  11.061  0.2234  0.2973 -0.1617
  447TMC3     C 6661   2.338   2.203  11.305 -0.2924  0.1619  0.6688
  447TMC3     O 6662   2.340   2.238  11.417  0.4306 -0.3767 -0.2734
  447TMC3     H 6663   2.288   2.258  11.037 -0.6842  0.8090  0.7536
  447TMC3    H1 6664   2.548   2.333  11.374  2.4641  0.2530 -0.4024
  447TMC3    H2 6665   2.634   2.514  10.999  1.4785 -1.1341 -0.1637
  447TMC3    C7 6666   2.727   2.443  11.234 -0.2088  0.5642  0.1886
  447TMC3    C8 6667   2.489   2.357  10.864 -0.0045  0.1785  0.2726
  447TMC3    O1 6668   2.813   2.422  11.151  0.5499  0.0182 -0.1258
  447TMC3    O2 6669   2.529   2.452  10.798 -0.2882 -0.4786 -0.5484
  448TMC3    C1 6670   1.005   1.655  16.569 -1.2932 -0.4905  0.3525
  448TMC3    C2 6671   1.023   1.542  16.494 -0.5105 -1.4885 -1.0140
  448TMC3    C3 6672   1.071   1.426  16.548  0.0742  0.1837 -0.4511
  448TMC3    C4 6673   1.037   1.648  16.704 -0.5639 -0.6844  0.6260
  448TMC3    C5 6674   1.093   1.535  16.756  0.2805 -1.0222 -0.4785
  448TMC3    C6 6675   1.102   1.418  16.679 -0.0783  0.5606 -0.1972
  448TMC3     C 6676   0.958   1.773  16.501 -0.8577  0.0046  0.5217
  448TMC3     O 6677   0.943   1.778  16.381 -0.0976 -0.3236  0.0301
  448TMC3     H 6678   0.993   1.544  16.390  2.0558  0.0115 -1.7179
  448TMC3    H1 6679   1.043   1.737  16.765 -1.8311  0.2796 -0.6644
  448TMC3    H2 6680   1.139   1.328  16.727 -0.6987 -0.8703 -2.4167
  448TMC3    C7 6681   1.116   1.515  16.898 -0.1000  0.1446  0.0045
  448TMC3    C8 6682   1.077   1.296  16.481  0.0130 -0.1234  1.2985
  448TMC3    O1 6683   1.050   1.584  16.975  0.5195  0.5354  0.7865
  448TMC3    O2 6684   1.068   1.199  16.555  0.3664 -0.6766  0.0877
  449MPD2     C 6685   2.357   0.362  13.800  0.0272 -0.4482  0.4944
  449MPD2    C1 6686   2.240   0.299  13.809  0.4373 -0.0900 -0.2376
  449MPD2    C2 6687   2.221   0.204  13.909 -0.6598 -0.2805  0.6238
  449MPD2    C3 6688   2.326   0.154  13.981  0.2211 -0.3459 -0.1491
  449MPD2    C4 6689   2.448   0.215  13.969  0.7533 -0.6530 -0.9268
  449MPD2    C5 6690   2.459   0.320  13.882 -0.7108 -0.2534  0.3888
  449MPD2     H 6691   2.128   0.149  13.918 -0.1987 -1.2773 -0.8579
  449MPD2    H1 6692   2.534   0.177  14.023 -0.6317 -0.6194  1.3158
  449MPD2    H2 6693   2.364   0.453  13.743  0.2965 -1.1169 -0.5522
  449MPD2    H3 6694   2.557   0.363  13.867 -2.0575  2.8492  0.5405
  449MPD2     N 6695   2.296   0.041  14.061 -0.7927  0.4707 -0.1770
  449MPD2    H5 6696   2.205   4.717  14.046 -0.6564  0.4365 -0.9313
  449MPD2    N1 6697   2.133   0.318  13.722 -0.2889 -0.0656  0.2123
  449MPD2    H7 6698   2.048   0.264  13.736  0.3748 -0.9314  0.9338
  450TMC3    C1 6699   2.003   0.385  13.552  0.3759 -0.0916  0.2050
  450TMC3    C2 6700   2.024   0.351  13.428  0.0555  0.0216  0.0073
  450TMC3    C3 6701   1.944   0.248  13.371 -0.1960  0.2702  0.0247
  450TMC3    C4 6702   1.908   0.311  13.618 -0.3911  0.7015  0.6140
  450TMC3    C5 6703   1.823   0.211  13.568 -0.2689  0.9468 -0.6723
  450TMC3    C6 6704   1.847   0.177  13.439 -0.2686 -0.9626 -0.2432
  450TMC3     C 6705   2.121   0.414  13.622  0.4623  0.0599 -0.3935
  450TMC3     O 6706   2.201   0.489  13.569  0.3010 -0.0659  0.1773
  450TMC3     H 6707   2.108   0.401  13.381 -1.0919  0.3367 -1.7379
  450TMC3    H1 6708   1.886   0.337  13.721  1.0986 -1.5860  1.5031
  450TMC3    H2 6709   1.797   0.097  13.386 -1.4047  0.5840 -1.4658
  450TMC3    C7 6710   1.829   0.095  13.666  0.6295 -0.1095 -0.3331
  450TMC3    C8 6711   1.972   0.208  13.230 -0.2436  0.1965 -0.0354
  450TMC3    O1 6712   1.899   0.122  13.766  0.0228 -0.2710 -0.1759
  450TMC3    O2 6713   1.883   0.145  13.175  0.2238  0.2070 -0.0048
  451MPD2     C 6714   3.953   3.433   1.481 -0.1366  0.6376 -0.7871
  451MPD2    C1 6715   3.830   3.419   1.434 -0.7453 -0.0984  0.1425
  451MPD2    C2 6716   3.788   3.298   1.384 -1.1435  0.1713  0.3888
  451MPD2    C3 6717   3.882   3.192   1.371 -0.9195  0.6641  0.1691
  451MPD2    C4 6718   4.004   3.208   1.430 -0.0210  0.0779  0.4692
  451MPD2    C5 6719   4.037   3.325   1.494 -0.6351  0.0993  0.4531
  451MPD2     H 6720   3.696   3.291   1.328  0.3424 -1.1406 -1.8764
  451MPD2    H1 6721   4.081   3.134   1.413  0.6308  0.6429  0.9456
  451MPD2    H2 6722   3.989   3.528   1.516  1.2872  0.9396 -3.0510
  451MPD2    H3 6723   4.133   3.335   1.542 -0.3823 -1.4007  0.2666
  451MPD2     N 6724   3.852   3.064   1.315 -0.1883  0.3525 -0.5416
  451MPD2    H5 6725   3.928   2.999   1.327  0.5749  0.9414 -2.2342
  451MPD2    N1 6726   3.749   3.538   1.449  0.3745  0.0077  0.7986
  451MPD2    H7 6727   3.796   3.620   1.487 -0.9766  1.2183 -0.1132
  452TMC3    C1 6728   3.712   2.887   1.222  0.1832  0.0197 -0.0444
  452TMC3    C2 6729   3.795   2.794   1.278  0.0299 -0.0797 -0.9796
  452TMC3    C3 6730   3.751   2.674   1.256  0.8542 -0.0883  0.3993
  452TMC3    C4 6731   3.604   2.853   1.147 -0.2154 -0.5622  0.0473
  452TMC3    C5 6732   3.557   2.724   1.127 -0.3972  0.0215  0.0551
  452TMC3    C6 6733   3.644   2.632   1.180  0.7997 -0.3221  0.2070
  452TMC3     C 6734   3.737   3.030   1.248  0.2942 -0.1032 -0.2220
  452TMC3     O 6735   3.642   3.098   1.220 -0.5479 -0.9873 -0.2937
  452TMC3     H 6736   3.872   2.829   1.346  2.0088 -2.4803 -2.0134
  452TMC3    H1 6737   3.542   2.928   1.098  1.0806 -1.4157 -2.9115
  452TMC3    H2 6738   3.637   2.527   1.151  1.7763 -1.0047  2.4671
  452TMC3    C7 6739   3.481   2.693   1.012  0.3141 -0.2089 -0.1186
  452TMC3    C8 6740   3.823   2.573   1.324  0.1854  0.0636 -0.2971
  452TMC3    O1 6741   3.453   2.783   0.933 -0.9501  0.3059  0.1258
  452TMC3    O2 6742   3.937   2.600   1.365 -0.1337  0.1463  0.0469
  453TMC3    C1 6743   4.389   0.673  11.531  0.0512 -0.1835  0.4009
  453TMC3    C2 6744   4.292   0.663  11.627 -0.0949  0.1025 -0.3620
  453TMC3    C3 6745   4.167   0.721  11.596  0.4225  0.1065 -0.2672
  453TMC3    C4 6746   4.349   0.727  11.404  0.0908  0.8291  0.0952
  453TMC3    C5 6747   4.223   0.769  11.376  0.3167 -0.2365 -0.1002
  453TMC3    C6 6748   4.130   0.766  11.471  0.3580  0.4001 -0.4975
  453TMC3     C 6749   4.521   0.706  11.567 -0.5762  0.1176  0.8333
  453TMC3     O 6750   4.601   0.755  11.489  0.0236 -0.0979  0.1360
  453TMC3     H 6751   4.312   0.638  11.731  0.4842 -0.5421 -0.6290
  453TMC3    H1 6752   4.422   0.742  11.325 -0.7843  0.0099 -0.8822
  453TMC3    H2 6753   4.026   0.787  11.449 -0.0090  0.2264  1.0758
  453TMC3    C7 6754   4.203   0.860  11.267 -0.0964 -0.1211  0.3932
  453TMC3    C8 6755   4.056   0.662  11.672 -0.3895  0.1544 -0.0026
  453TMC3    O1 6756   4.234   0.833  11.152 -0.4283  0.8171 -0.0721
  453TMC3    O2 6757   3.963   0.734  11.702  0.6166 -0.1150  0.3325
  454MPD2     C 6758   3.830   0.046  16.019 -0.8044  0.4486 -0.0482
  454MPD2    C1 6759   3.743   0.121  15.954 -0.6114  0.8185  0.3870
  454MPD2    C2 6760   3.636   0.179  16.016 -0.7383 -0.0132  0.2094
  454MPD2    C3 6761   3.617   0.158  16.150 -0.0742 -0.4163 -0.6023
  454MPD2    C4 6762   3.699   0.079  16.221  0.9226 -0.0693 -0.3853
  454MPD2    C5 6763   3.808   0.024  16.153  0.1846 -0.7355 -0.3423
  454MPD2     H 6764   3.560   0.240  15.969 -0.9605 -0.1198  0.4271
  454MPD2    H1 6765   3.706   0.068  16.328 -0.7361 -1.2682 -0.4088
  454MPD2    H2 6766   3.921   4.716  15.985 -1.7042 -0.5298 -1.0316
  454MPD2    H3 6767   3.894   4.707  16.208  1.4460  1.2550 -0.9916
  454MPD2     N 6768   3.512   0.203  16.226  0.4244  0.1743  0.0686
  454MPD2    H5 6769   3.500   0.180  16.324  0.3610  0.4240  0.1190
  454MPD2    N1 6770   3.748   0.145  15.812  0.4223  0.2053 -0.2644
  454MPD2    H7 6771   3.681   0.210  15.771  2.0413  1.9887 -0.0589
  455TMC3    C1 6772   3.291   0.257  16.261 -0.1040 -0.2327 -0.2221
  455TMC3    C2 6773   3.208   0.362  16.265  0.0935 -0.2950 -0.0676
  455TMC3    C3 6774   3.080   0.334  16.318 -0.5528 -0.2157  0.4325
  455TMC3    C4 6775   3.253   0.128  16.275 -0.7383  0.0546 -0.5231
  455TMC3    C5 6776   3.129   0.107  16.323  0.0627 -0.1413 -0.0944
  455TMC3    C6 6777   3.045   0.207  16.356  0.1182 -0.3958  0.5247
  455TMC3     C 6778   3.404   0.273  16.174  0.3879 -0.0062  0.2345
  455TMC3     O 6779   3.409   0.362  16.092  0.0884  0.5401  0.0512
  455TMC3     H 6780   3.232   0.464  16.238  1.6941 -0.9613 -1.2062
  455TMC3    H1 6781   3.319   0.042  16.274 -0.9408 -0.0940 -0.9516
  455TMC3    H2 6782   2.956   0.190  16.415 -1.9789 -0.4288 -2.7001
  455TMC3    C7 6783   3.080   4.689  16.335  0.4401  0.6144 -0.4786
  455TMC3    C8 6784   2.999   0.456  16.356 -1.0677 -0.2280  0.1868
  455TMC3    O1 6785   3.006   4.660  16.427 -0.1941  0.3760 -0.2370
  455TMC3    O2 6786   3.019   0.551  16.283 -0.0276  0.1552 -0.0816
  456MPD2     C 6787   1.275   0.216  15.611  0.4366  0.2704  0.0831
  456MPD2    C1 6788   1.371   0.210  15.709  0.2427  0.6684 -0.3777
  456MPD2    C2 6789   1.330   0.236  15.841  0.5360  0.1996 -0.2632
  456MPD2    C3 6790   1.203   0.286  15.864  0.2687  0.0964 -0.5956
  456MPD2    C4 6791   1.117   0.309  15.761 -0.9731  0.9154 -0.3667
  456MPD2    C5 6792   1.153   0.269  15.640 -0.1054  0.4572 -0.2372
  456MPD2     H 6793   1.395   0.212  15.924  5.0972 -0.9317 -4.1474
  456MPD2    H1 6794   1.016   0.347  15.768 -0.5070  2.3538 -1.5141
  456MPD2    H2 6795   1.293   0.193  15.506 -2.8593  2.0153 -0.8568
  456MPD2    H3 6796   1.078   0.272  15.562  1.2637  2.8651 -1.4528
  456MPD2     N 6797   1.170   0.328  15.993  0.0329 -0.0252  0.6964
  456MPD2    H5 6798   1.239   0.309  16.064  1.9552 -0.5361 -1.3047
  456MPD2    N1 6799   1.506   0.175  15.677  0.1794 -0.7083  0.3046
  456MPD2    H7 6800   1.521   0.165  15.577 -1.2422  0.5674 -0.0426
  457TMC3    C1 6801   1.061   0.449  16.160  0.2737  0.9244  0.0090
  457TMC3    C2 6802   1.023   0.578  16.166  0.2654  0.1794 -0.3103
  457TMC3    C3 6803   1.031   0.644  16.289 -0.0898  0.6063  0.0366
  457TMC3    C4 6804   1.132   0.382  16.254  0.1120 -0.0987  0.2460
  457TMC3    C5 6805   1.124   0.441  16.375  0.4436  0.3223 -0.1514
  457TMC3    C6 6806   1.073   0.570  16.401  0.3775 -0.2675  0.2337
  457TMC3     C 6807   1.053   0.390  16.033  0.1662  0.4446 -0.2330
  457TMC3     O 6808   0.955   0.430  15.970  0.0147  0.0992  0.2103
  457TMC3     H 6809   0.990   0.631  16.077  2.1065  1.0320 -0.4973
  457TMC3    H1 6810   1.155   0.277  16.234  1.1823 -0.0250  1.1068
  457TMC3    H2 6811   1.073   0.605  16.504  2.3951 -2.4138  0.9552
  457TMC3    C7 6812   1.081   0.339  16.473 -0.3962 -0.3164  0.1199
  457TMC3    C8 6813   1.034   0.791  16.306 -0.0098  0.3884  0.6465
  457TMC3    O1 6814   1.155   0.241  16.494  0.2362  0.8916  0.0468
  457TMC3    O2 6815   1.038   0.844  16.418 -0.0572 -0.5429 -0.0172
  458MPD2     C 6816   3.252   4.515  12.636 -0.7881  0.5044  0.0207
  458MPD2    C1 6817   3.317   4.392  12.630  0.0744  0.6100  0.2446
  458MPD2    C2 6818   3.261   4.288  12.709  0.0063  0.1634  0.4223
  458MPD2    C3 6819   3.149   4.308  12.783 -0.3407 -0.4260  0.7003
  458MPD2    C4 6820   3.099   4.430  12.796  0.1183  0.3793 -0.1587
  458MPD2    C5 6821   3.145   4.537  12.727  0.1574 -0.7577  0.5658
  458MPD2     H 6822   3.298   4.187  12.698  0.5092  0.1930  1.8252
  458MPD2    H1 6823   3.009   4.440  12.856  1.5109  4.6643  1.2065
  458MPD2    H2 6824   3.284   4.605  12.585 -0.7767  0.6264  0.2471
  458MPD2    H3 6825   3.104   4.636  12.745  0.5457 -0.8111  1.7639
  458MPD2     N 6826   3.101   4.202  12.855 -0.3661  0.0871  0.3319
  458MPD2    H5 6827   3.166   4.123  12.857  1.6732  1.7523  0.2324
  458MPD2    N1 6828   3.427   4.380  12.543  0.1524 -0.2279 -0.0983
  458MPD2    H7 6829   3.456   4.462  12.491 -0.6454  0.5361  0.6688
  459TMC3    C1 6830   3.638   4.287  12.470  0.8914 -0.3167  0.0104
  459TMC3    C2 6831   3.676   4.418  12.456 -0.1918 -0.6836 -0.0018
  459TMC3    C3 6832   3.798   4.451  12.504 -0.1849 -0.3079  0.2568
  459TMC3    C4 6833   3.725   4.197  12.529  0.3088  0.5352  0.1687
  459TMC3    C5 6834   3.839   4.237  12.587 -0.1522 -0.5775  0.7189
  459TMC3    C6 6835   3.876   4.366  12.572  0.0117  0.4066  0.5944
  459TMC3     C 6836   3.502   4.265  12.514  0.4476  1.1866 -0.6503
  459TMC3     O 6837   3.481   4.150  12.550  0.2939 -0.3527  0.5967
  459TMC3     H 6838   3.614   4.488  12.401 -0.7710 -0.2670  1.1768
  459TMC3    H1 6839   3.711   4.090  12.529 -0.0752  0.5746  1.4673
  459TMC3    H2 6840   3.969   4.400  12.617  0.2430 -0.1625  0.5490
  459TMC3    C7 6841   3.877   4.179  12.717  0.4765 -0.1930 -0.8174
  459TMC3    C8 6842   3.851   4.588  12.500  0.1816 -0.5950 -0.1339
  459TMC3    O1 6843   3.861   4.057  12.730 -0.1630 -0.5700  1.0603
  459TMC3    O2 6844   3.956   4.601  12.556 -0.0171 -0.4380  0.1750
  460MPD2     C 6845   2.518   2.030  10.704 -0.2090  0.9754 -0.1230
  460MPD2    C1 6846   2.515   2.166  10.714 -0.8702 -0.1895  0.1527
  460MPD2    C2 6847   2.553   2.238  10.602 -1.1001 -0.2000 -0.4661
  460MPD2    C3 6848   2.597   2.183  10.485 -0.2686 -1.0272  0.2522
  460MPD2    C4 6849   2.595   2.047  10.477 -0.1375 -0.5011 -0.1814
  460MPD2    C5 6850   2.562   1.976  10.587 -0.2612  0.4062  0.6109
  460MPD2     H 6851   2.539   2.345  10.595 -1.8100 -0.3302 -1.1561
  460MPD2    H1 6852   2.615   1.988  10.388 -2.0633 -1.1214 -0.2058
  460MPD2    H2 6853   2.488   1.958  10.779  3.6928 -2.7105 -2.1007
  460MPD2    H3 6854   2.551   1.870  10.569 -1.3201  0.2158  2.3381
  460MPD2     N 6855   2.633   2.255  10.365 -0.0802 -0.4259  0.0457
  460MPD2    H5 6856   2.605   2.352  10.353 -0.3136 -0.4401  0.5214
  460MPD2    N1 6857   2.468   2.221  10.830  0.2181  0.3228  0.3172
  460MPD2    H7 6858   2.440   2.156  10.903  0.8321 -0.2189  0.0681
  461TMC3    C1 6859   2.709   2.282  10.139  0.2044 -0.2792  0.6008
  461TMC3    C2 6860   2.747   2.224  10.018  0.2306  0.1856 -0.2391
  461TMC3    C3 6861   2.762   2.301   9.903 -0.1003 -0.2140  0.7023
  461TMC3    C4 6862   2.683   2.417  10.149  0.2205 -0.1209 -0.2859
  461TMC3    C5 6863   2.687   2.482  10.031 -0.4747  0.7118  0.0595
  461TMC3    C6 6864   2.735   2.433   9.910  1.0198 -0.5864 -0.0492
  461TMC3     C 6865   2.691   2.195  10.253 -0.0998 -0.0897 -0.7359
  461TMC3     O 6866   2.745   2.087  10.247 -0.3382  0.6947 -0.4987
  461TMC3     H 6867   2.754   2.116  10.009  0.2878  0.3152 -1.7979
  461TMC3    H1 6868   2.671   2.460  10.248  1.1215  2.1072 -1.1236
  461TMC3    H2 6869   2.737   2.497   9.823  0.0424  2.2647  2.0289
  461TMC3    C7 6870   2.624   2.615  10.017 -0.6155 -0.9230  0.7895
  461TMC3    C8 6871   2.730   2.232   9.780 -0.0225 -0.3290 -0.7504
  461TMC3    O1 6872   2.617   2.659   9.902 -0.0288  0.0348  0.1654
  461TMC3    O2 6873   2.741   2.110   9.783 -0.2819 -0.1326 -0.1063
  462TMC3    C1 6874   2.791   2.640  17.280 -0.5953  0.3392  0.2912
  462TMC3    C2 6875   2.805   2.544  17.186 -0.5576 -0.3061  0.2049
  462TMC3    C3 6876   2.820   2.417  17.226  0.5635  0.5350 -0.4631
  462TMC3    C4 6877   2.770   2.612  17.414  0.3116 -0.6826 -0.6270
  462TMC3    C5 6878   2.779   2.479  17.448  0.6478  0.7009  0.5278
  462TMC3    C6 6879   2.815   2.382  17.355 -0.4467  0.6644 -0.1357
  462TMC3     C 6880   2.805   2.777  17.231  0.7324 -0.1772  1.2999
  462TMC3     O 6881   2.783   2.794  17.112 -0.8005 -0.0096 -0.1185
  462TMC3     H 6882   2.818   2.573  17.083 -0.1109  0.9265  0.6037
  462TMC3    H1 6883   2.756   2.697  17.479 -2.9141 -0.0122 -2.1974
  462TMC3    H2 6884   2.832   2.278  17.379  0.3236  0.3720 -1.9605
  462TMC3    C7 6885   2.772   2.432  17.588 -0.4742 -0.3573  0.3414
  462TMC3    C8 6886   2.894   2.325  17.148  1.1331 -0.2057  0.5582
  462TMC3    O1 6887   2.723   2.319  17.606  0.3562 -0.3562  0.3795
  462TMC3    O2 6888   2.989   2.276  17.197 -0.5031 -0.2867  0.5945
  463MPD2     C 6889   4.432   0.860   1.688 -0.3069 -0.4234 -0.3183
  463MPD2    C1 6890   4.314   0.913   1.640 -0.5822 -0.1274 -0.2384
  463MPD2    C2 6891   4.315   1.050   1.616  0.6389 -0.1581  0.2442
  463MPD2    C3 6892   4.419   1.134   1.643 -0.3220 -0.9495 -0.0669
  463MPD2    C4 6893   4.534   1.077   1.695  0.2233 -0.3357  0.6593
  463MPD2    C5 6894   4.540   0.942   1.708 -0.5864  0.1831 -0.5543
  463MPD2     H 6895   4.221   1.076   1.570  0.4105 -0.8327  0.3248
  463MPD2    H1 6896   4.623   1.136   1.710 -1.0362  1.1707  2.2157
  463MPD2    H2 6897   4.437   0.752   1.692 -0.2237 -0.3804  0.8085
  463MPD2    H3 6898   4.628   0.887   1.741  0.0461 -0.0818 -2.6954
  463MPD2     N 6899   4.421   1.274   1.610  0.0110  0.2804 -0.4071
  463MPD2    H5 6900   4.509   1.325   1.612 -0.2643  0.7712 -0.8712
  463MPD2    N1 6901   4.204   0.832   1.602  0.5443 -0.2147 -0.0211
  463MPD2    H7 6902   4.122   0.876   1.562 -0.0793 -1.8664 -0.5822
  464TMC3    C1 6903   4.072   0.655   1.547  0.3439  0.5781 -0.1058
  464TMC3    C2 6904   3.960   0.704   1.608  0.5043 -0.0903 -0.2740
  464TMC3    C3 6905   3.842   0.671   1.546 -0.1358 -0.2963 -0.1673
  464TMC3    C4 6906   4.072   0.571   1.434  0.1521  0.3015  1.3600
  464TMC3    C5 6907   3.949   0.559   1.370 -0.1945 -0.2973 -0.2008
  464TMC3    C6 6908   3.834   0.609   1.427 -0.0299 -0.0288 -0.3026
  464TMC3     C 6909   4.207   0.695   1.597 -0.5931  0.8628  0.2257
  464TMC3     O 6910   4.293   0.614   1.573 -0.5667  0.1324 -0.7763
  464TMC3     H 6911   3.966   0.749   1.706  2.6456 -1.5398  0.2537
  464TMC3    H1 6912   4.165   0.534   1.391 -2.4089 -2.3645 -1.9526
  464TMC3    H2 6913   3.736   0.582   1.392 -0.4268 -0.0163  0.7955
  464TMC3    C7 6914   3.945   0.528   1.231  0.3700 -0.3829 -0.4809
  464TMC3    C8 6915   3.722   0.754   1.574  0.1180 -0.2339 -0.3963
  464TMC3    O1 6916   4.028   0.448   1.186 -0.3346  0.4148  0.2011
  464TMC3    O2 6917   3.643   0.764   1.481 -0.6253 -0.7662  0.4294
  465MPD2     C 6918   0.579   0.744  15.819  0.7437 -0.3180  0.6781
  465MPD2    C1 6919   0.525   0.763  15.946 -0.2926  0.6525  0.3741
  465MPD2    C2 6920   0.403   0.713  15.970  0.2063  0.5038 -0.3908
  465MPD2    C3 6921   0.325   0.637  15.880 -0.7609 -1.1175 -0.3715
  465MPD2    C4 6922   0.375   0.628  15.749  0.3471 -1.3750  0.3180
  465MPD2    C5 6923   0.503   0.672  15.724 -0.5816 -0.0201  0.0811
  465MPD2     H 6924   0.353   0.732  16.064  0.0447  0.8762 -0.5497
  465MPD2    H1 6925   0.332   0.590  15.656  0.9176  0.7368 -0.8094
  465MPD2    H2 6926   0.679   0.777  15.795 -0.0274  0.2529 -1.7468
  465MPD2    H3 6927   0.540   0.643  15.626 -0.9406 -0.5142  0.0955
  465MPD2     N 6928   0.194   0.591  15.904 -0.2201  0.1120 -0.3720
  465MPD2    H5 6929   0.143   0.622  15.986  1.8873 -2.0501  1.7820
  465MPD2    N1 6930   0.594   0.836  16.046  0.1767 -0.4209  0.2386
  465MPD2    H7 6931   0.556   0.844  16.140  0.6720  0.2971  0.3732
  466TMC3    C1 6932   4.539   0.372  15.983 -0.0613 -0.4196  0.1904
  466TMC3    C2 6933   4.451   0.471  15.956 -0.2033  0.6856  0.3504
  466TMC3    C3 6934   4.495   0.584  15.891  0.5824 -0.0448  0.2743
  466TMC3    C4 6935   4.669   0.369  15.933 -0.6964 -0.3672  0.6197
  466TMC3    C5 6936   4.712   0.483  15.875 -0.3010 -0.0040 -0.3931
  466TMC3    C6 6937   4.628   0.589  15.849 -0.1655 -0.2719 -0.4011
  466TMC3     C 6938   4.523   0.306  16.111 -0.3301 -0.2050  0.1705
  466TMC3     O 6939   4.446   0.368  16.188 -0.6638  0.7969 -0.1146
  466TMC3     H 6940   4.353   0.474  16.002 -0.2358  2.4457  0.1725
  466TMC3    H1 6941   0.025   0.307  15.979 -1.4068 -1.9449 -0.3411
  466TMC3    H2 6942   4.676   0.682  15.820  1.1276 -0.1854  2.0738
  466TMC3    C7 6943   0.129   0.495  15.826  0.2101  0.4254  0.7196
  466TMC3    C8 6944   4.453   0.715  15.930  0.8647 -0.2078 -0.4141
  466TMC3    O1 6945   0.176   0.426  15.736  0.1618  0.5595  0.1495
  466TMC3    O2 6946   4.401   0.723  16.041 -0.2120 -0.2146 -0.3033
  467TMC3    C1 6947   1.016   3.576  13.298  0.2050 -0.4850  0.2726
  467TMC3    C2 6948   1.084   3.651  13.209 -0.3797 -0.0997  0.8725
  467TMC3    C3 6949   1.024   3.754  13.140  0.0012 -0.5878  0.0342
  467TMC3    C4 6950   0.884   3.596  13.324  0.6526  0.1899 -0.5208
  467TMC3    C5 6951   0.827   3.694  13.249  0.0878  0.5283 -0.3882
  467TMC3    C6 6952   0.886   3.765  13.150 -0.4445  1.0576 -0.5363
  467TMC3     C 6953   1.106   3.531  13.404 -0.0335 -0.2563 -0.1990
  467TMC3     O 6954   1.209   3.588  13.410 -0.1811 -0.4597  0.9227
  467TMC3     H 6955   1.187   3.625  13.191 -0.6823 -0.4143 -0.3740
  467TMC3    H1 6956   0.831   3.532  13.394  1.6108  1.8614  1.7229
  467TMC3    H2 6957   0.832   3.832  13.085 -1.1906  1.1297  0.1692
  467TMC3    C7 6958   0.686   3.714  13.259 -0.5423 -0.3360 -0.6462
  467TMC3    C8 6959   1.099   3.864  13.087  0.0908 -0.2060 -0.9536
  467TMC3    O1 6960   0.630   3.751  13.160  0.2257  0.0938 -0.2092
  467TMC3    O2 6961   1.022   3.958  13.054  0.3513 -0.2138 -0.3095
  468MPD2     C 6962   4.486   2.247  10.830  0.5857 -1.0249 -0.3173
  468MPD2    C1 6963   4.595   2.187  10.769  0.8637 -0.0844  0.2451
  468MPD2    C2 6964   4.589   2.050  10.747  0.5612  0.1940 -0.6335
  468MPD2    C3 6965   4.480   1.969  10.781 -0.5843 -0.9824  0.0790
  468MPD2    C4 6966   4.371   2.037  10.826  0.2236 -0.0322  0.4029
  468MPD2    C5 6967   4.378   2.169  10.857  0.0119  0.2920 -0.0872
  468MPD2     H 6968   4.673   2.000  10.699  2.2287 -1.3845  3.9089
  468MPD2    H1 6969   4.277   1.986  10.844  0.6842 -1.8216 -2.2918
  468MPD2    H2 6970   4.481   2.348  10.867  0.8040 -1.5437  1.1448
  468MPD2    H3 6971   4.290   2.216  10.900 -0.4411 -1.9968  1.4464
  468MPD2     N 6972   4.468   1.830  10.745  0.7130  0.2171 -0.3271
  468MPD2    H5 6973   4.370   1.803  10.748 -0.0023  2.8407 -0.1352
  468MPD2    N1 6974   4.708   2.263  10.736 -0.3255  0.4838  0.6131
  468MPD2    H7 6975   0.054   2.214  10.676 -1.8892 -2.2663  1.1715
  469TMC3    C1 6976   0.127   2.458  10.715  0.8691  0.6046  0.2919
  469TMC3    C2 6977   0.220   2.366  10.766 -0.1133 -0.7512  0.0051
  469TMC3    C3 6978   0.324   2.417  10.836  0.4526  0.3761 -0.5440
  469TMC3    C4 6979   0.129   2.589  10.752  0.0684 -0.3874  0.0058
  469TMC3    C5 6980   0.237   2.633  10.832 -0.5218  0.0667  0.2034
  469TMC3    C6 6981   0.337   2.546  10.883  0.0770 -0.1909 -0.1514
  469TMC3     C 6982   4.715   2.401  10.733 -0.0785 -0.0513 -0.5383
  469TMC3     O 6983   4.638   2.487  10.769  0.0770  0.3983 -0.0769
  469TMC3     H 6984   0.216   2.265  10.728 -0.0291 -0.3673 -1.0150
  469TMC3    H1 6985   0.056   2.660  10.715 -0.2693 -1.7560 -1.9288
  469TMC3    H2 6986   0.423   2.584  10.937 -1.1299 -0.1874  1.7752
  469TMC3    C7 6987   0.215   2.763  10.894 -0.0860  0.1663 -0.5427
  469TMC3    C8 6988   0.426   2.319  10.873  1.3537  0.2660  0.9229
  469TMC3    O1 6989   0.174   2.853  10.823  0.0551  0.3280  0.1081
  469TMC3    O2 6990   0.460   2.249  10.782  0.5757  0.1643 -0.3076
  470TMC3    C1 6991   2.536   2.910   0.415  0.4958 -0.2747 -0.8688
  470TMC3    C2 6992   2.587   2.971   0.518  0.9689 -0.6700 -0.1774
  470TMC3    C3 6993   2.595   2.913   0.635 -0.1165  0.1288 -0.4934
  470TMC3    C4 6994   2.482   2.784   0.426 -0.8061 -0.3068 -0.0878
  470TMC3    C5 6995   2.483   2.727   0.550 -0.5423  0.4389  0.3571
  470TMC3    C6 6996   2.545   2.790   0.660 -0.5990 -0.2726 -0.3327
  470TMC3     C 6997   2.524   2.979   0.293  0.6585  0.7605 -0.3859
  470TMC3     O 6998   2.503   2.917   0.189 -0.7235 -0.6601 -0.0836
  470TMC3     H 6999   2.635   3.068   0.513  0.1727 -0.3711 -1.6458
  470TMC3    H1 7000   2.443   2.731   0.340 -0.6605 -1.4191  0.5388
  470TMC3    H2 7001   2.549   2.756   0.763 -0.0387  1.5110  0.2324
  470TMC3    C7 7002   2.393   2.615   0.569  0.2338  0.1960 -0.0259
  470TMC3    C8 7003   2.625   3.004   0.748  0.0150 -0.2814  0.6152
  470TMC3    O1 7004   2.331   2.584   0.470 -0.1914 -0.4227  0.3102
  470TMC3    O2 7005   2.616   3.125   0.730 -0.0154 -0.3604  0.0268
  471MPD2     C 7006   2.888   4.312  16.930  0.4908 -0.0753  0.5283
  471MPD2    C1 7007   2.964   4.208  16.878  1.3035 -0.5082  0.0045
  471MPD2    C2 7008   3.050   4.134  16.957  0.7807  0.4602  0.0516
  471MPD2    C3 7009   3.057   4.154  17.091  0.0478  1.6958  0.0126
  471MPD2    C4 7010   2.983   4.260  17.138  0.4892 -0.9291  0.2718
  471MPD2    C5 7011   2.893   4.332  17.064 -0.8560 -0.4015  0.2103
  471MPD2     H 7012   3.104   4.056  16.904 -0.8224 -1.1139  0.7679
  471MPD2    H1 7013   2.993   4.289  17.242  0.0916  1.5664 -0.3837
  471MPD2    H2 7014   2.832   4.376  16.862 -0.6197 -1.6843 -0.0907
  471MPD2    H3 7015   2.854   4.425  17.102 -1.7033 -1.2365  1.3869
  471MPD2     N 7016   3.136   4.072  17.179 -0.2022  0.0772  0.4635
  471MPD2    H5 7017   3.135   4.096  17.278  1.6025  0.0282  0.5078
  471MPD2    N1 7018   2.962   4.173  16.743  0.5090 -0.1699 -0.5222
  471MPD2    H7 7019   3.024   4.099  16.712  1.1380 -0.4819  1.4553
  472TMC3    C1 7020   2.883   4.129  16.523 -0.0505  0.1188 -0.4486
  472TMC3    C2 7021   2.841   4.188  16.410  0.0654 -0.5835  0.5560
  472TMC3    C3 7022   2.832   4.108  16.301  0.0289 -0.3659  0.1492
  472TMC3    C4 7023   2.928   4.000  16.524 -0.4029  0.0479 -0.1875
  472TMC3    C5 7024   2.933   3.928  16.407 -0.1362 -0.8359  0.1126
  472TMC3    C6 7025   2.874   3.979  16.294 -0.0358 -0.8564  1.0005
  472TMC3     C 7026   2.883   4.218  16.636  0.4440 -0.1198 -0.2534
  472TMC3     O 7027   2.803   4.316  16.633 -0.5173 -0.3063  0.9769
  472TMC3     H 7028   2.810   4.291  16.401  0.4797 -0.3218  2.1873
  472TMC3    H1 7029   2.979   3.959  16.610 -0.6137 -0.2723 -0.2149
  472TMC3    H2 7030   2.874   3.918  16.204 -3.9460  0.4972  0.0882
  472TMC3    C7 7031   2.945   3.783  16.423 -0.2713  0.2472  0.7090
  472TMC3    C8 7032   2.721   4.139  16.210 -0.0371  0.0946 -0.1677
  472TMC3    O1 7033   2.917   3.742  16.536  0.1731  0.3958  0.3759
  472TMC3    O2 7034   2.685   4.254  16.191  0.0834  0.0106 -0.4710
  473MPD2     C 7035   2.542   1.505  13.764 -0.3580 -0.3363  0.0497
  473MPD2    C1 7036   2.473   1.626  13.754 -0.9088 -0.0340 -0.1740
  473MPD2    C2 7037   2.531   1.733  13.824  0.0429 -0.5681  0.0482
  473MPD2    C3 7038   2.655   1.732  13.888 -0.1831 -0.0127  0.2638
  473MPD2    C4 7039   2.710   1.607  13.900 -0.7585  0.5041 -0.4628
  473MPD2    C5 7040   2.656   1.496  13.839 -0.7440 -0.2620 -0.1621
  473MPD2     H 7041   2.481   1.829  13.821  0.2314 -0.4103  1.9900
  473MPD2    H1 7042   2.790   1.601  13.973  0.1342  2.9216 -1.2197
  473MPD2    H2 7043   2.509   1.421  13.704 -0.9071 -0.0545 -0.0365
  473MPD2    H3 7044   2.696   1.396  13.853 -0.9793 -0.1606  1.2453
  473MPD2     N 7045   2.712   1.840  13.958  0.1033  0.4795  0.1439
  473MPD2    H5 7046   2.661   1.927  13.970  0.1062  0.4630  0.2868
  473MPD2    N1 7047   2.348   1.640  13.685  0.1555 -0.0814  0.1235
  473MPD2    H7 7048   2.297   1.727  13.690  1.5674  0.6991  0.6533
  474TMC3    C1 7049   2.880   1.964  14.069  0.4445  0.8205  0.0049
  474TMC3    C2 7050   2.788   2.036  14.143  0.1546 -0.3154 -0.7781
  474TMC3    C3 7051   2.838   2.152  14.200  0.0165  0.5285  0.0841
  474TMC3    C4 7052   3.002   2.020  14.050  1.1061  1.0757  0.1754
  474TMC3    C5 7053   3.046   2.130  14.110  0.4678  0.2645  0.1931
  474TMC3    C6 7054   2.961   2.202  14.191 -0.1404 -0.3587  1.0114
  474TMC3     C 7055   2.847   1.847  13.989 -0.3793  0.1730 -0.0735
  474TMC3     O 7056   2.943   1.784  13.941 -0.3925  0.0794 -0.7158
  474TMC3     H 7057   2.685   2.002  14.155  0.3787 -0.0069  1.9353
  474TMC3    H1 7058   3.071   1.964  13.988  0.7537  2.3182 -1.3566
  474TMC3    H2 7059   2.993   2.295  14.237 -0.4704  0.1060  0.2990
  474TMC3    C7 7060   3.190   2.130  14.132 -0.1042  0.1138  0.5799
  474TMC3    C8 7061   2.729   2.245  14.235  0.7898  0.1376  0.6927
  474TMC3    O1 7062   3.268   2.114  14.037  0.4419 -0.2503 -0.2085
  474TMC3    O2 7063   2.621   2.198  14.264 -0.9321 -0.1475 -0.4624
  475MPD2     C 7064   1.367   4.263   9.842 -0.4506 -0.0801  0.4864
  475MPD2    C1 7065   1.395   4.363   9.929 -0.1677  0.3132  0.2603
  475MPD2    C2 7066   1.324   4.359  10.048  0.3988  0.0782 -0.6184
  475MPD2    C3 7067   1.226   4.273  10.069 -1.4348  0.7904  1.1111
  475MPD2    C4 7068   1.193   4.178   9.977 -0.0710 -0.0378  0.8759
  475MPD2    C5 7069   1.267   4.180   9.861  0.3672  0.4248 -0.0037
  475MPD2     H 7070   1.336   4.440  10.120  0.4000 -0.3512 -0.1346
  475MPD2    H1 7071   1.116   4.103   9.994  0.3081 -0.4610  0.7342
  475MPD2    H2 7072   1.437   4.256   9.759 -0.8141  3.1539 -0.0856
  475MPD2    H3 7073   1.244   4.112   9.780 -2.2683  0.2675  0.8936
  475MPD2     N 7074   1.142   4.299  10.177 -0.3715 -0.7062 -0.1883
  475MPD2    H5 7075   1.175   4.374  10.238  1.0413 -1.6883  0.2633
  475MPD2    N1 7076   1.500   4.459   9.907  0.2068  0.0102 -0.0861
  475MPD2    H7 7077   1.536   4.468   9.812 -1.2226 -1.2809 -0.7511
  476TMC3    C1 7078   1.601   4.666   9.927 -0.6139 -0.4386  0.6895
  476TMC3    C2 7079   1.484   0.018   9.896  0.1171 -0.0217  0.6431
  476TMC3    C3 7080   1.450   0.132   9.960  0.9062  0.0727 -1.0938
  476TMC3    C4 7081   1.693   0.020  10.000 -0.4165  0.0387  0.0698
  476TMC3    C5 7082   1.659   0.140  10.058  0.3081  0.2153  0.1024
  476TMC3    C6 7083   1.541   0.199  10.038  0.5308 -0.3987  0.5824
  476TMC3     C 7084   1.554   4.547   9.999 -0.6696  0.3263 -0.1935
  476TMC3     O 7085   1.542   4.558  10.117  0.2639  0.0519  0.4371
  476TMC3     H 7086   1.415   4.690   9.827 -1.7273  2.7877  0.6016
  476TMC3    H1 7087   1.778   4.690  10.045 -0.5122  0.4994  0.7490
  476TMC3    H2 7088   1.505   0.281  10.099 -0.7635 -1.2583  0.9873
  476TMC3    C7 7089   1.742   0.174  10.169  0.6324  0.0516 -0.4060
  476TMC3    C8 7090   1.305   0.151   9.975  0.2436 -0.1744  0.3584
  476TMC3    O1 7091   1.865   0.189  10.151 -0.5415 -0.0730 -0.0100
  476TMC3    O2 7092   1.257   0.261   9.979 -0.0736 -0.2160  0.1123
  477MPD2     C 7093   3.073   1.586  11.726  0.3113 -0.3975 -0.1771
  477MPD2    C1 7094   2.976   1.511  11.663 -0.7189  1.3140 -0.3906
  477MPD2    C2 7095   2.992   1.381  11.634  0.1738  0.3361  0.5305
  477MPD2    C3 7096   3.113   1.319  11.657  0.1193  0.3834  0.4287
  477MPD2    C4 7097   3.204   1.388  11.727  0.3316 -0.2132 -0.3955
  477MPD2    C5 7098   3.185   1.518  11.759  0.5980  0.4836  0.4684
  477MPD2     H 7099   2.919   1.314  11.591 -0.3007  1.5478 -0.5726
  477MPD2    H1 7100   3.288   1.334  11.770  0.7941 -0.9451 -2.2222
  477MPD2    H2 7101   3.059   1.683  11.772  1.3799 -1.1224  1.6485
  477MPD2    H3 7102   3.262   1.569  11.816 -0.8775  1.1213  1.9092
  477MPD2     N 7103   3.106   1.180  11.651  0.4055  0.1640 -0.0881
  477MPD2    H5 7104   3.016   1.137  11.633  1.1424 -1.2239 -0.4979
  477MPD2    N1 7105   2.862   1.581  11.624  0.2136 -0.2010 -1.1235
  477MPD2    H7 7106   2.855   1.682  11.637  0.2043 -0.2337 -0.8875
  478TMC3    C1 7107   2.645   1.615  11.532  0.5277  0.5247  0.2405
  478TMC3    C2 7108   2.637   1.735  11.592 -0.2263  0.0851  0.0736
  478TMC3    C3 7109   2.524   1.805  11.563 -0.1019 -0.2957 -0.3624
  478TMC3    C4 7110   2.551   1.575  11.445  0.0100  0.2282 -0.2432
  478TMC3    C5 7111   2.455   1.656  11.397  0.0177  0.7098 -1.0279
  478TMC3    C6 7112   2.434   1.771  11.464 -0.0379 -0.4141  0.0184
  478TMC3     C 7113   2.754   1.523  11.560 -0.0832  0.9433  1.2893
  478TMC3     O 7114   2.733   1.408  11.528 -0.1464 -0.7244  0.5125
  478TMC3     H 7115   2.680   1.778  11.682  0.5786  0.5705 -0.5545
  478TMC3    H1 7116   2.545   1.478  11.396 -0.3777 -0.6399  1.5183
  478TMC3    H2 7117   2.335   1.816  11.472 -0.4274 -1.2843  0.1440
  478TMC3    C7 7118   2.371   1.606  11.296  0.2354 -0.6517  0.8773
  478TMC3    C8 7119   2.474   1.875  11.672  0.4203  0.6889  1.0122
  478TMC3    O1 7120   2.350   1.486  11.291 -0.3300 -0.0830 -0.6897
  478TMC3    O2 7121   2.440   1.811  11.771 -0.4441 -0.3932  0.0646
  479MPD2     C 7122   2.469   3.770  14.977  0.8266  0.5665  0.2894
  479MPD2    C1 7123   2.436   3.726  15.102 -0.5369 -0.3873 -0.4485
  479MPD2    C2 7124   2.498   3.773  15.215  0.3287 -0.2705 -0.2342
  479MPD2    C3 7125   2.593   3.877  15.203  0.1851 -1.0390 -1.0741
  479MPD2    C4 7126   2.629   3.920  15.073  0.0995  0.0630  0.5883
  479MPD2    C5 7127   2.569   3.858  14.967  0.2140 -0.4260  0.0695
  479MPD2     H 7128   2.487   3.716  15.307 -0.6234  1.6502  0.8334
  479MPD2    H1 7129   2.695   4.004  15.054  0.0785  0.2437  1.3361
  479MPD2    H2 7130   2.423   3.736  14.885  0.9309  1.2847 -0.0244
  479MPD2    H3 7131   2.599   3.889  14.867 -0.4470 -0.2668 -0.0794
  479MPD2     N 7132   2.652   3.947  15.316 -0.2983  0.0947 -0.5653
  479MPD2    H5 7133   2.718   4.019  15.291 -1.5497  2.0083  1.6255
  479MPD2    N1 7134   2.324   3.637  15.107  0.2583 -0.1010  0.4219
  479MPD2    H7 7135   2.266   3.627  15.025  1.9689  1.8897 -1.0452
  480TMC3    C1 7136   2.319   3.774  15.569 -0.4501 -0.3475  0.3793
  480TMC3    C2 7137   2.217   3.831  15.489 -0.1726  0.4420  0.0172
  480TMC3    C3 7138   2.245   3.929  15.402 -0.6717 -0.6046  0.1520
  480TMC3    C4 7139   2.445   3.826  15.564  0.0157 -0.2577  0.2002
  480TMC3    C5 7140   2.466   3.923  15.471  0.4479 -0.2937  0.3514
  480TMC3    C6 7141   2.368   3.988  15.397 -0.6286 -0.3416 -0.3297
  480TMC3     C 7142   2.305   3.640  15.631  0.6127 -0.2882  0.0612
  480TMC3     O 7143   2.402   3.577  15.668  0.1854 -0.1640 -0.3022
  480TMC3     H 7144   2.114   3.797  15.489 -1.0553  3.1798 -0.3039
  480TMC3    H1 7145   2.527   3.775  15.614 -0.2326  0.0340  0.9010
  480TMC3    H2 7146   2.394   4.077  15.341 -2.5322  0.4752  0.0888
  480TMC3    C7 7147   2.597   3.972  15.439 -0.0041  0.6967 -0.0577
  480TMC3    C8 7148   2.173   3.928  15.275 -0.0615  0.0381  0.4424
  480TMC3    O1 7149   2.655   4.039  15.524  0.1376  0.2884 -0.5447
  480TMC3    O2 7150   2.069   3.865  15.270  0.1253  0.4370  0.0530
  481MPD2     C 7151   4.285   3.168  13.852  0.6289 -1.3994  0.0780
  481MPD2    C1 7152   4.171   3.166  13.924  0.5726 -0.8355 -0.2423
  481MPD2    C2 7153   4.179   3.153  14.060  0.7085 -0.0565  0.3317
  481MPD2    C3 7154   4.302   3.145  14.122 -0.2935 -0.0166 -0.6167
  481MPD2    C4 7155   4.424   3.150  14.045  0.0258  0.3393  0.1711
  481MPD2    C5 7156   4.408   3.164  13.910  0.0149  0.6893  0.4727
  481MPD2     H 7157   4.094   3.176  14.124  0.9244 -0.2486  0.6888
  481MPD2    H1 7158   4.522   3.136  14.089 -0.0677  0.3601  0.3882
  481MPD2    H2 7159   4.277   3.178  13.744  1.5131 -0.3552  0.1194
  481MPD2    H3 7160   4.492   3.191  13.848 -1.8896  1.4085 -1.7639
  481MPD2     N 7161   4.319   3.105  14.256 -0.0788  0.4703  0.3562
  481MPD2    H5 7162   4.408   3.131  14.297 -0.7477 -0.5054  2.3956
  481MPD2    N1 7163   4.057   3.204  13.852 -0.2746  0.5612 -0.1427
  481MPD2    H7 7164   4.075   3.247  13.762 -0.5201 -2.4271 -1.6232
  482TMC3    C1 7165   3.831   3.260  13.802  0.1318  0.7983  0.1475
  482TMC3    C2 7166   3.712   3.191  13.801 -0.2123  0.0394  0.7107
  482TMC3    C3 7167   3.592   3.251  13.756 -0.4937 -0.6803 -0.4997
  482TMC3    C4 7168   3.837   3.395  13.758 -0.1372 -0.4556 -0.2753
  482TMC3    C5 7169   3.724   3.441  13.704 -0.3780  0.0612 -0.0628
  482TMC3    C6 7170   3.599   3.374  13.706  0.6520 -0.1214 -0.8294
  482TMC3     C 7171   3.928   3.190  13.895  0.3719  0.0773 -0.5624
  482TMC3     O 7172   3.887   3.115  13.981  0.2605  0.2726 -0.4019
  482TMC3     H 7173   3.713   3.091  13.842  0.9568 -0.8177 -1.4392
  482TMC3    H1 7174   3.935   3.438  13.743 -0.3155 -0.1208 -0.4812
  482TMC3    H2 7175   3.515   3.423  13.657 -0.9020 -2.4980 -0.5173
  482TMC3    C7 7176   3.731   3.503  13.575 -0.0624 -0.4231  0.2949
  482TMC3    C8 7177   3.479   3.166  13.730 -0.0266  0.5664  0.1244
  482TMC3    O1 7178   3.667   3.444  13.487 -0.2508 -0.2483 -0.3162
  482TMC3    O2 7179   3.511   3.051  13.708 -0.2870 -0.2806  0.1706
  483TMC3    C1 7180   1.764   1.635   1.195  0.3770  0.3612 -0.2902
  483TMC3    C2 7181   1.827   1.748   1.243  0.7394  0.2125 -0.3032
  483TMC3    C3 7182   1.960   1.741   1.276  0.0445 -0.2297 -0.1526
  483TMC3    C4 7183   1.829   1.514   1.162  0.4416  0.0328  0.6902
  483TMC3    C5 7184   1.963   1.515   1.179  0.2512  1.1392 -0.2368
  483TMC3    C6 7185   2.025   1.624   1.244 -0.0486 -1.1481 -0.0378
  483TMC3     C 7186   1.619   1.630   1.221  0.1784 -0.4492  0.0667
  483TMC3     O 7187   1.562   1.733   1.257 -0.2805  0.1514 -0.8394
  483TMC3     H 7188   1.770   1.833   1.278 -0.7624 -0.5401 -0.9210
  483TMC3    H1 7189   1.775   1.434   1.113  0.8496  1.2622 -1.7446
  483TMC3    H2 7190   2.133   1.635   1.249  0.0003 -1.0666 -1.3990
  483TMC3    C7 7191   2.057   1.447   1.091 -0.4324  0.7919 -0.3149
  483TMC3    C8 7192   2.031   1.852   1.222  0.5186 -1.0970 -0.0238
  483TMC3    O1 7193   2.173   1.458   1.120  0.3350 -0.4677 -0.0387
  483TMC3    O2 7194   1.992   1.891   1.113  0.4384  0.1919 -0.3602
  484MPD2     C 7195   3.705   0.157  12.341 -0.5377 -0.4296 -0.0256
  484MPD2    C1 7196   3.801   0.089  12.410 -0.2021  0.0267  1.0108
  484MPD2    C2 7197   3.927   0.145  12.433  0.2484  0.5968  0.5992
  484MPD2    C3 7198   3.957   0.265  12.377  0.3881 -0.0811 -0.1213
  484MPD2    C4 7199   3.862   0.337  12.317 -0.9287  0.2908  0.2827
  484MPD2    C5 7200   3.740   0.278  12.293  0.3288 -0.1035 -0.3192
  484MPD2     H 7201   4.000   0.088  12.490 -1.4894 -1.3167  0.8986
  484MPD2    H1 7202   3.888   0.427  12.265  1.2086  0.3192  1.4117
  484MPD2    H2 7203   3.602   0.130  12.316  0.4508 -3.0769 -1.2985
  484MPD2    H3 7204   3.661   0.328  12.239 -0.1980 -0.8378 -0.2355
  484MPD2     N 7205   4.089   0.319  12.370  0.7026  0.1648 -0.6256
  484MPD2    H5 7206   4.098   0.405  12.316  1.4001  0.0828 -0.6410
  484MPD2    N1 7207   3.765   4.677  12.442 -0.3823  0.6278  0.4057
  484MPD2    H7 7208   3.673   4.647  12.411  0.7025 -1.9780 -0.3172
  485TMC3    C1 7209   4.314   0.336  12.356  1.1048 -0.4057 -0.4806
  485TMC3    C2 7210   4.440   0.307  12.399 -0.0286  0.1166  0.0750
  485TMC3    C3 7211   4.551   0.343  12.322  0.2654  0.0477  0.2125
  485TMC3    C4 7212   4.295   0.392  12.232  0.3776  0.4042 -0.0572
  485TMC3    C5 7213   4.401   0.408  12.156  0.4966 -0.0921  0.2689
  485TMC3    C6 7214   4.528   0.397  12.198  0.9916  0.3001  0.1547
  485TMC3     C 7215   4.202   0.262  12.418 -0.3311 -0.3345  0.1997
  485TMC3     O 7216   4.216   0.158  12.479 -0.0461  0.2688 -0.0023
  485TMC3     H 7217   4.445   0.251  12.492  0.2211 -0.1220 -0.0837
  485TMC3    H1 7218   4.199   0.389  12.182  0.6446  1.0497 -0.6010
  485TMC3    H2 7219   4.607   0.416  12.126 -0.4583  2.5980 -0.8562
  485TMC3    C7 7220   4.381   0.352  12.020 -0.2471 -0.3962 -0.4787
  485TMC3    C8 7221   4.651   0.235  12.299 -0.4327 -0.0433 -0.0689
  485TMC3    O1 7222   4.300   0.408  11.951  0.0166  1.1711  0.2798
  485TMC3    O2 7223   4.710   0.228  12.196  0.0409 -0.2446  0.4301
  486MPD2     C 7224   1.883   3.879  12.592  0.8170 -0.0213 -0.2097
  486MPD2    C1 7225   1.798   3.835  12.499 -1.1443  0.2482 -0.2818
  486MPD2    C2 7226   1.682   3.910  12.476  0.2411 -0.0419 -0.1383
  486MPD2    C3 7227   1.663   4.034  12.547  0.8203 -0.3666 -0.1971
  486MPD2    C4 7228   1.760   4.087  12.634  0.1082 -0.2035 -0.6110
  486MPD2    C5 7229   1.867   4.004  12.654  0.2300  0.5885  1.2027
  486MPD2     H 7230   1.603   3.878  12.409 -0.1413  1.0913 -0.2209
  486MPD2    H1 7231   1.762   4.181  12.688  2.4639 -0.4300 -0.3012
  486MPD2    H2 7232   1.978   3.830  12.612  1.6802  1.1513 -1.4125
  486MPD2    H3 7233   1.948   4.035  12.719  0.1334 -0.3256  1.7588
  486MPD2     N 7234   1.544   4.102  12.523 -0.4046  0.6629  0.1182
  486MPD2    H5 7235   1.472   4.059  12.467  0.9979 -0.5131 -0.7837
  486MPD2    N1 7236   1.828   3.706  12.449  0.2068 -0.6788  0.0998
  486MPD2    H7 7237   1.900   3.649  12.491 -1.2825 -0.5148  2.8719
  487TMC3    C1 7238   1.795   3.519  12.322 -0.9376  0.1636  0.0529
  487TMC3    C2 7239   1.684   3.442  12.299 -0.8595 -0.1845  0.0576
  487TMC3    C3 7240   1.695   3.307  12.313 -0.2068 -0.4343  0.6424
  487TMC3    C4 7241   1.909   3.458  12.365 -0.1974  0.0053 -0.6003
  487TMC3    C5 7242   1.918   3.322  12.364 -0.7235  0.1276 -0.2219
  487TMC3    C6 7243   1.816   3.241  12.324  0.4288  0.6990 -0.4198
  487TMC3     C 7244   1.763   3.652  12.343 -0.2102  0.8049  0.2407
  487TMC3     O 7245   1.668   3.702  12.282 -0.3035 -0.3903 -0.5901
  487TMC3     H 7246   1.592   3.488  12.264 -0.8014  0.7001  1.0716
  487TMC3    H1 7247   2.000   3.511  12.392  0.2998 -0.9416 -0.4467
  487TMC3    H2 7248   1.814   3.140  12.364  0.2673  0.9893  0.3125
  487TMC3    C7 7249   1.975   3.276  12.482 -0.3005 -0.5529  0.3285
  487TMC3    C8 7250   1.602   3.258  12.412 -0.3774 -0.9108  0.0317
  487TMC3    O1 7251   1.977   3.349  12.577 -0.1628 -0.1131 -0.2280
  487TMC3    O2 7252   1.649   3.175  12.487  0.1906 -0.3774  0.0450
  488MPD2     C 7253   2.222   0.483  16.344 -0.3352 -0.1216  0.1246
  488MPD2    C1 7254   2.190   0.609  16.383 -0.5556  0.3057 -0.3644
  488MPD2    C2 7255   2.161   0.628  16.510 -0.3428 -0.5236  0.1380
  488MPD2    C3 7256   2.149   0.519  16.595 -0.3342  0.4075 -0.5242
  488MPD2    C4 7257   2.168   0.395  16.557  0.0393 -0.2925  0.1227
  488MPD2    C5 7258   2.210   0.376  16.428 -0.0320  0.2965  0.6861
  488MPD2     H 7259   2.150   0.728  16.549 -1.6142 -0.3048 -0.7911
  488MPD2    H1 7260   2.146   0.308  16.617  1.2107  0.0426  1.0482
  488MPD2    H2 7261   2.264   0.472  16.245 -1.6756 -0.8655 -0.3643
  488MPD2    H3 7262   2.243   0.277  16.400  0.3609  0.3766  0.8747
  488MPD2     N 7263   2.120   0.543  16.732  0.4668 -0.5149 -0.6818
  488MPD2    H5 7264   2.109   0.641  16.758 -0.4518 -1.1445  1.2276
  488MPD2    N1 7265   2.194   0.721  16.296 -0.0807 -0.8971 -0.1539
  488MPD2    H7 7266   2.167   0.805  16.345  2.1937  0.3181 -0.9631
  489TMC3    C1 7267   2.079   0.520  16.958 -0.4548 -0.3318  0.0005
  489TMC3    C2 7268   2.169   0.624  16.990 -0.4298  0.5143 -0.4661
  489TMC3    C3 7269   2.144   0.718  17.084  0.7162 -0.4506  0.0193
  489TMC3    C4 7270   1.957   0.511  17.020 -0.8291  0.7805 -0.2360
  489TMC3    C5 7271   1.938   0.611  17.115 -0.5925 -0.3365 -0.2890
  489TMC3    C6 7272   2.029   0.710  17.161 -0.2013  0.5947  0.5677
  489TMC3     C 7273   2.097   0.456  16.830 -0.3894  0.4981 -0.0892
  489TMC3     O 7274   2.068   0.338  16.824 -0.3833  0.0368 -0.0477
  489TMC3     H 7275   2.256   0.625  16.925 -0.6274 -0.2841 -0.7404
  489TMC3    H1 7276   1.893   0.425  17.009  2.9413 -1.8500 -1.3101
  489TMC3    H2 7277   2.000   0.780  17.239  2.3355  3.4269 -1.0293
  489TMC3    C7 7278   1.810   0.601  17.193 -0.1797  0.2340 -0.4601
  489TMC3    C8 7279   2.184   0.853  17.047 -0.1497  0.3526 -0.6308
  489TMC3    O1 7280   1.761   0.490  17.204 -0.1593 -0.3553 -0.1836
  489TMC3    O2 7281   2.260   0.853  16.954  0.4756  0.2440  0.1600
  490MPD2     C 7282   2.528   0.189  17.345  0.5059 -1.1141 -0.5601
  490MPD2    C1 7283   2.557   0.098  17.247 -0.5595 -0.1511 -0.0534
  490MPD2    C2 7284   2.674   0.101  17.182  0.6833 -0.6420 -0.0909
  490MPD2    C3 7285   2.773   0.187  17.230  0.0908 -0.2183  0.1201
  490MPD2    C4 7286   2.744   0.277  17.329 -0.3558 -0.2616  0.6444
  490MPD2    C5 7287   2.622   0.278  17.383  0.1239  0.0069 -0.0405
  490MPD2     H 7288   2.686   0.050  17.087  0.6496 -1.6697  0.4526
  490MPD2    H1 7289   2.812   0.353  17.366 -1.3573  0.9473 -0.0040
  490MPD2    H2 7290   2.430   0.199  17.390  0.4103  0.9680 -1.2419
  490MPD2    H3 7291   2.611   0.350  17.463  1.2949 -0.3849  0.4675
  490MPD2     N 7292   2.902   0.184  17.191 -0.0943 -0.8116 -0.0650
  490MPD2    H5 7293   2.964   0.260  17.218 -0.4295 -0.0578 -1.3957
  490MPD2    N1 7294   2.472   0.001  17.206  1.0017 -0.3683  0.1596
  490MPD2    H7 7295   2.498   4.655  17.133 -1.3995 -0.3553 -0.7284
  491TMC3    C1 7296   2.275   4.585  17.223 -0.0813  0.1166 -0.0652
  491TMC3    C2 7297   2.155   4.579  17.285  0.0827 -0.0297 -0.0516
  491TMC3    C3 7298   2.135   4.461  17.353  0.2582  0.3880 -0.7873
  491TMC3    C4 7299   2.341   4.477  17.186 -0.6372 -0.4347  0.1770
  491TMC3    C5 7300   2.290   4.356  17.226 -0.6177  0.0576 -0.0431
  491TMC3    C6 7301   2.201   4.342  17.324  0.8106 -0.5453 -1.0358
  491TMC3     C 7302   2.346   4.707  17.255 -0.5098 -0.1583  0.0096
  491TMC3     O 7303   2.283   0.070  17.319  0.0261 -0.2151  0.4142
  491TMC3     H 7304   2.095   4.669  17.295  3.4006  2.2665 -0.8579
  491TMC3    H1 7305   2.429   4.478  17.122 -0.0390  1.1771  1.0283
  491TMC3    H2 7306   2.175   4.249  17.372 -0.3064 -1.1211 -2.7493
  491TMC3    C7 7307   2.314   4.236  17.143  0.6077 -0.1865 -0.7535
  491TMC3    C8 7308   2.038   4.467  17.461  0.5532 -0.3302  0.4543
  491TMC3    O1 7309   2.216   4.162  17.123  0.3475 -0.3567  0.2131
  491TMC3    O2 7310   1.951   4.555  17.451 -0.6611 -0.0228 -0.0065
  492MPD2     C 7311   2.770   4.386  10.422  0.1070  0.0725  0.2398
  492MPD2    C1 7312   2.863   4.448  10.502  0.1314  0.1149  0.0154
  492MPD2    C2 7313   2.906   4.381  10.611 -0.1157  0.3615  0.5702
  492MPD2    C3 7314   2.862   4.250  10.639  0.3091 -0.0072 -0.1889
  492MPD2    C4 7315   2.767   4.195  10.558  0.3195 -0.0284  0.0486
  492MPD2    C5 7316   2.707   4.271  10.462 -0.2490  0.0363 -0.2321
  492MPD2     H 7317   2.986   4.423  10.670  1.0028 -1.8246  0.6210
  492MPD2    H1 7318   2.713   4.108  10.594 -1.9745  1.7315  0.8690
  492MPD2    H2 7319   2.731   4.430  10.331 -1.7072 -0.6164  0.6938
  492MPD2    H3 7320   2.625   4.240  10.399 -0.5851  0.3694  0.0424
  492MPD2     N 7321   2.897   4.176  10.756 -0.3824  0.0305  0.0825
  492MPD2    H5 7322   2.841   4.094  10.776 -0.2250  0.0955  0.7807
  492MPD2    N1 7323   2.924   4.565  10.458  0.2556  0.3075  0.3101
  492MPD2    H7 7324   2.884   4.597  10.370  1.9312 -0.6235 -0.7889
  493TMC3    C1 7325   2.993   0.081  10.478  0.0415  0.4543 -0.1678
  493TMC3    C2 7326   2.995   0.182  10.568  0.5521  0.5127 -0.5305
  493TMC3    C3 7327   3.007   0.311  10.521 -0.2018 -0.0545  0.6382
  493TMC3    C4 7328   2.975   0.103  10.341  0.1038  0.2614  0.5334
  493TMC3    C5 7329   2.974   0.233  10.300 -0.4736  0.4082 -0.3183
  493TMC3    C6 7330   2.988   0.336  10.388  0.5859 -0.5382 -0.5960
  493TMC3     C 7331   2.999   4.659  10.529 -0.5445  0.1758 -0.7048
  493TMC3     O 7332   3.043   4.652  10.642 -1.0889 -0.0794  0.3951
  493TMC3     H 7333   2.996   0.161  10.674  0.5155  0.1453 -0.6025
  493TMC3    H1 7334   2.976   0.018  10.274  3.5801 -0.4439  1.4569
  493TMC3    H2 7335   2.950   0.434  10.362 -1.4024 -1.2984 -0.5931
  493TMC3    C7 7336   2.911   0.250  10.172  0.3027  0.6260 -0.3042
  493TMC3    C8 7337   3.001   0.422  10.617 -0.1183 -0.1527 -0.0880
  493TMC3    O1 7338   2.839   0.160  10.129 -0.2153  0.0659  0.0803
  493TMC3    O2 7339   2.983   0.384  10.733  0.3361  0.1164  0.0068
  494TMC3    C1 7340   3.750   1.353   0.560  0.3204 -0.4091 -0.4179
  494TMC3    C2 7341   3.800   1.227   0.559  0.3297  0.5374  0.6446
  494TMC3    C3 7342   3.858   1.177   0.453  0.2537  0.2186  0.0040
  494TMC3    C4 7343   3.763   1.429   0.445 -0.1853 -0.1854 -0.1594
  494TMC3    C5 7344   3.831   1.374   0.337 -0.2277 -0.0230  0.3969
  494TMC3    C6 7345   3.896   1.246   0.349 -0.4334  0.3549 -0.6101
  494TMC3     C 7346   3.672   1.396   0.681  0.9514 -0.5693 -1.2750
  494TMC3     O 7347   3.663   1.309   0.769 -0.1026  0.3563 -0.1323
  494TMC3     H 7348   3.794   1.168   0.650 -3.0773  1.4289  0.9978
  494TMC3    H1 7349   3.715   1.525   0.432 -0.2052 -0.0841  0.6266
  494TMC3    H2 7350   3.959   1.204   0.271  1.3469 -0.3600  1.2222
  494TMC3    C7 7351   3.826   1.432   0.202 -0.5146 -0.0388 -0.0606
  494TMC3    C8 7352   3.910   1.046   0.455  0.0446 -0.2266 -0.0096
  494TMC3    O1 7353   3.908   1.378   0.125 -0.3508 -0.6688 -0.4390
  494TMC3    O2 7354   4.029   1.035   0.436  0.1727  0.1502 -0.7866
  495TMC3    C1 7355   2.629   3.974  14.415 -0.3579  0.3104 -0.1657
  495TMC3    C2 7356   2.538   3.964  14.313  0.9028  1.4055  0.2464
  495TMC3    C3 7357   2.414   4.023  14.338  0.4245 -0.1175 -0.3088
  495TMC3    C4 7358   2.609   4.042  14.530  0.3313  0.0566 -0.4483
  495TMC3    C5 7359   2.481   4.081  14.552 -1.0257  0.3487 -1.1217
  495TMC3    C6 7360   2.382   4.071  14.458  0.1224  0.3509 -0.2250
  495TMC3     C 7361   2.706   3.848  14.434  0.5618 -0.5965  0.1959
  495TMC3     O 7362   2.822   3.846  14.481  0.0623  0.1728  0.7499
  495TMC3     H 7363   2.569   3.920  14.219 -2.0522  0.7423 -0.4284
  495TMC3    H1 7364   2.682   4.026  14.609  0.2808 -0.8288 -0.5795
  495TMC3    H2 7365   2.293   4.132  14.467  0.6535  1.0051  0.6051
  495TMC3    C7 7366   2.442   4.086  14.697 -0.1611  0.6088  0.3843
  495TMC3    C8 7367   2.298   3.951  14.285 -0.3223 -0.5365  0.1839
  495TMC3    O1 7368   2.529   4.098  14.785 -0.3103 -0.6235 -0.8012
  495TMC3    O2 7369   2.189   3.985  14.326 -0.3969 -0.1346  0.2862
  496MPD2     C 7370   4.708   2.852  15.568  0.0331  0.0661 -0.1381
  496MPD2    C1 7371   4.700   2.975  15.502 -0.4973 -0.1394  0.4884
  496MPD2    C2 7372   4.591   3.056  15.531  0.3080 -0.4559 -0.4596
  496MPD2    C3 7373   4.504   3.024  15.641 -0.5901  0.0903 -0.3875
  496MPD2    C4 7374   4.517   2.901  15.702  0.9783  0.4102  0.4206
  496MPD2    C5 7375   4.621   2.815  15.664  0.4112  0.6847 -0.1132
  496MPD2     H 7376   4.566   3.144  15.473  1.7740  1.0015  1.0967
  496MPD2    H1 7377   4.443   2.869  15.775 -1.4482  0.8371 -1.8541
  496MPD2    H2 7378   0.065   2.781  15.539  0.9265  1.7901 -2.0398
  496MPD2    H3 7379   4.619   2.715  15.706 -0.8160  0.1957 -1.3183
  496MPD2     N 7380   4.399   3.110  15.692  0.9617 -1.0707 -0.3695
  496MPD2    H5 7381   4.344   3.082  15.772  0.1235 -0.1128 -0.6066
  496MPD2    N1 7382   0.062   2.979  15.390  0.1906 -0.3072 -0.2512
  496MPD2    H7 7383   0.132   2.906  15.380  2.3811  1.9393 -1.3147
  497TMC3    C1 7384   4.285   3.325  15.694 -0.3235  0.2163 -0.0634
  497TMC3    C2 7385   4.208   3.427  15.632  0.4460 -0.2279  0.0098
  497TMC3    C3 7386   4.145   3.525  15.705 -0.4050 -0.4589  0.3698
  497TMC3    C4 7387   4.295   3.330  15.831  0.4885 -0.5179  0.3696
  497TMC3    C5 7388   4.232   3.433  15.898  0.4176  0.1572  0.9279
  497TMC3    C6 7389   4.149   3.524  15.840  0.3666  0.8040 -0.1918
  497TMC3     C 7390   4.356   3.225  15.624 -0.4512  0.2043 -0.1282
  497TMC3     O 7391   4.385   3.264  15.512 -0.2278  0.0446  0.6464
  497TMC3     H 7392   4.210   3.436  15.524 -0.9551 -0.6814 -0.0525
  497TMC3    H1 7393   4.354   3.255  15.882 -0.7669 -0.4481  1.9661
  497TMC3    H2 7394   4.101   3.600  15.901  0.2191  1.1964 -0.7868
  497TMC3    C7 7395   4.235   3.445  16.036  0.1940  0.5142 -0.3666
  497TMC3    C8 7396   4.054   3.621  15.648  0.0500  0.1117 -0.0227
  497TMC3    O1 7397   4.134   3.489  16.090 -0.0151 -0.1473  0.3172
  497TMC3    O2 7398   4.026   3.714  15.721 -0.2687  0.2754 -0.2186
  498MPD2     C 7399   1.082   4.410   9.640 -0.1592  0.2144 -0.1443
  498MPD2    C1 7400   0.984   4.504   9.629 -0.1566  0.2739 -0.7602
  498MPD2    C2 7401   0.856   4.461   9.614  0.9779 -0.4294  0.3938
  498MPD2    C3 7402   0.824   4.329   9.604 -0.5351 -0.8860  0.2431
  498MPD2    C4 7403   0.921   4.238   9.604  0.3209  0.4992  0.1909
  498MPD2    C5 7404   1.052   4.279   9.612 -0.1272  0.0993  0.1471
  498MPD2     H 7405   0.776   4.534   9.605 -0.0542 -1.6619 -0.3548
  498MPD2    H1 7406   0.910   4.131   9.593  0.3318  0.8098 -2.9312
  498MPD2    H2 7407   1.186   4.434   9.660 -0.0158  0.7556 -1.5850
  498MPD2    H3 7408   1.136   4.212   9.627 -0.6498 -1.0297 -1.9122
  498MPD2     N 7409   0.685   4.293   9.590  0.5228 -0.6154  1.5346
  498MPD2    H5 7410   0.618   4.369   9.600  2.3204  0.9171  2.0741
  498MPD2    N1 7411   1.011   4.642   9.639 -0.2400  0.3045  0.8678
  498MPD2    H7 7412   0.935   4.707   9.627 -2.5737 -2.6891 -0.4256
  499TMC3    C1 7413   1.119   0.129   9.666 -0.3796 -0.2034 -0.0060
  499TMC3    C2 7414   1.246   0.185   9.669 -0.5251 -0.7946 -0.5521
  499TMC3    C3 7415   1.239   0.320   9.680  0.0663 -0.4932  0.4021
  499TMC3    C4 7416   1.000   0.202   9.650 -0.5297 -0.5401 -0.3153
  499TMC3    C5 7417   1.009   0.335   9.643  0.5260 -0.0665  0.7623
  499TMC3    C6 7418   1.128   0.408   9.652 -0.0233  0.3591 -0.3338
  499TMC3     C 7419   1.133   4.706   9.638 -0.5650 -0.3862  0.5701
  499TMC3     O 7420   1.242   4.657   9.642  0.1329 -0.2622 -0.1127
  499TMC3     H 7421   1.340   0.134   9.688 -1.1747 -1.7015  0.2662
  499TMC3    H1 7422   0.902   0.157   9.634 -0.4737 -1.4001  1.8433
  499TMC3    H2 7423   1.136   0.516   9.643  0.5599  0.5287  2.0959
  499TMC3    C7 7424   0.893   0.417   9.593  0.5891  0.0923  0.7570
  499TMC3    C8 7425   1.369   0.382   9.685 -0.7102  0.3962 -0.0812
  499TMC3    O1 7426   0.916   0.536   9.563  0.5967  0.6125  0.0122
  499TMC3    O2 7427   1.461   0.327   9.624 -0.1486  0.1490 -0.1937
  500MPD2     C 7428   2.150   1.179   9.653  0.1541 -0.4017  0.5845
  500MPD2    C1 7429   2.104   1.183   9.786  0.3187 -0.2315 -0.4248
  500MPD2    C2 7430   1.972   1.139   9.804  0.3226  0.0590 -0.0538
  500MPD2    C3 7431   1.899   1.086   9.693  0.2179  0.6919  0.5967
  500MPD2    C4 7432   1.960   1.065   9.569 -0.2019 -0.0161 -0.1724
  500MPD2    C5 7433   2.089   1.112   9.552 -0.8000 -0.2253 -0.3977
  500MPD2     H 7434   1.926   1.154   9.901  0.0561  0.9619 -0.3162
  500MPD2    H1 7435   1.912   1.022   9.481 -1.5737  0.5330  0.3202
  500MPD2    H2 7436   2.250   1.216   9.633 -0.2642 -1.2649 -2.9700
  500MPD2    H3 7437   2.127   1.122   9.451  0.4301 -0.0845  0.0874
  500MPD2     N 7438   1.767   1.044   9.701  0.6057 -0.4295  0.7254
  500MPD2    H5 7439   1.725   1.008   9.616  1.0730  1.2399 -0.2111
  500MPD2    N1 7440   2.182   1.230   9.896  0.4278  0.0204 -0.9287
  500MPD2    H7 7441   2.138   1.217   9.987 -1.0629 -1.0794 -1.8123
  501TMC3    C1 7442   2.330   1.374  10.002  0.1415 -0.0759 -0.5729
  501TMC3    C2 7443   2.383   1.501  10.002  0.1121  0.0525 -0.3647
  501TMC3    C3 7444   2.451   1.539  10.111  0.1225 -0.0784  0.2408
  501TMC3    C4 7445   2.352   1.278  10.099  1.1209 -0.3602  0.2393
  501TMC3    C5 7446   2.440   1.318  10.199  0.6818 -0.6038  0.5762
  501TMC3    C6 7447   2.493   1.445  10.203  0.5056 -0.1442 -0.2175
  501TMC3     C 7448   2.276   1.326   9.878 -0.3092  0.2474 -0.1358
  501TMC3     O 7449   2.315   1.389   9.781  0.4698  0.1381 -0.0102
  501TMC3     H 7450   2.348   1.570   9.926 -0.6220  1.3835  1.1732
  501TMC3    H1 7451   2.328   1.173  10.092 -1.7935  0.3415 -0.2726
  501TMC3    H2 7452   2.556   1.476  10.286  1.1498  0.7874 -1.0509
  501TMC3    C7 7453   2.463   1.242  10.316 -0.2018 -0.4205  0.4457
  501TMC3    C8 7454   2.456   1.682  10.164 -0.2945  0.1164 -0.2696
  501TMC3    O1 7455   2.567   1.259  10.379  0.4217  0.3059  0.0473
  501TMC3    O2 7456   2.494   1.699  10.278  0.2466  0.0316 -0.2913
  502TMC3    C1 7457   1.815   0.041  14.827  0.0967  0.4941 -0.5839
  502TMC3    C2 7458   1.790   0.148  14.750 -0.5101 -0.5235  0.3744
  502TMC3    C3 7459   1.670   0.157  14.688  0.5216 -0.0758 -0.4100
  502TMC3    C4 7460   1.728   4.661  14.831  0.7147  0.2546  0.4655
  502TMC3    C5 7461   1.609   4.666  14.756 -0.2460  0.5606 -0.0996
  502TMC3    C6 7462   1.575   0.059  14.689 -0.1968  0.3400 -0.1959
  502TMC3     C 7463   1.909   0.061  14.933 -0.0446  0.5389  0.5002
  502TMC3     O 7464   1.999   0.143  14.920 -0.0034  0.7039 -0.3129
  502TMC3     H 7465   1.848   0.239  14.762 -0.3241 -0.5282 -0.4685
  502TMC3    H1 7466   1.755   4.575  14.890 -0.9997 -1.5673 -1.4160
  502TMC3    H2 7467   1.491   0.063  14.620 -0.2840 -0.3783 -0.1314
  502TMC3    C7 7468   1.506   4.560  14.784  0.7459 -0.1176 -0.1701
  502TMC3    C8 7469   1.633   0.286  14.630 -0.3356 -0.0390  0.0900
  502TMC3    O1 7470   1.557   4.452  14.817 -0.0054  0.0724  0.1399
  502TMC3    O2 7471   1.720   0.364  14.606  0.0204 -0.2081  0.0287
  503MPD2     C 7472   3.873   0.467  16.495  0.2438  0.2814 -0.1800
  503MPD2    C1 7473   3.896   0.483  16.631 -0.9511  0.4515  0.6969
  503MPD2    C2 7474   3.908   0.368  16.707  0.5677  0.0992  0.5542
  503MPD2    C3 7475   3.918   0.239  16.656  0.1999 -0.1664 -0.4471
  503MPD2    C4 7476   3.893   0.229  16.522  0.2072  0.4543 -0.2329
  503MPD2    C5 7477   3.869   0.341  16.450 -0.3756 -0.1226 -0.2312
  503MPD2     H 7478   3.906   0.379  16.815 -1.0073 -1.0707  0.6402
  503MPD2    H1 7479   3.900   0.136  16.467 -2.8878  0.0454  0.0520
  503MPD2    H2 7480   3.870   0.552  16.428 -0.5199 -0.0070 -0.4999
  503MPD2    H3 7481   3.858   0.321  16.344  1.7209  1.7407 -0.8107
  503MPD2     N 7482   3.949   0.132  16.740 -0.2064  0.6788  0.1264
  503MPD2    H5 7483   3.952   0.154  16.839 -2.6332  0.7643  0.1797
  503MPD2    N1 7484   3.882   0.609  16.704  0.1632  1.0970 -0.2129
  503MPD2    H7 7485   3.900   0.607  16.804  1.0179 -0.3636 -0.3912
  504TMC3    C1 7486   4.071   4.654  16.795  0.0431 -0.0979 -0.3680
  504TMC3    C2 7487   4.036   4.673  16.921  0.1218  0.3131 -0.5384
  504TMC3    C3 7488   4.098   4.607  17.025 -0.4050  0.2378 -0.6661
  504TMC3    C4 7489   4.181   4.586  16.758  0.5297 -0.4818 -0.1232
  504TMC3    C5 7490   4.249   4.526  16.860 -0.1178  0.6140 -0.6568
  504TMC3    C6 7491   4.215   4.527  16.994  0.7762 -0.2987  0.5088
  504TMC3     C 7492   4.016   0.024  16.693  0.1098  0.6801 -0.3512
  504TMC3     O 7493   4.037   0.002  16.576 -0.0763  0.7783 -0.3856
  504TMC3     H 7494   3.944   0.009  16.937 -1.4553 -2.6219  0.5595
  504TMC3    H1 7495   4.208   4.559  16.656 -1.4845 -0.2652 -0.7345
  504TMC3    H2 7496   4.261   4.464  17.069 -0.3112  0.0378  1.4628
  504TMC3    C7 7497   4.384   4.477  16.822 -0.1636  0.3817 -0.6474
  504TMC3    C8 7498   4.030   4.626  17.149 -0.2084  0.2199  0.6373
  504TMC3    O1 7499   4.453   4.553  16.757 -0.2873 -0.1251  0.2543
  504TMC3    O2 7500   3.954   0.001  17.148 -0.4154 -0.7806 -0.1980
  505MPD2     C 7501   4.040   4.307   9.487 -1.2694  0.3552 -0.5953
  505MPD2    C1 7502   4.045   4.230   9.604 -0.3407  0.2404 -0.1549
  505MPD2    C2 7503   4.058   4.289   9.732 -0.3134 -0.4254  0.2020
  505MPD2    C3 7504   4.078   4.425   9.741 -0.2153  0.3856  0.5470
  505MPD2    C4 7505   4.077   4.501   9.624  0.4517 -1.1739 -0.3000
  505MPD2    C5 7506   4.052   4.442   9.500  0.4839  0.1352  0.1793
  505MPD2     H 7507   4.056   4.227   9.821  0.5913  0.0808  0.5783
  505MPD2    H1 7508   4.086   4.609   9.629  2.4234 -1.3599  0.0396
  505MPD2    H2 7509   4.030   4.255   9.392 -0.4404  1.8805 -1.5319
  505MPD2    H3 7510   4.037   4.494   9.406 -0.1063  0.0366  0.2216
  505MPD2     N 7511   4.119   4.472   9.863  0.4585  0.6342  0.4162
  505MPD2    H5 7512   4.102   4.412   9.942 -0.4926 -1.0018 -1.0399
  505MPD2    N1 7513   4.037   4.093   9.583 -0.3267 -0.0035 -1.2027
  505MPD2    H7 7514   4.047   4.058   9.488 -2.7477 -2.3213 -0.5759
  506TMC3    C1 7515   4.048   3.867   9.626 -0.0977 -0.2545 -0.4165
  506TMC3    C2 7516   4.149   3.848   9.530  0.3851 -0.4620  0.2655
  506TMC3    C3 7517   4.205   3.728   9.522  0.0772  0.0995  1.5002
  506TMC3    C4 7518   4.015   3.773   9.712  0.3398 -0.0604  0.3362
  506TMC3    C5 7519   4.092   3.662   9.718  0.0075 -0.1743  0.4555
  506TMC3    C6 7520   4.180   3.628   9.618  0.2314 -0.1275 -0.1875
  506TMC3     C 7521   4.029   3.996   9.676 -0.7812  0.5374 -0.1290
  506TMC3     O 7522   4.008   4.004   9.796 -0.5444 -0.3309 -0.1386
  506TMC3     H 7523   4.180   3.914   9.449  1.5603  0.0495  1.1412
  506TMC3    H1 7524   3.939   3.794   9.786  0.4131 -0.4771  0.5275
  506TMC3    H2 7525   4.222   3.529   9.607 -0.1580 -0.1224 -1.7272
  506TMC3    C7 7526   4.151   3.654   9.857  0.1722 -0.2215 -0.8218
  506TMC3    C8 7527   4.313   3.709   9.432  0.5323 -0.1527  0.3767
  506TMC3    O1 7528   4.216   3.557   9.881  0.4309 -0.5337 -0.2366
  506TMC3    O2 7529   4.330   3.598   9.386 -0.3209 -0.0422 -0.4101
  507TMC3    C1 7530   0.296   0.029  14.313 -0.1622  0.3549  0.2178
  507TMC3    C2 7531   0.210   4.673  14.242 -0.5893 -0.2548  0.6445
  507TMC3    C3 7532   0.219   4.679  14.105  0.0369  0.0719 -0.4480
  507TMC3    C4 7533   0.380   0.119  14.251 -0.3413 -0.6772  0.1915
  507TMC3    C5 7534   0.373   0.136  14.119 -1.2006  0.2255 -1.3922
  507TMC3    C6 7535   0.309   0.045  14.043  0.2089  0.1193 -0.4297
  507TMC3     C 7536   0.236   0.078  14.439  0.2341  0.3385  0.1516
  507TMC3     O 7537   0.316   0.128  14.519 -0.0419 -0.2766 -0.2783
  507TMC3     H 7538   0.145   4.603  14.293  0.7499 -1.3200  0.9002
  507TMC3    H1 7539   0.438   0.183  14.317 -0.1882  0.4433 -1.0136
  507TMC3    H2 7540   0.305   0.053  13.935  2.8954  1.2441 -0.4646
  507TMC3    C7 7541   0.339   0.270  14.076  0.4410  0.0686  0.2908
  507TMC3    C8 7542   0.084   4.706  14.056 -0.7223  0.2965 -0.0412
  507TMC3    O1 7543   0.283   0.271  13.971  0.0984 -0.4656  0.6097
  507TMC3    O2 7544   0.009   0.055  14.125  0.9390 -0.2266  0.0107
  508MPD2     C 7545   1.028   2.482  16.059 -0.4333 -0.0531  0.0793
  508MPD2    C1 7546   1.102   2.590  16.036 -0.1389  0.0191 -0.0320
  508MPD2    C2 7547   1.119   2.636  15.903 -0.3720  0.4363  0.8464
  508MPD2    C3 7548   1.066   2.562  15.801  0.2741  0.6487  0.3344
  508MPD2    C4 7549   0.998   2.446  15.829 -0.3565  0.0424  0.4929
  508MPD2    C5 7550   0.978   2.411  15.958 -0.4993 -0.4050  0.1179
  508MPD2     H 7551   1.164   2.731  15.878 -0.2291  0.5105  1.3929
  508MPD2    H1 7552   0.961   2.383  15.749 -0.1077 -0.6912  0.9457
  508MPD2    H2 7553   1.000   2.450  16.159 -0.1880 -1.1876 -0.2173
  508MPD2    H3 7554   0.926   2.320  15.984  2.3099 -2.2691 -0.8465
  508MPD2     N 7555   1.095   2.594  15.666  0.2834  0.4148  0.2460
  508MPD2    H5 7556   1.140   2.685  15.654  0.3382  0.3267 -0.2384
  508MPD2    N1 7557   1.155   2.657  16.147  0.1795 -0.4381 -0.9158
  508MPD2    H7 7558   1.132   2.622  16.240  0.3601 -1.2003 -1.1557
  509TMC3    C1 7559   1.212   2.664  15.270 -0.0540  0.4661 -0.2941
  509TMC3    C2 7560   1.320   2.740  15.315 -0.4400 -0.3320  0.1289
  509TMC3    C3 7561   1.359   2.719  15.448  0.6644  0.9004  0.2888
  509TMC3    C4 7562   1.160   2.556  15.338  0.0881 -0.2180  0.1389
  509TMC3    C5 7563   1.198   2.546  15.471 -0.3582 -0.3326  0.0026
  509TMC3    C6 7564   1.292   2.625  15.525 -0.3581 -0.7339 -0.2836
  509TMC3     C 7565   1.166   2.672  15.136  0.2312 -0.5557 -1.0107
  509TMC3     O 7566   1.092   2.582  15.097 -0.2567 -0.3072 -0.0760
  509TMC3     H 7567   1.359   2.820  15.253 -1.8548  1.0177  1.0040
  509TMC3    H1 7568   1.075   2.497  15.307  0.0583 -0.0551 -0.0833
  509TMC3    H2 7569   1.344   2.591  15.614  0.7651 -1.6014 -1.2660
  509TMC3    C7 7570   1.091   2.505  15.561 -0.3813  0.3004 -0.6462
  509TMC3    C8 7571   1.450   2.801  15.514  0.0900  0.1363 -0.1276
  509TMC3    O1 7572   0.999   2.428  15.531 -0.2370  0.2765  0.5719
  509TMC3    O2 7573   1.485   2.764  15.628 -0.1674  0.4704  0.8295
  510MPD2     C 7574   4.024   4.123  14.598  1.1227  0.1551 -0.3696
  510MPD2    C1 7575   3.988   4.005  14.530 -0.4898  0.3267  0.6832
  510MPD2    C2 7576   4.078   3.953  14.436 -0.1566 -0.0975  0.5753
  510MPD2    C3 7577   4.199   4.016  14.416  0.4913  0.3539  0.6556
  510MPD2    C4 7578   4.240   4.116  14.508 -0.3449  0.5300 -0.0518
  510MPD2    C5 7579   4.150   4.171  14.593  0.0904 -0.0183 -0.1372
  510MPD2     H 7580   4.060   3.862  14.380 -0.5203  0.4860 -0.2539
  510MPD2    H1 7581   4.341   4.154  14.514 -0.2634  0.2886  0.0774
  510MPD2    H2 7582   3.951   4.168  14.663  0.9496 -0.9821  0.2347
  510MPD2    H3 7583   4.174   4.253  14.660 -0.8394 -0.2394  0.4725
  510MPD2     N 7584   4.306   3.963  14.340  0.0056  0.4881  0.3355
  510MPD2    H5 7585   4.396   4.002  14.363  0.3284  0.0723 -0.2025
  510MPD2    N1 7586   3.861   3.945  14.562 -0.1247 -0.1510  0.2591
  510MPD2    H7 7587   3.812   3.991  14.638 -0.6756 -0.6217  0.1842
  511TMC3    C1 7588   3.692   3.780  14.565  0.1347 -0.0722 -0.2091
  511TMC3    C2 7589   3.642   3.827  14.689 -0.1366  0.5101 -0.3059
  511TMC3    C3 7590   3.548   3.744  14.748  0.4813 -0.4587 -0.0268
  511TMC3    C4 7591   3.636   3.676  14.495  0.6382 -1.1419  0.3259
  511TMC3    C5 7592   3.545   3.596  14.567 -0.1134  0.6643  0.5527
  511TMC3    C6 7593   3.498   3.635  14.687 -0.1281  0.4052  0.4875
  511TMC3     C 7594   3.815   3.832  14.495 -0.3260  0.3279  0.7289
  511TMC3     O 7595   3.856   3.763  14.407  0.8517  0.1003 -0.0642
  511TMC3     H 7596   3.679   3.912  14.744 -0.2254  0.5243 -0.2682
  511TMC3    H1 7597   3.664   3.658  14.392 -1.7618 -0.0717 -0.5189
  511TMC3    H2 7598   3.417   3.569  14.714 -0.6696  0.3988 -1.1318
  511TMC3    C7 7599   3.552   3.447  14.534 -0.2283  0.0801  0.1509
  511TMC3    C8 7600   3.491   3.792  14.872 -0.5416  0.5311  0.0557
  511TMC3    O1 7601   3.630   3.420  14.448 -0.0787 -0.5504 -0.4599
  511TMC3    O2 7602   3.505   3.909  14.902  0.2872 -0.1528 -0.0146
  512TMC3    C1 7603   2.552   3.089  12.708  0.3418 -0.2874  0.3935
  512TMC3    C2 7604   2.624   3.106  12.824 -0.4402  0.9401 -0.0184
  512TMC3    C3 7605   2.693   3.005  12.891  0.2723  0.8259  0.5966
  512TMC3    C4 7606   2.557   2.964  12.648 -0.6183  0.6009  0.7671
  512TMC3    C5 7607   2.617   2.862  12.714  0.1909 -0.1792 -0.4643
  512TMC3    C6 7608   2.692   2.882  12.833  0.2264  0.2670 -0.2280
  512TMC3     C 7609   2.525   3.210  12.640 -0.5726 -0.1677 -0.3703
  512TMC3     O 7610   2.522   3.311  12.710 -0.0145 -0.3281 -0.1011
  512TMC3     H 7611   2.625   3.201  12.878  3.6298  2.7424 -3.2532
  512TMC3    H1 7612   2.517   2.939  12.551  1.5550 -1.1135  0.3020
  512TMC3    H2 7613   2.736   2.800  12.888 -0.1829  0.3281  0.1947
  512TMC3    C7 7614   2.633   2.733  12.649  0.1057  0.3173  0.3175
  512TMC3    C8 7615   2.732   3.016  13.027  0.4787 -0.4052 -0.3958
  512TMC3    O1 7616   2.611   2.726  12.529  0.4322 -0.7334 -0.3057
  512TMC3    O2 7617   2.813   2.931  13.068  0.1754  1.1940  0.2820
  513MPD2     C 7618   3.818   3.281  13.046  0.3216  0.5292  0.4089
  513MPD2    C1 7619   3.867   3.162  12.994 -0.7505 -0.0792 -0.2680
  513MPD2    C2 7620   3.982   3.119  13.053  0.3955  0.3611  1.0980
  513MPD2    C3 7621   4.042   3.179  13.161 -0.1845  0.1720 -0.5109
  513MPD2    C4 7622   3.982   3.286  13.212  0.7213  0.0767  0.2529
  513MPD2    C5 7623   3.870   3.344  13.158 -0.6856  0.1747  0.2206
  513MPD2     H 7624   4.035   3.034  13.009  0.0742  1.0531 -0.6441
  513MPD2    H1 7625   4.034   3.344  13.287  1.1560 -2.0481  1.5815
  513MPD2    H2 7626   3.747   3.337  12.986  0.7395 -0.7573 -1.3174
  513MPD2    H3 7627   3.830   3.440  13.185 -0.3723  0.3367  0.1147
  513MPD2     N 7628   4.171   3.134  13.201 -0.3565 -0.0473  0.4814
  513MPD2    H5 7629   4.213   3.071  13.133  2.2312  0.1548  1.9165
  513MPD2    N1 7630   3.804   3.098  12.881  0.6430 -0.2057  0.1394
  513MPD2    H7 7631   3.726   3.148  12.841  0.3576 -3.2048 -3.0478
  514TMC3    C1 7632   3.762   2.939  12.724 -0.4253  0.2525  0.1256
  514TMC3    C2 7633   3.704   3.040  12.657 -0.1793  0.0905  0.0631
  514TMC3    C3 7634   3.735   3.044  12.520  0.1673 -0.8184 -0.6791
  514TMC3    C4 7635   3.829   2.837  12.660  0.0829 -0.7715 -0.0196
  514TMC3    C5 7636   3.863   2.852  12.529  0.1360 -0.3938 -0.1324
  514TMC3    C6 7637   3.808   2.949  12.454 -0.0673 -0.4821  0.9377
  514TMC3     C 7638   3.841   2.976  12.836 -0.3379 -0.1350 -0.4769
  514TMC3     O 7639   3.930   2.895  12.863  0.8678 -0.4048  0.0095
  514TMC3     H 7640   3.651   3.128  12.692 -0.6485  0.0688 -0.5788
  514TMC3    H1 7641   3.871   2.750  12.709  1.5549 -1.2649 -2.1541
  514TMC3    H2 7642   3.828   2.957  12.348  0.3802  0.2388  1.0743
  514TMC3    C7 7643   4.002   2.857  12.494 -0.1625 -0.0587 -0.0799
  514TMC3    C8 7644   3.682   3.155  12.434  1.2210 -0.5625 -0.9579
  514TMC3    O1 7645   4.032   2.885  12.380  0.0319  0.5020  0.0425
  514TMC3    O2 7646   3.592   3.226  12.474  0.1921 -0.2502  0.1803
  515MPD2     C 7647   2.629   0.799  14.320  0.0545  0.0697  0.4627
  515MPD2    C1 7648   2.618   0.667  14.327 -0.6541  0.3733 -0.2650
  515MPD2    C2 7649   2.703   0.606  14.410 -0.6173 -0.0601 -0.0236
  515MPD2    C3 7650   2.796   0.665  14.496 -0.0714 -0.5348 -0.1293
  515MPD2    C4 7651   2.811   0.800  14.479  0.3684 -0.4658 -0.1968
  515MPD2    C5 7652   2.721   0.865  14.400  0.4964  0.4452 -0.2774
  515MPD2     H 7653   2.695   0.498  14.412 -1.4717  0.0463  1.9755
  515MPD2    H1 7654   2.883   0.864  14.529 -0.2808 -0.4599  0.7301
  515MPD2    H2 7655   2.573   0.855  14.245 -0.6527 -0.7065  0.4047
  515MPD2    H3 7656   2.734   0.972  14.395  0.1208  0.5512  1.0821
  515MPD2     N 7657   2.888   0.596  14.582  1.0230 -0.6198 -0.2071
  515MPD2    H5 7658   2.948   0.645  14.648 -0.8942  2.4624 -0.7262
  515MPD2    N1 7659   2.520   0.592  14.248  0.5391  0.6724  0.4172
  515MPD2    H7 7660   2.526   0.491  14.259  2.0700  0.6319 -0.8676
  516TMC3    C1 7661   2.299   0.544  14.164  0.6252  0.5733  0.5314
  516TMC3    C2 7662   2.213   0.573  14.061  0.3371  0.0558  0.3965
  516TMC3    C3 7663   2.099   0.495  14.060 -0.5510 -0.3901 -0.0235
  516TMC3    C4 7664   2.276   0.465  14.271  0.3986  0.1614  0.5268
  516TMC3    C5 7665   2.168   0.378  14.259 -0.6527  0.6230 -0.1127
  516TMC3    C6 7666   2.080   0.392  14.156  0.6688 -0.2487  0.4837
  516TMC3     C 7667   2.403   0.641  14.191 -0.1415  0.2407 -0.2417
  516TMC3     O 7668   2.364   0.756  14.169 -0.2478 -0.7478 -0.2843
  516TMC3     H 7669   2.231   0.668  14.010  1.2547  0.2610  1.0954
  516TMC3    H1 7670   2.347   0.446  14.350 -1.3120 -3.6918  1.1538
  516TMC3    H2 7671   1.985   0.340  14.149 -0.1618  1.3227 -0.0351
  516TMC3    C7 7672   2.161   0.268  14.340  0.3870  0.3599  0.0753
  516TMC3    C8 7673   1.995   0.510  13.953 -0.2199 -0.1790 -0.4873
  516TMC3    O1 7674   2.255   0.264  14.418  0.6986 -0.1402  0.0861
  516TMC3    O2 7675   1.924   0.406  13.945  0.3618  1.0556 -0.1997
  517MPD2     C 7676   2.225   1.393   0.306  0.1650 -0.0387  0.7204
  517MPD2    C1 7677   2.319   1.462   0.236  0.0368 -0.0105 -0.3988
  517MPD2    C2 7678   2.373   1.584   0.289  0.0411 -0.3814  0.6009
  517MPD2    C3 7679   2.321   1.636   0.400 -0.5270 -0.6659  0.1501
  517MPD2    C4 7680   2.226   1.564   0.466 -0.9497  0.3486 -0.3661
  517MPD2    C5 7681   2.177   1.446   0.419 -0.2625  0.9334 -0.6618
  517MPD2     H 7682   2.452   1.631   0.231 -1.7849  0.5093 -1.1739
  517MPD2    H1 7683   2.196   1.600   0.564 -1.9004  1.1302 -0.9528
  517MPD2    H2 7684   2.179   1.300   0.274  1.0116 -0.6520  1.2792
  517MPD2    H3 7685   2.106   1.387   0.476  0.8287 -0.3417 -0.6259
  517MPD2     N 7686   2.380   1.743   0.466 -0.1911  0.4893  0.4252
  517MPD2    H5 7687   2.334   1.768   0.553 -1.5772 -2.2745  0.4905
  517MPD2    N1 7688   2.367   1.409   0.108 -0.4048  0.2810 -0.0220
  517MPD2    H7 7689   2.438   1.470   0.067  0.0753 -0.1053  0.2300
  518TMC3    C1 7690   2.374   1.276  17.592  0.0513  0.4479 -0.7937
  518TMC3    C2 7691   2.364   1.152  17.549  0.4221 -0.0641  0.2451
  518TMC3    C3 7692   2.398   1.126  17.417 -0.7004 -0.2456  0.2941
  518TMC3    C4 7693   2.413   1.381  17.513  0.4056  0.6746  0.2055
  518TMC3    C5 7694   2.445   1.350  17.379 -0.1385  0.2638 -0.4375
  518TMC3    C6 7695   2.445   1.222  17.334 -0.0044  0.8046 -0.0730
  518TMC3     C 7696   2.329   1.291   0.051 -0.4028  0.4738  0.5323
  518TMC3     O 7697   2.267   1.198   0.107  0.1597 -0.2230  0.4448
  518TMC3     H 7698   2.337   1.074  17.619  0.2961  1.3215  1.7286
  518TMC3    H1 7699   2.412   1.482  17.554  1.5544 -0.6560  3.5438
  518TMC3    H2 7700   2.457   1.203  17.228  1.2762 -4.1708  0.9699
  518TMC3    C7 7701   2.447   1.460  17.281  0.4750  0.4874 -0.2782
  518TMC3    C8 7702   2.436   0.988  17.386  0.3947 -0.5905 -0.5073
  518TMC3    O1 7703   2.398   1.568  17.315  0.4422 -0.1411 -0.1568
  518TMC3    O2 7704   2.520   0.967  17.301  0.2070  0.4137 -0.7112
  519MPD2     C 7705   4.152   0.117  14.317  0.2155 -0.9030  0.0717
  519MPD2    C1 7706   4.090   0.176  14.209 -0.1513 -0.3107 -0.2144
  519MPD2    C2 7707   4.163   0.185  14.087  0.2534  0.5790  0.0748
  519MPD2    C3 7708   4.287   0.126  14.074  0.2431  0.4461  0.2501
  519MPD2    C4 7709   4.348   0.063  14.185  0.0866 -0.1118 -0.2383
  519MPD2    C5 7710   4.279   0.062  14.304 -0.0968  0.1425  0.4473
  519MPD2     H 7711   4.115   0.226  14.000  0.1696 -1.6230 -0.9126
  519MPD2    H1 7712   4.441   0.009  14.170 -0.3384 -1.2860  1.3068
  519MPD2    H2 7713   4.113   0.111  14.418 -0.4106  0.0829 -0.1232
  519MPD2    H3 7714   4.318   4.713  14.379 -0.7031 -0.8062 -0.1068
  519MPD2     N 7715   4.348   0.097  13.951 -0.4092  0.2706 -0.1279
  519MPD2    H5 7716   4.428   0.035  13.952 -0.1974  0.5383 -0.4156
  519MPD2    N1 7717   3.954   0.227  14.222  0.5976 -0.1509 -0.2258
  519MPD2    H7 7718   3.912   0.196  14.308  0.8985 -0.7396 -0.2902
  520TMC3    C1 7719   4.300   0.008  13.735 -0.3748  0.0226  0.2870
  520TMC3    C2 7720   4.241   0.025  13.613 -0.1407 -0.4667  0.1075
  520TMC3    C3 7721   4.245   4.647  13.520  0.0247  0.1225  0.9531
  520TMC3    C4 7722   4.371   4.614  13.761  0.7038 -0.2199  0.3064
  520TMC3    C5 7723   4.378   4.517  13.665  0.3839 -0.5680 -0.3057
  520TMC3    C6 7724   4.321   4.530  13.535 -0.2981 -0.0738 -0.4434
  520TMC3     C 7725   4.287   0.116  13.824  0.5745  0.0460 -0.4118
  520TMC3     O 7726   4.195   0.192  13.794 -1.0009  0.0770 -0.1835
  520TMC3     H 7727   4.195   0.121  13.592 -1.5781 -1.6593 -2.1464
  520TMC3    H1 7728   4.419   4.592  13.856 -0.8786  1.7052  1.5342
  520TMC3    H2 7729   4.322   4.449  13.462 -0.6819 -0.5021  0.0289
  520TMC3    C7 7730   4.457   4.403  13.704 -0.0509 -0.2175 -0.1052
  520TMC3    C8 7731   4.152   4.643  13.406  0.9226  0.1223 -0.1674
  520TMC3    O1 7732   4.463   4.392  13.826  0.4255 -0.1515 -0.4238
  520TMC3    O2 7733   4.198   4.605  13.300 -0.3141 -0.1085  0.3171
  521MPD2     C 7734   0.006   3.028  17.474 -0.1775 -0.6320  0.5330
  521MPD2    C1 7735   0.018   2.901  17.418  0.3672 -0.4171 -0.7950
  521MPD2    C2 7736   0.125   2.883  17.324 -0.4327  0.1213 -0.0765
  521MPD2    C3 7737   0.216   2.990  17.302 -0.8971  1.0346 -0.5769
  521MPD2    C4 7738   0.199   3.116  17.372 -0.5612 -0.9730  0.6339
  521MPD2    C5 7739   0.094   3.135  17.455 -0.2503  0.1154 -0.8179
  521MPD2     H 7740   0.149   2.788  17.277  0.7180  0.0823  0.5629
  521MPD2    H1 7741   0.257   3.204  17.349 -2.4095  0.9503  3.3776
  521MPD2    H2 7742   4.653   3.046  17.552  1.2698 -0.1594  1.7672
  521MPD2    H3 7743   0.093   3.233  17.501  1.0042 -0.0292 -0.4801
  521MPD2     N 7744   0.328   2.947  17.229 -0.4197 -0.0088  0.2924
  521MPD2    H5 7745   0.316   2.867  17.167  2.2267 -2.2119  2.5812
  521MPD2    N1 7746   4.652   2.800  17.466 -0.5253  0.5362 -0.3149
  521MPD2    H7 7747   4.582   2.826  17.534  0.9438 -1.5450  1.9914
  522TMC3    C1 7748   0.536   2.976  17.131  0.2911  0.4821 -0.6823
  522TMC3    C2 7749   0.669   3.010  17.141  0.2870 -0.3870 -0.2131
  522TMC3    C3 7750   0.756   2.956  17.050 -0.0150  0.1223  0.4505
  522TMC3    C4 7751   0.507   2.886  17.037  0.1988  0.3059 -1.2151
  522TMC3    C5 7752   0.587   2.834  16.944 -0.8538 -0.8427  0.5455
  522TMC3    C6 7753   0.720   2.864  16.952 -0.0107 -0.0851 -0.3158
  522TMC3     C 7754   0.439   3.017  17.224 -0.0276 -0.1536  0.4816
  522TMC3     O 7755   0.474   3.111  17.299 -0.8679 -0.0831 -0.1849
  522TMC3     H 7756   0.704   3.079  17.217  0.5229 -0.4420 -0.2701
  522TMC3    H1 7757   0.401   2.864  17.027  0.5451 -1.8427 -0.2748
  522TMC3    H2 7758   0.789   2.832  16.875  2.2025  1.4706  1.0119
  522TMC3    C7 7759   0.549   2.757  16.826  0.1313  0.2776 -0.4514
  522TMC3    C8 7760   0.889   3.018  17.044  0.3592  1.0325  0.7142
  522TMC3    O1 7761   0.646   2.695  16.788 -0.1177 -0.4720 -0.2879
  522TMC3    O2 7762   0.912   3.126  17.100  0.5958  0.5192 -0.3421
  523MPD2     C 7763   2.471   2.822  10.285 -0.6468 -0.1783 -0.1816
  523MPD2    C1 7764   2.498   2.788  10.153 -0.1657  0.1786 -0.4650
  523MPD2    C2 7765   2.451   2.869  10.050  0.1739  0.5498  0.6421
  523MPD2    C3 7766   2.380   2.979  10.070  0.2732  0.4218  0.3333
  523MPD2    C4 7767   2.366   3.023  10.204  0.1567  0.3493 -0.0461
  523MPD2    C5 7768   2.411   2.946  10.306 -0.5147 -0.5425 -1.0491
  523MPD2     H 7769   2.492   2.837   9.954 -0.2755  3.3622 -0.4803
  523MPD2    H1 7770   2.305   3.111  10.224  0.1805  0.9400 -2.5107
  523MPD2    H2 7771   2.506   2.770  10.372 -0.4198  0.2151 -0.0371
  523MPD2    H3 7772   2.416   2.986  10.406 -1.0472 -0.9465 -0.8610
  523MPD2     N 7773   2.338   3.059   9.963 -0.3857  0.0853  0.5335
  523MPD2    H5 7774   2.313   3.151   9.997 -0.6684  1.1848 -2.6933
  523MPD2    N1 7775   2.567   2.667  10.133  0.0831 -0.0607 -0.2203
  523MPD2    H7 7776   2.578   2.619  10.222 -2.3392  0.5534  0.3883
  524TMC3    C1 7777   2.314   3.150   9.744 -0.2195  0.4806  0.4850
  524TMC3    C2 7778   2.377   3.145   9.621 -0.4808  0.0707  0.0995
  524TMC3    C3 7779   2.359   3.246   9.539 -0.1100 -0.3288  0.3040
  524TMC3    C4 7780   2.219   3.241   9.774 -0.3507 -0.5911 -0.4051
  524TMC3    C5 7781   2.193   3.334   9.681 -0.2082  0.1995 -0.5522
  524TMC3    C6 7782   2.266   3.345   9.566  0.8612 -0.0467  0.3000
  524TMC3     C 7783   2.356   3.041   9.830 -0.1959 -0.1098 -0.0409
  524TMC3     O 7784   2.401   2.940   9.774 -0.1103 -0.0483  0.1591
  524TMC3     H 7785   2.458   3.073   9.607 -0.8476 -0.8267  2.5784
  524TMC3    H1 7786   2.160   3.222   9.863  1.3990 -0.9201  0.6920
  524TMC3    H2 7787   2.244   3.428   9.499 -2.7832 -0.9475  0.3779
  524TMC3    C7 7788   2.128   3.453   9.729 -0.3758  0.1907  1.2035
  524TMC3    C8 7789   2.446   3.267   9.422  0.5785  0.1624  0.2617
  524TMC3    O1 7790   2.112   3.446   9.848 -0.1130 -0.1572  0.1731
  524TMC3    O2 7791   2.560   3.221   9.423 -0.5296  0.2076 -0.4763
  525MPD2     C 7792   0.564   4.440  14.209  0.2073 -0.2490  0.2894
  525MPD2    C1 7793   0.670   4.483  14.287  0.7009 -0.1948 -0.2364
  525MPD2    C2 7794   0.743   4.597  14.246 -0.4714 -0.1585  0.0507
  525MPD2    C3 7795   0.718   4.658  14.118  0.7628  0.6079  0.2548
  525MPD2    C4 7796   0.624   4.597  14.036 -0.0606 -0.4797  0.4916
  525MPD2    C5 7797   0.550   4.490  14.084 -0.2204 -0.5264  0.0050
  525MPD2     H 7798   0.821   4.636  14.310  0.3868  1.1506 -1.7787
  525MPD2    H1 7799   0.602   4.644  13.941  0.0188  3.1262  2.2717
  525MPD2    H2 7800   0.505   4.351  14.228 -0.5052 -0.3914 -2.6578
  525MPD2    H3 7801   0.473   4.448  14.021 -0.6322  1.1583 -0.6334
  525MPD2     N 7802   0.779   0.054  14.076  0.3239  0.0790 -0.2485
  525MPD2    H5 7803   0.749   0.105  13.994 -0.6218 -0.5602 -0.2962
  525MPD2    N1 7804   0.709   4.416  14.411 -0.1848  0.5277 -0.1677
  525MPD2    H7 7805   0.797   4.439  14.456 -0.9001  1.5403  0.7230
  526TMC3    C1 7806   0.716   4.245  14.575 -0.8363  0.3436 -0.0350
  526TMC3    C2 7807   0.640   4.190  14.675  0.2801  0.0022  0.0872
  526TMC3    C3 7808   0.700   4.120  14.775  0.0876  0.1381 -0.2622
  526TMC3    C4 7809   0.854   4.231  14.574  0.4998  0.3386 -0.0107
  526TMC3    C5 7810   0.908   4.147  14.674  0.0964  0.0443  0.2864
  526TMC3    C6 7811   0.838   4.097  14.774  0.2293  0.6217  0.1609
  526TMC3     C 7812   0.645   4.308  14.460 -0.9959  0.1790  0.2259
  526TMC3     O 7813   0.540   4.250  14.428  0.4988 -0.4214 -0.1864
  526TMC3     H 7814   0.533   4.203  14.665  0.3582  0.6619  0.0685
  526TMC3    H1 7815   0.911   4.264  14.487  2.0337 -1.5333  0.2949
  526TMC3    H2 7816   0.875   4.021  14.842  0.8621  1.8499  1.2032
  526TMC3    C7 7817   1.043   4.108  14.657  0.5506  0.4602  0.8614
  526TMC3    C8 7818   0.631   4.097  14.899 -0.9263 -0.6204 -0.1364
  526TMC3    O1 7819   1.080   4.003  14.718  0.1441  1.0329 -0.1976
  526TMC3    O2 7820   0.673   4.020  14.986  0.2544 -0.1261 -0.7124
  527MPD2     C 7821   3.350   1.682   1.619 -0.3669 -1.0447 -0.0418
  527MPD2    C1 7822   3.473   1.609   1.628  0.3526 -0.9270 -0.3016
  527MPD2    C2 7823   3.556   1.588   1.518  0.1629 -0.7486  0.3041
  527MPD2    C3 7824   3.521   1.647   1.393  0.1966  0.1178 -0.5420
  527MPD2    C4 7825   3.403   1.719   1.382 -0.0637  0.3830 -0.5465
  527MPD2    C5 7826   3.323   1.739   1.494 -0.3062 -0.9645 -0.5848
  527MPD2     H 7827   3.652   1.541   1.535  0.4890 -0.7692 -1.6216
  527MPD2    H1 7828   3.382   1.781   1.295  0.7816 -0.6224 -1.4632
  527MPD2    H2 7829   3.291   1.701   1.708  1.0415  0.9246  0.4754
  527MPD2    H3 7830   3.240   1.809   1.485 -0.4784 -0.8727  1.7158
  527MPD2     N 7831   3.616   1.631   1.291  0.1261  0.4218 -0.1549
  527MPD2    H5 7832   3.696   1.570   1.306 -1.1421 -0.5862  2.5534
  527MPD2    N1 7833   3.519   1.545   1.747  0.3298  0.1190 -0.5327
  527MPD2    H7 7834   3.604   1.490   1.736  1.2296  1.5303 -0.6138
  528TMC3    C1 7835   3.539   1.499   1.980 -0.4421  0.9023  0.7248
  528TMC3    C2 7836   3.674   1.493   1.971 -0.0575  0.9822 -0.5515
  528TMC3    C3 7837   3.740   1.420   2.070 -0.3538  0.0061  0.0103
  528TMC3    C4 7838   3.464   1.444   2.081  0.8432 -0.6997 -0.6276
  528TMC3    C5 7839   3.538   1.375   2.174 -0.0775 -0.0930  0.7590
  528TMC3    C6 7840   3.674   1.374   2.178  0.7329 -0.3610 -0.0678
  528TMC3     C 7841   3.461   1.562   1.872  0.2683 -0.3389 -0.7095
  528TMC3     O 7842   3.353   1.614   1.899  0.0150  0.3040 -0.6318
  528TMC3     H 7843   3.732   1.541   1.892 -1.0719  0.5816 -1.5386
  528TMC3    H1 7844   3.356   1.439   2.071  1.0121 -2.7721 -1.3702
  528TMC3    H2 7845   3.726   1.312   2.250 -0.1396 -2.1334 -0.9676
  528TMC3    C7 7846   3.471   1.272   2.241 -0.4458 -0.5596 -0.5607
  528TMC3    C8 7847   3.880   1.403   2.062 -0.2431  0.1756  0.0307
  528TMC3    O1 7848   3.354   1.255   2.206  0.2919 -0.1210 -0.1072
  528TMC3    O2 7849   3.924   1.309   2.121  0.0222  0.2230 -0.2204
  529MPD2     C 7850   0.601   0.928   0.587  0.0956 -0.0561  0.3752
  529MPD2    C1 7851   0.721   0.896   0.527 -0.2193  0.2902  0.1751
  529MPD2    C2 7852   0.753   0.956   0.403 -0.3172  0.7678  0.0956
  529MPD2    C3 7853   0.673   1.050   0.350 -0.4986 -0.3540  0.2999
  529MPD2    C4 7854   0.556   1.080   0.419  0.2295  0.1456 -0.5663
  529MPD2    C5 7855   0.525   1.026   0.538 -0.2007  0.5567  0.6479
  529MPD2     H 7856   0.848   0.926   0.361  0.6831  1.9229  1.5378
  529MPD2    H1 7857   0.498   1.166   0.390 -0.1939  0.2007  0.4589
  529MPD2    H2 7858   0.579   0.879   0.681  0.0484 -1.5546 -0.4102
  529MPD2    H3 7859   0.439   1.049   0.600 -1.0995  2.6614 -1.3670
  529MPD2     N 7860   0.697   1.116   0.226 -0.0314  0.2287 -0.3380
  529MPD2    H5 7861   0.631   1.187   0.195  0.9653  0.7780 -1.2149
  529MPD2    N1 7862   0.809   0.797   0.578 -0.2697  0.3052  0.5468
  529MPD2    H7 7863   0.888   0.779   0.517 -1.0514 -1.2780 -0.0035
  530TMC3    C1 7864   0.906   0.637   0.722 -0.0930 -0.1343  0.0104
  530TMC3    C2 7865   0.940   0.615   0.852  0.7736  0.8558  1.2765
  530TMC3    C3 7866   1.044   0.522   0.870  0.3014 -0.1818  0.0524
  530TMC3    C4 7867   0.958   0.562   0.617 -0.9171  0.5272 -0.1835
  530TMC3    C5 7868   1.053   0.466   0.643  0.4979 -0.1654  0.9243
  530TMC3    C6 7869   1.094   0.445   0.771  0.3495  0.3324  0.3091
  530TMC3     C 7870   0.802   0.738   0.698  0.2194  0.9180  0.2401
  530TMC3     O 7871   0.723   0.741   0.793  0.2646 -0.6712 -0.0335
  530TMC3     H 7872   0.897   0.685   0.923 -0.5113  0.6302  0.7228
  530TMC3    H1 7873   0.922   0.584   0.517  1.4517  1.8908 -0.7277
  530TMC3    H2 7874   1.159   0.361   0.792 -0.4952 -0.5077 -0.4580
  530TMC3    C7 7875   1.075   0.362   0.536  0.6743  0.0459 -1.0692
  530TMC3    C8 7876   1.103   0.535   0.994  0.6681 -0.2254 -0.4411
  530TMC3    O1 7877   0.997   0.363   0.441 -0.9713  0.7078 -0.0269
  530TMC3    O2 7878   1.057   0.612   1.076  0.3054  0.1501 -0.1194
  531MPD2     C 7879   4.486   2.972  12.644  0.0571  0.1682 -0.0059
  531MPD2    C1 7880   4.401   2.981  12.754 -0.5827 -0.3273  0.3873
  531MPD2    C2 7881   4.271   2.946  12.726  0.4901  0.0975  0.3422
  531MPD2    C3 7882   4.221   2.900  12.607 -0.4870 -0.0502  0.2174
  531MPD2    C4 7883   4.308   2.888  12.502 -0.1649 -0.1261  0.2550
  531MPD2    C5 7884   4.440   2.920  12.524 -0.0087  0.0906 -0.4469
  531MPD2     H 7885   4.201   2.959  12.808 -0.7681 -0.3635 -0.6684
  531MPD2    H1 7886   4.287   2.862  12.398 -2.6384 -1.9340  1.2101
  531MPD2    H2 7887   4.587   3.009  12.641  0.6540 -1.5340 -0.7263
  531MPD2    H3 7888   4.502   2.934  12.436 -0.2442  0.3336 -0.5724
  531MPD2     N 7889   4.080   2.865  12.611 -0.1149  0.0710 -0.3480
  531MPD2    H5 7890   4.036   2.869  12.702 -0.1543  0.6159 -0.3873
  531MPD2    N1 7891   4.436   3.037  12.882 -0.4667  0.3434  0.2765
  531MPD2    H7 7892   4.368   3.015  12.954 -0.4598  2.5482  0.9515
  532TMC3    C1 7893   4.538   3.152  13.059 -0.5025 -0.3075  0.0607
  532TMC3    C2 7894   4.428   3.111  13.139  0.3235  0.8117 -0.0033
  532TMC3    C3 7895   4.400   3.178  13.256 -0.5867 -0.4357  0.2750
  532TMC3    C4 7896   4.625   3.239  13.109 -0.0023 -0.3607  0.3924
  532TMC3    C5 7897   4.596   3.311  13.217 -0.4547 -0.3023 -0.9205
  532TMC3    C6 7898   4.482   3.281  13.296  0.2161  0.6778 -0.0336
  532TMC3     C 7899   4.548   3.107  12.921 -0.2346 -0.0145  0.7467
  532TMC3     O 7900   4.645   3.139  12.854 -0.3379 -0.1505 -0.4981
  532TMC3     H 7901   4.369   3.025  13.108  1.6371 -0.1938  0.2959
  532TMC3    H1 7902   4.706   3.268  13.043 -0.7257 -1.2787 -0.9209
  532TMC3    H2 7903   4.467   3.343  13.383 -0.8904  0.9335 -0.4040
  532TMC3    C7 7904   4.709   3.345  13.304 -0.1142  0.1699 -0.0619
  532TMC3    C8 7905   4.257   3.189  13.299  0.2752  0.4267 -0.1778
  532TMC3    O1 7906   4.698   3.423  13.396  0.5273  1.0978 -0.2010
  532TMC3    O2 7907   4.231   3.252  13.399 -0.6242  0.4331 -1.0081
  533TMC3    C1 7908   0.899   0.250  14.100 -0.5990 -0.0520  0.5679
  533TMC3    C2 7909   1.027   0.295  14.137  0.0902 -0.0920  0.3978
  533TMC3    C3 7910   1.040   0.413  14.195  0.5771  0.5440 -0.3132
  533TMC3    C4 7911   0.784   0.323  14.128 -0.2792  0.8140 -0.2235
  533TMC3    C5 7912   0.803   0.436  14.202  0.5194 -0.1359 -0.0200
  533TMC3    C6 7913   0.925   0.486  14.228  0.0158  0.7974 -0.6628
  533TMC3     C 7914   0.879   0.113  14.142 -0.0700 -0.1551 -0.7986
  533TMC3     O 7915   0.947   0.077  14.238 -0.2023  0.4150  0.5565
  533TMC3     H 7916   1.113   0.235  14.112 -1.6029 -1.5925 -1.8417
  533TMC3    H1 7917   0.689   0.276  14.103  1.1097 -1.9206 -0.2975
  533TMC3    H2 7918   0.956   0.577  14.278 -3.0914  1.0534  0.7697
  533TMC3    C7 7919   0.691   0.477  14.288 -0.6157  0.0320  0.2446
  533TMC3    C8 7920   1.174   0.476  14.207  0.0260 -0.4246 -0.3208
  533TMC3    O1 7921   0.611   0.386  14.312  0.1500  0.1055  0.3324
  533TMC3    O2 7922   1.171   0.594  14.234 -0.6450  0.1245 -0.0060
  534MPD2     C 7923   3.882   0.538   0.941  0.3953  0.7337  0.0341
  534MPD2    C1 7924   3.816   0.616   1.039  0.4091  0.4020 -0.0599
  534MPD2    C2 7925   3.718   0.703   0.991 -0.6001  0.6463  0.0325
  534MPD2    C3 7926   3.684   0.713   0.860  0.2931 -0.1389 -1.1594
  534MPD2    C4 7927   3.753   0.637   0.770 -0.2890 -0.1560  0.0858
  534MPD2    C5 7928   3.855   0.555   0.807 -0.1596 -0.0183  0.1767
  534MPD2     H 7929   3.674   0.771   1.063  1.5740  0.8233  1.1914
  534MPD2    H1 7930   3.722   0.638   0.666  0.3461 -1.0306 -0.1153
  534MPD2    H2 7931   3.952   0.461   0.972 -1.0746 -0.5972  0.0876
  534MPD2    H3 7932   3.895   0.497   0.725 -0.1335 -1.4373  1.2031
  534MPD2     N 7933   3.582   0.803   0.820  0.1088 -0.0178 -0.3897
  534MPD2    H5 7934   3.560   0.797   0.721 -2.0698 -3.2507  0.2725
  534MPD2    N1 7935   3.853   0.613   1.171 -0.5734  0.1795  0.4856
  534MPD2    H7 7936   3.809   0.683   1.230  2.6432  0.0516  3.0436
  535TMC3    C1 7937   3.430   0.982   0.840  0.5219  0.4530 -0.1551
  535TMC3    C2 7938   3.326   1.045   0.897 -0.6920  0.5331  0.0343
  535TMC3    C3 7939   3.265   1.138   0.822  0.4075  0.1634  0.0573
  535TMC3    C4 7940   3.475   1.021   0.716 -0.1218 -0.2291  0.0915
  535TMC3    C5 7941   3.414   1.118   0.648 -0.2185 -0.9425  0.0190
  535TMC3    C6 7942   3.303   1.180   0.698  0.3016  0.0263 -0.4969
  535TMC3     C 7943   3.504   0.877   0.900 -0.0894  0.1516  0.7658
  535TMC3     O 7944   3.483   0.863   1.021  0.5981  0.3926 -0.2618
  535TMC3     H 7945   3.305   1.015   0.999 -1.5308  3.0548  0.6181
  535TMC3    H1 7946   3.561   0.972   0.673  1.5545  1.9412  0.9711
  535TMC3    H2 7947   3.240   1.240   0.634 -0.7880 -1.2752 -0.6376
  535TMC3    C7 7948   3.459   1.148   0.514  0.4238  0.5389  0.2110
  535TMC3    C8 7949   3.132   1.180   0.859  0.9318  0.2276  0.1461
  535TMC3    O1 7950   3.547   1.087   0.461 -0.0867 -0.3779 -0.2349
  535TMC3    O2 7951   3.083   1.102   0.939 -0.7691  0.0414 -0.4868
  536MPD2     C 7952   2.345   4.254  16.188  0.5741  0.3264  0.3854
  536MPD2    C1 7953   2.223   4.186  16.209 -1.4684 -0.6848 -0.3819
  536MPD2    C2 7954   2.125   4.224  16.120 -0.2772 -0.5545  0.3292
  536MPD2    C3 7955   2.145   4.311  16.018 -0.3201  0.0916 -0.4962
  536MPD2    C4 7956   2.267   4.371  16.005  0.0928 -0.0537  0.3443
  536MPD2    C5 7957   2.370   4.343  16.089 -0.3435 -0.4055  0.2581
  536MPD2     H 7958   2.032   4.169  16.126 -0.4310 -0.3155  0.1195
  536MPD2    H1 7959   2.294   4.444  15.929  1.1088  1.8803  2.5764
  536MPD2    H2 7960   2.423   4.216  16.254  0.5571 -0.8809 -0.3063
  536MPD2    H3 7961   2.470   4.381  16.075  0.4727 -2.5322  0.2869
  536MPD2     N 7962   2.042   4.364  15.940 -1.0929 -0.6556  0.0664
  536MPD2    H5 7963   2.064   4.435  15.871 -0.9635 -0.0503  0.7265
  536MPD2    N1 7964   2.222   4.092  16.309 -0.0578  0.1819  0.0808
  536MPD2    H7 7965   2.306   4.085  16.367  1.6783  0.5839 -2.3675
  537TMC3    C1 7966   2.156   3.896  16.416 -0.0703 -0.0111 -0.5754
  537TMC3    C2 7967   2.263   3.903  16.496  0.1472 -1.0315  0.2410
  537TMC3    C3 7968   2.299   3.796  16.570 -0.8151  0.3172  0.3606
  537TMC3    C4 7969   2.066   3.797  16.447  0.5890 -0.7567 -0.1325
  537TMC3    C5 7970   2.099   3.704  16.542 -0.7286 -0.2969 -0.1397
  537TMC3    C6 7971   2.222   3.693  16.595  0.1335  0.5064 -0.4801
  537TMC3     C 7972   2.120   4.009  16.333  0.3610 -0.0243  0.2454
  537TMC3     O 7973   2.011   3.985  16.275  0.0246 -0.2732 -0.0683
  537TMC3     H 7974   2.343   3.976  16.491 -0.3375 -0.5883 -1.1261
  537TMC3    H1 7975   1.968   3.794  16.400  0.9584  0.6240 -0.9944
  537TMC3    H2 7976   2.263   3.611  16.653  0.0928  0.6301 -0.2734
  537TMC3    C7 7977   1.988   3.626  16.587 -0.7550 -0.5307  0.0774
  537TMC3    C8 7978   2.405   3.813  16.666  0.1069  0.2509 -0.0169
  537TMC3    O1 7979   1.898   3.614  16.508 -0.5713 -0.1224  0.6724
  537TMC3    O2 7980   2.502   3.743  16.643 -0.9871 -0.2527  0.3222
  538TMC3    C1 7981   2.836   2.830  11.151 -0.1334  0.7998 -0.3694
  538TMC3    C2 7982   2.849   2.725  11.064  0.1000  0.0983 -0.2828
  538TMC3    C3 7983   2.809   2.742  10.935 -0.4039 -0.6081 -0.4356
  538TMC3    C4 7984   2.772   2.939  11.123 -0.2274 -0.0264  0.4999
  538TMC3    C5 7985   2.739   2.957  10.986  0.2742 -0.1644  0.0364
  538TMC3    C6 7986   2.745   2.859  10.891  0.1926  1.0457 -0.0129
  538TMC3     C 7987   2.882   2.815  11.283 -0.2739  0.1107 -0.2602
  538TMC3     O 7988   2.800   2.844  11.371  0.3562 -0.0153  0.5151
  538TMC3     H 7989   2.886   2.630  11.101 -0.4358 -0.2075 -0.5285
  538TMC3    H1 7990   2.769   3.013  11.203  1.3366 -0.4182  0.9167
  538TMC3    H2 7991   2.747   2.882  10.785  1.1044  0.3702 -0.1381
  538TMC3    C7 7992   2.665   3.081  10.958  0.3546  0.4488 -0.7165
  538TMC3    C8 7993   2.853   2.645  10.832 -0.3197 -0.1077 -0.7202
  538TMC3    O1 7994   2.628   3.110  10.842  0.3447 -0.8509  0.1083
  538TMC3    O2 7995   2.837   2.682  10.716  0.0992  0.1439  0.2315
  539MPD2     C 7996   2.428   2.076  11.875 -0.4491  0.3004 -0.3400
  539MPD2    C1 7997   2.446   2.110  11.742 -0.8609 -0.0149 -0.6461
  539MPD2    C2 7998   2.453   2.244  11.705  0.1525  0.0755 -0.9864
  539MPD2    C3 7999   2.438   2.351  11.796 -0.0327 -0.6345  0.4984
  539MPD2    C4 8000   2.408   2.317  11.925 -0.2766 -0.2048 -0.4231
  539MPD2    C5 8001   2.408   2.183  11.955 -0.7111 -0.2697  0.0285
  539MPD2     H 8002   2.477   2.259  11.601 -1.5548  2.2125 -1.0588
  539MPD2    H1 8003   2.379   2.392  11.997 -1.7901 -0.9519 -0.2648
  539MPD2    H2 8004   2.418   1.977  11.916  1.2191  1.3109  2.5787
  539MPD2    H3 8005   2.385   2.155  12.057  1.1748  0.1382  0.5664
  539MPD2     N 8006   2.435   2.487  11.756 -0.0154 -0.5829 -0.5527
  539MPD2    H5 8007   2.390   2.548  11.825  0.9508 -1.9733  1.3054
  539MPD2    N1 8008   2.469   2.008  11.646  0.0213  0.7004  0.4573
  539MPD2    H7 8009   2.490   2.044  11.553 -3.1094 -2.0507 -1.3338
  540TMC3    C1 8010   2.408   2.659  11.603 -0.3265 -1.5257  0.1801
  540TMC3    C2 8011   2.386   2.695  11.479 -0.3349 -0.9311 -0.1333
  540TMC3    C3 8012   2.319   2.816  11.454  0.8602  0.5293  0.2017
  540TMC3    C4 8013   2.373   2.737  11.712 -0.3491 -0.2002  0.0250
  540TMC3    C5 8014   2.308   2.855  11.681  0.6198  0.4116 -0.0136
  540TMC3    C6 8015   2.284   2.900  11.557  1.8108  0.0736  0.4480
  540TMC3     C 8016   2.473   2.530  11.633  0.2559  0.7144 -0.1706
  540TMC3     O 8017   2.520   2.477  11.538 -0.6178 -0.4200  0.3620
  540TMC3     H 8018   2.423   2.637  11.396  2.4401 -2.0227  1.8899
  540TMC3    H1 8019   2.381   2.698  11.813 -0.8227  0.1890  0.2118
  540TMC3    H2 8020   2.230   2.993  11.548 -1.0163 -1.9513 -3.4704
  540TMC3    C7 8021   2.220   2.902  11.785  0.3792  0.0342 -0.2996
  540TMC3    C8 8022   2.339   2.867  11.318  0.2451  1.0401  0.4002
  540TMC3    O1 8023   2.199   2.828  11.876  0.0645 -0.4203 -0.8500
  540TMC3    O2 8024   2.385   2.981  11.312 -0.2002 -0.0484 -0.3586
  541MPD2     C 8025   1.596   3.528  12.825  0.0313 -0.6883 -0.3943
  541MPD2    C1 8026   1.484   3.507  12.892 -1.5620  0.0552  0.7379
  541MPD2    C2 8027   1.367   3.563  12.847  0.5563  0.2788  1.3431
  541MPD2    C3 8028   1.359   3.624  12.728  0.1221  0.1598  0.5981
  541MPD2    C4 8029   1.475   3.642  12.660  0.3151  0.3487  0.0511
  541MPD2    C5 8030   1.593   3.605  12.717 -0.2558 -0.0589 -0.3561
  541MPD2     H 8031   1.283   3.558  12.915 -1.2288 -2.7263 -1.0360
  541MPD2    H1 8032   1.478   3.694  12.565  0.1481 -0.5592 -0.4562
  541MPD2    H2 8033   1.694   3.505  12.865 -0.0283 -1.4619 -0.7037
  541MPD2    H3 8034   1.685   3.628  12.664 -0.4219  1.5671  0.0432
  541MPD2     N 8035   1.241   3.679  12.670  0.0189 -0.0151 -0.8953
  541MPD2    H5 8036   1.258   3.725  12.582  2.2468  0.2553 -0.3105
  541MPD2    N1 8037   1.506   3.443  13.010  0.5063 -0.3007  1.0929
  541MPD2    H7 8038   1.597   3.405  13.033  1.3591  0.6458 -0.6893
  542TMC3    C1 8039   1.021   3.707  12.623  0.5776 -0.0924 -0.1578
  542TMC3    C2 8040   1.040   3.662  12.492 -0.1109 -0.0848 -0.5006
  542TMC3    C3 8041   0.949   3.702  12.400  0.0761  0.1337  0.1658
  542TMC3    C4 8042   0.912   3.780  12.662  0.7624  0.5788 -0.7194
  542TMC3    C5 8043   0.832   3.825  12.560  0.0200 -0.2244 -0.4196
  542TMC3    C6 8044   0.852   3.791  12.428 -0.2033 -0.1551  0.5501
  542TMC3     C 8045   1.121   3.690  12.726  0.4203  0.4047 -0.4640
  542TMC3     O 8046   1.070   3.676  12.838 -0.5881 -0.2679  0.5221
  542TMC3     H 8047   1.121   3.596  12.464 -1.0891  0.0790 -3.7518
  542TMC3    H1 8048   0.894   3.829  12.757  1.0835  0.0177 -0.3675
  542TMC3    H2 8049   0.791   3.838  12.352  1.5055  0.3657 -0.5087
  542TMC3    C7 8050   0.756   3.949  12.581 -0.5036  0.1900 -0.2997
  542TMC3    C8 8051   0.959   3.665  12.260 -1.2429 -0.4031 -0.2405
  542TMC3    O1 8052   0.649   3.955  12.511  0.5158  0.0751 -0.5905
  542TMC3    O2 8053   1.060   3.616  12.212 -0.5197 -0.2412  0.5600
  543TMC3    C1 8054   0.235   4.274  17.069 -0.0831 -0.4320  0.0617
  543TMC3    C2 8055   0.306   4.178  17.131  0.2613 -0.2010 -0.0482
  543TMC3    C3 8056   0.247   4.129  17.246 -0.5343 -0.7341 -0.4451
  543TMC3    C4 8057   0.118   4.326  17.113 -0.4490 -0.4495 -0.0064
  543TMC3    C5 8058   0.067   4.267  17.223  0.1228  0.5447 -0.7772
  543TMC3    C6 8059   0.128   4.170  17.298 -0.3422  0.4556 -0.1855
  543TMC3     C 8060   0.310   4.343  16.963 -0.5627  0.4453 -0.1756
  543TMC3     O 8061   0.433   4.336  16.966  0.4376 -0.3645 -0.0467
  543TMC3     H 8062   0.393   4.129  17.088  0.5094  0.5520 -0.3940
  543TMC3    H1 8063   0.060   4.403  17.064  1.1116  1.4425  1.1651
  543TMC3    H2 8064   0.061   4.114  17.363  0.4625 -0.7029 -0.3562
  543TMC3    C7 8065   4.656   4.324  17.267 -0.1487  0.8681 -0.2955
  543TMC3    C8 8066   0.321   4.021  17.315  0.3753  0.1562 -0.1482
  543TMC3    O1 8067   4.593   4.398  17.194  0.1537 -0.7169 -0.8004
  543TMC3    O2 8068   0.401   3.949  17.253 -0.1910 -0.0256  0.1350
  544MPD2     C 8069   0.411   3.725   0.050  0.2569  0.6367  0.7866
  544MPD2    C1 8070   0.484   3.743  17.617 -0.1108  0.6642 -0.3300
  544MPD2    C2 8071   0.447   3.831  17.513  0.2857 -0.3888  0.1003
  544MPD2    C3 8072   0.325   3.898  17.526 -0.0100  0.9849 -0.5234
  544MPD2    C4 8073   0.246   3.875  17.642 -0.3700  0.1631  0.0061
  544MPD2    C5 8074   0.291   3.787   0.061  0.5134 -0.0645  0.0324
  544MPD2     H 8075   0.501   3.841  17.419  0.2220 -1.3529 -0.0329
  544MPD2    H1 8076   0.147   3.919  17.651  0.3267  1.5550  0.7735
  544MPD2    H2 8077   0.441   3.662   0.132  0.7601 -0.2666 -0.0899
  544MPD2    H3 8078   0.235   3.763   0.151  0.4827  0.5251  0.1664
  544MPD2     N 8079   0.274   3.998  17.439  0.2350  1.0617 -0.1951
  544MPD2    H5 8080   0.185   4.039  17.462  1.1029  0.1654  4.7950
  544MPD2    N1 8081   0.596   3.661  17.605 -0.0818 -0.0218  0.6264
  544MPD2    H7 8082   0.624   3.599   0.001 -1.4221 -1.9585 -0.4591
  545TMC3    C1 8083   0.809   3.602  17.544 -0.3220  0.5501  0.2069
  545TMC3    C2 8084   0.929   3.658  17.520 -0.6692  0.5649 -0.1298
  545TMC3    C3 8085   1.042   3.584  17.545 -0.4296  0.0160  0.3048
  545TMC3    C4 8086   0.791   3.472  17.581  0.6281 -0.5836 -0.6476
  545TMC3    C5 8087   0.904   3.390  17.589  0.7317  1.1975 -0.0887
  545TMC3    C6 8088   1.027   3.446  17.565  0.3873  0.5214  0.0980
  545TMC3     C 8089   0.695   3.683  17.513  0.8845 -0.4358  0.6592
  545TMC3     O 8090   0.709   3.769  17.424  0.2518  0.1253  0.5478
  545TMC3     H 8091   0.934   3.762  17.492  0.5525  0.0953 -1.6211
  545TMC3    H1 8092   0.698   3.423  17.557  0.0145  0.1697  0.2034
  545TMC3    H2 8093   1.112   3.383  17.591  0.0942  0.8171  1.7971
  545TMC3    C7 8094   0.876   3.247  17.570  0.3206 -0.0644  0.6173
  545TMC3    C8 8095   1.174   3.650  17.548 -0.4609  0.6452 -0.2139
  545TMC3    O1 8096   0.764   3.205  17.595  0.2100 -0.5220  0.7800
  545TMC3    O2 8097   1.170   3.773  17.530  0.2187 -0.0035 -0.3353
  546MPD2     C 8098   2.045   4.570  16.537 -0.1834 -0.8091  0.1464
  546MPD2    C1 8099   2.064   4.560  16.675 -0.0211 -0.4030  0.0472
  546MPD2    C2 8100   2.155   4.643  16.746  0.2642  0.8245  0.0887
  546MPD2    C3 8101   2.225   0.008  16.669 -0.4690  0.7103  0.0950
  546MPD2    C4 8102   2.211   0.012  16.527  0.4003  0.2631 -0.1085
  546MPD2    C5 8103   2.126   4.651  16.465  0.1023  0.5487  0.1430
  546MPD2     H 8104   2.155   4.654  16.854  1.4489  0.8464  0.0856
  546MPD2    H1 8105   2.261   0.091  16.472  1.3442  0.4612  1.0306
  546MPD2    H2 8106   1.967   4.517  16.482  0.3656 -1.3998 -0.0603
  546MPD2    H3 8107   2.117   4.651  16.357 -1.7229  1.9846  0.2891
  546MPD2     N 8108   2.328   0.089  16.731  0.4672  0.8093 -0.0037
  546MPD2    H5 8109   2.327   0.076  16.832  1.2603 -1.2572 -0.2577
  546MPD2    N1 8110   1.992   4.460  16.739  0.0354 -0.4778 -0.3609
  546MPD2    H7 8111   1.922   4.414  16.682  0.3095 -2.8468  1.2332
  547TMC3    C1 8112   1.888   4.325  16.913 -0.5065 -0.3143  0.1690
  547TMC3    C2 8113   1.758   4.343  16.869 -0.3392  0.6694  0.1630
  547TMC3    C3 8114   1.651   4.286  16.935 -0.6013 -0.1832 -0.3113
  547TMC3    C4 8115   1.910   4.258  17.031 -0.1045 -0.3062 -0.1958
  547TMC3    C5 8116   1.808   4.197  17.091 -0.2241 -0.1427  0.0033
  547TMC3    C6 8117   1.680   4.214  17.051 -0.0224 -0.4829  0.9221
  547TMC3     C 8118   2.002   4.410  16.867 -0.1017  0.0989 -0.2803
  547TMC3     O 8119   2.095   4.425  16.946 -0.0665  0.3209  0.4188
  547TMC3     H 8120   1.738   4.409  16.785  0.8038 -0.5147 -1.0360
  547TMC3    H1 8121   2.007   4.261  17.080 -0.2139  0.4860 -0.0337
  547TMC3    H2 8122   1.602   4.164  17.108  0.6906 -1.1208  1.3424
  547TMC3    C7 8123   1.824   4.156  17.231  0.0649 -0.6610  0.1314
  547TMC3    C8 8124   1.509   4.294  16.886 -0.3763 -0.3228  0.0983
  547TMC3    O1 8125   1.731   4.190  17.305 -0.2714 -0.2303 -0.1574
  547TMC3    O2 8126   1.491   4.378  16.798  0.4612  0.4386 -0.5528
  548MPD2     C 8127   1.696   0.694  11.916 -0.2931 -0.2264  0.6834
  548MPD2    C1 8128   1.692   0.649  12.045  0.5426 -0.7705  0.8199
  548MPD2    C2 8129   1.794   0.560  12.084  1.3699  0.5339 -0.0901
  548MPD2    C3 8130   1.897   0.522  11.998 -1.2789 -0.2290  0.8202
  548MPD2    C4 8131   1.899   0.573  11.869  0.5522  0.5279  0.2795
  548MPD2    C5 8132   1.803   0.663  11.827 -0.3832  0.4233 -0.1786
  548MPD2     H 8133   1.796   0.518  12.184 -1.2490 -0.5651 -0.5106
  548MPD2    H1 8134   1.983   0.551  11.804 -1.3880 -2.2038 -1.2855
  548MPD2    H2 8135   1.616   0.754  11.876 -0.0859 -0.4532 -0.0583
  548MPD2    H3 8136   1.812   0.705  11.728 -0.3805 -0.7057 -0.6581
  548MPD2     N 8137   2.000   0.454  12.054 -0.6224 -0.2276  0.1710
  548MPD2    H5 8138   1.988   0.431  12.152 -0.5221 -0.1484  0.2019
  548MPD2    N1 8139   1.587   0.688  12.132  0.5143 -0.1095 -0.2623
  548MPD2    H7 8140   1.510   0.744  12.096  0.3622  1.2012  2.0376
  549TMC3    C1 8141   1.430   0.668  12.290 -0.1246  0.8840 -0.1996
  549TMC3    C2 8142   1.395   0.791  12.241 -0.0206 -0.2052 -0.0605
  549TMC3    C3 8143   1.265   0.816  12.225 -0.1999  0.0574  0.4530
  549TMC3    C4 8144   1.340   0.568  12.312 -0.1346 -0.1189 -0.0867
  549TMC3    C5 8145   1.205   0.600  12.296 -0.0777  0.2388  0.2078
  549TMC3    C6 8146   1.169   0.722  12.242  0.0411  0.5103 -0.0660
  549TMC3     C 8147   1.558   0.632  12.254 -0.2737  0.3893 -0.6526
  549TMC3     O 8148   1.586   0.521  12.296 -0.0831 -0.5683  0.2199
  549TMC3     H 8149   1.472   0.867  12.234  1.2064 -1.3339  1.2940
  549TMC3    H1 8150   1.374   0.471  12.347 -2.1894 -0.7324  0.1849
  549TMC3    H2 8151   1.067   0.755  12.232 -0.6376 -1.7370 -0.4515
  549TMC3    C7 8152   1.096   0.522  12.362 -0.2762  0.1709  0.3700
  549TMC3    C8 8153   1.244   0.951  12.183 -0.2484 -0.1293 -0.4501
  549TMC3    O1 8154   0.999   0.591  12.397  0.1315  0.1012 -0.2522
  549TMC3    O2 8155   1.334   1.033  12.210  0.3849 -1.0764 -0.3228
  550TMC3    C1 8156   0.203   3.058  12.387  0.2553  0.1562  0.5365
  550TMC3    C2 8157   0.166   3.163  12.466 -0.3432  0.0557 -0.0376
  550TMC3    C3 8158   0.037   3.203  12.453  0.3068 -0.5854  0.0770
  550TMC3    C4 8159   0.123   2.993  12.302 -0.3030  0.0624  0.4396
  550TMC3    C5 8160   4.712   3.036  12.294 -0.7175  0.8518 -0.1015
  550TMC3    C6 8161   4.673   3.134  12.375 -0.4202 -0.3594 -0.1652
  550TMC3     C 8162   0.344   3.061  12.369  0.9238  0.4145 -0.7336
  550TMC3     O 8163   0.389   3.176  12.363 -0.3308 -0.2973  0.1285
  550TMC3     H 8164   0.235   3.212  12.533 -1.2409 -0.0443  0.9638
  550TMC3    H1 8165   0.165   2.917  12.237 -0.6421  2.0185 -2.0893
  550TMC3    H2 8166   4.569   3.164  12.363 -0.2452 -0.2533 -1.4488
  550TMC3    C7 8167   4.636   3.013  12.173 -0.4500 -0.4296 -0.2457
  550TMC3    C8 8168   0.007   3.337  12.509 -0.0561 -0.5843  0.1481
  550TMC3    O1 8169   4.514   3.016  12.187 -0.3790  0.2033  1.0622
  550TMC3    O2 8170   0.084   3.385  12.592 -0.2390 -0.0203 -0.1019
  551TMC3    C1 8171   2.433   1.005  13.254 -0.5442 -0.4294 -0.4025
  551TMC3    C2 8172   2.503   1.096  13.170 -0.6559  0.1305  0.5085
  551TMC3    C3 8173   2.583   1.189  13.225  0.0059  0.0729  0.1536
  551TMC3    C4 8174   2.444   1.007  13.391 -0.1941  0.7927 -0.6137
  551TMC3    C5 8175   2.550   1.084  13.431 -0.0671 -0.1274  0.4373
  551TMC3    C6 8176   2.620   1.174  13.353 -0.2432  0.2821  0.6548
  551TMC3     C 8177   2.323   0.934  13.189 -0.0490  0.1184  0.0912
  551TMC3     O 8178   2.343   0.915  13.068 -0.2519 -0.4362 -0.0732
  551TMC3     H 8179   2.478   1.104  13.065 -2.0006  3.2587  1.0634
  551TMC3    H1 8180   2.395   0.936  13.456 -0.9084  0.6466 -1.3040
  551TMC3    H2 8181   2.701   1.228  13.401  0.6426 -0.5845  0.1220
  551TMC3    C7 8182   2.603   1.076  13.568  0.4063 -0.5766  0.5342
  551TMC3    C8 8183   2.635   1.291  13.135  0.4569  0.0840 -0.1753
  551TMC3    O1 8184   2.619   1.183  13.623 -0.4299 -0.1471 -0.2924
  551TMC3    O2 8185   2.594   1.283  13.021  0.0914  0.1291 -0.6864
  552MPD2     C 8186   0.301   3.197  13.766 -0.3816  0.3502 -0.2052
  552MPD2    C1 8187   0.277   3.069  13.804 -0.1465 -0.1691  0.5200
  552MPD2    C2 8188   0.355   2.997  13.895  0.0035 -0.2350 -0.2434
  552MPD2    C3 8189   0.470   3.056  13.939 -0.0385  0.4353  0.3194
  552MPD2    C4 8190   0.504   3.189  13.891 -0.5243  0.2658 -0.2861
  552MPD2    C5 8191   0.419   3.252  13.802  0.2110  0.2882  0.1354
  552MPD2     H 8192   0.329   2.892  13.907 -0.6394 -0.1096 -0.5633
  552MPD2    H1 8193   0.594   3.246  13.913 -0.1687 -0.7511  0.9176
  552MPD2    H2 8194   0.237   3.255  13.700  0.5982  1.1684 -0.4428
  552MPD2    H3 8195   0.452   3.341  13.751 -0.4724  1.3660  1.5723
  552MPD2     N 8196   0.569   3.003  14.025 -0.5606 -0.1427  0.3670
  552MPD2    H5 8197   0.654   3.057  14.036  0.6166 -2.0141  0.3903
  552MPD2    N1 8198   0.164   2.998  13.762 -0.4353 -0.6793 -0.5170
  552MPD2    H7 8199   0.164   2.900  13.789  0.9925 -0.5840 -0.1424
  553TMC3    C1 8200   4.697   2.946  13.635  0.2576 -0.3958  0.6820
  553TMC3    C2 8201   4.627   2.979  13.516  0.1255 -0.3677 -0.0499
  553TMC3    C3 8202   4.586   2.874  13.436 -0.1886  0.1565 -0.7029
  553TMC3    C4 8203   4.693   2.815  13.684  0.5541 -0.4258 -0.1819
  553TMC3    C5 8204   4.651   2.719  13.596 -0.5836 -0.0014 -0.1578
  553TMC3    C6 8205   4.583   2.747  13.478  0.0497  0.1333 -0.4457
  553TMC3     C 8206   0.066   3.048  13.679  0.2991 -0.3261  0.8791
  553TMC3     O 8207   0.054   3.159  13.634  0.6312  0.9279 -0.0479
  553TMC3     H 8208   4.631   3.079  13.476  1.2122 -0.3365  0.1190
  553TMC3    H1 8209   0.030   2.787  13.773  1.1451  3.2454  0.5926
  553TMC3    H2 8210   4.565   2.664  13.411 -0.1074  1.0178 -1.4900
  553TMC3    C7 8211   4.691   2.578  13.613 -0.4445  0.2012 -0.1441
  553TMC3    C8 8212   4.631   2.886  13.300  0.3155  0.5477 -1.1535
  553TMC3    O1 8213   4.596   2.502  13.600  0.4179 -0.2491  0.0967
  553TMC3    O2 8214   0.008   2.959  13.286 -0.0281 -0.8314 -0.0450
  554TMC3    C1 8215   1.550   2.142  11.551  0.1193 -0.2151  0.1001
  554TMC3    C2 8216   1.532   2.082  11.433 -0.4585  0.2067  0.4219
  554TMC3    C3 8217   1.643   2.071  11.353  0.0853  0.7738  0.5729
  554TMC3    C4 8218   1.664   2.206  11.590 -0.6953 -0.1403 -0.0497
  554TMC3    C5 8219   1.765   2.196  11.500  0.2364 -0.0417  0.1528
  554TMC3    C6 8220   1.759   2.125  11.387 -0.2116 -0.3161 -0.7812
  554TMC3     C 8221   1.467   2.082  11.656  0.1082  0.1422 -0.6046
  554TMC3     O 8222   1.362   2.038  11.619  0.8479  0.0074 -0.2244
  554TMC3     H 8223   1.439   2.031  11.410 -0.9211  0.3116  2.1034
  554TMC3    H1 8224   1.657   2.272  11.675  1.8399  0.2510 -0.1190
  554TMC3    H2 8225   1.846   2.125  11.321  1.1255 -0.5379  0.9811
  554TMC3    C7 8226   1.869   2.300  11.492  0.2413 -0.5721  0.1698
  554TMC3    C8 8227   1.621   2.048  11.212  0.0802  0.0483  0.2014
  554TMC3    O1 8228   1.950   2.312  11.403 -0.3384  0.6151  0.3767
  554TMC3    O2 8229   1.702   2.099  11.139 -0.0749 -0.0428 -0.1586
  555TMC3    C1 8230   0.715   1.706  14.832 -1.3182 -0.7722  0.1367
  555TMC3    C2 8231   0.764   1.806  14.911 -0.4419  0.0631 -0.4046
  555TMC3    C3 8232   0.880   1.786  14.977 -0.3236  0.2364 -0.3257
  555TMC3    C4 8233   0.784   1.591  14.819 -0.6255 -0.1656 -0.9381
  555TMC3    C5 8234   0.906   1.580  14.883  0.0338  0.6192 -0.0339
  555TMC3    C6 8235   0.961   1.676  14.961 -0.2558  0.0610 -0.0949
  555TMC3     C 8236   0.577   1.704  14.789 -0.0875 -0.3972  0.1249
  555TMC3     O 8237   0.528   1.588  14.788 -0.0679  0.1000  0.4118
  555TMC3     H 8238   0.691   1.884  14.928  2.4914  2.8920 -0.7943
  555TMC3    H1 8239   0.749   1.506  14.761 -0.0786  0.0079 -1.5229
  555TMC3    H2 8240   1.041   1.643  15.026  2.6534  0.7484 -3.3611
  555TMC3    C7 8241   0.942   1.445  14.933  0.5882 -0.3538  0.2291
  555TMC3    C8 8242   0.894   1.874  15.093 -0.5923  1.1233  0.2308
  555TMC3    O1 8243   0.845   1.380  14.961 -0.0098 -0.0888  0.3185
  555TMC3    O2 8244   0.821   1.972  15.097 -0.3165 -0.2474 -0.4691
  556MPD2     C 8245   3.008   3.074  10.803 -0.4394  0.0118 -0.2950
  556MPD2    C1 8246   3.116   3.004  10.860  0.2843 -0.0344 -0.1644
  556MPD2    C2 8247   3.187   2.919  10.776 -0.8438  0.0866  0.5934
  556MPD2    C3 8248   3.157   2.909  10.641 -0.0801 -0.9480  0.1360
  556MPD2    C4 8249   3.049   2.980  10.590  0.0329 -0.2664 -0.3966
  556MPD2    C5 8250   2.981   3.064  10.674  0.3916  0.1951 -0.3859
  556MPD2     H 8251   3.273   2.869  10.818 -0.2715 -1.1835 -2.0821
  556MPD2    H1 8252   3.013   2.972  10.488 -0.7201  1.6032 -0.2827
  556MPD2    H2 8253   2.936   3.134  10.857  0.0747 -0.1985  0.6332
  556MPD2    H3 8254   2.895   3.115  10.632  0.9764  2.3151  0.9887
  556MPD2     N 8255   3.221   2.810  10.569 -0.6267  0.4294  0.0229
  556MPD2    H5 8256   3.285   2.753  10.623  0.4215  1.8627  0.2874
  556MPD2    N1 8257   3.160   3.037  10.989 -0.2530  0.4221  0.5205
  556MPD2    H7 8258   3.234   2.976  11.021 -0.3128  0.5099  0.8235
  557TMC3    C1 8259   3.318   2.683  10.396  0.4989  1.7255  0.0022
  557TMC3    C2 8260   3.339   2.655  10.265 -1.1122 -0.0998 -0.1258
  557TMC3    C3 8261   3.395   2.534  10.229 -0.0795 -0.8480 -0.3867
  557TMC3    C4 8262   3.356   2.593  10.488  0.9430 -0.4265  0.0665
  557TMC3    C5 8263   3.387   2.464  10.449  0.1086  0.5011  0.2493
  557TMC3    C6 8264   3.429   2.438  10.325  0.5201 -0.0004 -0.0531
  557TMC3     C 8265   3.228   2.792  10.429 -0.0589 -0.0497  0.1961
  557TMC3     O 8266   3.181   2.858  10.339  0.7581 -0.2271 -0.4773
  557TMC3     H 8267   3.333   2.731  10.188  0.0007 -0.2227 -0.3353
  557TMC3    H1 8268   3.350   2.604  10.595  0.5414 -0.0342  0.0004
  557TMC3    H2 8269   3.449   2.336  10.294  0.6970  0.1869 -0.5564
  557TMC3    C7 8270   3.302   2.368  10.501 -0.5075 -0.2867 -0.3988
  557TMC3    C8 8271   3.401   2.504  10.090  0.6572  0.8107 -0.0835
  557TMC3    O1 8272   3.345   2.253  10.492  0.0555  0.1649 -0.2207
  557TMC3    O2 8273   3.408   2.602  10.016 -0.8517 -0.3747 -0.2328
  558TMC3    C1 8274   1.552   1.030   9.775 -0.4218  0.1300 -0.7577
  558TMC3    C2 8275   1.466   0.989   9.872  0.1035 -0.1168  0.0457
  558TMC3    C3 8276   1.332   0.998   9.848 -0.1865 -1.0279  0.3012
  558TMC3    C4 8277   1.506   1.086   9.656  0.5130  0.4548 -0.2297
  558TMC3    C5 8278   1.377   1.076   9.629  0.1615 -0.1696  0.2202
  558TMC3    C6 8279   1.286   1.032   9.722 -0.2380  0.1179 -0.3587
  558TMC3     C 8280   1.687   1.046   9.808  0.2838 -0.4594  0.3759
  558TMC3     O 8281   1.712   1.049   9.928  0.6634  0.4386  0.2918
  558TMC3     H 8282   1.515   0.947   9.959 -0.6912 -2.4517 -0.6162
  558TMC3    H1 8283   1.574   1.106   9.574 -0.4279  1.9130 -0.6507
  558TMC3    H2 8284   1.181   1.058   9.716 -0.5657 -1.1991 -0.3203
  558TMC3    C7 8285   1.335   1.140   9.512  0.4157 -0.1266 -0.1776
  558TMC3    C8 8286   1.236   0.930   9.934  0.6368  0.1693 -0.1481
  558TMC3    O1 8287   1.409   1.220   9.457 -0.1762  0.2313  0.1274
  558TMC3    O2 8288   1.137   0.885   9.881  0.3991 -0.5261  0.0001
  559MPD2     C 8289   1.447   1.694  10.325 -0.2912  0.2663  0.1571
  559MPD2    C1 8290   1.355   1.640  10.409  0.1500 -0.0952 -0.1225
  559MPD2    C2 8291   1.396   1.615  10.536  0.1692  0.2708  0.0344
  559MPD2    C3 8292   1.524   1.653  10.586 -0.2892  0.0563  0.1317
  559MPD2    C4 8293   1.613   1.701  10.502 -0.6692 -0.5099 -0.8048
  559MPD2    C5 8294   1.573   1.727  10.376 -0.3659 -0.7897  0.8068
  559MPD2     H 8295   1.323   1.583  10.609 -0.4843  0.9918 -0.3061
  559MPD2    H1 8296   1.712   1.723  10.538 -0.0559 -0.9753 -2.1855
  559MPD2    H2 8297   1.416   1.717  10.223  2.1041  3.9364  0.2686
  559MPD2    H3 8298   1.644   1.772  10.307  0.0364 -1.1510  0.9844
  559MPD2     N 8299   1.549   1.641  10.721  0.2258 -0.2162 -0.3545
  559MPD2    H5 8300   1.473   1.610  10.781 -1.4315 -0.1415 -2.3815
  559MPD2    N1 8301   1.229   1.606  10.346 -0.3728 -0.9925 -0.2691
  559MPD2    H7 8302   1.221   1.643  10.252  1.2317  0.4364  0.1583
  560TMC3    C1 8303   1.659   1.619  10.925  0.3940  0.7076  0.1519
  560TMC3    C2 8304   1.577   1.516  10.966  0.4762 -0.1675 -0.7729
  560TMC3    C3 8305   1.572   1.477  11.096 -0.4735 -0.5444  0.1350
  560TMC3    C4 8306   1.742   1.675  11.016 -0.5001  0.3565  0.1026
  560TMC3    C5 8307   1.739   1.626  11.148  0.1361 -0.4054  0.0116
  560TMC3    C6 8308   1.655   1.525  11.185 -0.4516 -0.0185  0.9643
  560TMC3     C 8309   1.662   1.670  10.792 -0.0457 -0.2377  0.0115
  560TMC3     O 8310   1.760   1.731  10.761  0.0720  0.1569 -0.0191
  560TMC3     H 8311   1.509   1.474  10.892 -1.5876 -1.9444  2.1131
  560TMC3    H1 8312   1.795   1.765  10.990 -0.2871 -0.1531 -1.2141
  560TMC3    H2 8313   1.636   1.499  11.289  0.2908 -2.2418  0.5403
  560TMC3    C7 8314   1.821   1.686  11.250  0.2178 -0.4825 -0.5228
  560TMC3    C8 8315   1.526   1.339  11.119 -0.1449  0.2617  0.0398
  560TMC3    O1 8316   1.837   1.605  11.340 -0.2357  0.1592  0.0700
  560TMC3    O2 8317   1.514   1.277  11.015  0.5285 -0.0153  0.7556
  561TMC3    C1 8318   3.979   0.677  10.945  0.0577 -0.4166  0.1803
  561TMC3    C2 8319   3.869   0.596  10.958  0.3895 -0.1472  1.0057
  561TMC3    C3 8320   3.759   0.653  11.015  0.6012  0.6520  0.0096
  561TMC3    C4 8321   3.983   0.809  10.981 -0.4063  1.1160 -0.7840
  561TMC3    C5 8322   3.864   0.859  11.034  0.0421  0.9260  0.1303
  561TMC3    C6 8323   3.759   0.780  11.059 -0.4148  0.0589  0.1202
  561TMC3     C 8324   4.090   0.628  10.872  0.3527  0.3050  0.1170
  561TMC3     O 8325   4.066   0.577  10.760 -0.1724 -0.3884 -0.1626
  561TMC3     H 8326   3.866   0.511  10.891  1.8785  0.3774  0.2721
  561TMC3    H1 8327   4.069   0.870  10.957 -0.1819  0.7631 -0.8811
  561TMC3    H2 8328   3.674   0.820  11.113 -0.4973  1.1988 -0.8680
  561TMC3    C7 8329   3.836   1.001  11.039  0.4914 -0.1730 -0.7702
  561TMC3    C8 8330   3.666   0.556  11.072 -0.7905  0.5565  0.3828
  561TMC3    O1 8331   3.743   1.043  11.102 -0.5653  0.2051 -0.3096
  561TMC3    O2 8332   3.662   0.441  11.030  0.7577 -1.1155  0.2496
  562TMC3    C1 8333   1.066   1.713  16.063 -0.0772 -0.1253 -0.4602
  562TMC3    C2 8334   1.020   1.844  16.052 -0.5529  0.2692  0.4158
  562TMC3    C3 8335   0.965   1.884  15.931 -0.0905  0.4901  0.3905
  562TMC3    C4 8336   1.067   1.628  15.963  0.1926 -0.1675  0.8909
  562TMC3    C5 8337   1.030   1.683  15.842  0.4699  0.2117  0.1265
  562TMC3    C6 8338   0.964   1.800  15.826  0.1830  0.4682 -0.8119
  562TMC3     C 8339   1.154   1.684  16.177  0.5084 -0.6852 -0.1806
  562TMC3     O 8340   1.172   1.564  16.193  0.2696 -0.9793  0.2217
  562TMC3     H 8341   1.014   1.909  16.138  0.2393 -1.0636  1.4701
  562TMC3    H1 8342   1.113   1.530  15.964 -0.0343 -0.2912 -0.7533
  562TMC3    H2 8343   0.942   1.838  15.727  1.3405 -0.3350 -1.3743
  562TMC3    C7 8344   1.052   1.603  15.718 -0.4119 -0.3570 -0.3271
  562TMC3    C8 8345   0.881   2.007  15.937  0.0393  0.4471  0.6022
  562TMC3    O1 8346   0.964   1.605  15.633  0.2566  0.6009 -0.4971
  562TMC3    O2 8347   0.874   2.058  16.047  0.4112 -0.2371 -0.2013
  563MPD2     C 8348   3.256   2.980  15.359  0.6615  0.1801 -0.4173
  563MPD2    C1 8349   3.340   3.085  15.360  0.4885  0.0879  0.2114
  563MPD2    C2 8350   3.472   3.065  15.323 -0.1317 -0.3607 -0.2290
  563MPD2    C3 8351   3.521   2.940  15.302  0.3125  0.6013  0.3313
  563MPD2    C4 8352   3.430   2.829  15.305  0.2243  0.1273  0.6513
  563MPD2    C5 8353   3.297   2.852  15.324 -0.1694 -0.4889 -0.1766
  563MPD2     H 8354   3.537   3.152  15.328 -0.1481 -0.3619  0.0391
  563MPD2    H1 8355   3.467   2.728  15.303  2.5891  0.9446  3.3197
  563MPD2    H2 8356   3.149   2.994  15.375  0.9187  3.5889 -1.6498
  563MPD2    H3 8357   3.222   2.775  15.310  0.1895 -0.6415 -1.1910
  563MPD2     N 8358   3.659   2.925  15.279 -0.4426  0.2674 -0.3160
  563MPD2    H5 8359   3.707   3.013  15.267 -0.4893  0.3351 -0.0194
  563MPD2    N1 8360   3.295   3.218  15.397 -0.3318 -0.7095  0.7273
  563MPD2    H7 8361   3.195   3.235  15.407 -0.0932  0.8586  0.4293
  564TMC3    C1 8362   3.303   3.423  15.507  0.0107 -0.0691  0.0801
  564TMC3    C2 8363   3.172   3.407  15.529 -0.6033  0.2655  0.0484
  564TMC3    C3 8364   3.125   3.423  15.655  0.1868  0.3703 -0.0602
  564TMC3    C4 8365   3.385   3.465  15.610 -0.0530 -0.1149  0.0067
  564TMC3    C5 8366   3.339   3.456  15.737 -0.3090 -0.0565  0.0867
  564TMC3    C6 8367   3.205   3.440  15.759 -0.3746  0.7050 -0.6292
  564TMC3     C 8368   3.371   3.329  15.428 -0.3716 -0.1536 -0.3401
  564TMC3     O 8369   3.488   3.328  15.453 -0.4952 -0.7414  0.4126
  564TMC3     H 8370   3.102   3.389  15.448  0.0516  0.8364 -0.6546
  564TMC3    H1 8371   3.481   3.511  15.595  0.1762  0.6953  4.0546
  564TMC3    H2 8372   3.175   3.431  15.863  1.2991  0.3463 -0.1863
  564TMC3    C7 8373   3.413   3.363  15.815  0.5155  0.8467  0.0492
  564TMC3    C8 8374   3.016   3.331  15.678 -0.5850 -0.7093  0.5919
  564TMC3    O1 8375   3.412   3.385  15.936  0.2237 -0.4773 -0.2345
  564TMC3    O2 8376   3.026   3.279  15.790  0.3255 -0.6178  0.2377
  565TMC3    C1 8377   3.535   0.087  10.016 -0.1303  0.0355 -0.1357
  565TMC3    C2 8378   3.520   4.685  10.090 -0.0086  0.5498 -0.2135
  565TMC3    C3 8379   3.480   4.572  10.021 -0.4562  0.9246  0.3690
  565TMC3    C4 8380   3.513   0.094   9.880 -0.5538 -0.3108 -0.5544
  565TMC3    C5 8381   3.471   4.700   9.819  0.7636 -0.6644 -0.1232
  565TMC3    C6 8382   3.440   4.583   9.886 -0.3082 -0.6457 -0.6330
  565TMC3     C 8383   3.598   0.198  10.078  0.7859 -0.5734  0.0666
  565TMC3     O 8384   3.622   0.291  10.003 -0.1559  0.2726 -0.2611
  565TMC3     H 8385   3.529   4.673  10.197 -0.7240 -0.8928 -0.3047
  565TMC3    H1 8386   3.549   0.175   9.819 -0.3888 -0.1245 -0.2082
  565TMC3    H2 8387   3.445   4.493   9.826  4.3273 -0.5270 -0.3937
  565TMC3    C7 8388   3.431   4.714   9.680  0.2399  0.6701  0.4348
  565TMC3    C8 8389   3.481   4.439  10.077  0.2738 -0.5105 -0.2659
  565TMC3    O1 8390   3.468   0.092   9.620 -0.5316  0.8029 -0.0840
  565TMC3    O2 8391   3.537   4.431  10.186  0.5330  0.4362  0.3933
  566MPD2     C 8392   0.287   1.391  14.351 -0.2013  0.2578  0.1021
  566MPD2    C1 8393   0.297   1.489  14.258 -0.4692 -0.1547 -0.2336
  566MPD2    C2 8394   0.200   1.498  14.163 -0.3098 -0.4937  0.3249
  566MPD2    C3 8395   0.095   1.403  14.152  0.3214 -0.4220  0.1705
  566MPD2    C4 8396   0.082   1.305  14.246 -0.3204  0.5211  0.4275
  566MPD2    C5 8397   0.182   1.300  14.342  0.6705  0.1930  0.0640
  566MPD2     H 8398   0.207   1.574  14.086 -0.1366 -0.3271  0.5057
  566MPD2    H1 8399   0.008   1.226  14.250 -1.0295  1.2048  0.8448
  566MPD2    H2 8400   0.366   1.380  14.424  1.2773  0.1966 -1.4828
  566MPD2    H3 8401   0.175   1.232  14.426  0.5809 -0.5899 -0.5781
  566MPD2     N 8402   0.005   1.394  14.047  0.1484 -0.0617  0.4972
  566MPD2    H5 8403   4.661   1.314  14.049 -1.0187  0.8641  0.8480
  566MPD2    N1 8404   0.420   1.559  14.244 -0.3515 -0.1576 -0.2288
  566MPD2    H7 8405   0.481   1.541  14.323 -0.0329  0.3100 -0.3658
  567TMC3    C1 8406   0.588   1.679  14.154  0.0761 -0.0899 -0.0748
  567TMC3    C2 8407   0.624   1.789  14.076 -0.1046 -0.0069 -0.2220
  567TMC3    C3 8408   0.753   1.803  14.023 -0.5075 -0.2619 -0.0939
  567TMC3    C4 8409   0.684   1.598  14.203 -0.3006  0.2704  0.8373
  567TMC3    C5 8410   0.812   1.612  14.151  0.4355 -0.6832  0.4661
  567TMC3    C6 8411   0.849   1.707  14.056  0.3725 -0.6939  0.8648
  567TMC3     C 8412   0.457   1.633  14.135  0.3342  0.2691  0.2225
  567TMC3     O 8413   0.388   1.682  14.047  0.1749  0.2439  0.1334
  567TMC3     H 8414   0.545   1.851  14.037  3.0233  3.3249 -1.2599
  567TMC3    H1 8415   0.651   1.518  14.268 -0.1645 -1.6492 -1.4648
  567TMC3    H2 8416   0.949   1.703  14.014  0.4197 -2.1816  1.0976
  567TMC3    C7 8417   0.915   1.533  14.211 -0.4829 -0.5087  1.0863
  567TMC3    C8 8418   0.749   1.862  13.887 -0.1143  0.6723  0.1295
  567TMC3    O1 8419   1.033   1.568  14.212 -0.1557 -0.3912  0.5579
  567TMC3    O2 8420   0.636   1.884  13.838 -1.1545 -0.4931  0.2173
  568MPD2     C 8421   2.679   1.975  16.282 -0.5636 -0.1730  0.1158
  568MPD2    C1 8422   2.801   2.033  16.301 -0.8121  0.2879  1.0117
  568MPD2    C2 8423   2.835   2.145  16.228 -0.3379 -0.1732  0.9497
  568MPD2    C3 8424   2.748   2.210  16.135 -1.4355 -0.7504  0.2161
  568MPD2    C4 8425   2.618   2.166  16.135 -0.6174 -0.7467  0.4345
  568MPD2    C5 8426   2.590   2.052  16.213 -0.4401 -0.1673  0.7295
  568MPD2     H 8427   2.938   2.179  16.232 -1.0910  1.9713  2.1348
  568MPD2    H1 8428   2.535   2.206  16.077 -0.4111 -0.6313  0.2215
  568MPD2    H2 8429   2.651   1.881  16.328  1.4456  0.0508  1.7948
  568MPD2    H3 8430   2.495   1.999  16.216 -0.0132 -0.9814  0.0549
  568MPD2     N 8431   2.794   2.326  16.067 -0.0063  0.6953  0.3607
  568MPD2    H5 8432   2.893   2.348  16.066  0.4400 -1.3133  0.4528
  568MPD2    N1 8433   2.892   1.961  16.383  0.7387  0.3620 -0.2976
  568MPD2    H7 8434   2.854   1.902  16.457 -2.1668  0.9602 -1.3268
  569TMC3    C1 8435   2.792   2.525  15.945  0.0172 -0.0184 -0.1243
  569TMC3    C2 8436   2.871   2.581  16.038 -0.6836 -0.4337 -0.4503
  569TMC3    C3 8437   2.971   2.668  15.983  0.0682 -0.1787  0.3591
  569TMC3    C4 8438   2.809   2.539  15.806 -0.4191  0.4455 -0.0598
  569TMC3    C5 8439   2.900   2.623  15.755 -0.1645 -0.0329  0.1110
  569TMC3    C6 8440   2.979   2.695  15.845  0.3535  0.1187 -0.5919
  569TMC3     C 8441   2.716   2.414  15.997 -0.8066 -0.1482  0.2621
  569TMC3     O 8442   2.602   2.404  15.952 -0.2608 -0.5512 -0.0258
  569TMC3     H 8443   2.854   2.571  16.145  1.6985  0.3884  0.0177
  569TMC3    H1 8444   2.732   2.502  15.739  2.7115  0.3712 -3.5730
  569TMC3    H2 8445   3.070   2.747  15.815  0.0053  1.0622 -0.0198
  569TMC3    C7 8446   2.858   2.710  15.650  0.4811 -0.9137  0.3247
  569TMC3    C8 8447   3.007   2.793  16.049  0.2814 -0.5516 -0.4937
  569TMC3    O1 8448   2.793   2.661  15.561 -0.0503 -0.7188 -0.2139
  569TMC3    O2 8449   2.995   2.892  15.977  0.2027  0.3295  0.4666
  570TMC3    C1 8450   2.216   0.854  16.103 -0.3343  0.7931  0.4077
  570TMC3    C2 8451   2.289   0.889  15.989 -0.0636 -0.0054 -0.1343
  570TMC3    C3 8452   2.255   1.006  15.924  0.6388  0.0033 -0.1197
  570TMC3    C4 8453   2.104   0.934  16.139  0.2178 -0.9326  0.3817
  570TMC3    C5 8454   2.076   1.044  16.066 -0.1131 -0.3696 -0.4478
  570TMC3    C6 8455   2.139   1.074  15.945 -0.5954  0.3193  0.5515
  570TMC3     C 8456   2.238   0.730  16.165  0.2347 -0.2487 -0.1671
  570TMC3     O 8457   2.268   0.635  16.097  0.0988 -0.4289 -0.2194
  570TMC3     H 8458   2.376   0.834  15.957 -1.1584 -0.5928 -2.1391
  570TMC3    H1 8459   2.048   0.904  16.226 -1.1538  0.5063 -0.0164
  570TMC3    H2 8460   2.109   1.159  15.885 -0.5466  1.0135  1.5073
  570TMC3    C7 8461   2.033   1.161  16.147 -0.7223 -0.6282 -0.4989
  570TMC3    C8 8462   2.327   1.059  15.803 -0.1122  0.3246 -0.3793
  570TMC3    O1 8463   2.077   1.171  16.259 -0.4615  0.3552  0.3557
  570TMC3    O2 8464   2.271   1.152  15.740 -0.6299 -0.1307  0.1758
  571MPD2     C 8465   0.526   2.534  17.165  0.3765 -0.8537 -0.0654
  571MPD2    C1 8466   0.396   2.491  17.169 -0.1914  0.3212  0.0021
  571MPD2    C2 8467   0.325   2.496  17.289 -0.2089 -0.2110 -0.2270
  571MPD2    C3 8468   0.384   2.555  17.397 -0.6746  0.4048  0.1737
  571MPD2    C4 8469   0.518   2.588  17.391  0.5471 -0.2593 -0.2854
  571MPD2    C5 8470   0.589   2.582  17.274 -0.4336  0.5241 -0.2027
  571MPD2     H 8471   0.222   2.466  17.281 -0.8080  2.3960 -2.4685
  571MPD2    H1 8472   0.576   2.624  17.475  0.4901 -0.9236  0.0325
  571MPD2    H2 8473   0.580   2.540  17.071 -1.1000  0.7312 -0.8050
  571MPD2    H3 8474   0.685   2.632  17.272 -0.7686  1.2783  1.8143
  571MPD2     N 8475   0.320   2.565  17.521  0.3017 -0.3153  0.5191
  571MPD2    H5 8476   0.370   2.627  17.584  0.2124 -0.5809  0.8493
  571MPD2    N1 8477   0.354   2.436  17.046 -0.0686 -0.3201  0.1764
  571MPD2    H7 8478   0.420   2.429  16.970 -0.6868 -0.4722 -0.3416
  572TMC3    C1 8479   0.176   2.532   0.019  0.1816 -0.2174 -0.6037
  572TMC3    C2 8480   0.094   2.434   0.066  0.4697 -0.0144  0.8964
  572TMC3    C3 8481   4.716   2.468   0.158  0.1428  0.2208  0.1864
  572TMC3    C4 8482   0.148   2.664   0.038 -0.0708 -0.6179 -0.3684
  572TMC3    C5 8483   0.050   2.694   0.133 -0.4021 -0.2584 -0.1019
  572TMC3    C6 8484   4.678   2.600   0.176 -0.3806  0.0961  0.1478
  572TMC3     C 8485   0.218   2.491  17.569 -0.5776 -0.5789 -0.2814
  572TMC3     O 8486   0.153   2.405  17.515 -0.5552  0.1815  0.7105
  572TMC3     H 8487   0.119   2.329   0.050 -2.5910 -0.6579  0.4589
  572TMC3    H1 8488   0.190   2.742  17.656  0.8392  0.5438  1.6977
  572TMC3    H2 8489   4.600   2.632   0.245  0.2482  1.4610  0.2272
  572TMC3    C7 8490   0.003   2.825   0.146  0.2402  0.3811 -0.0203
  572TMC3    C8 8491   4.641   2.354   0.211 -0.3222  0.3684  0.5847
  572TMC3    O1 8492   4.643   2.864   0.067 -0.2147  0.2976  0.1764
  572TMC3    O2 8493   4.665   2.237   0.174 -0.1660  0.0180  0.3286
  573MPD2     C 8494   1.630   2.512   0.223 -0.5440  0.0370 -0.4150
  573MPD2    C1 8495   1.661   2.635   0.176 -0.1679  0.4272  0.4730
  573MPD2    C2 8496   1.670   2.654   0.042  0.0178  0.2069 -0.1554
  573MPD2    C3 8497   1.638   2.555  17.637 -0.0079 -0.2197 -0.0325
  573MPD2    C4 8498   1.595   2.429   0.007 -0.3708 -0.4347  0.4246
  573MPD2    C5 8499   1.596   2.408   0.141 -0.0757  0.5994  0.2522
  573MPD2     H 8500   1.700   2.749   0.001  0.5881  0.3956  0.7119
  573MPD2    H1 8501   1.562   2.354  17.617 -4.0826  0.1162  1.5825
  573MPD2    H2 8502   1.624   2.496   0.330  0.6843 -0.8456 -0.4828
  573MPD2    H3 8503   1.559   2.315   0.181 -0.4273  1.3093  1.5796
  573MPD2     N 8504   1.629   2.575  17.494 -0.6014  0.1404 -0.5735
  573MPD2    H5 8505   1.592   2.500  17.437 -0.6756 -0.2643  0.0109
  573MPD2    N1 8506   1.697   2.727   0.274  0.2792 -0.1218  0.0614
  573MPD2    H7 8507   1.665   2.699   0.366 -1.5827 -0.7360 -0.7776
  574TMC3    C1 8508   1.632   2.691  17.288  1.0638  0.2068  0.3986
  574TMC3    C2 8509   1.496   2.664  17.261  0.6111 -0.4806  0.0419
  574TMC3    C3 8510   1.408   2.749  17.196 -0.2010 -0.4976 -0.7611
  574TMC3    C4 8511   1.687   2.803  17.235 -0.1497 -0.0020 -0.1336
  574TMC3    C5 8512   1.600   2.885  17.167 -0.6204  0.8056 -0.2230
  574TMC3    C6 8513   1.462   2.865  17.150 -0.1532 -0.5314  0.0437
  574TMC3     C 8514   1.684   2.677  17.422  0.1331 -0.3374 -0.1528
  574TMC3     O 8515   1.753   2.767  17.463  0.0360  0.0523  0.0019
  574TMC3     H 8516   1.444   2.579  17.303 -0.0367  0.3749  0.9617
  574TMC3    H1 8517   1.794   2.821  17.240 -0.3500  0.6491  1.9874
  574TMC3    H2 8518   1.394   2.924  17.089 -0.9637 -0.2505  1.2191
  574TMC3    C7 8519   1.658   3.016  17.126 -0.1784  0.1819  0.0835
  574TMC3    C8 8520   1.261   2.748  17.219 -0.5907 -0.0871  0.5356
  574TMC3    O1 8521   1.783   3.025  17.119  0.2247  0.0481  0.1241
  574TMC3    O2 8522   1.204   2.639  17.200 -1.1303 -0.0244 -0.1114
  575TMC3    C1 8523   3.803   3.893  10.688  0.2158 -0.1328  0.3094
  575TMC3    C2 8524   3.792   3.754  10.677 -0.1023  0.2348  0.4588
  575TMC3    C3 8525   3.743   3.701  10.557 -0.0876 -0.0672 -0.0970
  575TMC3    C4 8526   3.734   3.974  10.599 -0.3885  0.5264  0.6180
  575TMC3    C5 8527   3.660   3.915  10.492 -0.1608 -0.4854  0.2012
  575TMC3    C6 8528   3.669   3.781  10.469  0.1404  0.2980  0.4486
  575TMC3     C 8529   3.836   3.955  10.817 -0.5857  0.2721  0.4033
  575TMC3     O 8530   3.835   3.889  10.922 -0.0651 -0.5037 -0.1025
  575TMC3     H 8531   3.833   3.697  10.759 -1.8212 -1.5982  0.0731
  575TMC3    H1 8532   3.726   4.080  10.615  1.1783  0.3751  2.3837
  575TMC3    H2 8533   3.637   3.738  10.375 -1.1794 -1.8168  1.8682
  575TMC3    C7 8534   3.594   4.005  10.397  0.3803 -0.2069 -0.3046
  575TMC3    C8 8535   3.696   3.562  10.546  0.6742  0.3601 -0.2598
  575TMC3    O1 8536   3.603   4.122  10.424 -0.7020  0.1841 -0.0150
  575TMC3    O2 8537   3.593   3.532  10.490 -0.9320  0.2317 -0.6601
  576MPD2     C 8538   2.789   0.923  12.210 -0.1347 -0.4231  0.5915
  576MPD2    C1 8539   2.775   0.982  12.086 -1.0433  0.2398 -0.1581
  576MPD2    C2 8540   2.688   1.087  12.084  0.1457 -0.3377  0.1956
  576MPD2    C3 8541   2.645   1.149  12.197 -0.2054  0.1516  0.8552
  576MPD2    C4 8542   2.663   1.088  12.322  0.4552 -0.6998  0.0139
  576MPD2    C5 8543   2.734   0.974  12.328 -0.2155 -0.1312 -0.1231
  576MPD2     H 8544   2.675   1.141  11.991 -0.4997 -0.2778  0.3194
  576MPD2    H1 8545   2.613   1.126  12.410  1.1582 -1.2422  0.6448
  576MPD2    H2 8546   2.842   0.829  12.226 -1.6976 -0.9340  2.7767
  576MPD2    H3 8547   2.744   0.918  12.420 -0.5008  0.5843  0.3484
  576MPD2     N 8548   2.581   1.273  12.189  0.3336  0.6591 -0.1550
  576MPD2    H5 8549   2.556   1.301  12.094  2.4936 -0.7130 -1.1363
  576MPD2    N1 8550   2.858   0.946  11.978 -0.3885 -0.3882  0.3766
  576MPD2    H7 8551   2.842   0.999  11.894  1.2059 -0.8884 -0.2392
  577TMC3    C1 8552   3.028   0.840  11.852 -0.4354 -0.1334  0.5950
  577TMC3    C2 8553   3.091   0.725  11.817  0.2864 -0.3653  0.1357
  577TMC3    C3 8554   3.181   0.735  11.710 -0.2068 -0.6511 -0.0262
  577TMC3    C4 8555   3.057   0.963  11.794  0.1311 -0.0279 -0.0418
  577TMC3    C5 8556   3.158   0.966  11.699  0.3663 -0.5539  0.0555
  577TMC3    C6 8557   3.226   0.857  11.663 -0.1203  0.2028 -0.5398
  577TMC3     C 8558   2.946   0.841  11.974 -0.0349  0.4816 -0.3607
  577TMC3     O 8559   2.969   0.745  12.050  0.6081  0.6441  0.7807
  577TMC3     H 8560   3.059   0.626  11.848 -2.0530  0.9132  1.7734
  577TMC3    H1 8561   3.013   1.056  11.829 -0.4996 -0.1869 -0.4110
  577TMC3    H2 8562   3.291   0.867  11.577  0.0410 -1.3984 -0.5975
  577TMC3    C7 8563   3.212   1.099  11.667 -0.0785 -0.2787  0.5713
  577TMC3    C8 8564   3.200   0.621  11.625 -0.3995  0.2379 -0.4435
  577TMC3    O1 8565   3.334   1.122  11.670  0.4593  0.7556 -0.2865
  577TMC3    O2 8566   3.133   0.518  11.642  0.0179  0.5671 -0.0873
  578MPD2     C 8567   1.704   0.895   1.415 -0.0766 -0.0428 -0.6577
  578MPD2    C1 8568   1.681   0.877   1.285 -0.3415 -0.3382 -0.1463
  578MPD2    C2 8569   1.781   0.915   1.193 -0.2460 -0.0974  0.1197
  578MPD2    C3 8570   1.900   0.962   1.240 -0.1981 -0.0077 -0.1639
  578MPD2    C4 8571   1.921   0.958   1.377 -0.7753  0.4277  0.0518
  578MPD2    C5 8572   1.823   0.916   1.464  1.1972 -0.3080 -0.1420
  578MPD2     H 8573   1.761   0.909   1.086 -0.0440 -1.2199  0.1357
  578MPD2    H1 8574   2.017   0.978   1.423 -1.1558 -0.9426  1.4463
  578MPD2    H2 8575   1.622   0.891   1.486 -0.4920 -1.5549 -1.2199
  578MPD2    H3 8576   1.850   0.922   1.569  2.1418  0.2954 -0.4156
  578MPD2     N 8577   1.998   1.002   1.151  0.4945 -0.0047  0.4061
  578MPD2    H5 8578   1.973   0.981   1.055  1.5348  0.7559 -0.0422
  578MPD2    N1 8579   1.540   0.869   1.250  0.5605  0.4250 -0.6766
  578MPD2    H7 8580   1.478   0.849   1.327 -1.2410  0.8513 -2.0185
  579TMC3    C1 8581   2.221   1.076   1.085  0.4879 -0.4401 -0.0231
  579TMC3    C2 8582   2.325   1.170   1.098 -0.0283 -0.7343  0.1048
  579TMC3    C3 8583   2.414   1.170   0.993 -0.2761 -0.2619  0.5826
  579TMC3    C4 8584   2.225   0.981   0.983  0.6183  0.6737 -0.2794
  579TMC3    C5 8585   2.321   0.987   0.884  0.3374  0.3716 -0.0366
  579TMC3    C6 8586   2.412   1.080   0.890  0.6170 -0.5393 -0.3386
  579TMC3     C 8587   2.115   1.073   1.181  0.0589 -0.5733 -0.5975
  579TMC3     O 8588   2.147   1.123   1.288 -0.0771  0.4200 -0.1955
  579TMC3     H 8589   2.329   1.248   1.173  2.0287  0.1233 -0.9052
  579TMC3    H1 8590   2.180   0.884   1.000  1.1216  0.5379  0.2855
  579TMC3    H2 8591   2.477   1.100   0.806  1.5879  0.7226  0.7263
  579TMC3    C7 8592   2.352   0.874   0.795  0.0244 -0.4026  0.3010
  579TMC3    C8 8593   2.515   1.275   0.995 -0.0256 -0.6286  0.2233
  579TMC3    O1 8594   2.455   0.888   0.726  0.1321  0.1375  0.1356
  579TMC3    O2 8595   2.473   1.377   1.045 -0.0437  0.0391 -0.3852
  580TMC3    C1 8596   0.796   4.663  11.565  0.4613  0.3601 -0.2772
  580TMC3    C2 8597   0.834   4.587  11.456  0.1123  0.1296  0.0633
  580TMC3    C3 8598   0.882   4.463  11.481 -0.3234  0.2719 -0.2001
  580TMC3    C4 8599   0.782   4.602  11.684  0.8348 -0.5956 -0.2215
  580TMC3    C5 8600   0.816   4.473  11.705 -0.0396 -0.3854  0.1346
  580TMC3    C6 8601   0.874   4.405  11.608 -0.1591 -0.2475 -0.1490
  580TMC3     C 8602   0.864   0.069  11.574  0.0227  0.2025 -0.6270
  580TMC3     O 8603   0.872   0.142  11.476 -0.5601  0.0020 -0.4902
  580TMC3     H 8604   0.862   4.630  11.360  2.1611  0.4366  0.7996
  580TMC3    H1 8605   0.738   4.654  11.769 -1.2954 -2.6135 -0.0905
  580TMC3    H2 8606   0.932   4.314  11.616 -0.0244 -0.1901 -0.4561
  580TMC3    C7 8607   0.842   4.435  11.842  0.2336 -0.5224  0.6438
  580TMC3    C8 8608   1.018   4.461  11.417  0.0462  0.1695  0.3150
  580TMC3    O1 8609   0.869   4.524  11.923  0.6886  0.6186  0.8958
  580TMC3    O2 8610   1.020   4.429  11.300 -0.3215 -0.0408 -0.0541
  581MPD2     C 8611   4.486   0.159  15.065 -0.1712  0.9959 -0.3798
  581MPD2    C1 8612   4.446   0.062  14.979 -0.0280 -0.5412 -0.6832
  581MPD2    C2 8613   4.320   0.063  14.923 -0.3320 -0.4273  0.1791
  581MPD2    C3 8614   4.226   0.163  14.952 -0.2765  0.3111 -0.5596
  581MPD2    C4 8615   4.270   0.262  15.041 -0.1596  0.4049  0.9337
  581MPD2    C5 8616   4.400   0.261  15.092 -0.6822  0.0711 -0.3997
  581MPD2     H 8617   4.285   4.695  14.870 -0.3844 -1.5595  2.0923
  581MPD2    H1 8618   4.218   0.354  15.064  0.2278  0.8025  0.2279
  581MPD2    H2 8619   4.585   0.147  15.109  0.6026  0.0936 -2.3583
  581MPD2    H3 8620   4.419   0.334  15.169 -2.2212  1.7500 -1.6260
  581MPD2     N 8621   4.101   0.149  14.886  0.0118  0.0446 -0.5052
  581MPD2    H5 8622   4.093   0.068  14.826 -0.8517 -0.1679 -0.1001
  581MPD2    N1 8623   4.525   4.668  14.971  0.0137 -0.2371  0.2619
  581MPD2    H7 8624   4.597   4.675  15.042  1.6607  2.2353 -1.6267
  582TMC3    C1 8625   4.597   4.444  14.924 -0.3301  0.3185 -0.1390
  582TMC3    C2 8626   4.644   4.446  15.049  0.2488  0.6900  0.0672
  582TMC3    C3 8627   4.668   4.324  15.106  0.0851 -0.3112  0.1682
  582TMC3    C4 8628   4.563   4.325  14.861 -0.2679 -0.1457 -0.4304
  582TMC3    C5 8629   4.582   4.207  14.924  0.6056 -0.3451  0.1004
  582TMC3    C6 8630   4.638   4.204  15.047 -0.1806 -0.1402 -0.5703
  582TMC3     C 8631   4.517   4.558  14.892  0.4448  0.1666 -0.1106
  582TMC3     O 8632   4.434   4.558  14.802 -0.0394  0.2769 -0.3089
  582TMC3     H 8633   4.688   4.536  15.091  2.1661 -0.3424  0.2938
  582TMC3    H1 8634   4.517   4.317  14.763 -1.0170 -1.1740 -0.0010
  582TMC3    H2 8635   4.654   4.109  15.096 -0.1174 -0.6716 -1.6105
  582TMC3    C7 8636   4.508   4.097  14.872  0.0838  0.0156 -0.3983
  582TMC3    C8 8637   4.682   4.338  15.253 -0.8673  0.0056  0.2002
  582TMC3    O1 8638   4.471   4.108  14.757  0.0213  0.1423 -0.1356
  582TMC3    O2 8639   4.669   4.446  15.300  0.3380 -0.1037  0.3961
  583MPD2     C 8640   4.108   1.184  16.450  0.1664 -0.8226  0.3179
  583MPD2    C1 8641   4.080   1.320  16.453  0.1784  0.2074  0.0432
  583MPD2    C2 8642   4.052   1.380  16.575  0.2881  0.4349  0.3157
  583MPD2    C3 8643   4.068   1.317  16.690  0.7408  0.5255  0.1434
  583MPD2    C4 8644   4.102   1.185  16.689 -0.6794 -0.5693 -0.4021
  583MPD2    C5 8645   4.115   1.118  16.570  0.0503  0.2690  0.2128
  583MPD2     H 8646   4.038   1.488  16.580  1.1173  0.6304 -1.5432
  583MPD2    H1 8647   4.109   1.123  16.778  1.0232 -0.7053 -0.6195
  583MPD2    H2 8648   4.125   1.135  16.356 -1.8908 -1.1345  0.1082
  583MPD2    H3 8649   4.126   1.010  16.574 -0.5981  0.2467  1.5934
  583MPD2     N 8650   4.035   1.397  16.800 -0.2947 -0.2399 -0.1551
  583MPD2    H5 8651   4.004   1.489  16.769  0.4555  0.6103  1.6363
  583MPD2    N1 8652   4.076   1.411  16.342 -0.1542 -0.0615 -0.1034
  583MPD2    H7 8653   4.062   1.511  16.352  0.6770  0.2892 -2.2648
  584TMC3    C1 8654   4.025   1.490  17.018  0.4962 -0.6462  0.3680
  584TMC3    C2 8655   4.078   1.605  16.975  0.6326 -0.1302  0.5309
  584TMC3    C3 8656   4.080   1.712  17.061  0.6825  0.1911  0.1707
  584TMC3    C4 8657   3.976   1.472  17.143  0.0232  0.9959 -0.0548
  584TMC3    C5 8658   3.971   1.582  17.218 -0.3092  0.0055 -0.5262
  584TMC3    C6 8659   4.005   1.710  17.173 -0.4882  0.3965  0.2378
  584TMC3     C 8660   4.038   1.369  16.932  0.6548  0.1894  0.4440
  584TMC3     O 8661   4.070   1.266  16.990 -0.2909  0.2596  0.5199
  584TMC3     H 8662   4.135   1.603  16.882 -0.5873 -1.1603 -0.2060
  584TMC3    H1 8663   3.952   1.372  17.178 -2.2071  1.4931 -0.1764
  584TMC3    H2 8664   4.007   1.797  17.238  0.3190 -1.1341  2.2548
  584TMC3    C7 8665   3.921   1.560  17.349  0.6671  0.4221  0.6521
  584TMC3    C8 8666   4.102   1.851  17.006 -0.3149 -0.0225  0.4567
  584TMC3    O1 8667   3.968   1.455  17.395  0.1548  0.7689 -0.9386
  584TMC3    O2 8668   4.104   1.863  16.886 -0.5363 -0.4941 -0.5782
  585MPD2     C 8669   3.163   0.911  17.050  0.3837  0.3193 -0.2278
  585MPD2    C1 8670   3.276   0.852  17.077  0.0067 -0.2629 -0.3056
  585MPD2    C2 8671   3.289   0.715  17.065 -0.0516  0.6201 -0.1711
  585MPD2    C3 8672   3.187   0.639  17.010  0.0877 -0.1071  0.1931
  585MPD2    C4 8673   3.077   0.712  16.972 -0.7083  0.8116 -0.4026
  585MPD2    C5 8674   3.062   0.846  16.995  0.7084 -0.1651  0.3882
  585MPD2     H 8675   3.377   0.668  17.108 -0.1315  1.5811  1.0564
  585MPD2    H1 8676   2.979   0.675  16.944 -0.2943 -1.3704  1.0388
  585MPD2    H2 8677   3.151   1.018  17.057 -1.4014 -0.0242  1.7123
  585MPD2    H3 8678   2.974   0.899  16.962 -0.4296 -1.5715  1.1601
  585MPD2     N 8679   3.188   0.499  17.023 -0.1020  0.2249 -0.4081
  585MPD2    H5 8680   3.102   0.453  16.996 -0.0231  1.4491 -2.7028
  585MPD2    N1 8681   3.367   0.943  17.137  0.1300  0.3701 -0.3452
  585MPD2    H7 8682   3.345   1.041  17.123  1.9971  1.1116  1.7972
  586TMC3    C1 8683   3.258   0.280  17.036  1.0381  0.2939 -0.1999
  586TMC3    C2 8684   3.348   0.187  17.010  0.0891 -0.1929  0.0088
  586TMC3    C3 8685   3.316   0.059  17.031  0.1684  0.6885 -0.3168
  586TMC3    C4 8686   3.127   0.254  17.072 -0.3987 -0.3209 -0.4104
  586TMC3    C5 8687   3.099   0.117  17.076  0.7556  0.5759  0.0517
  586TMC3    C6 8688   3.188   0.017  17.057 -0.1503  0.7740 -0.7140
  586TMC3     C 8689   3.296   0.420  17.035 -0.7847  0.0334  0.1955
  586TMC3     O 8690   3.415   0.448  17.026  0.0555  0.1691 -0.0573
  586TMC3     H 8691   3.448   0.217  16.982 -0.6789  0.8134 -1.6218
  586TMC3    H1 8692   3.045   0.322  17.089  0.5910  0.6032  0.6297
  586TMC3    H2 8693   3.153   4.638  17.085 -1.4068  1.2853 -0.5052
  586TMC3    C7 8694   2.964   0.086  17.122 -0.2762 -0.0216 -0.5079
  586TMC3    C8 8695   3.421   4.679  17.043  0.1663 -0.5080 -0.1598
  586TMC3    O1 8696   2.923   4.694  17.086  0.1051  0.1550  0.2097
  586TMC3    O2 8697   3.511   4.705  17.121  0.4272 -0.4351  0.0815
  587TMC3    C1 8698   1.212   3.865  16.827 -0.8269 -0.8840  0.6893
  587TMC3    C2 8699   1.192   3.982  16.760 -0.7839 -1.3625  0.5779
  587TMC3    C3 8700   1.296   4.050  16.703  0.0429 -0.5933  0.0137
  587TMC3    C4 8701   1.338   3.824  16.854 -0.1239 -0.6477 -0.0738
  587TMC3    C5 8702   1.439   3.884  16.790  0.4853 -0.2311 -0.0570
  587TMC3    C6 8703   1.419   3.998  16.716  0.1802 -0.1049  0.2176
  587TMC3     C 8704   1.104   3.797  16.895  0.1141  0.4671  0.4961
  587TMC3     O 8705   1.147   3.738  16.994  0.0673 -0.1107  0.7367
  587TMC3     H 8706   1.092   4.025  16.760 -0.5078 -0.7237 -1.0293
  587TMC3    H1 8707   1.348   3.730  16.908 -0.5148 -0.6712 -0.0473
  587TMC3    H2 8708   1.499   4.047  16.661 -1.0746  0.8185 -0.7856
  587TMC3    C7 8709   1.575   3.842  16.835  0.3031  0.4068  0.0273
  587TMC3    C8 8710   1.271   4.154  16.605  0.9588 -0.2713 -0.2654
  587TMC3    O1 8711   1.577   3.774  16.937  0.2548  0.0968 -0.3809
  587TMC3    O2 8712   1.371   4.207  16.552  0.5447  0.1836 -0.0934
  588TMC3    C1 8713   3.152   2.192   9.685  0.4002 -0.0760  0.1204
  588TMC3    C2 8714   3.140   2.055   9.674 -0.1362 -0.7926 -0.1292
  588TMC3    C3 8715   3.111   1.989   9.785 -0.2351  0.8189 -0.6215
  588TMC3    C4 8716   3.163   2.257   9.808  0.3416 -0.4089 -0.1670
  588TMC3    C5 8717   3.131   2.187   9.918  0.3049 -0.9400 -0.3863
  588TMC3    C6 8718   3.107   2.052   9.907  0.4371  0.8049  0.0073
  588TMC3     C 8719   3.077   2.269   9.579 -0.7348 -0.1038  0.2134
  588TMC3     O 8720   3.030   2.205   9.485  0.0046  0.1045  0.1762
  588TMC3     H 8721   3.126   2.017   9.574  1.0006  0.1867 -0.6539
  588TMC3    H1 8722   3.188   2.362   9.806  1.2563 -0.6193  0.5165
  588TMC3    H2 8723   3.064   2.010   9.998 -2.3087  1.4021 -1.0132
  588TMC3    C7 8724   3.093   2.258  10.042 -0.3770 -0.4141  0.2979
  588TMC3    C8 8725   3.060   1.858   9.770  0.7672 -0.8267 -0.3181
  588TMC3    O1 8726   3.089   2.197  10.147 -0.5381  0.0135 -0.1674
  588TMC3    O2 8727   3.058   1.815   9.657 -0.4640 -0.0704  0.0600
  589TMC3    C1 8728   2.392   3.681   1.245  0.5322 -0.1833 -0.1610
  589TMC3    C2 8729   2.440   3.706   1.374  0.2870 -0.7411  0.4431
  589TMC3    C3 8730   2.531   3.620   1.427  0.2742  0.5526  0.3127
  589TMC3    C4 8731   2.433   3.571   1.175 -0.2319  0.0084 -0.5559
  589TMC3    C5 8732   2.518   3.482   1.238  0.0468 -0.0396 -0.6486
  589TMC3    C6 8733   2.581   3.506   1.356  0.6373  0.2445 -0.0614
  589TMC3     C 8734   2.289   3.769   1.185 -0.4841  0.1146  0.3690
  589TMC3     O 8735   2.235   3.729   1.083  0.1702  0.6401  0.3877
  589TMC3     H 8736   2.402   3.783   1.440  0.0525 -1.4366  1.1252
  589TMC3    H1 8737   2.388   3.539   1.082 -2.0878  0.4284  0.1796
  589TMC3    H2 8738   2.644   3.434   1.406  1.6403  0.5965 -0.8218
  589TMC3    C7 8739   2.562   3.368   1.157  0.6777 -0.5871  0.4832
  589TMC3    C8 8740   2.601   3.651   1.549  0.0356 -0.8563 -0.6157
  589TMC3    O1 8741   2.512   3.364   1.044 -0.2744 -0.3869 -0.5993
  589TMC3    O2 8742   2.528   3.716   1.630 -0.1715  0.4578 -0.2414
  590MPD2     C 8743   1.866   2.519  16.401 -0.5346  0.2365 -0.4850
  590MPD2    C1 8744   1.846   2.655  16.376  0.0378  0.4955 -0.0880
  590MPD2    C2 8745   1.964   2.738  16.351  0.1080 -0.2107 -0.1909
  590MPD2    C3 8746   2.079   2.672  16.319  0.3891  0.3175  0.0613
  590MPD2    C4 8747   2.090   2.530  16.323  0.4645  0.1783  0.2602
  590MPD2    C5 8748   1.983   2.454  16.371 -0.6061 -0.4815  0.3053
  590MPD2     H 8749   1.950   2.844  16.334 -0.7156 -0.4177 -0.8247
  590MPD2    H1 8750   2.185   2.480  16.302  0.2160 -0.5924  0.9885
  590MPD2    H2 8751   1.782   2.459  16.432  1.7100 -3.5367 -1.7474
  590MPD2    H3 8752   1.989   2.346  16.366 -1.8271 -0.5987  1.4236
  590MPD2     N 8753   2.186   2.749  16.265  0.6207  0.4338 -0.3518
  590MPD2    H5 8754   2.165   2.847  16.281  0.7895  0.3018  0.6615
  590MPD2    N1 8755   1.713   2.698  16.379  0.1613  0.2595  0.2917
  590MPD2    H7 8756   1.643   2.626  16.393  1.9434 -1.8915 -1.8369
  591TMC3    C1 8757   2.367   2.814  16.120 -0.1205 -0.4269 -0.3032
  591TMC3    C2 8758   2.432   2.761  16.012  0.2411  0.0895 -0.4486
  591TMC3    C3 8759   2.437   2.836  15.902 -0.5790 -0.2459 -0.0678
  591TMC3    C4 8760   2.320   2.938  16.121  0.1277  1.3816 -0.5624
  591TMC3    C5 8761   2.322   3.015  16.013  0.4165 -0.2763 -0.0735
  591TMC3    C6 8762   2.371   2.958  15.896  0.1813  0.9220 -0.3168
  591TMC3     C 8763   2.304   2.706  16.197  0.4351 -0.1055 -0.7095
  591TMC3     O 8764   2.332   2.589  16.176 -0.0248 -0.4666 -0.4399
  591TMC3     H 8765   2.469   2.659  16.008 -1.6360 -0.5753 -0.9472
  591TMC3    H1 8766   2.294   2.985  16.216 -1.0188  0.4720 -0.4202
  591TMC3    H2 8767   2.371   3.017  15.805  0.4841  1.6098  0.1277
  591TMC3    C7 8768   2.204   3.097  15.995  0.2598  0.2202  0.6815
  591TMC3    C8 8769   2.455   2.756  15.778 -0.3884 -0.2181 -0.9465
  591TMC3    O1 8770   2.104   3.062  16.049  0.0127 -0.2874 -0.7328
  591TMC3    O2 8771   2.404   2.645  15.789  0.3974  0.4590 -0.4666
  592MPD2     C 8772   2.166   4.650  11.267  0.0468 -0.0680 -0.2948
  592MPD2    C1 8773   2.160   4.667  11.405  1.1505 -0.0762 -0.2542
  592MPD2    C2 8774   2.105   4.573  11.488  0.0414  1.4441  1.0658
  592MPD2    C3 8775   2.053   4.452  11.430  0.8242 -0.2383  0.2993
  592MPD2    C4 8776   2.064   4.428  11.293  0.5079 -0.4130 -0.5376
  592MPD2    C5 8777   2.114   4.535  11.214 -0.3983 -0.5762 -0.4607
  592MPD2     H 8778   2.102   4.581  11.596  1.9730 -0.9721  1.3013
  592MPD2    H1 8779   2.036   4.332  11.253 -0.0267 -0.4503 -0.0728
  592MPD2    H2 8780   2.218   4.713  11.196  0.1755  0.1131 -0.0412
  592MPD2    H3 8781   2.130   4.520  11.107  0.3958 -2.2365 -0.1178
  592MPD2     N 8782   2.012   4.353  11.525 -0.0200  0.2630  0.1265
  592MPD2    H5 8783   2.033   4.371  11.623 -1.8083  1.4696  0.2887
  592MPD2    N1 8784   2.243   0.054  11.454  0.5481 -0.4057  0.0546
  592MPD2    H7 8785   2.282   0.111  11.381  1.8628  1.5930  2.3111
  593TMC3    C1 8786   2.366   0.174  11.618 -0.3778 -0.1683 -0.4944
  593TMC3    C2 8787   2.378   0.213  11.751  0.1161 -1.0552  0.6603
  593TMC3    C3 8788   2.496   0.268  11.800 -0.5852  0.5105 -0.7549
  593TMC3    C4 8789   2.478   0.184  11.537 -0.6336 -0.0568  0.0393
  593TMC3    C5 8790   2.589   0.247  11.587  0.0727 -0.2318 -0.1946
  593TMC3    C6 8791   2.608   0.275  11.722  0.3696  0.0591 -0.3596
  593TMC3     C 8792   2.260   0.079  11.592  0.4281 -0.2701  0.2652
  593TMC3     O 8793   2.184   0.050  11.686 -0.1069 -0.2094 -0.2718
  593TMC3     H 8794   2.294   0.208  11.820 -1.0730 -1.2495 -0.8091
  593TMC3    H1 8795   2.476   0.151  11.433 -2.2517 -0.2864  0.1389
  593TMC3    H2 8796   2.708   0.310  11.744  0.6402  0.4183 -2.2240
  593TMC3    C7 8797   2.653   0.327  11.493  0.1390 -0.1422 -0.0753
  593TMC3    C8 8798   2.527   0.265  11.943  0.5769  0.3520 -0.3007
  593TMC3    O1 8799   2.723   0.420  11.522 -0.3716  0.0266  0.0121
  593TMC3    O2 8800   2.470   0.180  12.012 -0.0967 -0.2366  0.7980
  594MPD2     C 8801   1.297   2.892  14.453 -0.8665 -0.1502 -0.3174
  594MPD2    C1 8802   1.226   2.966  14.363 -0.2137 -0.0232 -0.3047
  594MPD2    C2 8803   1.271   3.089  14.323 -1.0504 -0.5398  0.3367
  594MPD2    C3 8804   1.392   3.146  14.375 -0.1334 -0.1790  0.5233
  594MPD2    C4 8805   1.467   3.059  14.450  0.0599  0.4053  0.1297
  594MPD2    C5 8806   1.418   2.941  14.492 -0.1667 -0.0800 -0.8312
  594MPD2     H 8807   1.206   3.153  14.265  1.5866  0.9822 -0.9243
  594MPD2    H1 8808   1.560   3.083  14.500 -0.7783  1.5455  1.1325
  594MPD2    H2 8809   1.256   2.797  14.487  1.0111  0.1932  2.8497
  594MPD2    H3 8810   1.482   2.885  14.559 -1.3318 -0.0201  0.3357
  594MPD2     N 8811   1.429   3.279  14.336  0.2458 -0.2646 -0.2753
  594MPD2    H5 8812   1.373   3.334  14.271  0.2796 -1.3264 -1.2186
  594MPD2    N1 8813   1.100   2.913  14.323  0.5401 -0.0667  0.2619
  594MPD2    H7 8814   1.081   2.817  14.351 -0.5377 -0.0076 -0.2797
  595TMC3    C1 8815   1.728   3.640  14.289  0.0576 -0.3132 -0.3208
  595TMC3    C2 8816   1.700   3.503  14.299  0.1405 -0.4409  0.4067
  595TMC3    C3 8817   1.569   3.479  14.334 -0.4756  0.3416  0.3256
  595TMC3    C4 8818   1.645   3.741  14.325  0.7052 -0.3390  1.0999
  595TMC3    C5 8819   1.517   3.711  14.365 -0.3992  0.2474  0.0487
  595TMC3    C6 8820   1.474   3.581  14.357  0.6447 -0.1214 -0.2675
  595TMC3     C 8821   1.850   3.684  14.226  0.2532 -0.0971 -0.1975
  595TMC3     O 8822   1.853   3.806  14.197  0.3909 -0.1954  0.2202
  595TMC3     H 8823   1.771   3.421  14.296  0.5855  0.0847 -2.6722
  595TMC3    H1 8824   1.675   3.844  14.314 -0.0551  0.1612  3.6428
  595TMC3    H2 8825   1.373   3.551  14.381  0.7170 -0.2273 -0.0913
  595TMC3    C7 8826   1.429   3.809  14.423  0.1362 -0.2866 -0.1213
  595TMC3    C8 8827   1.535   3.344  14.386  0.3859  0.5262  0.3834
  595TMC3    O1 8828   1.327   3.770  14.473 -0.2773  0.0815 -0.4325
  595TMC3    O2 8829   1.623   3.298  14.449  0.9446 -0.0132  0.2838
  596MPD2     C 8830   0.075   1.080  16.396  0.3727  0.4535 -0.0360
  596MPD2    C1 8831   0.089   1.209  16.355 -0.3382 -0.0855 -0.3140
  596MPD2    C2 8832   0.101   1.233  16.219  0.2596  0.1653 -0.1127
  596MPD2    C3 8833   0.081   1.132  16.124  0.6307  0.3300 -0.3910
  596MPD2    C4 8834   0.064   1.001  16.169  0.2852  0.3950 -0.0008
  596MPD2    C5 8835   0.072   0.976  16.306 -0.7930 -0.3220 -0.0867
  596MPD2     H 8836   0.125   1.336  16.198  1.9370 -0.1253  0.3009
  596MPD2    H1 8837   0.032   0.917  16.107 -0.2964  0.6980 -0.1127
  596MPD2    H2 8838   0.074   1.057  16.502  0.4393 -2.3020 -0.6122
  596MPD2    H3 8839   0.047   0.878  16.346 -0.0950 -0.5473 -0.1933
  596MPD2     N 8840   0.061   1.156  15.984  0.1154 -0.2609  0.5100
  596MPD2    H5 8841   0.064   1.076  15.921  1.7637  1.4612 -1.6541
  596MPD2    N1 8842   0.095   1.317  16.439  0.8608 -0.0169  0.0043
  596MPD2    H7 8843   0.095   1.408  16.395  2.7309  1.0845  2.3052
  597TMC3    C1 8844   0.052   1.459  16.607  0.1906 -0.1632 -0.5019
  597TMC3    C2 8845   0.078   1.561  16.514  0.7221  0.5604 -0.8617
  597TMC3    C3 8846   0.047   1.689  16.555  0.1975 -0.1681 -0.6758
  597TMC3    C4 8847   0.008   1.482  16.733 -0.3223 -0.2469  0.4919
  597TMC3    C5 8848   4.704   1.610  16.764  0.0853 -0.0213 -0.0465
  597TMC3    C6 8849   4.712   1.715  16.674 -0.0726  0.2494 -0.5348
  597TMC3     C 8850   0.079   1.324  16.571  0.4532 -0.0947  0.5282
  597TMC3     O 8851   0.064   1.232  16.652  0.0439  0.0919  0.3408
  597TMC3     H 8852   0.130   1.555  16.420  0.3538 -1.9869 -0.9102
  597TMC3    H1 8853   4.703   1.398  16.798  0.8985  1.1962  2.7783
  597TMC3    H2 8854   4.699   1.817  16.707 -0.1543 -0.1720  0.7215
  597TMC3    C7 8855   4.668   1.628  16.902 -0.0806  0.4212 -0.2558
  597TMC3    C8 8856   0.129   1.797  16.510 -0.3344 -0.0989 -0.5417
  597TMC3    O1 8857   4.615   1.533  16.959 -0.3242 -0.9958  0.0849
  597TMC3    O2 8858   0.076   1.908  16.514 -0.3668  0.1275  0.0649
  598TMC3    C1 8859   2.905   2.774  14.904 -0.5226 -0.4451 -0.1063
  598TMC3    C2 8860   2.894   2.638  14.914  0.3860 -0.0366 -0.3575
  598TMC3    C3 8861   2.989   2.569  14.849 -0.5149 -0.1477 -0.1874
  598TMC3    C4 8862   3.010   2.844  14.843  0.4677 -0.5477 -0.7682
  598TMC3    C5 8863   3.113   2.763  14.806 -0.1633 -0.5523 -0.1544
  598TMC3    C6 8864   3.102   2.626  14.797 -0.0687 -0.3116 -0.0169
  598TMC3     C 8865   2.800   2.859  14.952  0.0713 -0.0368 -0.8353
  598TMC3     O 8866   2.830   2.977  14.970 -0.3807  0.7678  0.0249
  598TMC3     H 8867   2.814   2.580  14.959  0.9439 -0.3018  0.2924
  598TMC3    H1 8868   3.015   2.952  14.829 -1.1591 -0.4652 -0.7218
  598TMC3    H2 8869   3.172   2.574  14.732  1.2514  0.1387  1.0541
  598TMC3    C7 8870   3.187   2.829  14.698 -0.0034  0.6487  0.1571
  598TMC3    C8 8871   2.985   2.423  14.825  0.4139  0.5014  0.4320
  598TMC3    O1 8872   3.177   2.776  14.587  0.4661 -0.9229 -0.9704
  598TMC3    O2 8873   3.074   2.377  14.751 -0.1407 -0.2931  0.0534
  599MPD2     C 8874   3.179   0.442  15.349 -0.3040  0.2169  0.8997
  599MPD2    C1 8875   3.255   0.397  15.456 -0.2933 -0.0938  0.0303
  599MPD2    C2 8876   3.205   0.425  15.582 -0.3288 -0.6499  0.2399
  599MPD2    C3 8877   3.081   0.495  15.597 -0.2633  0.0967  0.3926
  599MPD2    C4 8878   3.022   0.553  15.488  0.1495 -1.0079 -0.3865
  599MPD2    C5 8879   3.074   0.529  15.362 -0.3291  0.4831 -0.1407
  599MPD2     H 8880   3.267   0.398  15.666  0.0846 -0.7119 -0.0855
  599MPD2    H1 8881   2.935   0.616  15.494  0.7016 -0.4179  1.3111
  599MPD2    H2 8882   3.216   0.420  15.249  0.3221  2.0894  0.7150
  599MPD2    H3 8883   3.015   0.553  15.275  1.6749  0.7191 -1.4240
  599MPD2     N 8884   3.023   0.527  15.723 -0.0004  0.4880  0.0652
  599MPD2    H5 8885   2.964   0.609  15.727  1.9029  1.7656  2.4077
  599MPD2    N1 8886   3.381   0.325  15.432  0.3087  0.0092 -0.3761
  599MPD2    H7 8887   3.405   0.293  15.339  0.6257  1.1250 -0.6742
  600TMC3    C1 8888   2.963   0.479  15.943 -0.0724  0.8744 -0.3496
  600TMC3    C2 8889   2.913   0.375  16.014  0.0875 -0.3935 -0.2049
  600TMC3    C3 8890   2.801   0.399  16.091 -0.0887  0.7144 -0.2477
  600TMC3    C4 8891   2.913   0.606  15.947  0.8449 -0.1934  0.9887
  600TMC3    C5 8892   2.799   0.627  16.022 -0.2364 -0.3817 -0.4460
  600TMC3    C6 8893   2.739   0.522  16.083 -0.0641  0.2733  0.3027
  600TMC3     C 8894   3.050   0.446  15.831  0.0463 -0.0378 -0.5602
  600TMC3     O 8895   3.112   0.342  15.842  0.4248 -0.5388  0.4792
  600TMC3     H 8896   2.950   0.274  16.002  1.0855 -0.0371 -0.1260
  600TMC3    H1 8897   2.957   0.680  15.881 -0.5039  0.0312  0.3279
  600TMC3    H2 8898   2.657   0.542  16.151  0.5503 -1.5978  1.6063
  600TMC3    C7 8899   2.722   0.753  16.014  0.8235 -1.1641 -0.7780
  600TMC3    C8 8900   2.713   0.290  16.110 -0.5737 -0.5249 -0.0391
  600TMC3    O1 8901   2.599   0.760  16.010  0.4910  0.5204  0.3489
  600TMC3    O2 8902   2.769   0.185  16.140 -0.1945  0.3095 -0.1965
  601MPD2     C 8903   0.209   3.286   0.176 -0.1734 -0.0090 -0.2946
  601MPD2    C1 8904   0.084   3.253   0.129 -0.3872 -0.9653  0.3334
  601MPD2    C2 8905   0.044   3.120   0.144  0.1882 -0.6751  0.5845
  601MPD2    C3 8906   0.122   3.027   0.210  0.4432 -0.4794 -0.0306
  601MPD2    C4 8907   0.242   3.069   0.261  0.1486  0.2439 -0.2154
  601MPD2    C5 8908   0.282   3.197   0.244 -0.5521 -0.3854  0.5351
  601MPD2     H 8909   4.669   3.087   0.101  0.5830  1.4163 -1.8699
  601MPD2    H1 8910   0.291   2.998   0.328 -1.2414 -0.2684  0.2594
  601MPD2    H2 8911   0.249   3.387   0.164 -0.0015 -0.1326 -0.7653
  601MPD2    H3 8912   0.374   3.217   0.297  1.1206 -1.0368 -2.0987
  601MPD2     N 8913   0.099   2.892   0.211 -0.0652 -0.0495  0.3427
  601MPD2    H5 8914   0.154   2.830   0.269  2.4915  1.6097 -0.2884
  601MPD2    N1 8915   0.013   3.337   0.053 -0.3757  0.1515  0.3279
  601MPD2    H7 8916   4.651   3.293   0.011  0.6768 -0.5745 -0.9583
  602TMC3    C1 8917   4.676   3.508  17.593  0.3656 -0.8957  0.2748
  602TMC3    C2 8918   4.670   3.640  17.551 -0.4806 -0.8053  0.6014
  602TMC3    C3 8919   4.599   3.670  17.430  0.7248  0.1785 -0.6625
  602TMC3    C4 8920   4.606   3.412  17.521 -0.2511 -0.2809 -0.1159
  602TMC3    C5 8921   4.526   3.448  17.412  0.1654 -0.7337  0.0167
  602TMC3    C6 8922   4.521   3.577  17.364 -0.2724 -0.3666  0.5828
  602TMC3     C 8923   0.040   3.463   0.022  0.2727  0.3816  0.0396
  602TMC3     O 8924   0.099   3.547   0.088  0.4300 -0.3600  0.1975
  602TMC3     H 8925   0.002   3.718  17.605  1.4401 -2.4664  1.1990
  602TMC3    H1 8926   4.615   3.307  17.544 -1.4271 -0.1823  0.7592
  602TMC3    H2 8927   4.470   3.605  17.273 -0.7969  1.4012  1.4130
  602TMC3    C7 8928   4.434   3.349  17.350 -0.2760 -0.5892  0.1547
  602TMC3    C8 8929   4.564   3.806  17.407 -0.0392  0.3628  0.1396
  602TMC3    O1 8930   4.457   3.232  17.344 -0.1418  0.2970  0.1010
  602TMC3    O2 8931   4.646   3.895  17.414 -0.5822  0.2598  0.1716
  603TMC3    C1 8932   3.335   3.557  11.164  0.1073  0.4150  0.5782
  603TMC3    C2 8933   3.379   3.523  11.287 -0.0074 -0.6707 -0.6922
  603TMC3    C3 8934   3.479   3.601  11.333 -0.8309  0.1914  0.0128
  603TMC3    C4 8935   3.398   3.644  11.075  0.4065  0.0372 -0.0684
  603TMC3    C5 8936   3.501   3.714  11.119 -0.1034  0.2598  0.6551
  603TMC3    C6 8937   3.535   3.703  11.250  0.4091  0.9379  0.1112
  603TMC3     C 8938   3.206   3.502  11.132 -0.2434 -0.0011 -0.5300
  603TMC3     O 8939   3.119   3.512  11.217  0.1913 -0.5274 -0.1266
  603TMC3     H 8940   3.323   3.464  11.358  0.1153 -0.2756 -0.2627
  603TMC3    H1 8941   3.355   3.661  10.977 -0.7701  1.8032  0.7495
  603TMC3    H2 8942   3.622   3.756  11.287 -0.1056  0.7029  1.6632
  603TMC3    C7 8943   3.529   3.852  11.070  0.4998  0.1459 -0.2486
  603TMC3    C8 8944   3.490   3.598  11.477  0.0533 -1.0274 -0.2896
  603TMC3    O1 8945   3.582   3.925  11.153 -0.2857  0.1513 -0.3985
  603TMC3    O2 8946   3.399   3.533  11.533 -0.1367  0.0802  0.2534
  604MPD2     C 8947   3.982   2.438  16.377  0.2853  0.1634  0.6491
  604MPD2    C1 8948   3.900   2.509  16.296 -0.3132 -0.2686 -0.5041
  604MPD2    C2 8949   3.920   2.504  16.158 -0.3002  0.2199  0.4733
  604MPD2    C3 8950   4.008   2.412  16.100  0.6326  0.0809  0.1528
  604MPD2    C4 8951   4.094   2.338  16.188 -0.1295 -0.0547 -0.0076
  604MPD2    C5 8952   4.069   2.348  16.325  0.1660 -0.3426 -0.4082
  604MPD2     H 8953   3.854   2.555  16.090 -0.7960 -0.9385  0.0871
  604MPD2    H1 8954   4.166   2.266  16.153 -1.1705 -1.4585  0.7250
  604MPD2    H2 8955   3.980   2.451  16.484  1.9350 -1.8546  0.9105
  604MPD2    H3 8956   4.136   2.283  16.380  0.0399 -2.2055 -2.4414
  604MPD2     N 8957   3.987   2.389  15.965 -0.3638  0.0913  0.2011
  604MPD2    H5 8958   3.924   2.455  15.920 -0.6723 -0.4194 -0.1152
  604MPD2    N1 8959   3.800   2.587  16.360 -0.3559 -0.1589  0.2501
  604MPD2    H7 8960   3.781   2.564  16.457 -2.4650 -2.8140 -0.7733
  605TMC3    C1 8961   3.623   2.738  16.371  0.8178  0.1793  0.2336
  605TMC3    C2 8962   3.660   2.774  16.497  0.4489  0.0666 -0.6110
  605TMC3    C3 8963   3.660   2.908  16.529 -0.3458  0.2269  0.1752
  605TMC3    C4 8964   3.568   2.829  16.282  0.0877  0.3184 -0.1883
  605TMC3    C5 8965   3.561   2.958  16.326 -0.0018  0.0971 -0.1793
  605TMC3    C6 8966   3.606   3.005  16.444 -0.5940 -0.3923 -0.1138
  605TMC3     C 8967   3.724   2.679  16.289 -0.4720  0.0299  0.5953
  605TMC3     O 8968   3.734   2.723  16.177  0.0107 -0.3119 -0.0048
  605TMC3     H 8969   3.716   2.710  16.564 -0.4654  2.0221  2.0255
  605TMC3    H1 8970   3.506   2.781  16.207  0.3786 -0.1322 -0.1413
  605TMC3    H2 8971   3.607   3.112  16.457 -1.4113 -0.5356  1.2125
  605TMC3    C7 8972   3.585   3.051  16.217  0.5713  0.7201  0.8631
  605TMC3    C8 8973   3.773   2.947  16.606 -0.3534 -0.3480 -0.7601
  605TMC3    O1 8974   3.599   3.172  16.238  0.2184 -0.0022 -0.1913
  605TMC3    O2 8975   3.835   2.862  16.669  0.1738 -0.3934 -0.1252
  606TMC3    C1 8976   0.417   1.109  16.582 -0.8128 -0.0751  0.8774
  606TMC3    C2 8977   0.406   1.167  16.705 -0.1626  0.3205 -0.3076
  606TMC3    C3 8978   0.355   1.099  16.812  0.0322 -0.3690 -0.4959
  606TMC3    C4 8979   0.377   0.976  16.575  0.3420 -0.2831  0.3987
  606TMC3    C5 8980   0.315   0.913  16.689 -0.1716  0.2149  0.3848
  606TMC3    C6 8981   0.304   0.972  16.808  0.6672  0.6601 -0.1644
  606TMC3     C 8982   0.472   1.179  16.465 -0.5055  0.3475  0.0266
  606TMC3     O 8983   0.545   1.277  16.468  0.6280  0.3828 -0.8192
  606TMC3     H 8984   0.454   1.261  16.731 -1.6684  0.5965  1.5111
  606TMC3    H1 8985   0.379   0.920  16.483  1.1103  1.2622 -0.5182
  606TMC3    H2 8986   0.266   0.910  16.889  2.0131  1.9419  1.4205
  606TMC3    C7 8987   0.286   0.772  16.659  0.1757 -0.5084 -0.0747
  606TMC3    C8 8988   0.374   1.153  16.949 -0.4738  0.5158 -0.7883
  606TMC3    O1 8989   0.344   0.711  16.571  0.0563 -0.6313  0.0342
  606TMC3    O2 8990   0.448   1.248  16.965  0.4388 -0.0081  0.0948
  607MPD2     C 8991   2.428   4.099  11.302  0.7676 -0.4205 -0.6916
  607MPD2    C1 8992   2.529   4.186  11.330 -0.0910 -0.4774  0.5608
  607MPD2    C2 8993   2.519   4.283  11.425  0.1795  0.0874  0.2232
  607MPD2    C3 8994   2.399   4.293  11.496 -0.4949  0.0761  0.3786
  607MPD2    C4 8995   2.300   4.202  11.478 -0.3955  0.5044 -0.2948
  607MPD2    C5 8996   2.313   4.109  11.376  0.3778 -0.1136 -0.4778
  607MPD2     H 8997   2.596   4.357  11.436 -1.7299  2.0324  0.4786
  607MPD2    H1 8998   2.212   4.195  11.541  0.6993 -3.1882  0.8186
  607MPD2    H2 8999   2.432   4.022  11.225 -1.8729 -0.8848 -0.3712
  607MPD2    H3 9000   2.228   4.043  11.364 -1.8548  3.4886 -4.4139
  607MPD2     N 9001   2.401   4.392  11.603  0.0011 -0.0012  0.0015
  607MPD2    H5 9002   2.471   4.463  11.589  0.0879 -0.5495 -2.4853
  607MPD2    N1 9003   2.654   4.179  11.264  0.5481 -1.3071  0.1849
  607MPD2    H7 9004   2.718   4.252  11.294 -1.3006  1.1095 -1.6853
  608TMC3    C1 9005   2.832   4.111  11.132 -0.0278  1.1488 -0.1698
  608TMC3    C2 9006   2.906   4.162  11.232  0.6586  0.1953 -0.1414
  608TMC3    C3 9007   3.032   4.213  11.197 -0.0840 -0.0542  0.6447
  608TMC3    C4 9008   2.852   4.097  11.004  0.7964 -0.0148  0.9777
  608TMC3    C5 9009   2.978   4.155  10.975  0.4607  0.5819 -0.5643
  608TMC3    C6 9010   3.066   4.197  11.071  0.0195  0.2235 -0.0299
  608TMC3     C 9011   2.694   4.088  11.168  0.4370  0.1579  0.0857
  608TMC3     O 9012   2.623   4.022  11.096 -0.3408  0.0931  0.0672
  608TMC3     H 9013   2.881   4.156  11.337 -0.3558  0.3996 -0.3720
  608TMC3    H1 9014   2.770   4.085  10.935  1.0825  1.9470  0.2871
  608TMC3    H2 9015   3.149   4.259  11.039  0.5606  0.3627  1.6401
  608TMC3    C7 9016   2.994   4.217  10.849 -0.0802 -0.3856  0.6426
  608TMC3    C8 9017   3.096   4.315  11.277 -0.2865  0.5269 -0.9349
  608TMC3    O1 9018   3.067   4.317  10.845 -0.8451 -0.3337  0.1811
  608TMC3    O2 9019   3.217   4.329  11.272  0.6644  0.0663 -0.0115
  609TMC3    C1 9020   1.647   3.541   8.989  0.1431 -0.3833  0.2567
  609TMC3    C2 9021   1.717   3.642   8.938 -0.7988 -0.0402  0.5309
  609TMC3    C3 9022   1.844   3.619   8.898 -0.0457  0.5269 -0.2847
  609TMC3    C4 9023   1.704   3.415   9.003 -0.1174  0.3641 -0.1502
  609TMC3    C5 9024   1.836   3.402   8.969  0.3826 -0.2621 -0.4694
  609TMC3    C6 9025   1.906   3.499   8.901  0.7191  0.1328  0.8009
  609TMC3     C 9026   1.512   3.547   9.038 -0.2331 -1.5454  0.4026
  609TMC3     O 9027   1.475   3.451   9.105  0.3533 -0.7082  0.4084
  609TMC3     H 9028   1.672   3.740   8.946 -0.7015 -0.0874  1.6691
  609TMC3    H1 9029   1.658   3.325   9.043 -0.9285  0.4443 -0.9177
  609TMC3    H2 9030   2.010   3.487   8.872  0.2701  0.2791 -0.8955
  609TMC3    C7 9031   1.893   3.276   8.989  0.2109 -0.0250  0.4774
  609TMC3    C8 9032   1.915   3.727   8.828  0.0666 -0.3648  0.3589
  609TMC3    O1 9033   1.844   3.220   9.085 -0.3916  0.2146 -0.2800
  609TMC3    O2 9034   1.856   3.832   8.838 -0.2441  0.1080 -0.7146
  610TMC3    C1 9035   3.148   4.503  12.303 -0.6461  0.4795 -0.2559
  610TMC3    C2 9036   3.247   4.501  12.209  0.5500  0.0135 -0.1318
  610TMC3    C3 9037   3.307   4.382  12.170  0.4521 -0.5010  0.8613
  610TMC3    C4 9038   3.104   4.382  12.356 -0.5476  0.0596  0.0726
  610TMC3    C5 9039   3.152   4.268  12.306 -0.0627 -0.3592 -0.0661
  610TMC3    C6 9040   3.260   4.262  12.218  0.2964 -0.2197  0.9499
  610TMC3     C 9041   3.114   4.636  12.362  0.1583  0.2176  0.3957
  610TMC3     O 9042   3.206   0.000  12.363 -0.1142 -0.8319  0.4847
  610TMC3     H 9043   3.279   4.597  12.171  2.1656 -0.5775 -0.2639
  610TMC3    H1 9044   3.037   4.387  12.442  0.2998 -0.8784  0.7842
  610TMC3    H2 9045   3.306   4.167  12.193  1.0437  0.1462  0.9208
  610TMC3    C7 9046   3.132   4.147  12.389 -0.3936  0.0411 -0.0528
  610TMC3    C8 9047   3.424   4.390  12.082 -0.0084  0.4310  1.0006
  610TMC3    O1 9048   3.220   4.064  12.386 -0.4458 -0.4236  0.0822
  610TMC3    O2 9049   3.476   4.504  12.075  0.2023 -1.1141  0.4136
  611MPD2     C 9050   2.774   3.574  10.326 -0.6491  0.0647  0.0066
  611MPD2    C1 9051   2.711   3.691  10.282  0.6788 -0.5508 -0.5401
  611MPD2    C2 9052   2.792   3.806  10.273 -0.2766  0.5560  0.1624
  611MPD2    C3 9053   2.925   3.807  10.316  0.1901 -0.0542  0.0276
  611MPD2    C4 9054   2.987   3.690  10.350 -0.0179  0.0861  0.2391
  611MPD2    C5 9055   2.911   3.580  10.357 -0.4654  0.1490 -0.3613
  611MPD2     H 9056   2.735   3.897  10.253 -0.7979  0.1845 -0.0399
  611MPD2    H1 9057   3.091   3.691  10.379 -0.2638  1.6194  1.0755
  611MPD2    H2 9058   2.713   3.486  10.341  1.2184 -1.3706 -0.9269
  611MPD2    H3 9059   2.959   3.489  10.392 -1.0096 -0.3457 -0.8948
  611MPD2     N 9060   2.997   3.928  10.324  0.1609  0.2110  0.1363
  611MPD2    H5 9061   3.083   3.930  10.378 -0.4120 -0.5085  1.0783
  611MPD2    N1 9062   2.571   3.686  10.265 -0.5151  0.4947 -0.5336
  611MPD2    H7 9063   2.523   3.603  10.296 -1.2364  0.4182 -1.8361
  612TMC3    C1 9064   3.042   4.153  10.290  0.1140 -0.6683 -0.3020
  612TMC3    C2 9065   3.134   4.154  10.396  0.6380 -0.1422 -0.3424
  612TMC3    C3 9066   3.219   4.257  10.404  0.0437 -0.3183 -0.4475
  612TMC3    C4 9067   3.022   4.262  10.206  0.0917 -0.6892 -0.4511
  612TMC3    C5 9068   3.105   4.365  10.222 -0.1863 -0.0312 -0.7104
  612TMC3    C6 9069   3.209   4.358  10.317  0.5487  0.1792 -0.2415
  612TMC3     C 9070   2.951   4.046  10.271  0.6307  0.0232  0.6326
  612TMC3     O 9071   2.855   4.070  10.198  0.3184  0.2320 -0.0391
  612TMC3     H 9072   3.129   4.077  10.473  0.0496  0.1952 -0.0395
  612TMC3    H1 9073   2.944   4.269  10.131 -0.9844  2.1409  0.9132
  612TMC3    H2 9074   3.287   4.432  10.323  0.5645  0.2687 -1.7150
  612TMC3    C7 9075   3.078   4.479  10.133 -0.2749 -0.1589 -0.4005
  612TMC3    C8 9076   3.321   4.273  10.508  0.7142 -0.0885 -0.5910
  612TMC3    O1 9077   2.987   4.463  10.049  1.2049  0.2747  0.3395
  612TMC3    O2 9078   3.363   4.387  10.532 -0.3517  0.2662 -0.5653
  613MPD2     C 9079   1.706   1.486  16.279 -0.5494  0.5398  0.1399
  613MPD2    C1 9080   1.630   1.481  16.166 -0.1265  0.2192  0.1765
  613MPD2    C2 9081   1.594   1.351  16.125  0.3955 -0.5354 -0.6956
  613MPD2    C3 9082   1.634   1.235  16.184  0.1311  0.4453  0.6987
  613MPD2    C4 9083   1.707   1.241  16.303  0.3545 -0.1919 -0.3001
  613MPD2    C5 9084   1.745   1.373  16.349 -0.5776  0.6436 -0.0950
  613MPD2     H 9085   1.521   1.340  16.045 -2.6684 -0.3821  2.0758
  613MPD2    H1 9086   1.748   1.157  16.358  0.1740 -0.5578 -0.7254
  613MPD2    H2 9087   1.734   1.582  16.321  0.7119 -0.1034  0.7650
  613MPD2    H3 9088   1.805   1.390  16.438 -2.0643 -2.1266  1.4132
  613MPD2     N 9089   1.616   1.106  16.122  0.3839 -0.3511  0.1154
  613MPD2    H5 9090   1.662   1.025  16.163 -0.7100 -1.1202 -0.1972
  613MPD2    N1 9091   1.609   1.595  16.083 -0.0174  0.3871 -0.2154
  613MPD2    H7 9092   1.659   1.682  16.096  1.3069 -0.4295  0.2545
  614TMC3    C1 9093   1.537   1.731  15.922  0.3702 -0.1998  0.5404
  614TMC3    C2 9094   1.642   1.709  15.837  0.4704 -0.1599 -0.1560
  614TMC3    C3 9095   1.633   1.766  15.710  0.3619 -0.9767 -0.0007
  614TMC3    C4 9096   1.426   1.789  15.874 -0.1078 -0.2736  0.0814
  614TMC3    C5 9097   1.425   1.843  15.747  0.2399  0.2623 -0.4753
  614TMC3    C6 9098   1.526   1.831  15.659 -0.1546  0.4588  0.5106
  614TMC3     C 9099   1.504   1.613  16.004 -0.3639 -0.4664 -0.2854
  614TMC3     O 9100   1.423   1.537  15.958 -0.6172  0.2529  0.0926
  614TMC3     H 9101   1.734   1.659  15.866 -0.3668 -0.3832  2.1495
  614TMC3    H1 9102   1.338   1.796  15.937  0.1072  1.0142  0.2518
  614TMC3    H2 9103   1.531   1.872  15.558 -0.0410 -2.2708 -0.6054
  614TMC3    C7 9104   1.297   1.897  15.705  1.1891 -0.7113 -0.4980
  614TMC3    C8 9105   1.709   1.698  15.606 -0.6348  0.4538  0.2808
  614TMC3    O1 9106   1.229   1.945  15.790  0.1069  0.1935 -0.2383
  614TMC3    O2 9107   1.727   1.747  15.496 -0.3398 -0.1305  0.2382
  615MPD2     C 9108   1.446   3.838  15.750  0.4218 -0.8251  0.3205
  615MPD2    C1 9109   1.309   3.853  15.754  0.6541  0.7375 -1.1185
  615MPD2    C2 9110   1.235   3.765  15.679 -0.4762 -0.2554 -0.5365
  615MPD2    C3 9111   1.292   3.658  15.615 -0.5854  0.0274  0.3584
  615MPD2    C4 9112   1.437   3.639  15.618  0.2084 -0.3467  0.1729
  615MPD2    C5 9113   1.509   3.735  15.683 -1.0845 -0.0868 -0.0370
  615MPD2     H 9114   1.128   3.776  15.690 -0.0244  1.4459  2.3164
  615MPD2    H1 9115   1.490   3.561  15.564  1.5641  0.3820  0.4625
  615MPD2    H2 9116   1.508   3.909  15.805 -1.4325 -0.4902  1.9738
  615MPD2    H3 9117   1.617   3.724  15.685 -0.8589  1.7114 -2.8139
  615MPD2     N 9118   1.209   3.572  15.539  0.1761  0.1937  0.2664
  615MPD2    H5 9119   1.112   3.601  15.526  1.2362  3.2357 -0.6045
  615MPD2    N1 9120   1.240   3.958  15.821 -0.3062 -0.2238 -0.3815
  615MPD2    H7 9121   1.139   3.945  15.823 -0.2511 -0.1219  3.0531
  616TMC3    C1 9122   1.205   4.138  15.966 -0.1104  0.6519  0.3238
  616TMC3    C2 9123   1.241   4.099  16.088 -0.0745 -0.0848  0.1658
  616TMC3    C3 9124   1.151   4.043  16.173  0.3884 -0.1815  0.6928
  616TMC3    C4 9125   1.068   4.128  15.933  0.7171  0.4237  0.4936
  616TMC3    C5 9126   0.982   4.078  16.024 -0.2475  0.2086 -0.2477
  616TMC3    C6 9127   1.019   4.031  16.147 -0.6834  0.3451  0.0603
  616TMC3     C 9128   1.294   4.076  15.868  0.2896  0.1997 -0.0698
  616TMC3     O 9129   1.410   4.111  15.877  0.7407 -0.5803 -0.0537
  616TMC3     H 9130   1.345   4.098  16.119 -0.1327  0.7811  0.4096
  616TMC3    H1 9131   1.036   4.162  15.835  2.5834 -0.7869 -0.5305
  616TMC3    H2 9132   0.948   3.996  16.220 -1.5036 -1.2111 -1.4835
  616TMC3    C7 9133   0.838   4.118  16.021 -0.8636 -0.1783  0.1411
  616TMC3    C8 9134   1.197   3.938  16.269 -0.2369  0.5546 -0.8588
  616TMC3    O1 9135   0.815   4.200  15.937  0.2259  0.0858 -1.1425
  616TMC3    O2 9136   1.112   3.896  16.345 -0.8757  0.4354 -0.7925
  617MPD2     C 9137   3.494   1.202  13.637 -0.5748 -0.1821  0.0052
  617MPD2    C1 9138   3.507   1.189  13.774 -0.4096 -0.0284  0.5770
  617MPD2    C2 9139   3.414   1.122  13.849 -0.1287 -0.6177 -0.0203
  617MPD2    C3 9140   3.305   1.058  13.792 -0.0622 -0.9611  0.2318
  617MPD2    C4 9141   3.285   1.072  13.652 -0.4757  0.0100 -0.3619
  617MPD2    C5 9142   3.379   1.145  13.577  0.0650 -0.2052 -0.1901
  617MPD2     H 9143   3.430   1.100  13.954  0.2327 -1.0375 -0.1634
  617MPD2    H1 9144   3.203   1.031  13.593  1.1020 -0.6496 -2.0904
  617MPD2    H2 9145   3.566   1.247  13.569  0.5284  1.2977  2.1657
  617MPD2    H3 9146   3.358   1.170  13.474 -1.5138 -2.2137 -0.3650
  617MPD2     N 9147   3.214   0.967  13.859  0.2930  0.8489 -0.7000
  617MPD2    H5 9148   3.141   0.919  13.808 -0.9701  2.6391 -0.5958
  617MPD2    N1 9149   3.622   1.253  13.835  0.0053 -0.0479  0.3454
  617MPD2    H7 9150   3.693   1.284  13.769  0.4699 -0.2557  0.7524
  618TMC3    C1 9151   3.773   1.319  13.983 -0.3573  0.0084  0.0358
  618TMC3    C2 9152   3.854   1.234  14.044 -0.0011  0.2778 -0.7114
  618TMC3    C3 9153   3.984   1.238  14.008  0.2496  0.1585  0.0092
  618TMC3    C4 9154   3.818   1.402  13.882 -0.0239 -0.9048 -0.8068
  618TMC3    C5 9155   3.949   1.403  13.848 -0.1818  0.0917 -0.4976
  618TMC3    C6 9156   4.037   1.322  13.916 -0.0949  0.0513  0.4444
  618TMC3     C 9157   3.646   1.270  13.968  0.0578 -0.3488 -0.3756
  618TMC3     O 9158   3.597   1.225  14.072  0.2271  1.1685  0.0413
  618TMC3     H 9159   3.810   1.163  14.113 -0.8991  1.0741 -0.4586
  618TMC3    H1 9160   3.749   1.461  13.824  0.5128 -1.2971 -1.8509
  618TMC3    H2 9161   4.140   1.310  13.884 -0.0276 -0.7784  0.9646
  618TMC3    C7 9162   3.963   1.385  13.707 -0.0098 -0.3998 -0.0229
  618TMC3    C8 9163   4.071   1.137  14.074  0.5535  0.1483 -0.0883
  618TMC3    O1 9164   3.857   1.360  13.654 -0.3254  0.1126  0.3825
  618TMC3    O2 9165   4.068   1.131  14.197  0.5047 -0.1703  0.3443
  619MPD2     C 9166   0.356   2.267  13.486  0.5281  0.3837  0.0790
  619MPD2    C1 9167   0.298   2.364  13.407 -0.7596  0.3903 -0.9791
  619MPD2    C2 9168   0.164   2.363  13.371 -0.0656  0.3304 -0.4473
  619MPD2    C3 9169   0.088   2.262  13.430 -0.1877 -0.0639  0.4588
  619MPD2    C4 9170   0.139   2.167  13.522 -0.2688  0.5117  0.0278
  619MPD2    C5 9171   0.266   2.181  13.551 -0.3470  0.4367 -0.2003
  619MPD2     H 9172   0.128   2.443  13.306 -2.8607 -0.9527 -0.4759
  619MPD2    H1 9173   0.082   2.085  13.564 -2.0671  1.4759 -0.5061
  619MPD2    H2 9174   0.463   2.255  13.498  0.6908  2.2642  0.5693
  619MPD2    H3 9175   0.302   2.113  13.627 -0.8248  1.0808  0.6010
  619MPD2     N 9176   4.671   2.259  13.400 -0.2980 -0.0467  0.2554
  619MPD2    H5 9177   4.608   2.205  13.458 -0.0143 -2.4100 -1.6668
  619MPD2    N1 9178   0.368   2.463  13.348 -0.3555  0.4038 -0.0745
  619MPD2    H7 9179   0.317   2.541  13.309 -1.1510 -0.2760 -0.3964
  620TMC3    C1 9180   0.539   2.592  13.260  0.1271 -0.2663  0.3216
  620TMC3    C2 9181   0.459   2.600  13.150 -0.4266 -0.5067  0.0974
  620TMC3    C3 9182   0.464   2.706  13.065  0.8448 -0.2719  0.3864
  620TMC3    C4 9183   0.602   2.705  13.310 -0.6558 -0.4549  0.1945
  620TMC3    C5 9184   0.600   2.815  13.231 -0.0139 -1.0378  0.2274
  620TMC3    C6 9185   0.547   2.806  13.104  0.2367  0.2907  0.0622
  620TMC3     C 9186   0.504   2.484  13.354  0.0425 -0.1691  0.1043
  620TMC3     O 9187   0.592   2.435  13.421 -0.0051 -0.0584 -0.4984
  620TMC3     H 9188   0.406   2.515  13.110 -2.6624  1.6806 -1.6163
  620TMC3    H1 9189   0.645   2.703  13.410 -2.4406  0.3121  0.9851
  620TMC3    H2 9190   0.549   2.892  13.038 -1.1823  0.2269 -0.0691
  620TMC3    C7 9191   0.585   2.944  13.301  0.0767  0.4883 -0.0359
  620TMC3    C8 9192   0.343   2.760  13.025 -0.3899 -0.4556 -0.6233
  620TMC3    O1 9193   0.630   2.965  13.412 -0.1628 -0.0760  0.5852
  620TMC3    O2 9194   0.325   2.878  13.048  0.6320 -0.0049  0.2177
  621MPD2     C 9195   0.841   2.202   9.490 -0.4492 -0.3156  0.5239
  621MPD2    C1 9196   0.875   2.211   9.625 -0.8891  0.7039 -0.0425
  621MPD2    C2 9197   0.961   2.315   9.655 -0.3381 -0.3271  0.9756
  621MPD2    C3 9198   1.003   2.408   9.561  0.1556 -0.0945 -0.0943
  621MPD2    C4 9199   0.954   2.408   9.436  0.6493  0.1210 -0.4766
  621MPD2    C5 9200   0.875   2.301   9.404 -0.6198 -0.4620 -0.6420
  621MPD2     H 9201   0.994   2.333   9.757 -0.1220 -1.6419  1.1453
  621MPD2    H1 9202   0.979   2.491   9.371  0.5492  1.8263  1.6472
  621MPD2    H2 9203   0.777   2.127   9.445  2.0731 -1.0448 -1.8529
  621MPD2    H3 9204   0.825   2.295   9.308 -0.3470  2.7096 -0.9972
  621MPD2     N 9205   1.086   2.515   9.607 -0.4459 -0.0363 -0.2883
  621MPD2    H5 9206   1.129   2.504   9.698  0.6553 -1.5375 -0.9868
  621MPD2    N1 9207   0.820   2.133   9.731 -0.2099  0.1630 -0.4586
  621MPD2    H7 9208   0.842   2.160   9.826  2.3254 -0.4482 -0.8745
  622TMC3    C1 9209   0.665   2.008   9.849 -0.2008 -0.5367  0.4509
  622TMC3    C2 9210   0.660   2.095   9.954  0.0760  0.4658 -0.2483
  622TMC3    C3 9211   0.593   2.060  10.072 -0.4789 -0.0072 -0.4478
  622TMC3    C4 9212   0.585   1.897   9.847  0.0977  0.2964  0.3048
  622TMC3    C5 9213   0.542   1.857   9.974 -0.1043  0.0002  0.2003
  622TMC3    C6 9214   0.545   1.939  10.087 -0.5927 -0.5754 -0.2876
  622TMC3     C 9215   0.727   2.041   9.720  0.5711 -0.0154 -0.5162
  622TMC3     O 9216   0.683   1.988   9.622 -0.3291  0.4417  0.2513
  622TMC3     H 9217   0.710   2.191   9.955 -0.0633  0.5288  0.3848
  622TMC3    H1 9218   0.588   1.826   9.766  0.6053 -0.0980  0.6675
  622TMC3    H2 9219   0.500   1.898  10.177 -0.1626  0.6191  0.4661
  622TMC3    C7 9220   0.482   1.728   9.990  0.2536 -0.2357  0.2461
  622TMC3    C8 9221   0.587   2.142  10.184  0.2617  0.5737 -0.2549
  622TMC3    O1 9222   0.511   1.666  10.092  0.3876 -0.5486  0.2943
  622TMC3    O2 9223   0.616   2.090  10.288 -0.5693  0.0544  0.4099
  623MPD2     C 9224   4.343   2.491  15.604  0.3544 -0.3662  0.5817
  623MPD2    C1 9225   4.281   2.605  15.644  0.0992  0.0173 -0.1077
  623MPD2    C2 9226   4.292   2.657  15.765 -0.7585 -0.5892 -0.2297
  623MPD2    C3 9227   4.381   2.589  15.850 -0.0538  0.2092 -0.0441
  623MPD2    C4 9228   4.453   2.486  15.814  0.0619  0.8740 -0.1878
  623MPD2    C5 9229   4.440   2.438  15.686 -0.1481  0.1321 -1.0209
  623MPD2     H 9230   4.236   2.744  15.795  1.1384  0.5750 -0.0143
  623MPD2    H1 9231   4.501   2.423  15.888 -0.9445  0.8911  0.4822
  623MPD2    H2 9232   4.316   2.436  15.515  0.4030  0.4717  0.0515
  623MPD2    H3 9233   4.487   2.346  15.652  1.6674  0.4071  0.7644
  623MPD2     N 9234   4.392   2.646  15.985 -0.0661  0.6328 -0.2867
  623MPD2    H5 9235   4.326   2.722  16.000  1.6552  2.1784 -0.4728
  623MPD2    N1 9236   4.190   2.668  15.564  0.3169 -0.0636 -0.5292
  623MPD2    H7 9237   4.153   2.759  15.593 -1.5366 -0.8392 -0.4391
  624TMC3    C1 9238   4.584   2.754  16.394  0.1421 -0.3881 -0.3853
  624TMC3    C2 9239   4.464   2.801  16.448 -0.5594  0.6586  0.1302
  624TMC3    C3 9240   4.356   2.780  16.368  0.3731  0.3721  0.6334
  624TMC3    C4 9241   4.584   2.676  16.283 -0.2102 -0.7671  0.5266
  624TMC3    C5 9242   4.470   2.674  16.208 -0.1199  0.3057 -0.0735
  624TMC3    C6 9243   4.353   2.722  16.247 -0.4989  0.0303 -0.2465
  624TMC3     C 9244   4.696   2.756  16.486 -0.6969 -0.6200 -0.0262
  624TMC3     O 9245   4.688   2.834  16.581 -0.0822 -0.2338 -0.1329
  624TMC3     H 9246   4.463   2.827  16.553 -1.9048 -1.3343  0.6106
  624TMC3    H1 9247   4.672   2.648  16.227 -0.1367  3.2652 -1.3569
  624TMC3    H2 9248   4.264   2.723  16.185  0.4831  1.0353 -1.6506
  624TMC3    C7 9249   4.479   2.607  16.079 -0.6219  0.2174  0.3841
  624TMC3    C8 9250   4.227   2.838  16.413 -0.1735 -0.8157 -0.4287
  624TMC3    O1 9251   4.569   2.532  16.066  0.0144 -0.3573 -0.6262
  624TMC3    O2 9252   4.119   2.790  16.372 -0.4334 -1.1846 -0.0608
  625MPD2     C 9253   4.153   3.651   0.393  0.2482  0.0000  0.0420
  625MPD2    C1 9254   4.252   3.739   0.443 -0.4331  0.1742 -0.4291
  625MPD2    C2 9255   4.341   3.695   0.542  0.0513  0.3320  0.6637
  625MPD2    C3 9256   4.321   3.577   0.614 -0.4059  0.9620 -0.2176
  625MPD2    C4 9257   4.212   3.494   0.581  0.2121 -0.3857 -0.0897
  625MPD2    C5 9258   4.129   3.533   0.473 -0.3401  0.1550 -0.6713
  625MPD2     H 9259   4.424   3.757   0.574 -2.9463  4.4476  0.4936
  625MPD2    H1 9260   4.190   3.399   0.627  0.0150  0.4557  1.5510
  625MPD2    H2 9261   4.083   3.665   0.311 -0.0612 -0.1918  0.2762
  625MPD2    H3 9262   4.048   3.465   0.446 -0.3937 -0.2581  0.5245
  625MPD2     N 9263   4.416   3.535   0.714  0.2290 -0.2005  0.5668
  625MPD2    H5 9264   4.498   3.595   0.712 -0.5189  0.8026 -0.3821
  625MPD2    N1 9265   4.289   3.860   0.375  0.1864 -0.7713 -0.5636
  625MPD2    H7 9266   4.368   3.916   0.404  1.1507 -2.8559  0.8380
  626TMC3    C1 9267   4.277   4.049   0.239 -0.1323 -0.3562 -0.4249
  626TMC3    C2 9268   4.196   4.137   0.178  0.4064  0.0724  0.2005
  626TMC3    C3 9269   4.207   4.276   0.207  0.0122  0.0600  0.8341
  626TMC3    C4 9270   4.377   4.092   0.324  0.1051 -0.4485 -0.4678
  626TMC3    C5 9271   4.381   4.221   0.352  0.2323  0.4615  0.5934
  626TMC3    C6 9272   4.290   4.317   0.305 -0.0328 -0.4944 -0.7310
  626TMC3     C 9273   4.228   3.915   0.269  0.1998 -0.0773  0.5654
  626TMC3     O 9274   4.119   3.893   0.216 -0.1385  0.0850 -0.4540
  626TMC3     H 9275   4.140   4.093   0.096 -0.8876 -0.4420  1.3540
  626TMC3    H1 9276   4.457   4.033   0.367 -0.7818 -0.7076  0.8279
  626TMC3    H2 9277   4.305   4.421   0.329  0.1286 -1.3425  2.8494
  626TMC3    C7 9278   4.454   4.265   0.470 -0.0342  0.6657 -0.8686
  626TMC3    C8 9279   4.132   4.390   0.148  0.0405  0.1527 -0.6824
  626TMC3    O1 9280   4.554   4.205   0.503 -0.2564  0.3454 -0.6825
  626TMC3    O2 9281   4.102   4.479   0.223 -0.0864  0.0868  0.1821
  627MPD2     C 9282   3.685   4.575  14.313  0.0096  0.0329 -0.5329
  627MPD2    C1 9283   3.615   4.593  14.428  0.3296 -0.3211  0.1908
  627MPD2    C2 9284   3.490   4.531  14.432 -0.4611  0.1412  0.5556
  627MPD2    C3 9285   3.445   4.459  14.328 -0.1526 -0.0835  0.6902
  627MPD2    C4 9286   3.524   4.432  14.218  0.6123 -0.3892  0.0808
  627MPD2    C5 9287   3.646   4.492  14.214 -0.4354 -0.2376  0.6557
  627MPD2     H 9288   3.415   4.558  14.506 -1.5770 -0.9568 -0.1698
  627MPD2    H1 9289   3.495   4.372  14.132  3.6318  1.9092 -2.5278
  627MPD2    H2 9290   3.781   4.624  14.296 -0.2773  1.3042  1.5642
  627MPD2    H3 9291   3.711   4.490  14.128 -1.2507  1.4691 -0.0007
  627MPD2     N 9292   3.309   4.407  14.344 -0.3084 -0.1816 -0.0294
  627MPD2    H5 9293   3.265   4.431  14.432  1.2247  0.1049  0.6593
  627MPD2    N1 9294   3.656   4.667  14.535  0.1561  0.0120 -0.5123
  627MPD2    H7 9295   3.584   4.676  14.607 -1.0402 -1.5594 -1.5136
  628TMC3    C1 9296   3.772   0.112  14.654  0.1416 -1.1771  0.1304
  628TMC3    C2 9297   3.876   0.120  14.741  0.3484  0.0004  0.3428
  628TMC3    C3 9298   3.875   0.214  14.843  0.7374  0.1600  0.0583
  628TMC3    C4 9299   3.665   0.189  14.674 -0.2310 -0.4221 -0.0798
  628TMC3    C5 9300   3.665   0.275  14.781  0.2009  0.7669  0.4116
  628TMC3    C6 9301   3.763   0.283  14.873 -0.0232  0.4965 -0.0565
  628TMC3     C 9302   3.778   0.009  14.552 -0.1131 -0.2882 -0.4412
  628TMC3     O 9303   3.881   0.010  14.480  0.2595 -0.3023 -0.5837
  628TMC3     H 9304   3.961   0.055  14.722  0.1825 -0.0561 -0.2116
  628TMC3    H1 9305   3.578   0.172  14.612  0.3275  1.2992 -1.3398
  628TMC3    H2 9306   3.783   0.368  14.937  2.3807 -0.3156  0.2715
  628TMC3    C7 9307   3.554   0.375  14.801 -0.2655 -0.5855 -0.1724
  628TMC3    C8 9308   3.996   0.240  14.920  0.3656 -1.0532  0.0193
  628TMC3    O1 9309   3.545   0.423  14.914  0.2924 -0.1889 -0.4159
  628TMC3    O2 9310   3.990   0.320  15.014 -0.0831  0.1291 -0.3127
  629MPD2     C 9311   1.558   3.646  16.468 -0.2493  0.3201 -0.0028
  629MPD2    C1 9312   1.602   3.690  16.342  0.1158  0.0582 -0.3692
  629MPD2    C2 9313   1.519   3.774  16.274  0.6426 -0.0269 -0.3520
  629MPD2    C3 9314   1.402   3.822  16.325 -0.3537 -0.1497 -0.3430
  629MPD2    C4 9315   1.357   3.774  16.440  1.0564 -0.0904 -0.3498
  629MPD2    C5 9316   1.438   3.690  16.521  0.3081 -0.7444  0.1587
  629MPD2     H 9317   1.546   3.809  16.175  1.2327 -0.2628 -0.2752
  629MPD2    H1 9318   1.263   3.793  16.491  0.7067 -1.5817 -0.4296
  629MPD2    H2 9319   1.631   3.584  16.519 -0.8022 -0.1274  0.2459
  629MPD2    H3 9320   1.406   3.653  16.618 -2.2994 -0.0816 -0.4473
  629MPD2     N 9321   1.331   3.912  16.251  0.5379  0.1783 -0.1557
  629MPD2    H5 9322   1.384   3.947  16.171 -0.4479  0.6129 -0.6303
  629MPD2    N1 9323   1.723   3.645  16.294  0.5114 -0.0388 -0.4029
  629MPD2    H7 9324   1.771   3.574  16.349  0.8436  0.3196 -0.2270
  630TMC3    C1 9325   1.923   3.628  16.186 -0.3664  0.1923 -0.1896
  630TMC3    C2 9326   2.009   3.685  16.097  0.4339 -0.9694  0.9703
  630TMC3    C3 9327   2.127   3.625  16.066 -0.6848  0.2218  0.0070
  630TMC3    C4 9328   1.945   3.495  16.222 -0.4725  1.1586 -0.8868
  630TMC3    C5 9329   2.064   3.435  16.192 -0.5020  0.3707 -0.0831
  630TMC3    C6 9330   2.158   3.499  16.106 -0.1161 -0.2485 -0.0414
  630TMC3     C 9331   1.792   3.693  16.192  0.1496 -0.6711  0.4298
  630TMC3     O 9332   1.771   3.788  16.115  0.4530 -0.0208  0.0885
  630TMC3     H 9333   1.986   3.785  16.061  0.7792 -1.3109 -0.1962
  630TMC3    H1 9334   1.886   3.457  16.304  1.0528  1.0205  0.1488
  630TMC3    H2 9335   2.238   3.442  16.060  0.7565  0.8120  0.1559
  630TMC3    C7 9336   2.127   3.373  16.309  1.0888 -0.0675  0.3093
  630TMC3    C8 9337   2.244   3.709  16.082  0.3534 -0.6768 -0.4193
  630TMC3    O1 9338   2.054   3.304  16.379  0.2215  0.0555 -0.0966
  630TMC3    O2 9339   2.321   3.659  16.160  0.2082 -0.2124  0.3370
  631MPD2     C 9340   0.662   2.747  15.383  0.0799 -0.1855  0.5238
  631MPD2    C1 9341   0.635   2.827  15.282 -0.5494 -0.4156  0.2079
  631MPD2    C2 9342   0.736   2.904  15.224  0.1727  0.0511  0.4596
  631MPD2    C3 9343   0.860   2.915  15.287 -0.3292  0.3658 -0.4280
  631MPD2    C4 9344   0.887   2.813  15.380 -0.0203 -0.2270  0.0132
  631MPD2    C5 9345   0.794   2.730  15.420  0.2390  1.3375 -0.6383
  631MPD2     H 9346   0.723   2.983  15.150 -1.1439  0.0297  0.6715
  631MPD2    H1 9347   0.984   2.804  15.429 -0.9173  0.2257  1.8581
  631MPD2    H2 9348   0.585   2.691  15.436  1.5076 -2.8365 -0.2387
  631MPD2    H3 9349   0.820   2.643  15.480 -2.2764  0.1389 -1.2858
  631MPD2     N 9350   0.941   3.024  15.252  0.2209  0.7257 -0.3566
  631MPD2    H5 9351   0.906   3.088  15.182 -1.6822  0.3178  0.2220
  631MPD2    N1 9352   0.502   2.849  15.235 -0.4685  0.4866 -0.5302
  631MPD2    H7 9353   0.422   2.809  15.283 -0.9874  1.2919 -0.7201
  632TMC3    C1 9354   0.346   2.966  15.099  0.0933 -0.1488  0.1980
  632TMC3    C2 9355   0.280   3.002  15.219 -0.1680 -0.2768 -0.2901
  632TMC3    C3 9356   0.166   3.085  15.203 -0.0399  0.2573  0.3955
  632TMC3    C4 9357   0.316   3.009  14.972  0.6234  0.6213 -0.0908
  632TMC3    C5 9358   0.201   3.086  14.970  0.4161  0.7991  0.0608
  632TMC3    C6 9359   0.138   3.135  15.078  0.5083  0.0581 -0.4090
  632TMC3     C 9360   0.477   2.906  15.112  0.1255  0.1475 -0.1772
  632TMC3     O 9361   0.546   2.920  15.011  0.0492 -0.2897 -0.5954
  632TMC3     H 9362   0.323   2.969  15.313  0.8319  2.8379  0.3863
  632TMC3    H1 9363   0.358   2.973  14.879 -2.0563 -0.1183 -0.9985
  632TMC3    H2 9364   0.068   3.217  15.066 -1.2100 -1.6751 -2.2235
  632TMC3    C7 9365   0.204   3.182  14.857 -0.4943 -0.9829  0.3526
  632TMC3    C8 9366   0.050   3.078  15.297  0.3625  0.5743 -0.3804
  632TMC3    O1 9367   0.100   3.210  14.801  0.4551 -0.7354  0.0878
  632TMC3    O2 9368   4.680   3.156  15.272 -0.2563 -0.0743 -0.1193
  633MPD2     C 9369   4.401   1.028  16.991  0.0801  0.0958  0.5238
  633MPD2    C1 9370   4.392   0.967  16.867 -0.4744  1.0530 -0.2644
  633MPD2    C2 9371   4.354   0.832  16.854  0.3159  0.2242 -0.3699
  633MPD2    C3 9372   4.336   0.754  16.964  0.2464  0.3806  0.6075
  633MPD2    C4 9373   4.352   0.816  17.085 -0.1206  0.2703  0.5029
  633MPD2    C5 9374   4.383   0.947  17.099  0.0583 -0.4132 -0.0937
  633MPD2     H 9375   4.345   0.788  16.756 -0.5458 -0.6071  0.0845
  633MPD2    H1 9376   4.339   0.762  17.178  2.3660 -0.8530  0.1946
  633MPD2    H2 9377   4.428   1.132  17.007  1.8415 -0.0416 -1.4440
  633MPD2    H3 9378   4.386   0.997  17.195 -0.1373 -1.4193  0.4305
  633MPD2     N 9379   4.319   0.615  16.961 -0.5278  0.3519 -0.1517
  633MPD2    H5 9380   4.338   0.566  17.048 -0.4353 -0.3236 -0.5547
  633MPD2    N1 9381   4.423   1.034  16.748  0.3681 -0.5477  0.3328
  633MPD2    H7 9382   4.413   0.977  16.665 -0.8704 -0.4328  0.3988
  634TMC3    C1 9383   4.455   1.224  16.606  0.0606 -0.9267  0.5858
  634TMC3    C2 9384   4.464   1.144  16.489 -0.7404  0.5573  0.7457
  634TMC3    C3 9385   4.459   1.214  16.372 -0.3207  0.3701  0.2296
  634TMC3    C4 9386   4.432   1.353  16.602 -0.4443 -0.1978 -1.0217
  634TMC3    C5 9387   4.423   1.414  16.484  0.0411  0.1624  0.1057
  634TMC3    C6 9388   4.432   1.346  16.365  0.3925  0.4490  0.3297
  634TMC3     C 9389   4.461   1.169  16.739  0.2357 -0.1004  0.1148
  634TMC3     O 9390   4.479   1.252  16.826 -0.0549  0.0188 -0.5102
  634TMC3     H 9391   4.506   1.044  16.487 -0.6210  0.6234 -0.1543
  634TMC3    H1 9392   4.416   1.405  16.696  1.3698 -0.8868 -0.3212
  634TMC3    H2 9393   4.418   1.402  16.273  0.0839  1.7325  1.1500
  634TMC3    C7 9394   4.387   1.555  16.470 -0.8266  0.1015  0.2035
  634TMC3    C8 9395   4.472   1.130  16.249 -0.0273 -0.3157 -0.2021
  634TMC3    O1 9396   4.388   1.597  16.355  0.0682  0.3183 -0.4580
  634TMC3    O2 9397   4.477   1.009  16.269  0.1033 -0.5642 -0.1167
  635TMC3    C1 9398   0.216   2.335  16.888 -0.0332  0.1085 -0.3670
  635TMC3    C2 9399   0.265   2.217  16.864  1.1468 -0.4214  0.1388
  635TMC3    C3 9400   0.194   2.144  16.763 -0.1981  0.1818 -0.5779
  635TMC3    C4 9401   0.107   2.389  16.827  0.0986  0.3635  0.0399
  635TMC3    C5 9402   0.050   2.317  16.727 -0.3645  0.0788  0.4396
  635TMC3    C6 9403   0.094   2.195  16.690  1.0393 -0.4221 -1.1744
  635TMC3     C 9404   0.232   2.382  17.026 -0.3766 -0.5919 -0.7853
  635TMC3     O 9405   0.132   2.385  17.099  0.3974 -0.5195  0.0645
  635TMC3     H 9406   0.328   2.169  16.937  1.1334 -0.7294 -0.0513
  635TMC3    H1 9407   0.071   2.484  16.864  1.6794  1.2051 -0.5940
  635TMC3    H2 9408   0.027   2.145  16.621  0.5210  0.5495 -1.3761
  635TMC3    C7 9409   4.650   2.368  16.661 -0.3729 -0.1977 -0.0266
  635TMC3    C8 9410   0.216   1.998  16.767  0.2574  0.6726  1.0469
  635TMC3    O1 9411   4.614   2.320  16.551 -0.4493 -0.1308  0.1193
  635TMC3    O2 9412   0.126   1.941  16.830  0.1147  0.1081 -0.0304
  636MPD2     C 9413   1.149   1.404  15.525  0.5694  0.8695  0.4925
  636MPD2    C1 9414   1.211   1.418  15.654  0.0662 -0.3921 -0.0498
  636MPD2    C2 9415   1.291   1.319  15.694 -0.4929  0.0664  0.2035
  636MPD2    C3 9416   1.322   1.210  15.613 -0.1006  0.9657 -0.3346
  636MPD2    C4 9417   1.262   1.201  15.487 -0.9810  0.4152  0.6804
  636MPD2    C5 9418   1.182   1.299  15.445  0.2162  0.1864  0.3245
  636MPD2     H 9419   1.333   1.335  15.793  0.1403 -0.9289  0.0981
  636MPD2    H1 9420   1.289   1.118  15.423  1.7170  0.0671  2.2527
  636MPD2    H2 9421   1.085   1.480  15.482  0.1108 -0.4806 -1.2248
  636MPD2    H3 9422   1.154   1.308  15.341  1.4626 -3.2430 -0.2947
  636MPD2     N 9423   1.404   1.113  15.672  0.5030 -0.1592 -0.3183
  636MPD2    H5 9424   1.432   1.135  15.767  0.1211 -0.9999 -0.0097
  636MPD2    N1 9425   1.168   1.523  15.739  0.2957 -0.2583  0.3041
  636MPD2    H7 9426   1.217   1.527  15.827 -1.6348  0.3937  1.3527
  637TMC3    C1 9427   1.547   0.944  15.706 -0.4552  0.4126 -0.1281
  637TMC3    C2 9428   1.501   0.947  15.834  0.5545  0.3208 -0.2319
  637TMC3    C3 9429   1.589   0.964  15.936 -0.5451 -0.0017  0.0319
  637TMC3    C4 9430   1.677   0.938  15.679  1.0818  0.1251  0.1171
  637TMC3    C5 9431   1.772   0.962  15.776 -0.2314 -0.4129  0.7464
  637TMC3    C6 9432   1.722   0.970  15.905 -0.0826 -0.0447  0.7995
  637TMC3     C 9433   1.466   1.003  15.615 -0.4725  0.4628  0.5487
  637TMC3     O 9434   1.479   0.969  15.498 -0.2462  0.4865  0.6087
  637TMC3     H 9435   1.396   0.965  15.852  0.1134 -1.4443 -1.0156
  637TMC3    H1 9436   1.691   0.947  15.572 -0.1407  1.2455  0.0587
  637TMC3    H2 9437   1.789   0.987  15.988  0.4314 -2.8972  0.9564
  637TMC3    C7 9438   1.848   1.083  15.751 -0.2231  0.2122  0.3334
  637TMC3    C8 9439   1.548   1.081  16.006  0.0952  0.4191  0.1890
  637TMC3    O1 9440   1.867   1.164  15.842 -0.0478 -0.1299  0.2184
  637TMC3    O2 9441   1.475   1.157  15.942 -0.5876  0.1381 -0.0039
  638MPD2     C 9442   0.770   0.661  14.603  0.2100 -0.6764  0.1744
  638MPD2    C1 9443   0.736   0.554  14.520  0.1140 -0.1353  0.7865
  638MPD2    C2 9444   0.702   0.432  14.575  0.0864 -0.6266 -0.1671
  638MPD2    C3 9445   0.700   0.415  14.714 -0.0356 -0.2558 -0.1988
  638MPD2    C4 9446   0.738   0.516  14.796  0.2397 -0.3796  0.2319
  638MPD2    C5 9447   0.772   0.637  14.737  0.2450  0.3435  0.0745
  638MPD2     H 9448   0.677   0.350  14.510 -1.2276  0.6169 -1.2299
  638MPD2    H1 9449   0.745   0.508  14.904 -0.7565  2.4175  0.5276
  638MPD2    H2 9450   0.788   0.758  14.558 -0.8088 -0.2511  0.6890
  638MPD2    H3 9451   0.798   0.721  14.799  0.8201 -0.1923  0.5531
  638MPD2     N 9452   0.669   0.285  14.759 -0.0437  0.4376 -0.8405
  638MPD2    H5 9453   0.634   0.219  14.691  0.2002 -0.4335 -0.1222
  638MPD2    N1 9454   0.727   0.576  14.380 -0.2787  0.2700 -0.0845
  638MPD2    H7 9455   0.776   0.660  14.348  1.6598 -1.4599 -1.6727
  639TMC3    C1 9456   0.641   0.112  14.924 -0.4178 -0.1168  0.3719
  639TMC3    C2 9457   0.531   0.056  14.876  0.1358 -0.1586  0.0970
  639TMC3    C3 9458   0.503   4.649  14.924  0.6015 -0.1906 -0.3507
  639TMC3    C4 9459   0.735   0.052  15.002 -0.7980 -0.9069  0.2783
  639TMC3    C5 9460   0.712   4.641  15.036 -0.1276 -0.3286 -0.8973
  639TMC3    C6 9461   0.593   4.582  15.002  0.7620 -0.2217  0.0871
  639TMC3     C 9462   0.678   0.252  14.891  0.4446  0.4150  0.7122
  639TMC3     O 9463   0.701   0.317  14.994  0.4424 -0.0933  0.0888
  639TMC3     H 9464   0.471   0.118  14.811  2.3358  0.7466 -1.0629
  639TMC3    H1 9465   0.823   0.105  15.038 -3.2888  3.4001 -0.0553
  639TMC3    H2 9466   0.581   4.474  15.004 -2.3823  0.1237  0.3311
  639TMC3    C7 9467   0.821   4.550  15.021 -0.3933 -0.1731  0.4413
  639TMC3    C8 9468   0.445   4.560  14.823  0.0447 -0.5164  0.3195
  639TMC3    O1 9469   0.798   4.436  15.058 -0.3967  0.4713 -0.3094
  639TMC3    O2 9470   0.516   4.470  14.779 -0.2357 -0.1440  0.0743
  640MPD2     C 9471   1.212   3.580  10.044 -0.3238  0.3204  0.1493
  640MPD2    C1 9472   1.233   3.678   9.949  0.2131 -0.4682 -0.2526
  640MPD2    C2 9473   1.133   3.769   9.917  0.5544 -1.0615  0.2420
  640MPD2    C3 9474   1.010   3.755   9.979  0.1117  0.1384 -0.4040
  640MPD2    C4 9475   0.986   3.654  10.073  0.4793  0.7861 -0.5293
  640MPD2    C5 9476   1.089   3.575  10.112 -0.2166  0.1419  0.1361
  640MPD2     H 9477   1.152   3.849   9.846  0.3196 -0.5499  0.7457
  640MPD2    H1 9478   0.902   3.649  10.142  1.1918  1.9959  0.4378
  640MPD2    H2 9479   1.291   3.510  10.072 -0.8994  0.2785  1.7013
  640MPD2    H3 9480   1.076   3.516  10.203 -2.5850 -0.9936 -0.9350
  640MPD2     N 9481   0.902   3.851   9.955 -0.2724  0.2943 -0.0472
  640MPD2    H5 9482   0.822   3.844  10.016  1.0235  2.6621  1.9316
  640MPD2    N1 9483   1.357   3.664   9.869  0.5824 -0.0931 -0.5094
  640MPD2    H7 9484   1.411   3.582   9.894  2.0073  1.4532  1.4825
  641TMC3    C1 9485   1.507   3.685   9.683 -0.4999 -0.6112 -0.2128
  641TMC3    C2 9486   1.559   3.560   9.708 -0.2568  0.4966 -0.0459
  641TMC3    C3 9487   1.628   3.505   9.609  0.7853  1.0529 -0.5323
  641TMC3    C4 9488   1.519   3.744   9.564  0.4840 -0.3399 -0.4170
  641TMC3    C5 9489   1.589   3.689   9.461  0.1484 -0.5869  0.6006
  641TMC3    C6 9490   1.634   3.559   9.484  0.1025 -0.2163 -0.0274
  641TMC3     C 9491   1.399   3.745   9.766  0.1899 -0.1711 -0.1016
  641TMC3     O 9492   1.345   3.846   9.725 -0.9584  0.5203  0.0928
  641TMC3     H 9493   1.544   3.501   9.798  0.1827  0.1954 -0.1701
  641TMC3    H1 9494   1.495   3.849   9.560  3.7588  0.3634 -1.3665
  641TMC3    H2 9495   1.702   3.515   9.411  0.8265  2.6189 -1.0762
  641TMC3    C7 9496   1.625   3.767   9.349 -0.0672 -0.4694 -0.3460
  641TMC3    C8 9497   1.706   3.386   9.633 -0.9581  0.4515  0.4324
  641TMC3    O1 9498   1.724   3.748   9.278  0.0402 -0.0737 -0.7504
  641TMC3    O2 9499   1.747   3.331   9.531 -0.4293  0.1232  0.4835
  642TMC3    C1 9500   2.165   0.306  12.082  0.4138 -0.8420  0.6840
  642TMC3    C2 9501   2.177   0.359  12.210  0.0461  0.2425  0.5217
  642TMC3    C3 9502   2.207   0.275  12.310 -0.6742  0.5348 -0.2473
  642TMC3    C4 9503   2.167   0.174  12.061 -0.2870 -0.0560  0.1680
  642TMC3    C5 9504   2.193   0.090  12.163  0.3407 -0.2960 -0.0755
  642TMC3    C6 9505   2.216   0.140  12.296  0.0024 -0.4572  0.4125
  642TMC3     C 9506   2.100   0.392  11.984  0.2465 -0.0351 -0.3597
  642TMC3     O 9507   2.115   0.381  11.863 -0.2935 -0.0629  0.4043
  642TMC3     H 9508   2.171   0.466  12.226 -1.6127  0.1816  0.2974
  642TMC3    H1 9509   2.124   0.140  11.968  0.9344  4.0662 -1.8778
  642TMC3    H2 9510   2.238   0.074  12.379 -0.5301 -0.0531  0.8707
  642TMC3    C7 9511   2.159   4.672  12.133  0.2594 -0.1476 -0.6425
  642TMC3    C8 9512   2.253   0.327  12.436 -0.1099 -0.0005 -0.8426
  642TMC3    O1 9513   2.142   4.638  12.015  0.0502 -0.7463 -0.0355
  642TMC3    O2 9514   2.345   0.263  12.484  0.2393  0.0089 -0.1171
  643TMC3    C1 9515   1.565   3.905   0.369  0.2229  0.6133  0.8868
  643TMC3    C2 9516   1.431   3.920   0.338  0.2447  0.0250  0.2152
  643TMC3    C3 9517   1.399   3.972   0.217  1.1194  0.3836 -0.0686
  643TMC3    C4 9518   1.671   3.923   0.273 -0.5792  0.2992  0.5409
  643TMC3    C5 9519   1.622   3.963   0.144 -0.0515  0.2222 -0.2669
  643TMC3    C6 9520   1.492   3.985   0.123 -0.3039  0.5544 -0.0710
  643TMC3     C 9521   1.588   3.843   0.497 -0.2127  0.5427 -0.0453
  643TMC3     O 9522   1.493   3.784   0.545 -0.2482  0.2823  0.5327
  643TMC3     H 9523   1.352   3.916   0.413  1.2457  1.0317  1.3199
  643TMC3    H1 9524   1.774   3.893   0.292 -1.6551 -2.4418  2.0036
  643TMC3    H2 9525   1.477   4.027   0.024  0.6885  2.0696  0.4269
  643TMC3    C7 9526   1.711   4.011   0.041  0.0574  0.4394  1.1397
  643TMC3    C8 9527   1.256   3.969   0.171  0.3372  0.4793 -0.1026
  643TMC3    O1 9528   1.670   4.103  17.652 -0.1009 -0.2400  0.0976
  643TMC3    O2 9529   1.174   3.893   0.227 -0.3871 -0.0224 -0.1114
  644MPD2     C 9530   1.287   4.436   9.312  0.3154  0.3422  1.0942
  644MPD2    C1 9531   1.407   4.502   9.284 -0.5364  0.3612 -0.5514
  644MPD2    C2 9532   1.400   4.643   9.265 -0.3957 -0.8563 -0.3704
  644MPD2    C3 9533   1.281   4.706   9.284 -0.4318  0.0022 -0.0642
  644MPD2    C4 9534   1.167   4.636   9.305 -0.4976 -0.0300 -0.0185
  644MPD2    C5 9535   1.169   4.506   9.328  0.2134 -0.2684  0.4114
  644MPD2     H 9536   1.490   4.702   9.249  0.5999 -1.8622  1.5447
  644MPD2    H1 9537   1.077   4.692   9.328 -0.8228 -0.7734  0.5246
  644MPD2    H2 9538   1.285   4.328   9.324 -1.2200  0.5585  2.7946
  644MPD2    H3 9539   1.082   4.449   9.360  0.1872  0.5738  1.8438
  644MPD2     N 9540   1.285   0.128   9.283  0.8147  0.2983  0.1796
  644MPD2    H5 9541   1.378   0.168   9.271 -0.0382  2.2922  0.2594
  644MPD2    N1 9542   1.520   4.426   9.289 -0.2067 -0.3072  0.3450
  644MPD2    H7 9543   1.506   4.330   9.322 -1.8316 -1.0924 -2.6032
  645TMC3    C1 9544   1.213   0.355   9.302  0.6449  0.6248 -0.4878
  645TMC3    C2 9545   1.335   0.392   9.344 -0.3720  0.3058  0.6005
  645TMC3    C3 9546   1.353   0.522   9.339  1.5929 -0.2402  0.0859
  645TMC3    C4 9547   1.104   0.433   9.275  0.1903 -0.4575  0.3309
  645TMC3    C5 9548   1.137   0.570   9.256  0.2124 -0.2651  0.2036
  645TMC3    C6 9549   1.259   0.617   9.297  0.2247 -0.2366 -0.1589
  645TMC3     C 9550   1.180   0.213   9.295 -0.3069  0.4606  0.0168
  645TMC3     O 9551   1.057   0.188   9.292  0.1049  0.0848  0.1461
  645TMC3     H 9552   1.412   0.321   9.375 -1.4083  0.1084  2.7473
  645TMC3    H1 9553   1.014   0.392   9.229  0.2330 -1.0981  0.8139
  645TMC3    H2 9554   1.287   0.722   9.301  2.4889 -0.8520  0.2730
  645TMC3    C7 9555   1.042   0.663   9.204 -0.1821  0.0686  0.3973
  645TMC3    C8 9556   1.485   0.582   9.367  0.2715 -0.3210 -0.6729
  645TMC3    O1 9557   1.085   0.777   9.183 -0.4328  0.8971 -0.1572
  645TMC3    O2 9558   1.488   0.706   9.389  0.1749 -0.7084 -0.1721
  646MPD2     C 9559   1.046   3.915  14.351 -0.7059 -1.2283  0.5171
  646MPD2    C1 9560   0.961   3.830  14.420  0.4146  0.2040 -0.3298
  646MPD2    C2 9561   0.827   3.862  14.421 -0.4560 -0.1604 -1.0431
  646MPD2    C3 9562   0.774   3.956  14.347 -0.1191  0.3531  0.5215
  646MPD2    C4 9563   0.864   4.049  14.290  0.2395 -0.0593  0.0983
  646MPD2    C5 9564   0.998   4.025  14.292  0.4217  0.3341 -0.0861
  646MPD2     H 9565   0.759   3.802  14.481 -1.1101 -0.4202 -2.0340
  646MPD2    H1 9566   0.827   4.129  14.227  0.5316 -0.2084 -0.2646
  646MPD2    H2 9567   1.152   3.896  14.334 -0.7065  1.0129 -1.9606
  646MPD2    H3 9568   1.067   4.086  14.236  0.1284 -0.1814 -1.0064
  646MPD2     N 9569   0.628   3.968  14.330 -0.0708  0.4464 -0.6072
  646MPD2    H5 9570   0.564   3.927  14.397  1.4893  0.3150  0.8036
  646MPD2    N1 9571   1.015   3.728  14.495  0.4057  0.4278  0.2962
  646MPD2    H7 9572   1.116   3.728  14.491  0.3681  0.8652 -0.7086
  647TMC3    C1 9573   1.053   3.532  14.596 -0.4832  0.1550 -0.1362
  647TMC3    C2 9574   1.028   3.399  14.569  0.1741  0.7455 -0.0086
  647TMC3    C3 9575   1.121   3.303  14.577 -0.5650 -0.1986 -0.0976
  647TMC3    C4 9576   1.180   3.571  14.631  0.0703  0.5075  0.4831
  647TMC3    C5 9577   1.270   3.471  14.656 -0.3600 -0.3407  0.6133
  647TMC3    C6 9578   1.244   3.340  14.626 -0.1244  0.1947  0.1258
  647TMC3     C 9579   0.951   3.621  14.539  0.0851  1.2104 -0.9287
  647TMC3     O 9580   0.838   3.580  14.536 -0.2827 -0.0980  0.2890
  647TMC3     H 9581   0.924   3.372  14.554  0.3385 -0.5380  1.1329
  647TMC3    H1 9582   1.185   3.673  14.668  0.5541 -0.2830  2.5697
  647TMC3    H2 9583   1.320   3.265  14.608 -0.2838 -0.1954  1.0716
  647TMC3    C7 9584   1.396   3.491  14.728  0.2549 -0.0483 -0.2436
  647TMC3    C8 9585   1.075   3.173  14.615 -0.7666  0.2379  0.3935
  647TMC3    O1 9586   1.482   3.406  14.732  0.4550 -0.6512  0.2776
  647TMC3    O2 9587   0.971   3.131  14.564 -0.0552 -0.3771  0.2522
  648TMC3    C1 9588   0.016   1.296  15.795  0.2258  0.1226  0.8864
  648TMC3    C2 9589   0.033   1.185  15.718  0.5010 -0.0751 -0.1999
  648TMC3    C3 9590   4.699   1.199  15.587 -0.0195 -0.4785  0.5714
  648TMC3    C4 9591   4.675   1.416  15.745  0.7143 -0.2033 -0.3074
  648TMC3    C5 9592   4.613   1.417  15.620  0.0076 -0.5007  0.3207
  648TMC3    C6 9593   4.623   1.305  15.538  0.1341  0.1789  0.3548
  648TMC3     C 9594   0.054   1.289  15.931  0.5009  0.8331 -0.7263
  648TMC3     O 9595   0.070   1.396  15.991  0.0231 -0.0977 -0.0875
  648TMC3     H 9596   0.071   1.090  15.752 -1.3583 -0.8340 -0.2227
  648TMC3    H1 9597   4.651   1.496  15.815  1.5319 -0.6227  0.4565
  648TMC3    H2 9598   4.567   1.296  15.445  2.3087  2.1405 -1.1321
  648TMC3    C7 9599   4.508   1.511  15.598 -0.7029 -0.0399 -0.5590
  648TMC3    C8 9600   4.716   1.081  15.508  0.6698  0.1185 -0.4790
  648TMC3    O1 9601   4.408   1.456  15.560  0.0180 -0.1826  0.1714
  648TMC3    O2 9602   4.623   1.023  15.447  0.2141  0.2712  0.6157
  649TMC3    C1 9603   3.143   2.548  12.827  0.4215  0.4076  0.2403
  649TMC3    C2 9604   3.257   2.557  12.749  0.3983  0.2950 -0.6564
  649TMC3    C3 9605   3.378   2.527  12.802  0.2189 -0.0418 -0.4065
  649TMC3    C4 9606   3.152   2.516  12.959 -0.8066 -0.6375  0.2479
  649TMC3    C5 9607   3.274   2.473  13.007 -0.5463 -0.0471  0.6835
  649TMC3    C6 9608   3.394   2.489  12.934  0.2704 -0.3925 -0.4347
  649TMC3     C 9609   3.034   2.642  12.794 -0.9585  0.0241  0.8839
  649TMC3     O 9610   2.995   2.719  12.884  0.0067  0.0272  0.1278
  649TMC3     H 9611   3.245   2.585  12.645  0.9982  1.1899 -0.4831
  649TMC3    H1 9612   3.066   2.516  13.025 -1.6442  0.6695 -0.8464
  649TMC3    H2 9613   3.490   2.457  12.972  0.2213  1.1580  0.9906
  649TMC3    C7 9614   3.280   2.449  13.152  0.0947 -0.7253  0.5986
  649TMC3    C8 9615   3.496   2.508  12.720  0.1968 -0.7954 -0.1986
  649TMC3    O1 9616   3.175   2.447  13.216 -0.3687 -0.0317 -0.0555
  649TMC3    O2 9617   3.581   2.438  12.772 -0.0131  0.4923 -0.4329
  650TMC3    C1 9618   1.392   4.281  12.517  0.5651  0.2402  0.6197
  650TMC3    C2 9619   1.368   4.410  12.524  0.5340  0.7357 -0.1783
  650TMC3    C3 9620   1.245   4.460  12.498 -0.1533  0.2041 -0.2244
  650TMC3    C4 9621   1.287   4.194  12.497 -0.6858 -0.2040  0.4401
  650TMC3    C5 9622   1.171   4.247  12.463  0.0644 -0.7535 -1.0048
  650TMC3    C6 9623   1.139   4.377  12.466 -0.2917  0.3444  0.6286
  650TMC3     C 9624   1.523   4.234  12.568 -0.8123  0.0645  0.4057
  650TMC3     O 9625   1.600   4.316  12.618 -0.1818  0.7017  0.1398
  650TMC3     H 9626   1.451   4.479  12.539 -0.1126  1.5263 -0.2208
  650TMC3    H1 9627   1.303   4.087  12.485 -1.6401 -0.0286 -2.1824
  650TMC3    H2 9628   1.045   4.416  12.428  0.8879  0.0471 -2.5131
  650TMC3    C7 9629   1.090   4.160  12.382  0.3735 -0.5944  0.6936
  650TMC3    C8 9630   1.230   4.600  12.498 -0.0795 -0.4150 -0.6062
  650TMC3    O1 9631   1.077   4.043  12.417 -0.0753 -0.1781 -0.2733
  650TMC3    O2 9632   1.332   4.666  12.466 -0.0307  0.2465  0.5389
  651MPD2     C 9633   0.192   1.222  10.337  0.6588 -0.6621  0.1595
  651MPD2    C1 9634   0.192   1.332  10.417  0.2047 -0.7340  0.4009
  651MPD2    C2 9635   0.312   1.393  10.428  0.2669 -0.5595  0.1584
  651MPD2    C3 9636   0.429   1.338  10.385  0.1086  0.4795  0.4567
  651MPD2    C4 9637   0.428   1.223  10.316  0.4074  0.1300 -0.2070
  651MPD2    C5 9638   0.311   1.172  10.288  0.1827  0.2173  0.4051
  651MPD2     H 9639   0.314   1.490  10.477  1.3075 -0.6984  0.4015
  651MPD2    H1 9640   0.522   1.179  10.286  0.8669  0.3027  0.9953
  651MPD2    H2 9641   0.102   1.166  10.317  0.9130 -0.5281 -1.3170
  651MPD2    H3 9642   0.294   1.090  10.220  1.7454  0.4949 -0.3114
  651MPD2     N 9643   0.546   1.419  10.400 -0.0018  0.2183  0.3261
  651MPD2    H5 9644   0.533   1.509  10.445  0.3504  0.8254 -0.7937
  651MPD2    N1 9645   0.075   1.398  10.463 -1.0022 -0.1439  0.5618
  651MPD2    H7 9646   0.090   1.467  10.536 -1.1975  1.6176 -1.0617
  652TMC3    C1 9647   0.996   1.554  10.358  0.8330  0.1378  0.3646
  652TMC3    C2 9648   0.908   1.443  10.371 -0.5203 -0.8014  0.7778
  652TMC3    C3 9649   0.777   1.483  10.387  0.4861  0.5811 -0.5385
  652TMC3    C4 9650   0.961   1.686  10.364  0.4199 -0.1737  0.4355
  652TMC3    C5 9651   0.826   1.709  10.396  0.0636 -0.1661 -0.3914
  652TMC3    C6 9652   0.737   1.606  10.405 -0.2143 -0.4528  0.4330
  652TMC3     C 9653   1.132   1.529  10.405 -0.7818 -0.5602  0.1064
  652TMC3     O 9654   1.135   1.463  10.507  0.4838  0.0947 -0.0916
  652TMC3     H 9655   0.950   1.344  10.357  1.3860 -0.0726  1.3022
  652TMC3    H1 9656   1.035   1.764  10.356 -0.0818  0.3507  0.9487
  652TMC3    H2 9657   0.637   1.641  10.427  0.5134  1.5656  0.5374
  652TMC3    C7 9658   0.793   1.838  10.447 -0.7374  0.0314 -0.0123
  652TMC3    C8 9659   0.677   1.376  10.373  0.4790 -0.6557 -0.4347
  652TMC3    O1 9660   0.687   1.848  10.510 -0.6738  0.5542 -0.0589
  652TMC3    O2 9661   0.719   1.268  10.341 -1.2104 -0.0959  0.1042
  653MPD2     C 9662   4.251   1.031  17.492  0.3032 -0.5499 -0.0648
  653MPD2    C1 9663   4.213   1.144  17.422 -0.5634 -0.4288  0.8146
  653MPD2    C2 9664   4.159   1.127  17.299  0.5744 -0.2643 -0.3973
  653MPD2    C3 9665   4.123   1.003  17.250  0.0044  0.0392  0.2613
  653MPD2    C4 9666   4.137   0.891  17.324 -0.8377  0.6211  0.4368
  653MPD2    C5 9667   4.213   0.905  17.443 -0.1236 -0.1921  0.3881
  653MPD2     H 9668   4.129   1.212  17.239 -0.9383  0.1226  0.9430
  653MPD2    H1 9669   4.103   0.791  17.298 -0.7470  0.7221 -0.0627
  653MPD2    H2 9670   4.290   1.043  17.592  1.9305  0.6467 -0.8574
  653MPD2    H3 9671   4.247   0.819  17.498  0.0673 -0.8355 -0.7357
  653MPD2     N 9672   4.056   1.006  17.122  0.4085  0.5534 -0.6523
  653MPD2    H5 9673   4.042   1.099  17.083  0.4646  1.0926  0.5760
  653MPD2    N1 9674   4.242   1.277  17.471  0.1028  0.5420 -0.3012
  653MPD2    H7 9675   4.235   1.353  17.404 -0.0987 -0.8008 -1.7982
  654TMC3    C1 9676   3.934   0.933  16.933 -0.1295 -0.0242  0.5396
  654TMC3    C2 9677   3.860   1.043  16.911  0.4219 -0.2084 -0.0901
  654TMC3    C3 9678   3.790   1.050  16.797  0.5989 -0.3997  0.4795
  654TMC3    C4 9679   3.935   0.829  16.843  0.4081  0.9753 -0.3457
  654TMC3    C5 9680   3.858   0.841  16.730 -0.7281 -0.5948  0.0640
  654TMC3    C6 9681   3.786   0.949  16.706 -0.0547  0.0992 -0.2502
  654TMC3     C 9682   4.011   0.899  17.053  1.0354 -0.1764  0.1341
  654TMC3     O 9683   4.033   0.780  17.074  0.2356 -0.5268  0.0106
  654TMC3     H 9684   3.846   1.125  16.980 -1.5196  0.4406 -1.2597
  654TMC3    H1 9685   4.004   0.748  16.864  0.3897  1.3337  1.0965
  654TMC3    H2 9686   3.717   0.940  16.623  0.1124  0.7242 -0.4551
  654TMC3    C7 9687   3.832   0.728  16.647 -0.0168 -0.4838  0.2011
  654TMC3    C8 9688   3.746   1.177  16.753  0.2437  0.0493 -0.1841
  654TMC3    O1 9689   3.769   0.743  16.544 -0.6694  0.0355  0.3710
  654TMC3    O2 9690   3.725   1.265  16.836  0.2046  0.1425 -0.0010
  655MPD2     C 9691   0.747   1.701  15.396 -0.2184  0.6920 -0.4938
  655MPD2    C1 9692   0.622   1.716  15.345  0.6801  0.0487 -0.5153
  655MPD2    C2 9693   0.577   1.623  15.259 -0.8891  0.3795 -0.4224
  655MPD2    C3 9694   0.654   1.516  15.223  0.5004  0.6471  0.9621
  655MPD2    C4 9695   0.784   1.500  15.275  0.2699  0.2756  0.7876
  655MPD2    C5 9696   0.827   1.600  15.359  0.6241  0.1975 -0.0250
  655MPD2     H 9697   0.486   1.642  15.204 -0.9956  0.8000 -0.0915
  655MPD2    H1 9698   0.842   1.412  15.250 -1.2133  0.1254 -2.0445
  655MPD2    H2 9699   0.795   1.774  15.461  1.2091  1.5059 -2.4459
  655MPD2    H3 9700   0.931   1.594  15.392 -0.0881 -1.6265  1.9207
  655MPD2     N 9701   0.610   1.426  15.125  0.3096  0.3858  0.0483
  655MPD2    H5 9702   0.681   1.373  15.075  1.1143 -1.6252  3.3701
  655MPD2    N1 9703   0.539   1.827  15.383  0.8660  0.6340  0.1151
  655MPD2    H7 9704   0.444   1.816  15.349  0.7638 -1.5139  1.0958
  656TMC3    C1 9705   0.429   1.947  15.542  0.0415  0.0345  0.2758
  656TMC3    C2 9706   0.373   1.874  15.646  0.5507 -0.0851 -0.0075
  656TMC3    C3 9707   0.241   1.844  15.632 -0.1592 -0.2329 -0.3694
  656TMC3    C4 9708   0.349   1.993  15.437  0.3427  0.4460  0.7901
  656TMC3    C5 9709   0.215   1.974  15.440  0.0527  0.2805  0.4708
  656TMC3    C6 9710   0.164   1.889  15.533 -0.2806  0.3326  0.1584
  656TMC3     C 9711   0.558   1.896  15.500  0.2049  0.1276 -0.1079
  656TMC3     O 9712   0.643   1.869  15.584 -0.7785  0.4214  0.3637
  656TMC3     H 9713   0.432   1.830  15.726 -1.0446 -0.3453  1.0261
  656TMC3    H1 9714   0.391   2.067  15.369 -0.2470 -0.1257 -0.1991
  656TMC3    H2 9715   0.058   1.870  15.551 -0.7982  2.3873 -0.7685
  656TMC3    C7 9716   0.135   2.071  15.376 -0.1584  0.0869  0.2424
  656TMC3    C8 9717   0.169   1.791  15.746 -0.0257 -0.0990 -0.1312
  656TMC3    O1 9718   0.197   2.168  15.332  0.4324  0.4574 -0.2659
  656TMC3    O2 9719   0.068   1.723  15.730  0.1182  0.5500  0.1242
  657TMC3    C1 9720   4.197   0.816  14.584 -0.7763  1.0198 -0.0519
  657TMC3    C2 9721   4.244   0.831  14.712 -0.6280 -0.0805  0.3326
  657TMC3    C3 9722   4.179   0.929  14.787  0.2334  0.1912 -0.1012
  657TMC3    C4 9723   4.101   0.895  14.523 -0.1900 -0.1183 -0.5929
  657TMC3    C5 9724   4.047   0.987  14.609 -0.4300  0.1674  0.2535
  657TMC3    C6 9725   4.083   1.010  14.741 -0.9479  0.7455 -0.3350
  657TMC3     C 9726   4.289   0.746  14.497  0.6125  0.3660 -0.6089
  657TMC3     O 9727   4.261   0.746  14.376 -0.4488  0.1459 -0.4945
  657TMC3     H 9728   4.311   0.762  14.762 -0.5119  0.5392  1.0441
  657TMC3    H1 9729   4.058   0.880  14.425 -1.8657  0.1194  0.1208
  657TMC3    H2 9730   4.044   1.095  14.796 -2.8147  0.8783 -1.8482
  657TMC3    C7 9731   3.962   1.083  14.552 -0.4940  0.2868  0.1815
  657TMC3    C8 9732   4.226   0.941  14.927  0.4596  0.1126  0.6575
  657TMC3    O1 9733   3.877   1.039  14.474  0.1498 -0.3460  0.0543
  657TMC3    O2 9734   4.293   0.843  14.965  0.1232 -0.8938  0.3787
  658MPD2     C 9735   0.987   1.270  14.645 -0.2656 -0.2031 -0.0234
  658MPD2    C1 9736   0.860   1.258  14.601  0.0505  0.1791 -0.4056
  658MPD2    C2 9737   0.818   1.313  14.483 -0.3778  0.3403 -0.3487
  658MPD2    C3 9738   0.913   1.377  14.402  0.1123  0.1751 -0.1787
  658MPD2    C4 9739   1.047   1.386  14.447  0.4571 -0.1419 -0.2761
  658MPD2    C5 9740   1.091   1.318  14.562 -0.4293 -0.0295 -0.4504
  658MPD2     H 9741   0.717   1.319  14.445 -0.9409 -2.9146  0.6036
  658MPD2    H1 9742   1.125   1.438  14.392 -0.3975 -0.0011 -1.3674
  658MPD2    H2 9743   1.007   1.225  14.742  0.0610  0.4668  0.2187
  658MPD2    H3 9744   1.197   1.317  14.586 -1.1878 -1.2511  2.8195
  658MPD2     N 9745   0.862   1.441  14.288  0.2633 -0.3968 -0.1090
  658MPD2    H5 9746   0.766   1.431  14.256 -0.4297  0.2428  1.7997
  658MPD2    N1 9747   0.770   1.212  14.705 -0.2953 -0.2696  0.5762
  658MPD2    H7 9748   0.806   1.195  14.799 -0.6650  0.8672  0.9236
  659TMC3    C1 9749   0.529   1.221  14.776  0.6702  0.4204  0.6242
  659TMC3    C2 9750   0.557   1.263  14.906  0.4474  0.8130  0.1943
  659TMC3    C3 9751   0.456   1.320  14.979 -0.0869  0.5175 -0.5400
  659TMC3    C4 9752   0.401   1.227  14.725 -0.2188  0.8191 -0.2942
  659TMC3    C5 9753   0.295   1.262  14.812  0.4360  0.6334  0.1948
  659TMC3    C6 9754   0.325   1.311  14.938  0.2961 -0.0221 -0.2060
  659TMC3     C 9755   0.636   1.194  14.677  0.9695 -0.0708 -0.1305
  659TMC3     O 9756   0.590   1.147  14.573 -0.0649  0.0130  0.3795
  659TMC3     H 9757   0.656   1.260  14.949  0.2777 -1.4776  0.4471
  659TMC3    H1 9758   0.386   1.199  14.621 -3.4243  0.3157  0.3117
  659TMC3    H2 9759   0.247   1.330  15.010  0.0804 -0.4146 -0.3399
  659TMC3    C7 9760   0.161   1.257  14.774  0.0440  0.5503 -0.2083
  659TMC3    C8 9761   0.477   1.402  15.098  0.4752  0.1145 -0.1148
  659TMC3    O1 9762   0.085   1.337  14.830 -0.1701 -0.1403  0.2888
  659TMC3    O2 9763   0.384   1.447  15.166 -0.1252 -0.3635 -0.0712
  660MPD2     C 9764   3.480   0.166  12.657  0.6750  0.3095  0.1419
  660MPD2    C1 9765   3.383   0.258  12.682  0.6956  0.4030  0.1119
  660MPD2    C2 9766   3.280   0.238  12.772  0.4231  0.5479 -0.1756
  660MPD2    C3 9767   3.280   0.119  12.849 -0.3754 -0.2947  0.1456
  660MPD2    C4 9768   3.384   0.028  12.829 -0.7977 -0.3920 -0.0405
  660MPD2    C5 9769   3.479   0.049  12.735  0.3827 -0.2593 -0.0516
  660MPD2     H 9770   3.202   0.314  12.781  0.4034  0.4892  0.1684
  660MPD2    H1 9771   3.377   4.657  12.887  2.9671 -0.4149  0.3574
  660MPD2    H2 9772   3.570   0.180  12.598  1.2786 -1.8421  0.5456
  660MPD2    H3 9773   3.552   4.689  12.720 -0.1483 -0.3956 -2.0072
  660MPD2     N 9774   3.176   0.079  12.933 -0.4355  0.2623 -1.1058
  660MPD2    H5 9775   3.179   4.705  12.973 -0.2542  1.0344  0.6812
  660MPD2    N1 9776   3.383   0.373  12.601  0.9201  0.4108  0.1505
  660MPD2    H7 9777   3.458   0.371  12.533 -0.6800  0.8449 -1.6433
  661TMC3    C1 9778   3.288   0.571  12.496 -0.5010  0.1704 -0.3096
  661TMC3    C2 9779   3.355   0.527  12.386 -0.0579 -0.1540 -0.1344
  661TMC3    C3 9780   3.285   0.556  12.266 -0.0416 -1.2215 -0.5115
  661TMC3    C4 9781   3.166   0.639  12.488 -0.7721  0.0472 -0.2839
  661TMC3    C5 9782   3.108   0.661  12.373 -0.1402  0.2854  0.5203
  661TMC3    C6 9783   3.169   0.626  12.257  0.4350  0.4765  0.6635
  661TMC3     C 9784   3.295   0.486  12.612 -0.3961 -0.1336  0.4267
  661TMC3     O 9785   3.220   0.511  12.700  0.0003  0.1871 -0.2631
  661TMC3     H 9786   3.455   0.484  12.387 -1.4636 -3.4336  0.8267
  661TMC3    H1 9787   3.109   0.663  12.577  0.8653 -0.0875  0.7961
  661TMC3    H2 9788   3.119   0.639  12.162  1.8671 -0.4086 -0.2173
  661TMC3    C7 9789   2.963   0.636  12.391 -0.0758  0.2803  0.5828
  661TMC3    C8 9790   3.369   0.553  12.151  0.2662  0.0682  0.2698
  661TMC3    O1 9791   2.904   0.659  12.495 -0.3040  0.3891  0.3841
  661TMC3    O2 9792   3.453   0.463  12.147  0.6947  0.7210  0.4161
  662MPD2     C 9793   3.570   4.193  17.071 -0.0247 -0.1044 -0.6151
  662MPD2    C1 9794   3.572   4.295  17.168 -0.1346 -0.7116  0.3775
  662MPD2    C2 9795   3.512   4.423  17.145  0.0818 -0.1014 -0.3543
  662MPD2    C3 9796   3.444   4.436  17.027  0.1599  0.1267 -0.0467
  662MPD2    C4 9797   3.429   4.334  16.934 -0.1319  0.2675  0.0261
  662MPD2    C5 9798   3.494   4.216  16.960 -0.2502  0.4350 -0.1634
  662MPD2     H 9799   3.512   4.500  17.220 -0.9097 -0.3020 -0.1461
  662MPD2    H1 9800   3.375   4.335  16.840 -2.5404 -0.7666  1.4125
  662MPD2    H2 9801   3.618   4.096  17.074  2.9268  1.4086  0.9375
  662MPD2    H3 9802   3.465   4.139  16.890  0.0745 -1.6421  1.9933
  662MPD2     N 9803   3.383   4.555  16.990 -0.1269  0.0077  0.0208
  662MPD2    H5 9804   3.307   4.554  16.923 -0.7544 -0.2740  0.7472
  662MPD2    N1 9805   3.645   4.282  17.286  0.2468  0.2736  0.2229
  662MPD2    H7 9806   3.657   4.366  17.343  4.5305  0.3845 -0.9033
  663TMC3    C1 9807   3.731   4.185  17.487 -0.2954 -0.0838  0.1011
  663TMC3    C2 9808   3.746   4.313  17.543 -0.3844  0.4917  0.4199
  663TMC3    C3 9809   3.734   4.332  17.674 -0.8627 -0.2392 -0.4870
  663TMC3    C4 9810   3.722   4.070  17.561  0.3368  0.2769  0.4627
  663TMC3    C5 9811   3.727   4.094   0.015  0.1639 -0.1381 -0.7562
  663TMC3    C6 9812   3.720   4.220   0.069 -0.3581 -0.1750 -0.0964
  663TMC3     C 9813   3.694   4.171  17.343  0.0582 -0.0419  0.3557
  663TMC3     O 9814   3.671   4.059  17.309 -0.1589 -0.3470  0.2387
  663TMC3     H 9815   3.735   4.404  17.484  1.2398  1.0416  0.9686
  663TMC3    H1 9816   3.747   3.976  17.515  1.5529  0.3287  1.0030
  663TMC3    H2 9817   3.741   4.230   0.175 -2.3564  1.8690  0.0966
  663TMC3    C7 9818   3.742   3.987   0.109 -0.8287 -0.2778 -0.0057
  663TMC3    C8 9819   3.631   4.436   0.030 -0.0958 -0.5135 -0.2027
  663TMC3    O1 9820   3.803   4.016   0.211  0.0051 -0.3169  0.1964
  663TMC3    O2 9821   3.574   4.488  17.612  0.0041  0.0985 -0.0729
  664MPD2     C 9822   1.950   2.549  17.171  0.2812 -0.2931  0.5576
  664MPD2    C1 9823   2.031   2.649  17.224  0.1471  0.5319  0.7052
  664MPD2    C2 9824   2.066   2.628  17.357 -0.9353  0.6923 -0.2672
  664MPD2    C3 9825   2.030   2.515  17.434 -0.0773 -0.2189  0.0373
  664MPD2    C4 9826   1.950   2.424  17.382 -0.9085  0.3339  0.3642
  664MPD2    C5 9827   1.906   2.444  17.253  0.4612  0.1264  0.6320
  664MPD2     H 9828   2.125   2.707  17.402  1.0597 -0.0163 -1.6341
  664MPD2    H1 9829   1.905   2.336  17.428 -0.2837  0.4949  1.2951
  664MPD2    H2 9830   1.905   2.553  17.073 -1.8520  3.9343  1.7128
  664MPD2    H3 9831   1.832   2.370  17.221 -0.4129  0.1113  2.7042
  664MPD2     N 9832   2.058   2.523  17.573 -0.5035  0.0636  0.4532
  664MPD2    H5 9833   2.114   2.600  17.607  0.8313 -0.6958 -0.0379
  664MPD2    N1 9834   2.062   2.780  17.166 -0.3513  0.0761  0.2340
  664MPD2    H7 9835   2.121   2.842  17.221  0.3395 -0.4155  0.0404
  665TMC3    C1 9836   2.029   2.498   0.122 -0.0895  0.5122  0.7684
  665TMC3    C2 9837   1.976   2.422   0.221  0.1258 -0.7041  0.0539
  665TMC3    C3 9838   1.978   2.487   0.341  0.3053  0.0132  0.4605
  665TMC3    C4 9839   2.087   2.621   0.136 -0.0546  0.6074 -0.2242
  665TMC3    C5 9840   2.100   2.673   0.262 -0.0292  0.4177  0.5285
  665TMC3    C6 9841   2.040   2.606   0.362  0.1561 -0.1147  0.7448
  665TMC3     C 9842   2.008   2.443  17.671 -0.9991 -0.1076 -0.1079
  665TMC3     O 9843   1.937   2.339  17.661  0.8080  0.3216  0.0099
  665TMC3     H 9844   1.931   2.325   0.203 -1.6581  0.3073 -0.9474
  665TMC3    H1 9845   2.118   2.686   0.054  0.6441 -0.6523 -0.9630
  665TMC3    H2 9846   2.021   2.644   0.462 -1.4269  0.0489  0.3774
  665TMC3    C7 9847   2.131   2.810   0.284  0.4014  0.2603  0.2107
  665TMC3    C8 9848   1.892   2.449   0.443 -0.4308 -0.1361 -0.6448
  665TMC3    O1 9849   2.144   2.877   0.180  0.2530 -0.2615  0.0954
  665TMC3    O2 9850   1.821   2.531   0.498 -0.2219  0.1608  0.4432
  666TMC3    C1 9851   1.214   2.714   9.609 -0.2094 -0.0988  0.6169
  666TMC3    C2 9852   1.244   2.686   9.745  0.5285 -0.1132 -0.4577
  666TMC3    C3 9853   1.301   2.784   9.816  1.1721  0.6651  0.6282
  666TMC3    C4 9854   1.235   2.840   9.556 -0.1418  0.5222  0.0775
  666TMC3    C5 9855   1.283   2.935   9.640  0.4373  0.0177  0.0845
  666TMC3    C6 9856   1.332   2.909   9.768  0.1571 -0.2071 -0.8559
  666TMC3     C 9857   1.118   2.634   9.540 -0.1415  0.6023  0.2219
  666TMC3     O 9858   1.092   2.674   9.427 -0.0069 -0.4477  0.2354
  666TMC3     H 9859   1.211   2.593   9.790  1.7197 -0.4377 -0.2454
  666TMC3    H1 9860   1.207   2.871   9.456  1.3450 -0.1561 -0.5577
  666TMC3    H2 9861   1.361   2.998   9.823 -3.7782  0.8051 -0.4827
  666TMC3    C7 9862   1.274   3.071   9.599 -0.1557  0.3935  0.3864
  666TMC3    C8 9863   1.343   2.751   9.952  0.6128  0.3688 -0.2353
  666TMC3    O1 9864   1.291   3.102   9.479 -0.3690 -0.3526 -0.1638
  666TMC3    O2 9865   1.310   2.648  10.003 -0.0738 -0.1404 -0.1321
  667MPD2     C 9866   3.052   3.212  14.560  0.1065 -0.0062 -0.1271
  667MPD2    C1 9867   2.949   3.267  14.637 -0.2799 -0.0350 -0.4654
  667MPD2    C2 9868   2.832   3.203  14.647 -0.4229 -0.0388  0.5562
  667MPD2    C3 9869   2.813   3.082  14.579 -0.3158  0.0859  0.2971
  667MPD2    C4 9870   2.914   3.024  14.504 -0.2682  0.0857 -0.0086
  667MPD2    C5 9871   3.033   3.097  14.488 -0.7811 -0.0987  0.8266
  667MPD2     H 9872   2.748   3.259  14.687 -0.1849 -0.6956  1.9805
  667MPD2    H1 9873   2.898   2.936  14.442  1.1782 -1.5507  1.9286
  667MPD2    H2 9874   3.143   3.270  14.551  0.4256 -0.4418  0.2818
  667MPD2    H3 9875   3.104   3.082  14.408 -2.4632 -0.6243 -0.5551
  667MPD2     N 9876   2.688   3.019  14.576 -0.0194 -0.0536 -0.4899
  667MPD2    H5 9877   2.675   2.940  14.514  0.5122  0.0326 -0.7151
  667MPD2    N1 9878   2.960   3.390  14.710 -0.9126 -0.5136  0.2343
  667MPD2    H7 9879   2.879   3.420  14.762 -1.1963 -1.3547  0.2815
  668TMC3    C1 9880   3.054   3.592  14.774  0.4116 -0.3262  0.6758
  668TMC3    C2 9881   3.121   3.695  14.713 -0.1886  0.7816 -0.4082
  668TMC3    C3 9882   3.101   3.820  14.766  0.1341 -0.5690  0.0982
  668TMC3    C4 9883   2.986   3.607  14.889  0.5450  0.1976  0.0062
  668TMC3    C5 9884   2.972   3.735  14.943  0.0027  0.1906 -0.2699
  668TMC3    C6 9885   3.028   3.841  14.878  0.9398 -0.3168 -0.2448
  668TMC3     C 9886   3.071   3.470  14.704  0.7196 -0.4868 -0.1161
  668TMC3     O 9887   3.172   3.466  14.635  0.9479  0.0426 -0.0524
  668TMC3     H 9888   3.165   3.679  14.615  2.6516  1.9446  0.6565
  668TMC3    H1 9889   2.947   3.518  14.936  0.5276  0.5084  0.5733
  668TMC3    H2 9890   3.030   3.939  14.925 -0.8937  0.0535 -0.9562
  668TMC3    C7 9891   2.923   3.748  15.088  0.0154 -0.0965 -0.9808
  668TMC3    C8 9892   3.188   3.928  14.721 -0.5248 -0.0165  0.4715
  668TMC3    O1 9893   2.976   3.844  15.141  0.1585 -0.0267 -0.8997
  668TMC3    O2 9894   3.194   4.026  14.794 -0.1363 -0.1951 -0.5309
  669TMC3    C1 9895   0.725   2.730  14.365 -0.4589 -0.3009 -1.2357
  669TMC3    C2 9896   0.623   2.756  14.274  0.4005 -0.0266 -0.2719
  669TMC3    C3 9897   0.662   2.839  14.172  0.0387  0.6517 -0.0241
  669TMC3    C4 9898   0.843   2.800  14.361  0.3539 -0.0606  0.2623
  669TMC3    C5 9899   0.868   2.902  14.268  0.6053  0.4883  0.0759
  669TMC3    C6 9900   0.777   2.925  14.176 -0.2655  0.9000  0.5365
  669TMC3     C 9901   0.704   2.654  14.479  0.2923 -0.8845 -0.4289
  669TMC3     O 9902   0.768   2.680  14.584  0.1099  0.0429 -0.4083
  669TMC3     H 9903   0.519   2.729  14.290  0.9835 -0.8174  2.1165
  669TMC3    H1 9904   0.918   2.793  14.440 -0.6961 -2.3830  1.0445
  669TMC3    H2 9905   0.805   2.990  14.094  0.9403  0.5711  0.6960
  669TMC3    C7 9906   0.987   2.981  14.269 -0.3868 -0.1052 -0.2391
  669TMC3    C8 9907   0.554   2.880  14.088 -0.5597  0.9823 -0.2844
  669TMC3    O1 9908   0.985   3.085  14.205 -0.7495 -0.4415  0.2294
  669TMC3    O2 9909   0.464   2.799  14.090  0.1396 -0.1506  0.1148
  670MPD2     C 9910   3.373   0.672  13.562 -0.2757  0.1272 -0.0888
  670MPD2    C1 9911   3.508   0.697  13.584  0.6075  0.3840  0.4212
  670MPD2    C2 9912   3.556   0.668  13.711 -0.7599 -0.0477 -0.4655
  670MPD2    C3 9913   3.482   0.620  13.810 -0.1639  0.2328  0.1230
  670MPD2    C4 9914   3.352   0.595  13.783  0.3948  0.6926  0.6111
  670MPD2    C5 9915   3.296   0.617  13.662 -0.9379  0.1119  0.5738
  670MPD2     H 9916   3.663   0.678  13.730 -0.6102 -4.5988  0.9903
  670MPD2    H1 9917   3.281   0.543  13.847  0.0772  0.6957  0.2591
  670MPD2    H2 9918   3.323   0.682  13.466 -0.8757  1.2525  0.3391
  670MPD2    H3 9919   3.193   0.586  13.649 -0.5508 -0.4333 -1.1663
  670MPD2     N 9920   3.541   0.569  13.931 -0.2604  0.6493  0.5076
  670MPD2    H5 9921   3.642   0.569  13.927 -0.2989 -0.5199 -0.7653
  670MPD2    N1 9922   3.592   0.733  13.479 -0.4418 -0.3131 -0.2165
  670MPD2    H7 9923   3.690   0.749  13.502 -0.5275 -1.8737  1.2269
  671TMC3    C1 9924   3.561   0.464  14.148  0.8444 -0.6674 -0.1108
  671TMC3    C2 9925   3.697   0.466  14.131 -0.5108 -0.1445 -0.5812
  671TMC3    C3 9926   3.769   0.371  14.201 -0.6247 -0.0105 -0.6004
  671TMC3    C4 9927   3.497   0.388  14.244 -0.6355  0.6620  0.3151
  671TMC3    C5 9928   3.573   0.304  14.314 -0.3506  0.3315 -0.4608
  671TMC3    C6 9929   3.710   0.295  14.300 -0.1397 -0.2704  0.7894
  671TMC3     C 9930   3.477   0.517  14.036 -0.3245 -0.5148 -0.4692
  671TMC3     O 9931   3.357   0.484  14.041  0.1854 -0.5341  0.0405
  671TMC3     H 9932   3.745   0.524  14.053 -0.6786 -0.8401 -1.2070
  671TMC3    H1 9933   3.389   0.386  14.250 -0.6813 -1.2366 -1.3064
  671TMC3    H2 9934   3.743   0.195  14.329 -0.1960 -0.5671 -0.1620
  671TMC3    C7 9935   3.499   0.190  14.349 -0.3542 -0.4336  0.3731
  671TMC3    C8 9936   3.894   0.315  14.138  0.2152  0.0143 -0.4808
  671TMC3    O1 9937   3.434   0.207  14.451 -0.2736  0.2941  0.2898
  671TMC3    O2 9938   3.926   0.359  14.029 -0.3445  0.2634 -0.3267
  672MPD2     C 9939   4.448   0.167   1.061  0.0200 -0.0710 -0.9877
  672MPD2    C1 9940   4.397   0.279   0.997 -0.4425 -0.0767  0.7565
  672MPD2    C2 9941   4.389   0.398   1.064 -0.1065 -0.2896  0.1020
  672MPD2    C3 9942   4.444   0.410   1.192 -0.9731  0.4963  0.3225
  672MPD2    C4 9943   4.508   0.299   1.247  0.3929 -0.2050 -0.2094
  672MPD2    C5 9944   4.512   0.187   1.180  0.0410 -0.5326  0.6046
  672MPD2     H 9945   4.335   0.480   1.019  0.7445  0.9616  1.3535
  672MPD2    H1 9946   4.549   0.298   1.347  0.3719 -3.4079 -0.2412
  672MPD2    H2 9947   4.444   0.067   1.021  0.1921  0.4616 -2.3295
  672MPD2    H3 9948   4.546   0.103   1.241 -0.2995 -1.2864 -0.2440
  672MPD2     N 9949   4.437   0.534   1.272  0.1791 -0.6491  0.6113
  672MPD2    H5 9950   4.481   0.535   1.363  4.8127 -1.2211 -1.6294
  672MPD2    N1 9951   4.337   0.272   0.871 -0.0709  0.3098 -0.0968
  672MPD2    H7 9952   4.285   0.351   0.833 -0.0279 -0.3394 -1.4928
  673TMC3    C1 9953   4.327   0.213   0.646  0.3458 -0.1565  0.2155
  673TMC3    C2 9954   4.441   0.254   0.582  0.5942  0.2800 -0.8675
  673TMC3    C3 9955   4.437   0.359   0.495  0.3356 -0.1296 -0.4534
  673TMC3    C4 9956   4.216   0.287   0.649  0.4535  0.9498  0.1346
  673TMC3    C5 9957   4.210   0.382   0.550  0.8162 -0.0676  0.7422
  673TMC3    C6 9958   4.319   0.423   0.472 -0.6230 -0.0630  0.2421
  673TMC3     C 9959   4.364   0.166   0.783  0.5684 -0.2626 -0.8824
  673TMC3     O 9960   4.441   0.069   0.798 -0.8973  0.1798  0.6835
  673TMC3     H 9961   4.526   0.187   0.592  1.5444  1.1357 -3.1463
  673TMC3    H1 9962   4.131   0.247   0.702 -0.0920  1.4948 -0.3323
  673TMC3    H2 9963   4.308   0.500   0.397 -1.3112  1.9325  2.3853
  673TMC3    C7 9964   4.072   0.419   0.513  0.1650  0.0891 -0.5248
  673TMC3    C8 9965   4.548   0.379   0.409 -0.9609 -0.0300 -0.2720
  673TMC3    O1 9966   3.980   0.344   0.527  0.2903  0.5243  0.3240
  673TMC3    O2 9967   4.525   0.415   0.295  0.2199  0.7714  0.6586
  674MPD2     C 9968   4.118   0.741   0.155  0.0137 -0.5312 -0.3606
  674MPD2    C1 9969   4.023   0.674   0.079 -0.0551 -0.2290  0.0902
  674MPD2    C2 9970   3.962   0.745  17.659 -0.8413  0.4132 -0.1316
  674MPD2    C3 9971   3.975   0.883  17.651  0.4690  0.1133 -0.6374
  674MPD2    C4 9972   4.048   0.953   0.065  0.1187  0.0646  0.6254
  674MPD2    C5 9973   4.126   0.879   0.153 -0.4807  0.1516 -0.8191
  674MPD2     H 9974   3.901   0.686  17.590 -0.5329  0.3268 -0.3280
  674MPD2    H1 9975   4.063   1.060   0.056 -1.9600  0.3220  0.3091
  674MPD2    H2 9976   4.182   0.679   0.217  0.7627  1.6619  1.0540
  674MPD2    H3 9977   4.194   0.926   0.225  0.2950 -1.7742 -0.3077
  674MPD2     N 9978   3.907   0.964  17.557  0.6434 -0.4460 -0.0439
  674MPD2    H5 9979   3.917   1.065  17.568 -0.1565 -0.4380  0.6113
  674MPD2    N1 9980   4.000   0.538   0.100  0.6647 -0.2932  0.1438
  674MPD2    H7 9981   4.067   0.494   0.163  0.2673 -0.0145  0.7702
  675TMC3    C1 9982   3.879   0.337   0.119  0.3685  0.0952 -0.1798
  675TMC3    C2 9983   3.757   0.288   0.152  0.2270  0.0673 -0.0231
  675TMC3    C3 9984   3.745   0.183   0.238  0.3011  0.3606 -0.2270
  675TMC3    C4 9985   3.992   0.273   0.146 -0.2130  0.7503  0.1368
  675TMC3    C5 9986   3.975   0.145   0.209 -0.6259  0.1399  0.0758
  675TMC3    C6 9987   3.850   0.107   0.265  0.0701 -0.1824 -0.1132
  675TMC3     C 9988   3.889   0.470   0.062  0.5780  0.4917  0.1527
  675TMC3     O 9989   3.785   0.528   0.023 -0.0585  0.0891  1.1362
  675TMC3     H 9990   3.666   0.344   0.133  0.4625  0.4349 -0.0551
  675TMC3    H1 9991   4.088   0.299   0.102  0.6316  0.4723  1.8242
  675TMC3    H2 9992   3.841   0.018   0.326  0.5893  0.1050  0.3860
  675TMC3    C7 9993   4.077   0.097   0.293 -0.7665  0.5269  0.3420
  675TMC3    C8 9994   3.651   0.212   0.345 -0.2218  0.4517  0.2095
  675TMC3    O1 9995   4.052   0.068   0.410  0.1121 -0.3063 -1.0645
  675TMC3    O2 9996   3.553   0.282   0.318 -0.0134  0.3579 -0.2102
  676MPD2     C 9997   1.524   4.006  10.962  0.9117 -0.4004  0.0632
  676MPD2    C1 9998   1.460   3.929  11.058  0.5347  0.0578 -0.7752
  676MPD2    C2 9999   1.444   3.793  11.028 -0.4402  0.1482  0.0199
  676MPD2    C310000   1.489   3.735  10.912 -0.6785 -0.3814 -0.1716
  676MPD2    C410001   1.544   3.820  10.818  0.1567  0.5333 -0.1362
  676MPD2    C510002   1.567   3.950  10.843 -0.0443 -0.3259  0.3408
  676MPD2     H10003   1.384   3.740  11.102  0.2473  1.1024  1.2677
  676MPD2    H110004   1.584   3.780  10.726  2.0595  4.3325 -0.9334
  676MPD2    H210005   1.529   4.113  10.975  2.7586 -0.6111  1.1010
  676MPD2    H310006   1.614   4.009  10.766 -0.4582 -0.0436  0.3026
  676MPD2     N10007   1.490   3.597  10.884 -0.3266 -0.2330 -0.2763
  676MPD2    H510008   1.523   3.568  10.793  3.4244 -1.0342  1.3339
  676MPD2    N110009   1.389   3.980  11.166 -0.0776  0.5563  0.7578
  676MPD2    H710010   1.328   3.909  11.205 -0.0395  0.6814  1.0467
  677TMC3    C110011   1.328   4.132  11.337 -0.0121 -0.9043 -0.7616
  677TMC3    C210012   1.209   4.065  11.352  0.8064  0.1318 -0.0969
  677TMC3    C310013   1.166   4.065  11.484  0.4498  0.4782 -0.3140
  677TMC3    C410014   1.385   4.211  11.438  0.3464  0.3432 -0.4320
  677TMC3    C510015   1.323   4.223  11.560 -0.2858  0.4714  0.1473
  677TMC3    C610016   1.207   4.153  11.578 -0.2160  0.2332  0.8821
  677TMC3     C10017   1.410   4.101  11.225  0.2561 -0.1233  0.4563
  677TMC3     O10018   1.494   4.184  11.192 -0.6040 -0.3622 -0.4764
  677TMC3     H10019   1.159   3.992  11.290  2.7557 -2.4465  1.3873
  677TMC3    H110020   1.493   4.226  11.436  0.3911  0.0151 -0.5490
  677TMC3    H210021   1.167   4.150  11.679 -1.7725 -0.4788  0.2400
  677TMC3    C710022   1.385   4.256  11.689 -0.2733 -0.0814 -0.2498
  677TMC3    C810023   1.066   3.965  11.524 -1.6202  0.6881  0.0348
  677TMC3    O110024   1.337   4.212  11.794  0.5992 -0.1785  0.4168
  677TMC3    O210025   0.986   3.938  11.435  0.2107 -0.2025 -0.1856
  678MPD2     C10026   3.021   3.768   1.808 -0.1518  0.4897  0.0792
  678MPD2    C110027   3.057   3.718   1.687 -1.0702 -0.0140  0.0950
  678MPD2    C210028   2.963   3.661   1.602 -0.3194 -0.4570  0.8119
  678MPD2    C310029   2.827   3.655   1.642 -1.0331  0.1828  0.8328
  678MPD2    C410030   2.795   3.697   1.768 -0.2425 -0.3402 -0.3225
  678MPD2    C510031   2.889   3.754   1.846  0.0510 -1.1671 -0.0380
  678MPD2     H10032   2.980   3.622   1.502  0.6305  2.7049 -0.2352
  678MPD2    H110033   2.693   3.678   1.798  0.2170 -0.3892  1.2308
  678MPD2    H210034   3.092   3.809   1.878 -0.3392 -0.9465  1.1036
  678MPD2    H310035   2.864   3.778   1.949  1.1875  0.4746 -0.1595
  678MPD2     N10036   2.732   3.611   1.544  0.4842 -0.4972 -0.3666
  678MPD2    H510037   2.762   3.570   1.457  1.4352 -0.2103 -0.1760
  678MPD2    N110038   3.192   3.710   1.640 -0.5844  0.0087 -0.2560
  678MPD2    H710039   3.203   3.670   1.547  3.6045  0.2223  0.1332
  679TMC3    C110040   3.551   3.668   1.468 -0.2707 -0.0432 -0.7067
  679TMC3    C210041   3.440   3.662   1.543 -0.2649 -0.1778  0.3104
  679TMC3    C310042   3.417   3.779   1.613  0.5435 -0.5431 -0.8055
  679TMC3    C410043   3.628   3.786   1.445 -0.0450  0.0206 -0.2308
  679TMC3    C510044   3.603   3.896   1.516 -0.7495 -0.6844 -0.5368
  679TMC3    C610045   3.497   3.888   1.607  0.4982 -0.3574 -0.1889
  679TMC3     C10046   3.614   3.544   1.433  0.7443 -0.9757 -1.1502
  679TMC3     O10047   3.535   3.455   1.411 -0.3046 -0.0621 -0.2384
  679TMC3     H10048   3.382   3.574   1.566  0.6153 -0.9788 -0.5272
  679TMC3    H110049   3.697   3.793   1.362 -1.2659 -0.1926 -1.2590
  679TMC3    H210050   3.446   3.973   1.650 -0.2947 -0.6173 -0.6037
  679TMC3    C710051   3.620   4.022   1.459  0.0424 -0.4159 -0.4536
  679TMC3    C810052   3.295   3.790   1.684  0.4122  0.0231  0.1733
  679TMC3    O110053   3.525   4.099   1.458 -0.5545  0.0965 -0.4933
  679TMC3    O210054   3.294   3.872   1.775  0.8219  0.0351  0.0265
  680MPD2     C10055   2.996   3.018  13.821  0.2185 -0.0001 -0.7314
  680MPD2    C110056   3.114   2.946  13.819  0.0057  0.4388  0.7779
  680MPD2    C210057   3.231   3.013  13.777  0.1203  0.1438  0.3914
  680MPD2    C310058   3.233   3.150  13.744 -0.5130 -0.0206  0.7205
  680MPD2    C410059   3.116   3.217  13.745  0.3768 -0.3007 -0.0760
  680MPD2    C510060   3.002   3.153  13.786 -0.4678 -0.3078 -0.5173
  680MPD2     H10061   3.319   2.950  13.777  1.9696  2.7179 -0.2712
  680MPD2    H110062   3.099   3.321  13.719 -1.9344 -0.8221 -0.6951
  680MPD2    H210063   2.913   2.972  13.873  0.0719  2.5106  1.2722
  680MPD2    H310064   2.906   3.203  13.788  0.5088  1.4196  3.9024
  680MPD2     N10065   3.350   3.223  13.728 -0.0767 -0.3917  0.7912
  680MPD2    H510066   3.349   3.324  13.722 -0.9544 -0.4517 -0.0363
  680MPD2    N110067   3.136   2.814  13.861 -0.2030  0.3863 -0.0490
  680MPD2    H710068   3.227   2.776  13.835 -1.2046 -1.4310 -0.9817
  681TMC3    C110069   3.106   2.604  13.968  0.3431 -0.6503 -0.5903
  681TMC3    C210070   3.135   2.585  14.103 -0.5320 -0.0753  0.1569
  681TMC3    C310071   3.238   2.502  14.130 -0.1114  0.9126  0.1319
  681TMC3    C410072   3.187   2.550  13.868  0.1990 -0.2248  0.4230
  681TMC3    C510073   3.278   2.459  13.905  0.5784  0.8125  0.0614
  681TMC3    C610074   3.307   2.431  14.036  0.6443  0.3572 -0.1111
  681TMC3     C10075   3.053   2.737  13.937  0.4001  0.7455 -0.0130
  681TMC3     O10076   2.951   2.772  14.001  0.5285  0.2849 -0.1788
  681TMC3     H10077   3.074   2.637  14.176 -2.1710 -2.2672  0.3397
  681TMC3    H110078   3.183   2.582  13.764 -1.1032  1.5186  1.0100
  681TMC3    H210079   3.379   2.359  14.074 -0.2112  0.7016  2.1661
  681TMC3    C710080   3.388   2.438  13.814 -0.6586  0.4878  0.9226
  681TMC3    C810081   3.284   2.515  14.267  0.1382 -0.8923 -0.6913
  681TMC3    O110082   3.503   2.427  13.861 -0.1640  0.0864  0.1235
  681TMC3    O210083   3.211   2.571  14.345  0.6239 -0.3660  0.2031
  682MPD2     C10084   0.514   3.960  10.438  0.1778 -0.5859  0.6211
  682MPD2    C110085   0.449   3.840  10.426  0.5541  0.6690  0.3477
  682MPD2    C210086   0.363   3.807  10.526 -0.3215 -1.0153  0.2400
  682MPD2    C310087   0.347   3.890  10.637 -0.2332 -0.0486  0.2261
  682MPD2    C410088   0.416   4.006  10.655 -0.2223  0.0662  0.9311
  682MPD2    C510089   0.498   4.042  10.550  0.0304 -0.3647  0.4153
  682MPD2     H10090   0.328   3.705  10.517  2.1632 -1.9381  0.9500
  682MPD2    H110091   0.414   4.057  10.750 -0.6925  0.4826  0.6982
  682MPD2    H210092   0.580   3.993  10.359 -0.9170  1.7568  0.6686
  682MPD2    H310093   0.557   4.131  10.568  1.2145 -0.4352 -3.0527
  682MPD2     N10094   0.269   3.852  10.751  0.2087 -0.6659 -0.4577
  682MPD2    H510095   0.282   3.894  10.842  0.1047 -2.3676  0.3524
  682MPD2    N110096   0.455   3.750  10.319 -0.1159  0.0850 -0.0578
  682MPD2    H710097   0.415   3.656  10.318  0.1089 -0.0332  1.8291
  683TMC3    C110098   0.174   3.751  11.111  0.1302 -0.0781  0.5727
  683TMC3    C210099   0.229   3.632  11.134  0.2383  0.3424 -0.3625
  683TMC3    C310100   0.236   3.542  11.028 -0.6208  0.1996 -0.5907
  683TMC3    C410101   0.156   3.793  10.984 -0.3262  0.4135 -0.6737
  683TMC3    C510102   0.164   3.701  10.885  0.6536 -0.5538  0.7722
  683TMC3    C610103   0.197   3.575  10.906  0.1673  0.7147 -0.6251
  683TMC3     C10104   0.155   3.828  11.223 -0.0174  0.4150  0.1942
  683TMC3     O10105   0.147   3.952  11.209  0.3931 -0.5971  0.4844
  683TMC3     H10106   0.283   3.609  11.226 -1.2429  2.4077  0.9999
  683TMC3    H110107   0.125   3.894  10.957  2.1639  0.3170 -3.8418
  683TMC3    H210108   0.207   3.508  10.821  2.4154 -2.9655  2.5502
  683TMC3    C710109   0.179   3.749  10.749 -0.0184 -0.0900  0.0358
  683TMC3    C810110   0.306   3.420  11.038 -0.0758  0.2968  0.4234
  683TMC3    O110111   0.159   3.673  10.652  0.4104  0.9400  0.0106
  683TMC3    O210112   0.337   3.368  10.933  0.4578  0.2834  0.0778
  684MPD2     C10113   3.993   3.128  15.851  0.2794  0.0743 -0.3692
  684MPD2    C110114   3.955   3.187  15.733 -0.1774 -0.0609 -0.3494
  684MPD2    C210115   3.875   3.301  15.744 -0.6272  0.1388  0.0713
  684MPD2    C310116   3.842   3.361  15.864 -0.3224  0.6596  0.0365
  684MPD2    C410117   3.889   3.298  15.980  0.8960  0.0118  0.3026
  684MPD2    C510118   3.963   3.182  15.973 -0.6945 -0.7111  0.0234
  684MPD2     H10119   3.870   3.357  15.652  2.4861 -1.3056 -0.9707
  684MPD2    H110120   3.859   3.333  16.078  0.2754 -1.9398  0.8097
  684MPD2    H210121   4.051   3.036  15.852 -0.1631 -0.2235 -1.7316
  684MPD2    H310122   4.005   3.139  16.064 -1.9999 -1.4779  0.2576
  684MPD2     N10123   3.788   3.496  15.874  0.5742 -0.0002 -0.5810
  684MPD2    H510124   3.779   3.529  15.970 -1.9183 -1.4722 -0.2992
  684MPD2    N110125   3.967   3.120  15.605 -0.8327  0.1520 -0.2653
  684MPD2    H710126   3.939   3.167  15.519  0.4856  0.5834 -0.4531
  685TMC3    C110127   4.034   2.970  15.440 -0.9265  0.1788 -0.3703
  685TMC3    C210128   3.911   2.950  15.384  0.3801 -0.0144  0.4822
  685TMC3    C310129   3.880   2.840  15.311 -0.5648 -0.3140 -0.2658
  685TMC3    C410130   4.131   2.875  15.423 -0.1961  0.0359 -0.0003
  685TMC3    C510131   4.094   2.758  15.370 -0.0304  0.6962  0.9984
  685TMC3    C610132   3.970   2.740  15.322 -0.0247 -0.9538  0.0616
  685TMC3     C10133   4.036   3.004  15.581  0.2067  0.1585  0.8665
  685TMC3     O10134   4.096   2.927  15.656  0.2955 -0.4816  0.4315
  685TMC3     H10135   3.835   3.026  15.399  0.3172 -0.0757  0.4787
  685TMC3    H110136   4.231   2.897  15.459 -0.1682  0.3195 -0.2530
  685TMC3    H210137   3.938   2.646  15.279 -0.8053 -0.4442 -0.4863
  685TMC3    C710138   4.157   2.640  15.436  0.1160 -0.4333 -0.3114
  685TMC3    C810139   3.736   2.813  15.287  0.3249  0.0586 -0.4438
  685TMC3    O110140   4.153   2.537  15.366 -0.0978  0.3863 -0.1498
  685TMC3    O210141   3.700   2.699  15.296 -0.1178  0.3969 -0.3239
  686MPD2     C10142   0.303   3.373  15.290 -0.0185 -0.1811 -0.6857
  686MPD2    C110143   0.379   3.351  15.398 -0.1021  0.1352 -0.3940
  686MPD2    C210144   0.518   3.358  15.380 -0.1311 -0.5197 -0.3889
  686MPD2    C310145   0.575   3.405  15.258 -0.0702  0.0002  0.9132
  686MPD2    C410146   0.485   3.429  15.155  0.1358 -0.1414 -0.4851
  686MPD2    C510147   0.356   3.407  15.165  0.3699 -0.5297 -0.2130
  686MPD2     H10148   0.586   3.353  15.464  0.1581  1.0022 -0.5267
  686MPD2    H110149   0.517   3.459  15.056  1.8726  0.1826  0.1815
  686MPD2    H210150   0.196   3.360  15.300 -0.1595 -0.1550 -2.2043
  686MPD2    H310151   0.296   3.418  15.076  1.0704 -1.9869 -0.8794
  686MPD2     N10152   0.711   3.421  15.232  0.2643  0.4254 -0.5388
  686MPD2    H510153   0.748   3.417  15.138  0.0752  2.5459 -0.7087
  686MPD2    N110154   0.330   3.300  15.519 -0.4179 -0.2844  0.0069
  686MPD2    H710155   0.391   3.262  15.591 -1.0571 -0.0720  0.6561
  687TMC3    C110156   0.939   3.414  15.284 -0.0751  0.2953 -0.8236
  687TMC3    C210157   0.950   3.283  15.250 -0.1425  0.3662  0.4222
  687TMC3    C310158   1.060   3.211  15.300  0.0523 -0.2186 -0.0966
  687TMC3    C410159   1.040   3.472  15.355  0.5004 -0.4286 -0.3976
  687TMC3    C510160   1.154   3.403  15.383  0.3860 -0.0960 -0.9197
  687TMC3    C610161   1.165   3.269  15.366  0.5425  0.2910 -0.4391
  687TMC3     C10162   0.802   3.443  15.327 -0.5754  1.0822  0.4672
  687TMC3     O10163   0.791   3.457  15.449 -0.6993  0.3560 -0.6284
  687TMC3     H10164   0.854   3.239  15.228 -0.5112  0.7754  1.2477
  687TMC3    H110165   1.015   3.566  15.403  1.3170  0.7660 -2.3351
  687TMC3    H210166   1.254   3.217  15.400  1.5996  2.5921  0.2693
  687TMC3    C710167   1.255   3.461  15.471  0.3979  0.0448  0.2927
  687TMC3    C810168   1.059   3.067  15.306  0.7188 -0.6447  0.1817
  687TMC3    O110169   1.360   3.401  15.484  0.0970 -0.1516  0.0161
  687TMC3    O210170   1.131   3.006  15.378 -0.4022 -0.1169  0.1951
  688MPD2     C10171   4.498   1.931  17.281  0.9653 -0.7097 -0.7659
  688MPD2    C110172   4.468   1.800  17.255 -0.1959 -0.1979  0.0489
  688MPD2    C210173   4.523   1.744  17.144  0.4507 -0.0509 -0.6789
  688MPD2    C310174   4.614   1.811  17.068  0.4602 -0.4510 -0.3467
  688MPD2    C410175   4.657   1.941  17.096 -0.9235  0.2775 -0.2717
  688MPD2    C510176   4.581   2.001  17.196  0.6150  0.4404  0.2113
  688MPD2     H10177   4.507   1.640  17.116 -0.7468  0.6199 -2.5129
  688MPD2    H110178   0.004   2.003  17.038 -1.2304 -0.2994 -1.2391
  688MPD2    H210179   4.447   1.991  17.356  1.6755 -0.1846 -0.7032
  688MPD2    H310180   4.600   2.106  17.217  1.0903  0.3795  0.0844
  688MPD2     N10181   4.670   1.756  16.949 -0.1715  0.7639  0.3425
  688MPD2    H510182   0.009   1.821  16.897 -0.0189 -1.5884 -2.4252
  688MPD2    N110183   4.385   1.719  17.341 -0.3374 -0.3677 -0.7661
  688MPD2    H710184   4.375   1.621  17.313 -0.4860 -0.6239  0.1838
  689TMC3    C110185   4.258   1.669  17.538 -0.1689  0.5500  0.3712
  689TMC3    C210186   4.179   1.719  17.641 -0.0241  0.7184 -0.5664
  689TMC3    C310187   4.142   1.629   0.056 -0.6871 -0.2742  0.3149
  689TMC3    C410188   4.289   1.534  17.520 -0.2753  0.0461 -0.6214
  689TMC3    C510189   4.255   1.451  17.621 -0.0021  0.0658 -0.0390
  689TMC3    C610190   4.180   1.498   0.051 -0.0280 -0.4027 -0.6947
  689TMC3     C10191   4.322   1.769  17.450 -0.5337 -0.7041 -0.3268
  689TMC3     O10192   4.314   1.884  17.482 -0.5311 -0.1075  0.5104
  689TMC3     H10193   4.162   1.826  17.655  0.1906  0.1872  3.6593
  689TMC3    H110194   4.359   1.497  17.446 -1.4520  0.8042 -2.1397
  689TMC3    H210195   4.145   1.431   0.130  2.0707 -1.0361 -0.3066
  689TMC3    C710196   4.250   1.307  17.605  0.5854  0.0501  0.3386
  689TMC3    C810197   4.110   1.678   0.189 -0.8593  0.1371 -0.2078
  689TMC3    O110198   4.239   1.234   0.024 -0.1669 -0.5167 -0.0600
  689TMC3    O210199   4.140   1.604   0.276  0.5171 -0.0776  0.0531
  690MPD2     C10200   1.996   4.144  15.580 -0.2909 -0.2504  0.0318
  690MPD2    C110201   1.930   4.144  15.458 -0.7665  0.4280 -0.1759
  690MPD2    C210202   1.974   4.230  15.360 -0.1537  0.0455 -0.2918
  690MPD2    C310203   2.091   4.304  15.373  0.0481 -0.1208  0.4814
  690MPD2    C410204   2.158   4.299  15.495 -0.3870  0.1342  0.2139
  690MPD2    C510205   2.101   4.228  15.598 -0.2765 -0.2548  0.9478
  690MPD2     H10206   1.925   4.235  15.263 -3.5966 -0.4685  1.4205
  690MPD2    H110207   2.251   4.350  15.519 -0.5821  0.6114 -0.0689
  690MPD2    H210208   1.965   4.081  15.662 -0.1655  1.1144  1.1382
  690MPD2    H310209   2.145   4.221  15.697  0.9054 -1.8290  0.3199
  690MPD2     N10210   2.137   4.373  15.265 -0.6531 -0.0343 -0.3981
  690MPD2    H510211   2.069   4.379  15.190  0.6513  0.7729 -1.5217
  690MPD2    N110212   1.838   4.035  15.418 -0.0822 -0.4817 -0.9284
  690MPD2    H710213   1.792   4.047  15.328 -1.9751 -1.9204 -0.1604
  691TMC3    C110214   1.746   3.820  15.414  0.3248  1.1542 -0.1904
  691TMC3    C210215   1.630   3.844  15.347  0.1781  0.2909  0.1517
  691TMC3    C310216   1.566   3.730  15.290 -0.2991 -0.4041  0.3405
  691TMC3    C410217   1.801   3.693  15.423 -0.3715  0.4615  0.4028
  691TMC3    C510218   1.731   3.584  15.373 -0.5097 -0.0391  0.4519
  691TMC3    C610219   1.620   3.604  15.301 -0.4718  0.2946 -0.1981
  691TMC3     C10220   1.818   3.914  15.489  0.6028  0.1620  0.3600
  691TMC3     O10221   1.877   3.868  15.587 -0.1326 -0.1761  0.1506
  691TMC3     H10222   1.584   3.942  15.349 -0.5453 -0.0455  0.0209
  691TMC3    H110223   1.894   3.682  15.478 -0.6137 -1.3397  0.4482
  691TMC3    H210224   1.561   3.523  15.258  1.0410 -1.0030  0.1632
  691TMC3    C710225   1.778   3.458  15.413  0.2158 -0.2156  0.8962
  691TMC3    C810226   1.428   3.743  15.252  0.4770 -0.2699 -0.1603
  691TMC3    O110227   1.895   3.447  15.452  0.1178 -0.0733 -0.0680
  691TMC3    O210228   1.390   3.642  15.197 -0.0517  0.3971  0.4144
  692TMC3    C110229   3.568   0.191  15.502  0.4400  0.6842 -0.2086
  692TMC3    C210230   3.678   0.202  15.577 -0.0343  0.1430 -0.3937
  692TMC3    C310231   3.773   0.101  15.589 -0.1657  0.5779  0.3197
  692TMC3    C410232   3.541   0.085  15.419  0.5553 -0.5506  0.1702
  692TMC3    C510233   3.631   4.699  15.429 -0.0311 -0.3916 -0.2179
  692TMC3    C610234   3.743   4.703  15.517 -0.9696 -0.4771 -0.3658
  692TMC3     C10235   3.467   0.289  15.537  0.0192  0.3839  0.2969
  692TMC3     O10236   3.484   0.336  15.647  0.4720 -0.5880 -0.0049
  692TMC3     H10237   3.699   0.295  15.629 -0.6826 -0.2198  0.5221
  692TMC3    H110238   3.450   0.077  15.361  0.2711 -0.9877  0.6819
  692TMC3    H210239   3.817   4.624  15.522 -0.3924  0.2475  2.3445
  692TMC3    C710240   3.593   4.577  15.365 -0.4448  0.4720  0.1376
  692TMC3    C810241   3.823   0.073  15.721 -0.3055  0.2859 -0.3608
  692TMC3    O110242   3.522   4.583  15.265  0.5242 -0.0412 -0.0765
  692TMC3    O210243   3.887   4.690  15.743  0.1053  0.0113  0.2306
  693MPD2     C10244   2.376   3.405  11.204 -0.2135  0.2589  0.0299
  693MPD2    C110245   2.356   3.313  11.105 -0.1886 -0.5391  0.8811
  693MPD2    C210246   2.458   3.253  11.041  0.1054  0.5041  0.1711
  693MPD2    C310247   2.586   3.272  11.084 -0.4782 -0.5112  0.3206
  693MPD2    C410248   2.617   3.361  11.187  0.1673  0.0018  0.1776
  693MPD2    C510249   2.508   3.425  11.242  0.1760  0.1369 -0.2211
  693MPD2     H10250   2.437   3.179  10.965  1.7889 -0.3024  0.5050
  693MPD2    H110251   2.717   3.392  11.217  0.0351  2.1692 -1.5935
  693MPD2    H210252   2.301   3.448  11.269 -0.3306  0.5524 -0.3016
  693MPD2    H310253   2.529   3.482  11.332 -1.1166 -0.4724  0.4721
  693MPD2     N10254   2.686   3.176  11.053  0.2604 -0.2133 -1.1210
  693MPD2    H510255   2.764   3.159  11.116 -1.8640  0.1517  1.6097
  693MPD2    N110256   2.220   3.275  11.071  0.2198  0.2457  0.4035
  693MPD2    H710257   2.142   3.298  11.133  0.6073  0.8879  0.6542
  694TMC3    C110258   2.080   3.099  11.000 -0.3673  0.2723  0.1469
  694TMC3    C210259   2.041   3.021  10.899 -0.3527 -0.1009  0.2026
  694TMC3    C310260   1.970   2.910  10.923  0.6097  0.8423  0.1821
  694TMC3    C410261   2.067   3.066  11.133 -0.6713 -0.0475  1.0761
  694TMC3    C510262   1.993   2.947  11.160  0.0999  0.1563  0.6474
  694TMC3    C610263   1.942   2.873  11.057  0.0210  0.1070 -0.1860
  694TMC3     C10264   2.188   3.186  10.972 -0.1734  0.6729  0.8091
  694TMC3     O10265   2.244   3.171  10.865  0.2113  0.4353 -0.3055
  694TMC3     H10266   2.049   3.066  10.800 -0.7815 -1.0052 -0.2388
  694TMC3    H110267   2.090   3.126  11.220 -0.1751 -1.2659  1.7808
  694TMC3    H210268   1.873   2.794  11.082  1.4827 -0.7437  1.1892
  694TMC3    C710269   1.970   2.919  11.297 -0.0811  0.7818  0.0537
  694TMC3    C810270   1.943   2.814  10.817 -0.4823 -0.1880 -0.0377
  694TMC3    O110271   1.972   3.012  11.375  0.4135  0.0763  0.1252
  694TMC3    O210272   1.882   2.712  10.856 -0.0063  0.0781 -0.1214
  695MPD2     C10273   3.942   4.701  13.209 -0.2192 -0.5621 -0.2344
  695MPD2    C110274   3.921   4.694  13.345  0.2581  0.2174  0.7996
  695MPD2    C210275   3.795   4.694  13.403  0.1171 -0.2941  0.5147
  695MPD2    C310276   3.687   4.692  13.315 -0.2421 -0.3159 -0.0970
  695MPD2    C410277   3.703   4.698  13.177  0.4470  0.2713 -0.0196
  695MPD2    C510278   3.836   4.718  13.130 -0.2186 -0.7206 -0.0286
  695MPD2     H10279   3.768   4.685  13.507  0.3828 -1.5325  0.4718
  695MPD2    H110280   3.617   4.704  13.113  0.1654  1.7586  0.5032
  695MPD2    H210281   4.034   4.699  13.152 -0.1510 -1.6323 -0.0926
  695MPD2    H310282   3.841   0.012  13.023 -1.0917  0.2892  0.0554
  695MPD2     N10283   3.560   4.675  13.374  0.2657 -0.6375  0.1897
  695MPD2    H510284   3.561   4.670  13.475  0.3574 -3.2127  0.0590
  695MPD2    N110285   4.027   4.679  13.438  0.2134 -0.4097 -0.4091
  695MPD2    H710286   4.012   4.702  13.536  0.6055 -0.8687 -0.2390
  696TMC3    C110287   3.339   4.663  13.409  0.1031  0.1045  0.1389
  696TMC3    C210288   3.365   4.639  13.540  0.4287 -0.5691  0.2821
  696TMC3    C310289   3.266   4.647  13.636  0.4060 -0.2408 -0.0302
  696TMC3    C410290   3.218   4.709  13.371 -0.6233  0.7433 -0.4546
  696TMC3    C510291   3.125   0.017  13.464  0.4772  0.0420  0.5028
  696TMC3    C610292   3.150   4.708  13.598  1.0723 -0.7978 -0.4579
  696TMC3     C10293   3.442   4.669  13.307  0.6877 -0.4001 -0.1684
  696TMC3     O10294   3.408   4.679  13.191 -1.2403  0.3820  0.1482
  696TMC3     H10295   3.454   4.587  13.575 -2.2989 -3.8763  2.2187
  696TMC3    H110296   3.200   0.030  13.272  0.0573  0.4952 -0.6792
  696TMC3    H210297   3.061   0.005  13.659  2.4538  0.6231  1.1668
  696TMC3    C710298   3.020   0.108  13.438 -0.4379  0.2293  0.2128
  696TMC3    C810299   3.315   4.667  13.768 -0.5102  0.7136 -0.5888
  696TMC3    O110300   2.985   0.125  13.323  0.0378 -0.8512  0.7231
  696TMC3    O210301   3.432   4.698  13.791 -0.0479  0.1361  0.0831
  697MPD2     C10302   2.775   2.119  15.355  0.2894  0.0005 -0.2637
  697MPD2    C110303   2.846   2.036  15.274  0.0473  0.4902  0.3665
  697MPD2    C210304   2.962   2.082  15.207 -0.7096  0.3162  0.0496
  697MPD2    C310305   3.011   2.212  15.221 -0.3228  0.1685  0.0343
  697MPD2    C410306   2.937   2.301  15.302  0.0122  0.0126 -0.1603
  697MPD2    C510307   2.820   2.246  15.365 -0.0018 -0.4966 -0.1683
  697MPD2     H10308   3.020   2.014  15.144  1.2639  1.2111  0.8841
  697MPD2    H110309   2.971   2.399  15.331 -0.7304  0.3956 -0.5884
  697MPD2    H210310   2.685   2.089  15.408 -0.5628  1.7921 -0.7085
  697MPD2    H310311   2.772   2.306  15.442  0.7055 -0.4125  0.2022
  697MPD2     N10312   3.116   2.258  15.142  0.0731  0.4704 -0.0747
  697MPD2    H510313   3.168   2.183  15.099 -0.1177  0.4572 -0.2823
  697MPD2    N110314   2.807   1.898  15.253  0.3795  0.6493 -0.1159
  697MPD2    H710315   2.847   1.838  15.181  0.7039 -0.8115  1.2609
  698TMC3    C110316   3.287   2.395  15.059 -0.1759  0.5819 -0.3525
  698TMC3    C210317   3.363   2.504  15.064  0.5364 -0.3068  0.4561
  698TMC3    C310318   3.463   2.537  14.977 -0.2594 -0.4515  0.0108
  698TMC3    C410319   3.321   2.306  14.954  0.5693 -0.7832  0.0112
  698TMC3    C510320   3.405   2.345  14.858  0.9810  0.0910 -0.4375
  698TMC3    C610321   3.473   2.465  14.862  0.4643  0.6795 -0.1589
  698TMC3     C10322   3.162   2.381  15.135  0.5432  0.2702  0.6192
  698TMC3     O10323   3.127   2.484  15.186 -0.1044 -0.3748 -0.2371
  698TMC3     H10324   3.332   2.576  15.138 -1.9652  0.6429 -1.5289
  698TMC3    H110325   3.263   2.215  14.940  0.2077 -0.2602 -1.9059
  698TMC3    H210326   3.546   2.493  14.788  0.3435 -2.7762 -1.6026
  698TMC3    C710327   3.396   2.272  14.731  0.6342 -0.7252 -0.7104
  698TMC3    C810328   3.482   2.680  14.955  1.5623  0.0398  0.2528
  698TMC3    O110329   3.318   2.180  14.725 -0.1433  0.0403 -0.6999
  698TMC3    O210330   3.383   2.748  14.978 -0.1824  0.1796 -0.2665
  699TMC3    C110331   2.947   0.100  13.010  0.4860 -0.0819 -0.4232
  699TMC3    C210332   2.940   4.685  13.033 -0.4863  0.0853  0.2039
  699TMC3    C310333   2.821   4.626  13.022 -0.3770  0.5663  0.4665
  699TMC3    C410334   2.833   0.179  13.009 -0.0447  0.1309  0.6206
  699TMC3    C510335   2.713   0.113  12.997 -0.1395  0.0508  0.2659
  699TMC3    C610336   2.709   4.700  12.992  0.2446  0.5260  0.0114
  699TMC3     C10337   3.073   0.163  12.971 -0.0568 -0.5765  0.4488
  699TMC3     O10338   3.061   0.284  12.949  0.1177  0.7046 -0.1857
  699TMC3     H10339   3.035   4.634  13.050  0.5146  1.4814 -1.1627
  699TMC3    H110340   2.846   0.287  13.018 -0.4118  0.2256 -0.0294
  699TMC3    H210341   2.622   4.640  12.971  0.1984  0.5142  0.2477
  699TMC3    C710342   2.590   0.174  13.030  0.5355 -0.1747 -0.4315
  699TMC3    C810343   2.795   4.513  13.109 -0.0772  0.3515 -0.0414
  699TMC3    O110344   2.577   0.228  13.138 -0.3517  0.5400  0.2468
  699TMC3    O210345   2.681   4.464  13.110 -0.1514 -0.5067 -0.2120
  700TMC3    C110346   2.249   2.315  16.995 -0.3189 -0.0117  0.0025
  700TMC3    C210347   2.330   2.220  16.943  0.1529  0.5566  0.2162
  700TMC3    C310348   2.403   2.144  17.033 -0.0260 -0.3641 -0.7814
  700TMC3    C410349   2.251   2.341  17.133 -0.4579  0.4421 -0.5727
  700TMC3    C510350   2.313   2.260  17.223  0.6758 -0.3742  0.6899
  700TMC3    C610351   2.396   2.167  17.170 -0.6040 -0.4647 -0.4452
  700TMC3     C10352   2.194   2.414  16.900 -0.0332 -0.2375  0.6305
  700TMC3     O10353   2.075   2.447  16.900  0.4699  0.3997  0.2172
  700TMC3     H10354   2.342   2.195  16.838  1.2419 -0.6883  0.6465
  700TMC3    H110355   2.198   2.432  17.159 -1.8971 -0.6627  0.3849
  700TMC3    H210356   2.477   2.126  17.229  1.7134  0.2027 -3.1480
  700TMC3    C710357   2.391   2.354  17.303  0.0294 -0.7522  0.4576
  700TMC3    C810358   2.493   2.045  16.978 -0.4369  0.1423 -0.4618
  700TMC3    O110359   2.441   2.448  17.240 -0.4242 -0.2446 -0.0532
  700TMC3    O210360   2.515   2.054  16.857 -0.2663 -0.3048 -0.8321
  701TMC3    C110361   2.232   0.935  15.429 -0.0552  0.2719 -0.5066
  701TMC3    C210362   2.306   0.881  15.331 -0.4787 -0.0753 -0.2630
  701TMC3    C310363   2.380   0.958  15.247 -0.6677  0.1073 -0.4620
  701TMC3    C410364   2.218   1.072  15.446  0.3929  0.5678 -0.5293
  701TMC3    C510365   2.290   1.149  15.358 -0.2897  0.3336 -0.2245
  701TMC3    C610366   2.370   1.094  15.263 -0.5293 -0.0827 -0.4325
  701TMC3     C10367   2.144   0.854  15.500  0.2705 -0.0005  0.6526
  701TMC3     O10368   2.035   0.902  15.513  0.2476  0.1227  0.4682
  701TMC3     H10369   2.286   0.777  15.310 -0.1558 -0.2653  0.3594
  701TMC3    H110370   2.140   1.111  15.511  0.9307  2.0450 -0.7719
  701TMC3    H210371   2.400   1.158  15.181 -0.3201 -1.0227 -1.0895
  701TMC3    C710372   2.275   1.295  15.360 -0.1957  0.0712  0.3887
  701TMC3    C810373   2.396   0.911  15.108  0.3383 -0.2094  0.6132
  701TMC3    O110374   2.312   1.367  15.265  0.2021 -0.2811  0.3003
  701TMC3    O210375   2.497   0.843  15.081 -0.1958 -0.0467  0.1943
  702MPD2     C10376   1.919   3.135  10.506 -0.4038 -0.0894 -0.5175
  702MPD2    C110377   1.890   3.241  10.586 -0.4798  0.9509  0.0853
  702MPD2    C210378   1.966   3.357  10.567  0.2805  0.2924 -0.5025
  702MPD2    C310379   2.074   3.364  10.475 -0.1076 -0.0046  0.8507
  702MPD2    C410380   2.094   3.254  10.391 -0.0267 -0.1747 -0.0254
  702MPD2    C510381   2.016   3.145  10.407  0.0928  0.3797  1.0981
  702MPD2     H10382   1.930   3.448  10.614  0.2396  1.8242 -3.4261
  702MPD2    H110383   2.180   3.253  10.324  0.1200 -1.3109  0.1707
  702MPD2    H210384   1.876   3.036  10.506 -0.2730 -0.1464 -0.0523
  702MPD2    H310385   2.044   3.060  10.346 -1.2665  1.2588 -0.7725
  702MPD2     N10386   2.143   3.488  10.452  0.0344 -0.7381 -0.5795
  702MPD2    H510387   2.210   3.483  10.376 -0.8312 -1.1286 -1.3231
  702MPD2    N110388   1.775   3.257  10.661  0.1708 -0.1315 -1.1806
  702MPD2    H710389   1.776   3.347  10.709  2.8908  0.9040 -3.1733
  703TMC3    C110390   2.195   3.712  10.431  0.0980 -0.3548  0.2548
  703TMC3    C210391   2.113   3.815  10.389  0.2430  0.4823 -0.4642
  703TMC3    C310392   2.152   3.886  10.283  0.1658 -0.6037 -0.7830
  703TMC3    C410393   2.311   3.685  10.362  0.2679 -0.3943 -0.3259
  703TMC3    C510394   2.350   3.760  10.253  0.4619  0.1465  0.0236
  703TMC3    C610395   2.276   3.864  10.215 -0.4065  0.4150  0.2627
  703TMC3     C10396   2.127   3.609  10.504  0.3771  0.6074  0.3939
  703TMC3     O10397   2.040   3.653  10.583 -0.0930 -0.3345 -0.6582
  703TMC3     H10398   2.022   3.833  10.446 -0.0448  0.0125 -0.7830
  703TMC3    H110399   2.376   3.605  10.394 -1.6655 -1.1616  1.7196
  703TMC3    H210400   2.304   3.910  10.120  3.0239 -1.5198  0.3552
  703TMC3    C710401   2.490   3.787  10.228 -0.8651 -0.9163  0.3008
  703TMC3    C810402   2.042   3.938  10.198  0.8590  0.6027 -0.0537
  703TMC3    O110403   2.525   3.891  10.179 -0.3035 -0.5558  0.2053
  703TMC3    O210404   2.078   4.001  10.095 -0.1457  0.5356  0.4175
  704TMC3    C110405   3.623   1.755  12.547 -0.3259  0.2872 -0.2624
  704TMC3    C210406   3.758   1.760  12.531 -0.1993 -0.5783  0.3132
  704TMC3    C310407   3.834   1.654  12.553  0.4227 -0.0489 -0.0069
  704TMC3    C410408   3.564   1.649  12.609 -0.1736  0.2965 -0.2780
  704TMC3    C510409   3.642   1.533  12.612 -0.2025 -0.5159  0.7106
  704TMC3    C610410   3.783   1.533  12.587  0.5666 -0.1140 -0.1948
  704TMC3     C10411   3.542   1.824  12.441 -0.2083 -0.3191  0.6280
  704TMC3     O10412   3.421   1.829  12.453  0.1373  0.2877 -0.4781
  704TMC3     H10413   3.799   1.857  12.504  0.7654 -1.2379 -0.6325
  704TMC3    H110414   3.456   1.652  12.615 -0.1199 -1.8518  1.6969
  704TMC3    H210415   3.842   1.442  12.580  0.6742  0.0105 -0.9442
  704TMC3    C710416   3.574   1.403  12.603 -0.2047 -0.6025  0.1736
  704TMC3    C810417   3.958   1.662  12.472 -0.1448 -0.9952  1.0837
  704TMC3    O110418   3.460   1.414  12.648 -0.0508  0.8913  0.5213
  704TMC3    O210419   3.955   1.754  12.386  0.3566 -0.7218  0.0768
  705MPD2     C10420   4.277   4.301  16.564 -0.1087 -0.7224 -0.0657
  705MPD2    C110421   4.219   4.375  16.463 -0.0391  0.0201  0.0622
  705MPD2    C210422   4.088   4.402  16.478 -0.5592  0.7223  0.6379
  705MPD2    C310423   4.010   4.357  16.587 -0.7523  0.5744  0.2725
  705MPD2    C410424   4.067   4.284  16.687  0.1711  0.1384 -0.4144
  705MPD2    C510425   4.202   4.255  16.668 -0.0005  0.5527  0.4730
  705MPD2     H10426   4.043   4.460  16.398  0.8933  1.9000  0.6859
  705MPD2    H110427   4.012   4.237  16.768  1.5779 -1.8536 -0.6222
  705MPD2    H210428   4.381   4.271  16.570 -0.0004 -0.1563  1.0111
  705MPD2    H310429   4.236   4.175  16.733  0.9003 -0.4383 -1.2385
  705MPD2     N10430   3.877   4.398  16.604  0.0102 -0.5140  1.0545
  705MPD2    H510431   3.846   4.374  16.698 -1.2418  1.7273  1.2124
  705MPD2    N110432   4.294   4.415  16.349  0.2130  0.2351 -0.4726
  705MPD2    H710433   4.254   4.477  16.280  0.2695 -1.2288 -1.8334
  706TMC3    C110434   4.601   4.434  15.991  0.3880  0.3144  0.1953
  706TMC3    C210435   4.533   4.536  15.934 -0.1385 -0.3165 -0.3353
  706TMC3    C310436   4.430   4.593  16.008  0.1880  0.6719 -0.1492
  706TMC3    C410437   4.571   4.393  16.121  0.5615  0.4590 -0.3528
  706TMC3    C510438   4.462   4.442  16.190  0.1956 -0.5695  0.2701
  706TMC3    C610439   4.386   4.549  16.133 -0.8534  0.0631  0.4249
  706TMC3     C10440   4.702   4.350  15.924  0.2266 -0.5166  0.0166
  706TMC3     O10441   0.033   4.257  15.985  0.1508  0.0780  0.1577
  706TMC3     H10442   4.551   4.566  15.831  1.8734 -0.0009  0.0982
  706TMC3    H110443   4.629   4.311  16.162 -0.6676  0.0408  0.5460
  706TMC3    H210444   4.301   4.587  16.189  0.3734  2.0349  0.9418
  706TMC3    C710445   4.418   4.374  16.311  0.5105  0.4413 -0.7662
  706TMC3    C810446   4.358   4.706  15.941  0.0589  0.2139  0.0131
  706TMC3    O110447   4.478   4.286  16.362  0.1066  0.1362  0.0852
  706TMC3    O210448   4.355   4.712  15.821  0.1881  0.2745  0.4425
  707TMC3    C110449   1.089   3.445   0.709  0.3166 -0.4546 -0.2597
  707TMC3    C210450   1.049   3.359   0.809 -0.1027  0.2885 -0.2572
  707TMC3    C310451   0.945   3.396   0.885 -0.8273 -0.1281  0.3551
  707TMC3    C410452   1.022   3.562   0.689  0.1030 -0.2422  0.2055
  707TMC3    C510453   0.912   3.592   0.770 -0.2501 -0.4859 -0.3050
  707TMC3    C610454   0.880   3.513   0.873 -0.1733  0.2761 -0.1122
  707TMC3     C10455   1.197   3.413   0.617 -0.5760  0.0467  0.3045
  707TMC3     O10456   1.247   3.303   0.637 -0.0382 -0.1411 -0.4449
  707TMC3     H10457   1.113   3.272   0.822 -0.5021  0.1484  0.7900
  707TMC3    H110458   1.044   3.632   0.609  1.5931  0.4697  1.2564
  707TMC3    H210459   0.802   3.538   0.945 -2.2261 -0.5498 -2.0248
  707TMC3    C710460   0.840   3.718   0.759  0.5029 -0.5777 -0.1593
  707TMC3    C810461   0.899   3.297   0.987 -0.1173 -0.7133 -0.2806
  707TMC3    O110462   0.747   3.745   0.834 -0.1895 -0.8055 -0.2544
  707TMC3    O210463   0.799   3.324   1.053 -0.4591  0.2479  0.2555
  708MPD2     C10464   2.595   2.920  13.596  0.0051  0.1487  0.1849
  708MPD2    C110465   2.477   2.985  13.603  0.0604  0.5831  0.0092
  708MPD2    C210466   2.409   2.983  13.724  0.3894  0.1549  0.8069
  708MPD2    C310467   2.466   2.934  13.839 -0.3309 -0.0880  0.6842
  708MPD2    C410468   2.595   2.886  13.837  0.2882  0.4778 -0.1874
  708MPD2    C510469   2.655   2.882  13.714 -0.3483 -0.5113  0.0948
  708MPD2     H10470   2.308   3.023  13.720  1.1989  2.3025  1.6812
  708MPD2    H110471   2.653   2.865  13.926 -1.3844  0.1778  0.8246
  708MPD2    H210472   2.661   2.923  13.510  0.5061 -3.2208  0.4266
  708MPD2    H310473   2.762   2.865  13.718  0.1272  2.8576  1.9679
  708MPD2     N10474   2.407   2.959  13.964 -0.6659  0.0608  0.4492
  708MPD2    H510475   2.469   2.971  14.044  0.9013 -1.4823 -0.5248
  708MPD2    N110476   2.436   3.047  13.485  0.1581  0.5365 -0.2356
  708MPD2    H710477   2.470   3.014  13.395  0.3563  0.3289 -0.0794
  709TMC3    C110478   2.316   3.192  13.359 -0.1349 -0.5770  0.3585
  709TMC3    C210479   2.321   3.104  13.256 -0.6684 -0.8863 -0.0000
  709TMC3    C310480   2.229   3.118  13.154  0.1042  0.0972  0.1628
  709TMC3    C410481   2.213   3.277  13.369 -0.0585  0.0143  0.5883
  709TMC3    C510482   2.103   3.266  13.287  0.7177 -0.0874 -0.2791
  709TMC3    C610483   2.109   3.190  13.176 -0.5055  0.4383 -0.5195
  709TMC3     C10484   2.343   3.139  13.491  0.2466  0.0773 -0.2930
  709TMC3     O10485   2.270   3.179  13.581 -0.1227  0.1321 -0.7152
  709TMC3     H10486   2.407   3.040  13.242  0.2828  0.2581  0.5883
  709TMC3    H110487   2.221   3.368  13.427  1.9338 -0.1158  0.5102
  709TMC3    H210488   2.037   3.203  13.096 -0.4044  0.7175 -0.5621
  709TMC3    C710489   1.985   3.277  13.370 -0.3251 -0.6155  0.8764
  709TMC3    C810490   2.247   3.046  13.028 -0.0440 -0.5480 -0.2337
  709TMC3    O110491   1.877   3.283  13.319  0.1904  0.2994  0.2520
  709TMC3    O210492   2.342   2.969  13.025  0.3056  0.5169  0.4847
  710TMC3    C110493   3.384   4.715   0.950 -0.7764 -0.2025 -0.1113
  710TMC3    C210494   3.422   4.710   0.821 -0.5178  0.2507  0.5077
  710TMC3    C310495   3.519   4.617   0.790 -0.0903 -0.2931  0.3591
  710TMC3    C410496   3.455   4.648   1.047  0.1840  0.6231 -0.5351
  710TMC3    C510497   3.556   4.566   1.013  0.0361  0.1902  0.4711
  710TMC3    C610498   3.599   4.554   0.886 -0.1832 -0.5921  0.3588
  710TMC3     C10499   3.290   0.098   0.985 -0.4370  0.1648  0.5869
  710TMC3     O10500   3.241   0.163   0.889 -0.1454  0.4972 -0.0059
  710TMC3     H10501   3.374   0.054   0.747 -1.9426  1.5273  2.5190
  710TMC3    H110502   3.414   4.641   1.147  0.9282  0.9508 -0.2059
  710TMC3    H210503   3.664   4.474   0.852 -1.2016 -0.7362 -1.2837
  710TMC3    C710504   3.586   4.459   1.103 -0.7145  1.5243 -0.6734
  710TMC3    C810505   3.530   4.570   0.653  0.0287 -0.1814 -0.0062
  710TMC3    O110506   3.511   4.442   1.200 -0.4515  0.8779 -0.3813
  710TMC3    O210507   3.620   4.491   0.637  0.3968  0.3665 -0.8725
  711TMC3    C110508   2.983   0.424  14.703  0.4432 -0.2789  0.6533
  711TMC3    C210509   3.004   0.508  14.806 -0.0118  0.1246 -0.7179
  711TMC3    C310510   3.105   0.478  14.893 -0.2530 -0.0499  1.0316
  711TMC3    C410511   3.042   0.303  14.694  0.0059  0.0035 -0.9003
  711TMC3    C510512   3.135   0.275  14.789  0.2323  0.3034 -0.8292
  711TMC3    C610513   3.172   0.361  14.886 -0.5510 -0.3152  0.1274
  711TMC3     C10514   2.898   0.462  14.590  0.5636 -0.3312 -0.2847
  711TMC3     O10515   2.866   0.373  14.511 -0.4157 -0.6260 -0.5478
  711TMC3     H10516   2.955   0.602  14.828  0.1279 -0.2695  1.3074
  711TMC3    H110517   3.028   0.240  14.606  0.5285 -1.6821  0.2313
  711TMC3    H210518   3.247   0.327  14.957  0.9095  1.2953 -0.6723
  711TMC3    C710519   3.215   0.153  14.776 -0.5527 -0.3334  0.0475
  711TMC3    C810520   3.140   0.580  14.997  0.5142  0.4359  0.2042
  711TMC3    O110521   3.325   0.150  14.828  0.1780 -0.0057 -0.5173
  711TMC3    O210522   3.056   0.668  15.020  0.1769 -0.4931  0.0983
  712MPD2     C10523   3.987   1.727  13.661 -0.0164  0.1193  0.2120
  712MPD2    C110524   3.925   1.809  13.574 -1.1221 -0.9632 -0.2145
  712MPD2    C210525   4.001   1.904  13.525 -0.4174  0.8776 -0.0308
  712MPD2    C310526   4.139   1.913  13.549 -0.2799  0.4937 -0.4198
  712MPD2    C410527   4.199   1.821  13.633 -0.4650 -0.0186  0.2092
  712MPD2    C510528   4.120   1.729  13.691 -0.3077  0.6661  0.5838
  712MPD2     H10529   3.962   1.972  13.450  0.1044  3.0262  1.6616
  712MPD2    H110530   4.306   1.830  13.653 -0.1457  0.4759 -1.6890
  712MPD2    H210531   3.928   1.649  13.707  0.1089  0.5105  1.0274
  712MPD2    H310532   4.156   1.654  13.760  2.4849  0.5606 -0.9737
  712MPD2     N10533   4.220   2.010  13.490  0.4038  0.7583 -0.1871
  712MPD2    H510534   4.321   2.005  13.499  0.6070  0.2138 -2.6685
  712MPD2    N110535   3.790   1.796  13.518 -0.0525 -0.1946 -0.5971
  712MPD2    H710536   3.753   1.879  13.472  2.8409  1.5080  0.1589
  713TMC3    C110537   4.251   2.231  13.399 -0.0843 -0.6724 -0.6247
  713TMC3    C210538   4.392   2.219  13.386 -0.4345 -0.1674 -0.1532
  713TMC3    C310539   4.456   2.298  13.295 -0.1346  0.1617 -0.2458
  713TMC3    C410540   4.191   2.313  13.312  0.6167  0.3273 -0.4489
  713TMC3    C510541   4.261   2.396  13.226 -0.1273  1.0928 -0.1808
  713TMC3    C610542   4.395   2.385  13.208  0.2760 -0.0600 -0.1464
  713TMC3     C10543   4.167   2.135  13.463 -0.3620  0.3975 -0.1840
  713TMC3     O10544   4.053   2.173  13.481 -0.7417 -0.2602  0.3303
  713TMC3     H10545   4.450   2.157  13.454  1.1233  0.4908 -0.8841
  713TMC3    H110546   4.083   2.316  13.309  0.5223 -1.1562  1.2683
  713TMC3    H210547   4.443   2.445  13.131 -0.3471  0.7936  0.1247
  713TMC3    C710548   4.177   2.471  13.136 -0.0589 -0.0789  0.2047
  713TMC3    C810549   4.607   2.310  13.294  0.5964 -0.3331  0.1657
  713TMC3    O110550   4.226   2.493  13.024 -0.3917  0.3333  0.3968
  713TMC3    O210551   4.653   2.360  13.191 -0.3322 -0.4261 -0.0147
  714MPD2     C10552   1.536   0.542   1.298 -0.3583 -0.0263  0.3498
  714MPD2    C110553   1.567   0.488   1.177 -0.0554  0.2505 -0.4296
  714MPD2    C210554   1.469   0.467   1.078  0.1174 -0.1031  0.2411
  714MPD2    C310555   1.335   0.497   1.100 -0.4658  0.3391 -0.3728
  714MPD2    C410556   1.301   0.536   1.226 -0.4765 -0.2898  0.8519
  714MPD2    C510557   1.401   0.558   1.320 -0.1805 -0.1693  0.3261
  714MPD2     H10558   1.506   0.444   0.979 -0.1206 -0.8534  0.3333
  714MPD2    H110559   1.201   0.559   1.261 -0.9636  0.0275 -0.7465
  714MPD2    H210560   1.606   0.553   1.380  1.7147 -1.2749 -1.2632
  714MPD2    H310561   1.369   0.590   1.418  1.8661  2.4265  0.1221
  714MPD2     N10562   1.230   0.482   0.994 -0.0584  0.4864 -0.6290
  714MPD2    H510563   1.264   0.459   0.901  0.2190  2.1096 -0.9396
  714MPD2    N110564   1.703   0.452   1.164 -0.0195  0.1495 -0.4292
  714MPD2    H710565   1.768   0.477   1.237 -3.2684 -1.6585  3.0776
  715TMC3    C110566   1.893   0.352   1.073 -0.4566  0.5841 -0.1344
  715TMC3    C210567   1.937   0.242   1.006  0.1701  0.0568 -0.5418
  715TMC3    C310568   2.069   0.231   0.991  0.1750  0.1912 -0.0431
  715TMC3    C410569   1.967   0.461   1.113 -0.3254 -0.4407 -0.5276
  715TMC3    C510570   2.096   0.455   1.071 -0.3388  0.2514 -0.1004
  715TMC3    C610571   2.153   0.338   1.022  0.3765  0.0061  0.0700
  715TMC3     C10572   1.746   0.364   1.068  0.1392  0.3185 -0.3162
  715TMC3     O10573   1.678   0.283   1.007 -1.0260  0.1474  0.1616
  715TMC3     H10574   1.879   0.154   0.982 -0.2602  0.4649 -1.0008
  715TMC3    H110575   1.931   0.556   1.152  0.6274  0.3227 -1.4996
  715TMC3    H210576   2.260   0.319   1.019  0.1437 -0.9777 -2.1547
  715TMC3    C710577   2.184   0.568   1.100  0.1928  0.5383  0.0304
  715TMC3    C810578   2.124   0.095   0.962 -0.0801  0.8602 -0.1945
  715TMC3    O110579   2.142   0.661   1.168 -0.2967  0.0451  0.3265
  715TMC3    O210580   2.046   4.716   0.962  0.2734 -0.1195 -0.0889
  716MPD2     C10581   1.847   3.232   9.940 -0.3215  0.2706  0.4930
  716MPD2    C110582   1.821   3.250   9.807  0.7758 -0.3001 -0.3944
  716MPD2    C210583   1.886   3.158   9.720  0.8296  0.1947  0.2354
  716MPD2    C310584   1.954   3.047   9.770  0.1459  0.2696  0.1668
  716MPD2    C410585   1.974   3.034   9.911 -0.0545 -0.1242 -0.2159
  716MPD2    C510586   1.925   3.132   9.996  0.4870 -0.8656  0.2500
  716MPD2     H10587   1.868   3.162   9.613 -0.3156  3.1328  0.5461
  716MPD2    H110588   2.043   2.960   9.950  1.1278  1.3173  0.4753
  716MPD2    H210589   1.798   3.290  10.017 -0.9241 -0.1724  0.4384
  716MPD2    H310590   1.947   3.124  10.102  0.1560  1.3220  0.4712
  716MPD2     N10591   2.021   2.962   9.684 -0.4871 -0.9103  0.1299
  716MPD2    H510592   2.013   2.974   9.583  1.3490 -1.0408 -0.0370
  716MPD2    N110593   1.732   3.356   9.766  0.3487  0.1843  0.2047
  716MPD2    H710594   1.695   3.416   9.839 -3.6665  0.2985 -1.9514
  717TMC3    C110595   2.149   2.785   9.595 -0.1511  0.9267  0.0628
  717TMC3    C210596   2.179   2.865   9.492  0.4108  0.0366 -0.2332
  717TMC3    C310597   2.199   2.814   9.369  0.0324 -0.0250  0.1328
  717TMC3    C410598   2.160   2.647   9.585 -0.1541 -0.1699  0.7680
  717TMC3    C510599   2.171   2.600   9.458  0.2170  0.2854 -0.0395
  717TMC3    C610600   2.191   2.680   9.345  0.2826 -0.5339  0.4019
  717TMC3     C10601   2.093   2.845   9.715 -0.2400 -0.8712  0.0281
  717TMC3     O10602   2.078   2.765   9.806 -0.0692  0.6369  0.1548
  717TMC3     H10603   2.187   2.973   9.499 -1.3358  0.1739 -0.2218
  717TMC3    H110604   2.127   2.590   9.671  2.0102  1.2832  2.5806
  717TMC3    H210605   2.188   2.637   9.246 -0.1120 -1.4357  0.8037
  717TMC3    C710606   2.128   2.465   9.436 -0.5793 -0.3797  0.3974
  717TMC3    C810607   2.152   2.896   9.263 -0.4483  0.2829  0.0777
  717TMC3    O110608   2.093   2.434   9.326  0.3481 -0.1456 -0.0340
  717TMC3    O210609   2.083   2.990   9.303 -0.6815  0.1309 -0.5093
  718MPD2     C10610   0.756   1.806  13.030  0.7253  0.3271 -0.2151
  718MPD2    C110611   0.712   1.820  12.895  0.2382 -0.1613 -0.5570
  718MPD2    C210612   0.586   1.783  12.859  0.2942 -0.0173  0.0339
  718MPD2    C310613   0.501   1.733  12.953 -0.2432  0.1322 -0.0782
  718MPD2    C410614   0.546   1.710  13.082 -0.5119 -0.3659  0.0259
  718MPD2    C510615   0.675   1.746  13.114 -0.6346 -0.1263  0.2758
  718MPD2     H10616   0.559   1.803  12.756  0.5796 -0.6015 -0.1561
  718MPD2    H110617   0.482   1.670  13.161 -1.1769 -1.6057 -1.1413
  718MPD2    H210618   0.859   1.824  13.059  0.6974 -0.7962  0.5491
  718MPD2    H310619   0.708   1.724  13.215  4.3789  1.6510 -0.9880
  718MPD2     N10620   0.375   1.696  12.907  0.1264 -0.0507 -0.0081
  718MPD2    H510621   0.366   1.719  12.808 -0.5775  0.3164  0.1400
  718MPD2    N110622   0.797   1.870  12.797 -0.5683  0.2193  0.1896
  718MPD2    H710623   0.763   1.855  12.703  0.0998 -0.8784  0.1282
  719TMC3    C110624   0.947   1.979  12.678  0.0023 -0.4556 -0.1099
  719TMC3    C210625   0.898   1.889  12.585 -0.4165 -0.6686 -0.2389
  719TMC3    C310626   0.837   1.941  12.470  0.3925  0.3067  0.2753
  719TMC3    C410627   0.948   2.113  12.654  0.8798  0.0430 -0.3358
  719TMC3    C510628   0.900   2.153  12.534  0.2930 -0.4383 -0.5287
  719TMC3    C610629   0.839   2.073  12.443 -0.1823 -0.8326 -0.5297
  719TMC3     C10630   0.908   1.943  12.809 -0.2827  0.4186 -0.6895
  719TMC3     O10631   0.949   2.007  12.907 -0.2875  0.0721  0.2179
  719TMC3     H10632   0.894   1.782  12.601  0.7219 -0.3969  1.8757
  719TMC3    H110633   0.989   2.181  12.728  0.5349 -1.3337  1.1170
  719TMC3    H210634   0.797   2.115  12.352 -0.5757 -1.6631 -0.7311
  719TMC3    C710635   0.946   2.280  12.501 -0.1720 -0.0426  0.4424
  719TMC3    C810636   0.707   1.865  12.451 -0.0433  0.5060  0.1251
  719TMC3    O110637   1.028   2.340  12.573 -0.5627 -0.0973  0.2335
  719TMC3    O210638   0.674   1.802  12.551  0.0339  0.0888  0.0289
  720MPD2     C10639   4.220   3.544  13.863 -0.4898  0.0195 -0.3681
  720MPD2    C110640   4.316   3.543  13.765 -0.1697  0.2894  0.0108
  720MPD2    C210641   4.446   3.505  13.791 -0.1324 -0.2951  0.2710
  720MPD2    C310642   4.494   3.471  13.918 -0.5258 -0.6011 -0.1179
  720MPD2    C410643   4.401   3.485  14.016 -1.1442 -0.2773 -0.5054
  720MPD2    C510644   4.269   3.510  13.989  0.3147 -0.4832 -0.1058
  720MPD2     H10645   4.512   3.500  13.704  0.1842 -1.4089  0.5771
  720MPD2    H110646   4.420   3.481  14.122 -1.7751 -2.3430 -0.4795
  720MPD2    H210647   4.117   3.574  13.856 -0.7624 -0.1415  3.0905
  720MPD2    H310648   4.203   3.512  14.075 -1.5572 -0.6586 -1.5434
  720MPD2     N10649   4.633   3.452  13.944 -0.4451  0.2219 -0.0242
  720MPD2    H510650   4.683   3.445  13.856  0.1063 -0.0312  0.3108
  720MPD2    N110651   4.281   3.568  13.628  0.3145  0.6122 -0.5538
  720MPD2    H710652   4.360   3.569  13.564  1.1771 -0.2502  0.5088
  721TMC3    C110653   0.118   3.473  14.058  0.4967 -0.8038  0.3947
  721TMC3    C210654   0.184   3.458  14.180  0.5886  0.3772  0.0322
  721TMC3    C310655   0.311   3.507  14.191 -0.3032  0.0226 -0.3393
  721TMC3    C410656   0.177   3.518  13.942 -0.1599 -0.8353  0.1829
  721TMC3    C510657   0.308   3.549  13.957  0.0501  0.2061 -0.9976
  721TMC3    C610658   0.375   3.553  14.079  0.7068  0.4373 -0.0805
  721TMC3     C10659   4.691   3.452  14.069  0.4445 -0.2744  0.2228
  721TMC3     O10660   4.644   3.445  14.181  0.1935  0.2383  0.5866
  721TMC3     H10661   0.138   3.404  14.263 -0.6938  1.9070  0.3187
  721TMC3    H110662   0.118   3.531  13.852 -0.2547  0.7410  0.4726
  721TMC3    H210663   0.479   3.582  14.070  1.2872 -1.3109  1.1102
  721TMC3    C710664   0.385   3.604  13.841 -0.2743  0.0317  0.1142
  721TMC3    C810665   0.387   3.519  14.315  0.0573 -0.4558 -0.3814
  721TMC3    O110666   0.502   3.628  13.850 -0.1943 -0.1801 -0.0535
  721TMC3    O210667   0.500   3.559  14.299 -0.0152 -0.2187 -0.2811
  722MPD2     C10668   2.873   2.581  13.590 -0.6879 -0.4775  0.6384
  722MPD2    C110669   2.932   2.556  13.463 -0.8108 -0.0136 -0.7338
  722MPD2    C210670   2.897   2.431  13.407  0.7157 -0.5215 -0.1404
  722MPD2    C310671   2.789   2.350  13.459  0.4859 -0.0582  0.0004
  722MPD2    C410672   2.730   2.392  13.575  0.1724  0.0906 -0.2825
  722MPD2    C510673   2.772   2.503  13.645 -0.5101 -0.9368  0.0253
  722MPD2     H10674   2.955   2.398  13.322 -0.3751  0.6013 -1.3234
  722MPD2    H110675   2.655   2.332  13.625 -1.1299  0.6751 -1.5676
  722MPD2    H210676   2.917   2.649  13.662  1.0610 -0.5550 -0.3341
  722MPD2    H310677   2.731   2.521  13.744  0.1934  0.6532  0.0285
  722MPD2     N10678   2.755   2.239  13.379 -0.0204 -0.3958  0.2486
  722MPD2    H510679   2.808   2.225  13.294  1.9707 -0.3613  1.4847
  722MPD2    N110680   3.047   2.626  13.421  0.0652  0.0488  0.0242
  722MPD2    H710681   3.099   2.589  13.343 -0.9278  0.6817 -0.9390
  723TMC3    C110682   2.631   2.069  13.283  0.3315 -0.1683 -0.1372
  723TMC3    C210683   2.543   1.965  13.299 -0.0949 -0.5425 -0.4512
  723TMC3    C310684   2.518   1.895  13.188  0.2153  0.4542  0.3564
  723TMC3    C410685   2.676   2.110  13.160 -0.2989  0.2129 -0.4004
  723TMC3    C510686   2.642   2.027  13.045  0.7057  0.2511 -0.7658
  723TMC3    C610687   2.570   1.914  13.061 -0.0883  0.7333 -0.0602
  723TMC3     C10688   2.646   2.155  13.397  0.3509  0.2874 -0.3540
  723TMC3     O10689   2.578   2.138  13.499  0.0796 -0.0404  0.2913
  723TMC3     H10690   2.521   1.936  13.400 -0.0458  2.9380  0.5596
  723TMC3    H110691   2.740   2.197  13.148 -1.8952  1.3841 -0.4896
  723TMC3    H210692   2.543   1.850  12.978  0.2875 -0.8077  1.0225
  723TMC3    C710693   2.671   2.071  12.911 -0.2149 -0.4532 -0.0756
  723TMC3    C810694   2.457   1.764  13.214  0.2053  0.3960  0.3073
  723TMC3    O110695   2.695   1.982  12.826  0.0920 -0.0247 -0.1295
  723TMC3    O210696   2.454   1.721  13.327  0.7233  0.9378  0.0240
  724TMC3    C110697   3.353   0.346  10.649  0.3380 -0.1828  0.1192
  724TMC3    C210698   3.377   0.390  10.525  0.0428 -0.1199  0.7712
  724TMC3    C310699   3.435   0.509  10.508  0.6375  0.4955 -0.3149
  724TMC3    C410700   3.373   0.428  10.758 -0.7170  0.0511 -0.5546
  724TMC3    C510701   3.421   0.553  10.731 -0.3448  1.3533 -0.0282
  724TMC3    C610702   3.461   0.602  10.612  0.5097  0.2768  0.0194
  724TMC3     C10703   3.356   0.208  10.671 -0.0920  0.0111  0.0741
  724TMC3     O10704   3.397   0.137  10.577 -0.3374  0.0755  0.3219
  724TMC3     H10705   3.365   0.326  10.438  2.9420  0.7572 -0.3045
  724TMC3    H110706   3.378   0.394  10.861  0.9915 -0.6628 -0.8823
  724TMC3    H210707   3.527   0.686  10.594  3.1556 -2.1788 -1.6562
  724TMC3    C710708   3.461   0.639  10.840 -0.2214 -0.2789 -0.3916
  724TMC3    C810709   3.426   0.559  10.373 -0.0216 -0.7484 -0.4027
  724TMC3    O110710   3.539   0.728  10.816 -0.0185 -0.0629  0.4569
  724TMC3    O210711   3.406   0.469  10.290 -0.3529 -0.0961  0.1692
  725TMC3    C110712   0.109   4.063  12.962 -0.1607 -0.3350  0.0540
  725TMC3    C210713   0.018   4.166  12.965 -0.5376 -0.4848 -0.0993
  725TMC3    C310714   4.655   4.172  12.852 -0.3475  0.0509 -0.5474
  725TMC3    C410715   0.125   3.975  12.854 -0.3077 -0.6335 -0.6018
  725TMC3    C510716   0.028   3.983  12.757  0.3945 -0.1618 -0.3035
  725TMC3    C610717   4.651   4.077  12.754  0.1603  0.2496  0.4348
  725TMC3     C10718   0.225   4.081  13.057  0.0385  0.8271  0.1339
  725TMC3     O10719   0.210   4.150  13.158  0.0208 -0.2707  0.6611
  725TMC3     H10720   0.019   4.246  13.038 -0.8890 -0.9090  0.3681
  725TMC3    H110721   0.196   3.893  12.859 -1.3938 -1.2556  3.9939
  725TMC3    H210722   4.572   4.083  12.680 -0.4591 -0.3394  1.0529
  725TMC3    C710723   0.012   3.862  12.681 -0.2282 -0.2074  0.2194
  725TMC3    C810724   4.621   4.307  12.814  0.8030 -0.8951 -0.1948
  725TMC3    O110725   0.104   3.780  12.686 -0.1959 -0.3284 -0.0711
  725TMC3    O210726   4.634   4.389  12.898  0.1393 -0.3877  0.0780
  726MPD2     C10727   2.767   0.697  10.280  0.5233 -0.1820  0.1446
  726MPD2    C110728   2.776   0.755  10.404  0.2555 -0.2578 -0.3452
  726MPD2    C210729   2.716   0.695  10.512  0.5185  0.0677  0.5430
  726MPD2    C310730   2.638   0.585  10.498  0.6140 -0.7541 -0.7616
  726MPD2    C410731   2.639   0.517  10.376 -0.2871 -1.2808 -0.0505
  726MPD2    C510732   2.704   0.575  10.272 -0.5483 -0.4628  0.2040
  726MPD2     H10733   2.707   0.751  10.605 -1.6324 -1.1759  1.0722
  726MPD2    H110734   2.590   0.422  10.359 -1.8775 -0.9004  2.4079
  726MPD2    H210735   2.818   0.736  10.193  0.2781  0.8226  0.4611
  726MPD2    H310736   2.706   0.528  10.174  1.8065 -0.8314  0.4189
  726MPD2     N10737   2.542   0.546  10.587 -0.1800 -0.1680  0.0543
  726MPD2    H510738   2.465   0.494  10.546 -1.2097  1.3141  0.0893
  726MPD2    N110739   2.832   0.883  10.419  0.3884 -0.8037 -0.3299
  726MPD2    H710740   2.810   0.938  10.501  1.0866  1.1734 -1.4661
  727TMC3    C110741   2.894   1.098  10.341 -0.0449 -0.1353 -0.0795
  727TMC3    C210742   2.883   1.159  10.463 -0.4770  0.8228  0.0270
  727TMC3    C310743   2.881   1.298  10.466 -0.0152 -0.5615  0.7263
  727TMC3    C410744   2.892   1.176  10.225 -0.6267  0.0766 -0.6487
  727TMC3    C510745   2.892   1.313  10.236  0.2095  0.0609 -0.1983
  727TMC3    C610746   2.886   1.378  10.353  0.0408 -0.2785  0.2391
  727TMC3     C10747   2.893   0.958  10.317 -0.4961  0.0834  0.3541
  727TMC3     O10748   2.927   0.924  10.205 -0.0519 -0.2715 -0.4689
  727TMC3     H10749   2.891   1.101  10.554  0.1354  0.6984 -0.1057
  727TMC3    H110750   2.916   1.133  10.129  0.3480 -0.1224 -0.3127
  727TMC3    H210751   2.879   1.485  10.368  2.2566 -0.2793  1.2730
  727TMC3    C710752   2.829   1.389  10.126  0.3440 -0.4110 -0.1314
  727TMC3    C810753   2.880   1.366  10.595  0.4449 -0.0221 -0.5456
  727TMC3    O110754   2.848   1.507  10.116 -0.4055  0.1873 -0.0115
  727TMC3    O210755   2.935   1.472  10.608 -0.1192  0.0241 -0.1540
  728TMC3    C110756   2.277   4.513  15.128 -0.1815 -0.0530  0.1170
  728TMC3    C210757   2.375   4.611  15.133 -0.4561  0.3966 -0.0148
  728TMC3    C310758   2.401   4.680  15.016  0.2940 -0.4130 -0.2303
  728TMC3    C410759   2.229   4.467  15.012  0.4511  0.3921 -0.2777
  728TMC3    C510760   2.259   4.538  14.899 -0.6755 -0.4826 -0.3000
  728TMC3    C610761   2.341   4.651  14.900 -0.1780  0.1175 -0.0052
  728TMC3     C10762   2.260   4.443  15.254 -0.3135 -0.6075  0.4044
  728TMC3     O10763   2.349   4.455  15.333  0.4907  0.6053 -0.2208
  728TMC3     H10764   2.415   4.642  15.228 -1.1085  0.2701  0.2962
  728TMC3    H110765   2.153   4.390  15.001  0.1042  0.6795  0.1076
  728TMC3    H210766   2.393   4.692  14.815  0.1362 -1.0068 -0.3568
  728TMC3    C710767   2.170   4.525  14.786 -0.3990 -0.7443 -0.3893
  728TMC3    C810768   2.499   0.068  15.033 -0.2268 -0.2274  0.1507
  728TMC3    O110769   2.111   4.420  14.772  0.5106 -0.7263 -0.5259
  728TMC3    O210770   2.581   0.067  15.121  0.5136 -0.0229  0.3566
  729MPD2     C10771   4.678   0.013  16.251  0.2670  0.5276 -0.6095
  729MPD2    C110772   4.599   0.121  16.257 -0.9938  0.1489 -0.1516
  729MPD2    C210773   4.520   0.151  16.366 -0.7355  0.4547 -1.3181
  729MPD2    C310774   4.519   0.068  16.478 -0.4728  0.1985  0.3005
  729MPD2    C410775   4.610   4.681  16.471  0.6888 -0.0462 -0.3366
  729MPD2    C510776   4.684   4.653  16.360  0.1125  0.8800 -0.4839
  729MPD2     H10777   4.452   0.235  16.363  1.0845  1.9791 -0.5631
  729MPD2    H110778   4.617   4.609  16.552  0.3843  0.5593  0.2320
  729MPD2    H210779   0.010   4.707  16.158  1.5302 -1.1028  0.5320
  729MPD2    H310780   0.041   4.579  16.378 -0.3855  0.5020  0.0781
  729MPD2     N10781   4.440   0.091  16.591  0.1221 -0.5387 -0.2500
  729MPD2    H510782   4.466   0.026  16.664 -0.2378  0.0484  0.3999
  729MPD2    N110783   4.584   0.189  16.129 -0.5458  0.6860 -0.5999
  729MPD2    H710784   4.626   0.153  16.044 -2.3583 -2.2028 -0.3059
  730TMC3    C110785   4.307   0.205  16.743 -0.0555 -0.4234 -0.0488
  730TMC3    C210786   4.396   0.152  16.834  0.3657  0.0111 -0.1755
  730TMC3    C310787   4.440   0.232  16.938 -0.3748 -0.2763  0.1286
  730TMC3    C410788   4.250   0.323  16.766  0.9606  0.5848  0.4987
  730TMC3    C510789   4.288   0.395  16.868  0.1094 -0.4408 -0.1535
  730TMC3    C610790   4.380   0.350  16.958  0.0701 -0.8014  0.0899
  730TMC3     C10791   4.341   0.185  16.608  0.4683  0.0002  0.2176
  730TMC3     O10792   4.295   0.265  16.523 -0.2481  0.1590  0.3301
  730TMC3     H10793   4.441   0.053  16.831 -1.5825 -0.9020  0.8229
  730TMC3    H110794   4.186   0.376  16.697 -3.0536 -1.3273  2.7631
  730TMC3    H210795   4.423   0.403  17.042 -0.5853  0.9009 -0.6333
  730TMC3    C710796   4.280   0.538  16.853 -0.3566 -0.0473  0.1630
  730TMC3    C810797   4.582   0.238  16.914 -0.1559 -0.3177  0.2274
  730TMC3    O110798   4.237   0.586  16.752  0.3374 -0.3325  0.0928
  730TMC3    O210799   4.638   0.129  16.896 -0.0576  0.4101 -0.4948
  731MPD2     C10800   3.672   3.418  11.986  0.7679 -0.6584  0.5254
  731MPD2    C110801   3.792   3.355  12.009 -0.2640  0.6243 -0.8207
  731MPD2    C210802   3.824   3.286  12.128  0.0920 -0.1290 -0.0074
  731MPD2    C310803   3.733   3.276  12.227  0.3482 -0.8199  0.2223
  731MPD2    C410804   3.604   3.327  12.202 -0.2137  0.2969  0.2357
  731MPD2    C510805   3.578   3.399  12.088  0.9231 -0.1860 -0.0190
  731MPD2     H10806   3.920   3.238  12.144  0.9749  2.0506  1.1576
  731MPD2    H110807   3.522   3.298  12.266  0.0624 -1.9423 -0.3919
  731MPD2    H210808   3.644   3.469  11.894  3.2686 -0.6540 -0.2316
  731MPD2    H310809   3.478   3.434  12.064  1.5408  0.6260 -1.3865
  731MPD2     N10810   3.774   3.189  12.338  0.1662  0.8481  0.4473
  731MPD2    H510811   3.864   3.147  12.320 -0.6465 -0.4373 -0.6370
  731MPD2    N110812   3.875   3.370  11.896 -0.1850 -0.1706 -0.2677
  731MPD2    H710813   3.838   3.421  11.816  1.5348  1.4103 -0.0645
  732TMC3    C110814   4.032   3.270  11.756  0.0389  0.2437  0.2070
  732TMC3    C210815   3.922   3.214  11.688 -0.0214 -0.1662 -0.0640
  732TMC3    C310816   3.954   3.132  11.578  1.1043  0.2026  0.2405
  732TMC3    C410817   4.163   3.237  11.731 -0.1206 -0.2930  0.4141
  732TMC3    C510818   4.181   3.163  11.617 -0.4058 -0.9083 -0.5170
  732TMC3    C610819   4.081   3.116  11.532 -0.2667  0.7336 -0.5186
  732TMC3     C10820   4.001   3.314  11.883  0.0502  0.0310  0.1309
  732TMC3     O10821   4.080   3.280  11.967  0.4821 -0.0890 -0.0814
  732TMC3     H10822   3.816   3.235  11.700  0.3009  0.4469  1.7353
  732TMC3    H110823   4.247   3.268  11.792 -0.9306  0.8255  0.9623
  732TMC3    H210824   4.114   3.051  11.452  0.4656  1.3772 -0.7363
  732TMC3    C710825   4.309   3.103  11.602 -0.1415  0.5562  0.1397
  732TMC3    C810826   3.874   3.016  11.562 -0.0403 -0.2266 -0.3771
  732TMC3    O110827   4.338   3.064  11.492 -0.2366 -0.7500 -0.2226
  732TMC3    O210828   3.923   2.914  11.514 -0.3949  0.2653 -0.3404
  733TMC3    C110829   4.656   1.607  12.846 -0.1031  1.0417  0.1617
  733TMC3    C210830   0.039   1.613  12.936  0.1985 -0.0292  0.1163
  733TMC3    C310831   0.166   1.608  12.888  0.6562  0.5673 -0.0160
  733TMC3    C410832   4.673   1.604  12.713 -0.1180  0.7415 -0.2356
  733TMC3    C510833   0.084   1.599  12.669 -0.3023  0.0079 -0.0805
  733TMC3    C610834   0.192   1.601  12.753 -0.3523 -0.1279 -0.2813
  733TMC3     C10835   4.535   1.671  12.885  0.0608 -0.0096 -0.2286
  733TMC3     O10836   4.476   1.741  12.805  0.0332 -1.0432  0.1898
  733TMC3     H10837   0.017   1.643  13.038 -1.0473  0.0713 -0.1733
  733TMC3    H110838   4.593   1.608  12.640  0.3528 -0.7947 -0.8379
  733TMC3    H210839   0.290   1.579  12.713  0.0097  1.5146 -0.2986
  733TMC3    C710840   0.105   1.635  12.532 -0.0173  0.1115 -0.6565
  733TMC3    C810841   0.274   1.643  12.984 -0.3408  0.4684 -0.0055
  733TMC3    O110842   0.025   1.589  12.448 -0.3539 -0.9485 -0.5404
  733TMC3    O210843   0.261   1.601  13.100  0.4908  0.3738 -0.5178
  734MPD2     C10844   3.049   4.668  11.646  0.1485 -0.9986 -0.1510
  734MPD2    C110845   2.930   4.613  11.618  1.0335 -0.4227  0.2170
  734MPD2    C210846   2.914   4.522  11.515 -0.2974 -0.0457 -0.9134
  734MPD2    C310847   3.025   4.484  11.439  0.3924  0.6985  0.4375
  734MPD2    C410848   3.143   4.536  11.467 -0.8911  0.5676  0.1941
  734MPD2    C510849   3.154   4.630  11.568 -0.6502 -0.5538 -0.1946
  734MPD2     H10850   2.823   4.467  11.497  0.0864 -0.3555 -1.8902
  734MPD2    H110851   3.234   4.500  11.420 -2.3765 -1.6594 -0.9885
  734MPD2    H210852   3.054   0.023  11.725 -0.5191 -0.3437 -0.7316
  734MPD2    H310853   3.253   4.671  11.585 -2.5946  3.6543  0.9244
  734MPD2     N10854   3.006   4.381  11.349  0.1943 -0.0789  0.5348
  734MPD2    H510855   2.910   4.348  11.341  0.4398 -0.6561  0.0498
  734MPD2    N110856   2.827   4.640  11.711 -0.4204  0.1366  0.0013
  734MPD2    H710857   2.848   4.703  11.788  1.5979 -0.2092 -0.2759
  735TMC3    C110858   2.606   4.597  11.805 -0.1988 -0.2165  0.0634
  735TMC3    C210859   2.478   4.576  11.756 -0.5658  0.4447  0.0980
  735TMC3    C310860   2.391   4.484  11.811 -0.8224  0.4410  0.0302
  735TMC3    C410861   2.654   4.523  11.910 -0.0951  0.1066  0.0871
  735TMC3    C510862   2.557   4.451  11.975 -0.8364  0.2072 -0.0702
  735TMC3    C610863   2.424   4.446  11.941  0.2801  0.0705 -0.3174
  735TMC3     C10864   2.695   4.592  11.691  0.2989  0.3529 -0.3633
  735TMC3     O10865   2.640   4.555  11.594 -0.3808 -0.1285 -0.0878
  735TMC3     H10866   2.458   4.622  11.660  0.7197 -0.9456 -0.8549
  735TMC3    H110867   2.760   4.502  11.922 -0.2073 -0.1954  0.5294
  735TMC3    H210868   2.363   4.372  11.991  1.0198  0.4296  1.1250
  735TMC3    C710869   2.614   4.370  12.083  0.6685 -0.4063 -0.6340
  735TMC3    C810870   2.338   4.386  11.721 -0.0763  0.0523  0.1111
  735TMC3    O110871   2.733   4.382  12.114 -0.5479 -0.4005  0.1681
  735TMC3    O210872   2.275   4.290  11.762  0.5237 -0.3378  0.3332
  736MPD2     C10873   2.424   4.143  12.296  0.5103  0.5408  0.3923
  736MPD2    C110874   2.533   4.185  12.225 -0.1119  0.2368 -0.7497
  736MPD2    C210875   2.649   4.113  12.223  0.3502  0.3347 -0.2991
  736MPD2    C310876   2.654   3.989  12.293  0.1863 -0.6954 -0.1869
  736MPD2    C410877   2.546   3.953  12.366  0.1621 -0.2298  0.4950
  736MPD2    C510878   2.438   4.031  12.367  0.9311 -0.1039  0.4702
  736MPD2     H10879   2.727   4.147  12.156  0.0285  0.4642 -0.6023
  736MPD2    H110880   2.552   3.879  12.445  0.1069 -0.3137  0.4205
  736MPD2    H210881   2.326   4.188  12.288 -0.0627 -0.6963  0.4651
  736MPD2    H310882   2.357   4.022  12.438 -0.7876  5.0168 -0.8313
  736MPD2     N10883   2.768   3.908  12.287 -0.0209  0.2827  0.4941
  736MPD2    H510884   2.767   3.821  12.341  1.6976  0.1749  0.3543
  736MPD2    N110885   2.514   4.298  12.145  0.0133 -0.1396  0.4024
  736MPD2    H710886   2.419   4.329  12.127  0.5065 -0.1310 -2.1779
  737TMC3    C110887   2.964   3.812  12.210 -0.1999  0.3820 -0.1653
  737TMC3    C210888   3.085   3.844  12.160 -0.4214  0.5363 -0.5167
  737TMC3    C310889   3.165   3.746  12.106 -0.5072 -0.5804 -0.6707
  737TMC3    C410890   2.902   3.695  12.174 -0.8608 -0.7270 -0.5342
  737TMC3    C510891   2.978   3.599  12.107  0.0580  0.4011  0.4583
  737TMC3    C610892   3.114   3.621  12.079  0.3345 -0.3844 -0.2652
  737TMC3     C10893   2.875   3.923  12.207  0.2618 -0.4756  0.1722
  737TMC3     O10894   2.889   3.997  12.110 -0.2222  0.1377 -0.4384
  737TMC3     H10895   3.122   3.941  12.190  0.2881 -0.8311  3.0428
  737TMC3    H110896   2.795   3.678  12.185 -0.9695  0.2297 -0.1031
  737TMC3    H210897   3.180   3.537  12.058  0.2889 -0.8419  1.4895
  737TMC3    C710898   2.923   3.470  12.080 -0.4915  0.3097 -0.0898
  737TMC3    C810899   3.292   3.789  12.065  0.1166 -0.5532 -0.4064
  737TMC3    O110900   2.825   3.431  12.143  0.2491  0.5536  0.0683
  737TMC3    O210901   3.325   3.899  12.102 -0.1349  0.0904  0.7595
  738MPD2     C10902   3.581   2.960  14.914  0.4922  0.3930  0.3625
  738MPD2    C110903   3.661   2.848  14.909  0.0762  0.5379 -0.5848
  738MPD2    C210904   3.793   2.866  14.876 -0.1092  0.2670  0.3036
  738MPD2    C310905   3.852   2.984  14.856 -0.1435 -0.2381  0.2567
  738MPD2    C410906   3.778   3.094  14.862 -0.6072 -0.0371  0.7831
  738MPD2    C510907   3.647   3.083  14.894  0.1791  0.0837 -0.0460
  738MPD2     H10908   3.857   2.779  14.881 -2.7586 -1.5341  2.6616
  738MPD2    H110909   3.823   3.191  14.844  0.7439 -1.2300 -2.4233
  738MPD2    H210910   3.473   2.953  14.922  0.7325 -2.7448  0.9381
  738MPD2    H310911   3.589   3.172  14.873 -1.0544 -0.5170  0.7932
  738MPD2     N10912   3.973   3.002  14.793 -0.0740  0.1881 -0.1371
  738MPD2    H510913   3.985   3.092  14.748 -2.3433  0.7383  0.3840
  738MPD2    N110914   3.613   2.718  14.919  0.2440 -0.2657 -0.1809
  738MPD2    H710915   3.687   2.649  14.911  0.4652 -0.1696  1.0993
  739TMC3    C110916   4.185   2.964  14.691  0.3198 -0.1922  0.1365
  739TMC3    C210917   4.155   3.025  14.570 -0.4640 -0.0952 -0.7990
  739TMC3    C310918   4.254   3.045  14.476 -0.3329  0.1131  0.0335
  739TMC3    C410919   4.316   2.951  14.728 -0.5248  0.3828 -0.3094
  739TMC3    C510920   4.418   2.982  14.638  0.4918  0.0007 -0.5920
  739TMC3    C610921   4.383   3.029  14.511 -0.1972  0.0934  0.7785
  739TMC3     C10922   4.084   2.916  14.782  0.4120 -0.4194  0.9253
  739TMC3     O10923   4.105   2.830  14.860  0.0155  0.8415  0.1565
  739TMC3     H10924   4.049   3.028  14.544 -0.0173  3.2108 -2.2547
  739TMC3    H110925   4.333   2.902  14.824  1.3987  1.4183 -0.1256
  739TMC3    H210926   4.460   3.027  14.435 -1.1281  0.2129 -0.1525
  739TMC3    C710927   4.551   2.940  14.672  0.5114  0.1518  0.1584
  739TMC3    C810928   4.216   3.068  14.343 -0.2884  0.1761  0.3596
  739TMC3    O110929   4.622   2.886  14.589 -0.4204  0.3197  0.2134
  739TMC3    O210930   4.097   3.055  14.321 -0.2162  0.1185 -0.0552
  740TMC3    C110931   4.431   3.844  14.188  0.3590 -0.8824  0.5424
  740TMC3    C210932   4.537   3.841  14.270 -0.2672 -0.0899 -0.1021
  740TMC3    C310933   4.662   3.820  14.219  1.0571 -0.0238  0.2685
  740TMC3    C410934   4.442   3.844  14.045 -0.5593 -1.0283  0.3383
  740TMC3    C510935   4.567   3.816  13.993  1.0012 -0.6372  0.3846
  740TMC3    C610936   4.679   3.801  14.079 -0.1675  0.4435  0.4429
  740TMC3     C10937   4.297   3.879  14.238 -0.3238  0.2385  0.3427
  740TMC3     O10938   4.202   3.823  14.189  0.1877  0.4769  0.1074
  740TMC3     H10939   4.514   3.839  14.376  0.5293  1.9719  0.1093
  740TMC3    H110940   4.359   3.865  13.978  0.8153  1.0376 -0.7259
  740TMC3    H210941   0.059   3.779  14.043  0.1392  1.6405  0.5725
  740TMC3    C710942   4.586   3.788  13.851 -0.9386  0.2628 -0.3564
  740TMC3    C810943   0.060   3.819  14.300 -0.1075 -0.1614  0.5600
  740TMC3    O110944   4.684   3.715  13.828 -0.0020 -0.2191  0.5400
  740TMC3    O210945   0.167   3.788  14.241  0.3702  0.6084 -0.3010
  741TMC3    C110946   3.856   3.636  14.061 -0.1037  0.2756 -0.2528
  741TMC3    C210947   3.749   3.559  14.035 -0.0819  0.0987  0.2587
  741TMC3    C310948   3.741   3.449  14.108  0.2303 -0.2682  0.8515
  741TMC3    C410949   3.953   3.610  14.153 -0.0848  0.0148 -0.0249
  741TMC3    C510950   3.940   3.491  14.222 -1.4042  0.7883 -0.4862
  741TMC3    C610951   3.837   3.412  14.200 -0.1505 -0.2607  0.0944
  741TMC3     C10952   3.874   3.744  13.969  0.1091  0.9327  0.3233
  741TMC3     O10953   3.796   3.754  13.871  0.1430  0.4230  0.4850
  741TMC3     H10954   3.677   3.589  13.959 -1.9713 -1.8006  1.2976
  741TMC3    H110955   4.034   3.681  14.168  1.8219 -1.7174 -2.2100
  741TMC3    H210956   3.832   3.327  14.267  0.5101  0.5818  1.2171
  741TMC3    C710957   4.031   3.456  14.323  0.3934  0.4238  1.3890
  741TMC3    C810958   3.615   3.373  14.101 -0.8133 -0.3224 -0.9357
  741TMC3    O110959   4.078   3.340  14.326 -0.5237  0.2991 -0.1021
  741TMC3    O210960   3.516   3.423  14.053 -0.2318 -0.3916 -0.4073
  742TMC3    C110961   3.484   1.995  15.010 -0.1867 -0.0571 -0.5647
  742TMC3    C210962   3.420   1.966  14.895 -0.8823  0.6788  0.2513
  742TMC3    C310963   3.500   1.912  14.797  0.5240 -0.5906  0.3989
  742TMC3    C410964   3.619   1.970  15.037  0.1744 -0.4195  0.2222
  742TMC3    C510965   3.691   1.917  14.931 -0.7630 -0.0689 -0.5547
  742TMC3    C610966   3.633   1.880  14.816  0.0555 -0.3078  0.2991
  742TMC3     C10967   3.399   2.021  15.123  0.1786  0.0436  0.5318
  742TMC3     O10968   3.280   2.033  15.092 -0.2315 -0.1220  0.3423
  742TMC3     H10969   3.314   1.941  14.894 -0.4991 -0.9374 -0.8440
  742TMC3    H110970   3.665   1.987  15.133  1.6483 -2.8161 -0.0518
  742TMC3    H210971   3.695   1.831  14.743  4.6756  1.6276  2.9075
  742TMC3    C710972   3.804   1.838  14.976  0.0429 -0.4871  0.6100
  742TMC3    C810973   3.421   1.843  14.697  0.0461  0.1305 -0.8883
  742TMC3    O110974   3.817   1.728  14.926  0.0388  0.1766 -0.1580
  742TMC3    O210975   3.448   1.727  14.666 -0.1312  0.2775 -1.0591
  743MPD2     C10976   1.601   2.056   1.358  0.4127  0.0387 -0.3925
  743MPD2    C110977   1.606   2.189   1.330 -0.0093  0.1703 -0.6136
  743MPD2    C210978   1.722   2.260   1.367 -0.0635  0.0918 -0.4926
  743MPD2    C310979   1.821   2.197   1.438  0.4657 -0.2728  0.7972
  743MPD2    C410980   1.808   2.065   1.477 -0.2091 -0.2936  0.2879
  743MPD2    C510981   1.696   1.996   1.437 -0.3610  0.3182 -0.2791
  743MPD2     H10982   1.740   2.364   1.343 -2.5976  0.6933  0.2526
  743MPD2    H110983   1.885   2.013   1.534  0.8149  0.0979 -0.7351
  743MPD2    H210984   1.511   2.003   1.326  1.1692 -1.0381 -0.7359
  743MPD2    H310985   1.680   1.896   1.478 -0.0118  0.4425  0.1676
  743MPD2     N10986   1.934   2.271   1.452  0.6449 -0.6702  0.3690
  743MPD2    H510987   1.934   2.360   1.404  0.6772 -0.0960  1.4308
  743MPD2    N110988   1.501   2.248   1.260 -0.4145 -0.0643 -0.5584
  743MPD2    H710989   1.429   2.188   1.221 -0.0893 -0.4372 -0.5834
  744TMC3    C110990   1.411   2.430   1.136 -0.3127 -0.3253  0.0197
  744TMC3    C210991   1.352   2.557   1.131 -0.6594  0.6454 -0.4988
  744TMC3    C310992   1.328   2.623   1.017 -0.4803 -0.0993 -0.6348
  744TMC3    C410993   1.436   2.368   1.019  0.2234 -0.4849  0.6035
  744TMC3    C510994   1.407   2.434   0.904  0.1309  0.5479 -0.0831
  744TMC3    C610995   1.351   2.562   0.900 -0.1677  0.3849 -0.3474
  744TMC3     C10996   1.495   2.386   1.245  0.9284 -0.9220 -0.4470
  744TMC3     O10997   1.550   2.482   1.302 -0.0324  0.2285 -0.5373
  744TMC3     H10998   1.350   2.610   1.226  0.0877  0.4651 -0.3756
  744TMC3    H110999   1.492   2.276   1.015  1.0337  0.0770 -1.0540
  744TMC3    H211000   1.325   2.614   0.808  0.2178  0.6515 -0.3056
  744TMC3    C711001   1.460   2.400   0.776  0.2291 -0.4899 -0.1339
  744TMC3    C811002   1.253   2.742   1.012 -0.5795  0.0552 -0.1100
  744TMC3    O111003   1.480   2.495   0.696 -0.3957  0.1957 -0.2398
  744TMC3    O211004   1.286   2.822   0.922 -0.4010  0.0823  0.0943
  745TMC3    C111005   3.569   1.707  13.525 -0.1684 -0.0128  0.4551
  745TMC3    C211006   3.487   1.620  13.589  0.0810  0.5422 -0.0379
  745TMC3    C311007   3.363   1.675  13.624  0.1473  0.1058 -0.4445
  745TMC3    C411008   3.521   1.822  13.459  0.0705 -0.5178  0.6823
  745TMC3    C511009   3.386   1.845  13.468  0.0817  0.0634  0.7383
  745TMC3    C611010   3.310   1.785  13.559 -0.7907  0.0000 -0.2697
  745TMC3     C11011   3.705   1.700  13.569  0.4920  0.3259  0.2939
  745TMC3     O11012   3.719   1.639  13.673  0.0637  0.2462  0.0051
  745TMC3     H11013   3.522   1.526  13.631  0.0342  0.6916  0.3385
  745TMC3    H111014   3.585   1.865  13.383 -1.7528 -0.1461 -0.6529
  745TMC3    H211015   3.208   1.815  13.577 -1.3349 -1.3300 -1.0722
  745TMC3    C711016   3.330   1.908  13.355 -0.4172  0.1523 -0.7642
  745TMC3    C811017   3.342   1.687  13.766  0.3923  0.4656 -0.2836
  745TMC3    O111018   3.213   1.884  13.328 -0.0890 -0.0919 -0.4782
  745TMC3    O211019   3.229   1.707  13.813  1.0423  0.0125 -0.1156
  746TMC3    C111020   1.460   3.370  10.904  0.6586 -0.0660 -0.1152
  746TMC3    C211021   1.564   3.348  10.810  0.3620 -1.1909 -0.0954
  746TMC3    C311022   1.554   3.233  10.743 -0.4430  0.5226 -0.6159
  746TMC3    C411023   1.342   3.292  10.923  0.1443 -0.2069 -0.2859
  746TMC3    C511024   1.333   3.190  10.835 -0.4764 -0.1927 -0.1870
  746TMC3    C611025   1.437   3.161  10.747 -0.7041 -0.0832 -0.4878
  746TMC3     C11026   1.459   3.495  10.971  0.1277  0.1269 -0.9842
  746TMC3     O11027   1.415   3.497  11.085 -0.1214 -0.2452  0.0963
  746TMC3     H11028   1.652   3.411  10.814  0.4761 -1.4355  1.0588
  746TMC3    H111029   1.254   3.335  10.969 -1.2766 -0.4033 -2.7735
  746TMC3    H211030   1.412   3.082  10.677 -1.5041 -1.8557  1.8137
  746TMC3    C711031   1.214   3.113  10.839  1.0246  0.3280 -0.5155
  746TMC3    C811032   1.664   3.171  10.675  0.3013  0.3994  0.3333
  746TMC3    O111033   1.185   3.051  10.736  0.4502 -0.0931  0.1015
  746TMC3    O211034   1.634   3.069  10.614 -0.0395 -0.4474 -0.3096
  747TMC3    C111035   3.182   3.112  11.213 -0.1635  0.2170  0.4670
  747TMC3    C211036   3.123   3.109  11.342 -0.7020 -0.4872  0.2910
  747TMC3    C311037   3.221   3.111  11.441 -0.6877 -0.6319 -0.3753
  747TMC3    C411038   3.309   3.149  11.189 -0.1748  0.2391 -0.3501
  747TMC3    C511039   3.394   3.139  11.297  0.2405  0.3544  0.3192
  747TMC3    C611040   3.354   3.117  11.423  0.4470 -0.3316 -0.1194
  747TMC3     C11041   3.096   3.108  11.090 -0.7803  0.3291 -0.0713
  747TMC3     O11042   2.977   3.129  11.093 -0.2033  0.4811  0.1486
  747TMC3     H11043   3.018   3.094  11.365 -0.7058  0.9646  1.1799
  747TMC3    H111044   3.339   3.171  11.088 -2.7114 -2.6043 -1.7335
  747TMC3    H211045   3.419   3.126  11.509  1.1757 -1.0248 -0.5940
  747TMC3    C711046   3.532   3.162  11.285 -0.1445 -0.1373 -0.8544
  747TMC3    C811047   3.183   3.151  11.574 -0.2512  0.0275 -0.0422
  747TMC3    O111048   3.599   3.206  11.378 -0.5238 -0.6856  0.1635
  747TMC3    O211049   3.255   3.238  11.627  0.2158  0.4920  0.3736
  748MPD2     C11050   0.714   4.137   1.498  0.3094  0.4483  0.0301
  748MPD2    C111051   0.730   4.175   1.368 -0.3203 -0.3489  0.3338
  748MPD2    C211052   0.859   4.183   1.317 -0.2330  0.0856 -1.2253
  748MPD2    C311053   0.968   4.150   1.389 -0.3470  0.2224 -0.2090
  748MPD2    C411054   0.943   4.111   1.520  0.9146  0.1717  0.0248
  748MPD2    C511055   0.816   4.105   1.578  0.1250 -0.5191 -0.0677
  748MPD2     H11056   0.866   4.206   1.211 -0.2069  2.0026 -0.8102
  748MPD2    H111057   1.026   4.087   1.586  0.4002  1.6568  1.1979
  748MPD2    H211058   0.617   4.127   1.546 -0.0383  0.8249 -0.5904
  748MPD2    H311059   0.806   4.074   1.681  0.1257  0.2960  0.1808
  748MPD2     N11060   1.098   4.140   1.334  0.4120  0.1353  0.2845
  748MPD2    H511061   1.106   4.175   1.239 -0.4856 -3.7289 -1.2136
  748MPD2    N111062   0.621   4.206   1.284 -0.2386 -0.3903  0.1389
  748MPD2    H711063   0.642   4.244   1.192 -1.3779  0.7652  0.3438
  749TMC3    C111064   1.324   4.063   1.309  0.0988  0.1612 -0.2559
  749TMC3    C211065   1.424   3.987   1.362 -1.0069 -0.1034 -0.4558
  749TMC3    C311066   1.539   3.980   1.294 -0.7186  0.2069 -0.0690
  749TMC3    C411067   1.337   4.135   1.191  0.2177  0.0458 -0.4221
  749TMC3    C511068   1.454   4.118   1.123  0.1428 -0.1217 -0.5172
  749TMC3    C611069   1.550   4.030   1.163 -0.1953 -0.4265  0.5472
  749TMC3     C11070   1.205   4.077   1.398  0.4913 -0.0771 -0.3497
  749TMC3     O11071   1.208   4.018   1.504  0.2055 -0.6772 -0.8906
  749TMC3     H11072   1.415   3.930   1.453 -1.0153  1.2099  0.3575
  749TMC3    H111073   1.261   4.203   1.155 -0.6330  0.0017  1.2575
  749TMC3    H211074   1.651   4.042   1.125 -0.3115  1.9336  0.9424
  749TMC3    C711075   1.488   4.213   1.031  0.3817 -0.7715  1.2205
  749TMC3    C811076   1.658   3.926   1.367 -0.5376  0.1501  0.9229
  749TMC3    O111077   1.424   4.319   1.026  0.2403  0.2634 -0.0731
  749TMC3    O211078   1.674   3.976   1.476  0.2220 -0.2445  0.6275
  750MPD2     C11079   1.914   0.277  11.140 -0.0323  0.3642 -0.2120
  750MPD2    C111080   1.775   0.294  11.113  0.3225  0.3661 -0.6974
  750MPD2    C211081   1.719   0.222  11.008  0.6968 -0.2820  0.4844
  750MPD2    C311082   1.792   0.134  10.928  0.2742 -0.0390  0.6567
  750MPD2    C411083   1.924   0.114  10.965 -0.2651 -0.4266  0.5583
  750MPD2    C511084   1.984   0.190  11.057 -1.0905 -0.3437  0.3243
  750MPD2     H11085   1.611   0.226  11.004  0.6728 -1.4737 -0.0111
  750MPD2    H111086   1.990   0.051  10.908 -0.1030 -0.9061  1.2762
  750MPD2    H211087   1.971   0.331  11.215  1.2675  1.0681 -1.7039
  750MPD2    H311088   2.089   0.168  11.071 -1.4289  0.1586  3.6941
  750MPD2     N11089   1.741   0.064  10.814  0.1086 -0.1503 -0.0762
  750MPD2    H511090   1.807   0.013  10.755  2.4562  1.5439  1.1023
  750MPD2    N111091   1.709   0.395  11.185 -0.8164 -0.2974  0.2078
  750MPD2    H711092   1.775   0.432  11.253 -0.5372 -1.4574  0.5810
  751TMC3    C111093   1.594   4.700  10.653 -0.3472 -0.5335  0.2973
  751TMC3    C211094   1.473   4.639  10.623  0.1041 -0.2706  0.3394
  751TMC3    C311095   1.454   4.566  10.507  1.0701  0.0636 -0.2638
  751TMC3    C411096   1.705   4.676  10.578 -0.3600  0.1883 -0.5267
  751TMC3    C511097   1.689   4.589  10.476  0.6315 -0.0955 -0.1889
  751TMC3    C611098   1.569   4.534  10.439  0.3330 -0.0626 -0.6515
  751TMC3     C11099   1.610   0.046  10.784 -0.2373  0.0489  0.3670
  751TMC3     O11100   1.515   0.072  10.860 -0.2875 -0.2490  0.3759
  751TMC3     H11101   1.386   4.655  10.685 -0.4035  0.5196 -0.5851
  751TMC3    H111102   1.799   0.008  10.593  0.5693 -1.5670 -0.3752
  751TMC3    H211103   1.559   4.471  10.352 -2.6962 -0.0456 -0.3255
  751TMC3    C711104   1.806   4.570  10.387  0.6546 -0.6934  0.5832
  751TMC3    C811105   1.327   4.511  10.464 -0.5976 -0.1603  0.2613
  751TMC3    O111106   1.906   4.633  10.422  0.2013  0.3111 -0.0052
  751TMC3    O211107   1.329   4.447  10.363 -0.4488  0.7852 -0.2909
  752TMC3    C111108   0.741   1.008  16.135  0.1349 -0.1586 -0.3077
  752TMC3    C211109   0.739   0.942  16.252  0.5120 -0.4813  0.1461
  752TMC3    C311110   0.773   1.018  16.362  0.0029 -0.1595  0.1082
  752TMC3    C411111   0.770   1.139  16.116  0.0043 -0.0492  0.2327
  752TMC3    C511112   0.795   1.207  16.232  0.7370 -0.1240  0.7023
  752TMC3    C611113   0.790   1.154  16.354 -0.2328 -0.0527  0.6308
  752TMC3     C11114   0.698   0.932  16.018 -0.6811 -0.4637  0.0011
  752TMC3     O11115   0.755   0.949  15.914 -0.0316  0.0229  0.0354
  752TMC3     H11116   0.730   0.834  16.258  1.3058 -0.5454  0.1542
  752TMC3    H111117   0.735   1.184  16.024  2.4796 -0.7417 -1.0266
  752TMC3    H211118   0.794   1.220  16.440  1.7511 -2.2675  2.2422
  752TMC3    C711119   0.796   1.357  16.222  0.9099 -0.6954  0.2948
  752TMC3    C811120   0.745   0.960  16.490 -0.1048  0.4971 -0.6450
  752TMC3    O111121   0.764   1.426  16.319  0.2097 -0.1049 -0.0227
  752TMC3    O211122   0.678   0.860  16.488 -0.1549  0.1602  0.5287
  753TMC3    C111123   2.050   1.738  13.421 -0.1392 -0.3321 -0.0177
  753TMC3    C211124   2.154   1.708  13.514 -0.3277  0.3009 -0.6342
  753TMC3    C311125   2.151   1.580  13.569  0.2103  0.0595 -0.5186
  753TMC3    C411126   1.968   1.636  13.379  0.1427  0.3031  0.0290
  753TMC3    C511127   1.968   1.515  13.439  0.6413  0.0027  0.0942
  753TMC3    C611128   2.062   1.486  13.532 -0.2100 -0.2687 -0.1458
  753TMC3     C11129   2.057   1.856  13.340  0.1977  0.1557  0.0077
  753TMC3     O11130   1.992   1.853  13.236  0.3675  0.1815  0.2150
  753TMC3     H11131   2.238   1.776  13.526  0.5843 -0.7402 -1.1312
  753TMC3    H111132   1.892   1.658  13.305  0.4434 -1.1062 -0.6893
  753TMC3    H211133   2.066   1.385  13.571 -1.6012  0.4440  1.8361
  753TMC3    C711134   1.876   1.414  13.388  0.0977 -0.0685  0.3866
  753TMC3    C811135   2.273   1.534  13.632 -0.1512  0.0190 -0.2458
  753TMC3    O111136   1.923   1.300  13.379  0.5050 -0.8657  0.2651
  753TMC3    O211137   2.293   1.415  13.622 -0.4083 -0.5584  0.0509
  754MPD2     C11138   1.185   0.448  12.745  0.1999  0.3114  0.1144
  754MPD2    C111139   1.205   0.319  12.793  0.0194  0.1118  0.0406
  754MPD2    C211140   1.091   0.236  12.813  0.0937  0.2422  0.1641
  754MPD2    C311141   0.969   0.295  12.811  0.1940  0.4377  0.0250
  754MPD2    C411142   0.946   0.422  12.784  0.4736  0.4150  0.0905
  754MPD2    C511143   1.056   0.498  12.743  0.2302 -0.0524  0.5167
  754MPD2     H11144   1.092   0.128  12.823 -1.2779  0.5565  3.6121
  754MPD2    H111145   0.847   0.466  12.776 -0.1281 -0.8959  0.3402
  754MPD2    H211146   1.266   0.507  12.702 -1.8657  0.5471 -3.4208
  754MPD2    H311147   1.039   0.599  12.709  0.1852 -0.1019  0.3886
  754MPD2     N11148   0.850   0.230  12.850 -0.4535  0.1412 -0.0800
  754MPD2    H511149   0.774   0.297  12.844 -1.8165 -1.5539 -1.6093
  754MPD2    N111150   1.339   0.268  12.781 -0.7424  0.3208 -0.4464
  754MPD2    H711151   1.406   0.331  12.738  0.5334  0.4730  1.7815
  755MPD2     C11152   0.053   0.597  13.025  0.0839 -0.5134 -0.8225
  755MPD2    C111153   0.133   0.577  13.132 -0.0598  0.2969 -0.5552
  755MPD2    C211154   0.231   0.477  13.120  0.2666  1.1078 -0.0038
  755MPD2    C311155   0.260   0.406  13.009 -0.9414  0.1359  0.0733
  755MPD2    C411156   0.173   0.428  12.908  0.6515  0.7218 -0.0818
  755MPD2    C511157   0.064   0.510  12.920 -0.6468 -0.6553  0.6985
  755MPD2     H11158   0.293   0.461  13.208  0.8329 -0.2222 -0.6558
  755MPD2    H111159   0.176   0.366  12.819  1.0171 -0.6290  0.8866
  755MPD2    H211160   4.681   0.655  13.016  0.3622  0.1813  0.8322
  755MPD2    H311161   4.710   0.516  12.840  1.4634  0.2426 -1.1766
  755MPD2     N11162   0.368   0.308  13.000 -0.2389 -0.4885  0.8230
  755MPD2    H511163   0.396   0.269  12.911  1.5577  2.7475 -0.0180
  755MPD2    N111164   0.115   0.642  13.256  0.1481  0.4369  0.6690
  755MPD2    H711165   0.174   0.611  13.333  1.7214 -1.2823 -1.2432
  756MPD2     C11166   1.155   1.254   9.292 -0.6397 -0.4482 -0.5686
  756MPD2    C111167   1.125   1.146   9.375  0.5881  0.3831 -0.2462
  756MPD2    C211168   0.993   1.091   9.378  0.4097 -0.4557 -0.4630
  756MPD2    C311169   0.896   1.145   9.302  0.6217  0.4224  0.2111
  756MPD2    C411170   0.934   1.245   9.209  0.4669 -0.1610 -0.3550
  756MPD2    C511171   1.057   1.297   9.204  0.6834  0.4357 -0.1711
  756MPD2     H11172   0.975   1.003   9.439 -0.9243  1.3418  1.7316
  756MPD2    H111173   0.857   1.286   9.144 -0.7132 -1.4352  0.2337
  756MPD2    H211174   1.258   1.286   9.285 -1.3552  1.8758 -0.6368
  756MPD2    H311175   1.081   1.369   9.127 -0.3210  0.0924 -0.8149
  756MPD2     N11176   0.770   1.092   9.315 -0.1799 -0.2120  0.4277
  756MPD2    H511177   0.755   1.025   9.390  1.7596 -1.6252 -0.4632
  756MPD2    N111178   1.211   1.090   9.475 -0.4395  0.6934 -0.0537
  756MPD2    H711179   1.168   1.020   9.535 -1.4395  0.6642 -0.8133
  757MPD2     C11180   0.557   0.301   9.492 -0.7865 -0.0983 -0.0994
  757MPD2    C111181   0.657   0.393   9.523 -0.3718  0.8045 -0.4625
  757MPD2    C211182   0.636   0.521   9.478  0.3260 -0.1135  0.2475
  757MPD2    C311183   0.510   0.557   9.436 -0.8418  0.1970  0.5090
  757MPD2    C411184   0.410   0.468   9.419 -0.6411 -0.1535 -0.4600
  757MPD2    C511185   0.435   0.335   9.448  0.2522  0.1119 -0.0392
  757MPD2     H11186   0.711   0.599   9.488  0.6991 -0.2662 -1.4312
  757MPD2    H111187   0.311   0.499   9.386 -0.0410 -0.5953 -2.6472
  757MPD2    H211188   0.574   0.195   9.512  0.4278 -0.0567 -0.9524
  757MPD2    H311189   0.356   0.261   9.441 -1.1430  1.6114 -0.4261
  757MPD2     N11190   0.494   0.695   9.415  0.3942  0.1111  0.4712
  757MPD2    H511191   0.575   0.756   9.414 -0.0923  0.7399 -0.3859
  757MPD2    N111192   0.780   0.345   9.577  0.3747  0.1586  0.0698
  757MPD2    H711193   0.780   0.249   9.609 -1.3586  0.2327  0.3171
  758MPD2     C11194   1.162   4.625  15.769  0.0986 -0.9079 -0.0841
  758MPD2    C111195   1.250   4.606  15.871 -0.7524 -0.2065 -0.1187
  758MPD2    C211196   1.207   4.628  16.000 -1.4257  0.4594  0.2013
  758MPD2    C311197   1.083   4.687  16.018 -0.4568 -0.1908  0.4183
  758MPD2    C411198   1.007   4.719  15.912 -0.1488 -0.3444  0.7036
  758MPD2    C511199   1.045   4.674  15.793  0.9512 -0.0999  0.3846
  758MPD2     H11200   1.270   4.616  16.088  0.2049  1.4781 -0.8281
  758MPD2    H111201   0.908   0.042  15.921  0.8371  2.4365 -1.3953
  758MPD2    H211202   1.183   4.595  15.666 -1.3449  0.2266 -0.7128
  758MPD2    H311203   0.991   4.698  15.702  0.3197 -0.5560  0.6442
  758MPD2     N11204   1.030   4.705  16.142 -0.0442  0.0523  0.3891
  758MPD2    H511205   0.931   0.007  16.146 -0.1436  0.1589 -2.5992
  758MPD2    N111206   1.380   4.561  15.843  0.0931  0.1799  0.2154
  758MPD2    H711207   1.400   4.535  15.747 -0.4425  1.0749 -0.1270
  759MPD2     C11208   0.195   3.430   9.933 -0.6193 -0.1466 -0.5875
  759MPD2    C111209   0.238   3.307   9.879  1.0919  0.5378 -0.7900
  759MPD2    C211210   0.342   3.309   9.788  0.2788  0.3051 -0.4562
  759MPD2    C311211   0.399   3.430   9.749  0.7354  0.3206  0.5379
  759MPD2    C411212   0.357   3.552   9.803  0.0332 -0.8678  0.2012
  759MPD2    C511213   0.253   3.551   9.890 -0.2423 -0.5047 -0.2033
  759MPD2     H11214   0.367   3.213   9.742 -2.5290 -0.3683 -0.5327
  759MPD2    H111215   0.408   3.646   9.789  0.2556 -0.9766  0.2850
  759MPD2    H211216   0.124   3.436  10.014 -1.0991 -0.0307 -1.0206
  759MPD2    H311217   0.210   3.637   9.939  1.2559 -0.3960  0.9566
  759MPD2     N11218   0.489   3.426   9.638  0.3876 -0.3512  0.1173
  759MPD2    H511219   0.495   3.338   9.588  2.3427 -0.8927  1.3072
  759MPD2    N111220   0.187   3.182   9.924 -0.2228 -0.2558 -0.2353
  759MPD2    H711221   0.240   3.102   9.891  0.0218  0.0174 -0.5061
  760MPD2     C11222   3.910   0.495  11.858  0.4423  0.2333  0.5482
  760MPD2    C111223   4.004   0.444  11.773  0.1754  0.2928 -0.0135
  760MPD2    C211224   4.041   0.303  11.780  0.0511 -0.2838 -0.9235
  760MPD2    C311225   3.994   0.225  11.881  0.9924  0.0081 -0.4695
  760MPD2    C411226   3.902   0.280  11.971  0.7134 -0.2637 -0.6571
  760MPD2    C511227   3.853   0.408  11.949  1.1510 -0.5759 -0.2720
  760MPD2     H11228   4.123   0.274  11.714  0.8281 -0.1801 -0.0001
  760MPD2    H111229   3.865   0.216  12.051  1.9267 -1.5184 -1.1056
  760MPD2    H211230   3.879   0.599  11.850  0.2195  0.1250  0.0421
  760MPD2    H311231   3.769   0.444  12.008 -1.5758 -2.9006 -2.7124
  760MPD2     N11232   4.039   0.088  11.899 -0.4630 -0.4575  0.1662
  760MPD2    H511233   3.999   0.038  11.978 -2.3140 -1.1221 -1.1888
  760MPD2    N111234   4.084   0.531  11.687 -0.3161 -0.5410 -0.4736
  760MPD2    H711235   4.154   0.496  11.621 -0.5827  0.0318 -1.0513
  761MPD2     C11236   0.968   4.229  10.677  0.4910  0.4618 -0.0892
  761MPD2    C111237   1.060   4.193  10.588 -0.0774 -0.4187  0.2871
  761MPD2    C211238   1.146   4.295  10.544 -0.2426  0.9192 -0.1701
  761MPD2    C311239   1.134   4.421  10.594  0.1752 -0.1084 -0.3221
  761MPD2    C411240   1.036   4.461  10.679  0.4546  0.0211 -0.4135
  761MPD2    C511241   0.957   4.358  10.723  0.0259  0.3027  0.5041
  761MPD2     H11242   1.232   4.276  10.480 -0.4108  1.2231 -0.4896
  761MPD2    H111243   1.033   4.559  10.724  1.2642 -0.3229  0.4045
  761MPD2    H211244   0.897   4.154  10.712  1.3164  0.4781  1.6298
  761MPD2    H311245   0.872   4.369  10.789 -0.4171  1.9897 -0.3548
  761MPD2     N11246   1.226   4.525  10.557  0.2862 -0.4078  0.1667
  761MPD2    H511247   1.234   4.605  10.619 -0.4806  0.5341 -0.9731
  761MPD2    N111248   1.065   4.061  10.549 -0.2024 -0.5638 -0.0482
  761MPD2    H711249   0.995   4.001  10.591 -0.8379 -0.4553 -0.9442
  762MPD2     C11250   1.547   3.972  10.051 -0.4284  0.3380  0.2296
  762MPD2    C111251   1.560   3.871  10.138 -0.4818 -0.1703  0.5001
  762MPD2    C211252   1.684   3.835  10.192 -0.0640 -0.0807  0.2366
  762MPD2    C311253   1.793   3.912  10.161 -0.1921 -0.3452 -0.0745
  762MPD2    C411254   1.784   4.017  10.074 -0.7687 -0.3923  0.7000
  762MPD2    C511255   1.658   4.047  10.016  0.0080  0.6849 -0.4198
  762MPD2     H11256   1.694   3.748  10.256  0.1173  0.5030  1.0106
  762MPD2    H111257   1.867   4.084  10.053 -1.3285  0.1712  0.2502
  762MPD2    H211258   1.452   4.011  10.016 -0.4700  0.6274  0.6730
  762MPD2    H311259   1.660   4.130   9.946 -0.2067  0.0773 -1.1550
  762MPD2     N11260   1.919   3.875  10.224 -0.0849 -0.2209 -0.8482
  762MPD2    H511261   1.916   3.809  10.301  0.9202 -1.9164 -2.2831
  762MPD2    N111262   1.440   3.817  10.184 -0.1286 -0.5768  0.4114
  762MPD2    H711263   1.360   3.874  10.157  0.7636  0.0314 -0.9392
  763MPD2     C11264   3.178   4.210  16.175  0.2799 -0.0487  0.0648
  763MPD2    C111265   3.184   4.300  16.068  0.1123 -1.2059  0.1914
  763MPD2    C211266   3.157   4.436  16.087 -0.5123 -0.2210 -0.0839
  763MPD2    C311267   3.132   4.484  16.212  0.0552  0.1384 -0.9080
  763MPD2    C411268   3.117   4.394  16.309  0.8211 -0.2604  0.7864
  763MPD2    C511269   3.146   4.262  16.292  0.3294  0.3157 -0.3327
  763MPD2     H11270   3.184   4.504  16.006 -1.5698  1.2155  0.7814
  763MPD2    H111271   3.105   4.430  16.411  1.4707  0.1731  0.7071
  763MPD2    H211272   3.186   4.103  16.164 -0.7803  0.1938 -3.0430
  763MPD2    H311273   3.128   4.194  16.374  5.6797  1.3798  1.7225
  763MPD2     N11274   3.120   4.620  16.223  0.1958  0.2863 -0.5358
  763MPD2    H511275   3.148   4.682  16.147 -0.2555 -0.6273 -1.4489
  763MPD2    N111276   3.211   4.258  15.934  0.0248  0.5815  0.1751
  763MPD2    H711277   3.202   4.319  15.854  0.4823 -3.0400 -2.6131
  764MPD2     C11278   1.389   1.344  17.074  0.0207  0.8724  0.2032
  764MPD2    C111279   1.261   1.392  17.047  0.2665  0.6595  0.4919
  764MPD2    C211280   1.167   1.378  17.147  0.4916 -0.5224 -0.4349
  764MPD2    C311281   1.202   1.336  17.276  0.4105  0.0657  0.3435
  764MPD2    C411282   1.329   1.289  17.298  0.0480  0.9548  0.8142
  764MPD2    C511283   1.419   1.295  17.199 -0.4097  0.4174 -0.4702
  764MPD2     H11284   1.062   1.401  17.130  0.3173 -0.7643  0.2920
  764MPD2    H111285   1.359   1.253  17.395  0.9722  1.1578  0.6048
  764MPD2    H211286   1.461   1.345  16.993  0.8265  1.1723  0.9165
  764MPD2    H311287   1.517   1.260  17.228 -0.4851 -0.4984 -1.3044
  764MPD2     N11288   1.095   1.331  17.368 -0.2948 -0.1629 -0.0511
  764MPD2    H511289   1.011   1.384  17.350 -0.3052 -0.0789  0.2513
  764MPD2    N111290   1.228   1.439  16.920 -0.2223  0.2180  0.1254
  764MPD2    H711291   1.281   1.409  16.838 -0.2650  0.6572 -0.0635
  765MPD2     C11292   0.945   3.890  15.321  0.1385  0.6947  0.2962
  765MPD2    C111293   1.031   3.977  15.388 -0.0415 -0.3095  0.8054
  765MPD2    C211294   1.168   3.954  15.396  0.5070 -0.5002 -0.0284
  765MPD2    C311295   1.216   3.854  15.317 -0.3574 -0.4541  0.0102
  765MPD2    C411296   1.136   3.756  15.263 -0.5439 -0.7460 -0.0525
  765MPD2    C511297   1.003   3.779  15.264  0.0716 -0.1824 -0.1196
  765MPD2     H11298   1.233   4.009  15.463 -2.1933 -1.5035  3.4282
  765MPD2    H111299   1.167   3.678  15.196 -2.4502 -1.0377 -0.6006
  765MPD2    H211300   0.836   3.897  15.319  0.0128 -0.7862  1.5390
  765MPD2    H311301   0.939   3.701  15.225  1.2676 -1.5469  0.6701
  765MPD2     N11302   1.357   3.842  15.311 -0.5118 -0.2119 -0.0900
  765MPD2    H511303   1.410   3.909  15.366 -0.0746  0.7193 -1.6297
  765MPD2    N111304   0.965   4.073  15.462  0.2198 -0.1800  0.1770
  765MPD2    H711305   0.865   4.079  15.444 -0.2512 -2.5990  1.9715
  766MPD2     C11306   0.341   4.340  15.253 -0.6850 -0.3817 -0.3661
  766MPD2    C111307   0.455   4.260  15.267 -0.2838 -0.7297 -0.6457
  766MPD2    C211308   0.523   4.205  15.155  0.0353  0.2710  0.2793
  766MPD2    C311309   0.469   4.223  15.028 -0.4698  0.3279  0.6800
  766MPD2    C411310   0.355   4.291  15.022 -0.6948 -0.6818 -0.0146
  766MPD2    C511311   0.285   4.346  15.130 -0.6230  1.2451 -0.2763
  766MPD2     H11312   0.614   4.147  15.166 -1.6112 -2.1608  0.8096
  766MPD2    H111313   0.308   4.304  14.925  2.7108  0.3618 -1.5050
  766MPD2    H211314   0.297   4.393  15.337 -0.6272  2.5222 -2.1683
  766MPD2    H311315   0.195   4.404  15.115 -0.0182  2.1148 -0.5244
  766MPD2     N11316   0.526   4.181  14.908 -0.5856 -0.2098 -0.0624
  766MPD2    H511317   0.513   4.237  14.824  1.1422  1.0146  0.4800
  766MPD2    N111318   0.510   4.260  15.397  0.0029 -0.5859  0.0742
  766MPD2    H711319   0.464   4.310  15.472 -0.8191 -1.2263 -0.0036
  767MPD2     C11320   0.098   4.572  14.701 -0.6425 -0.0710 -0.5333
  767MPD2    C111321   0.228   4.538  14.698  0.5484 -0.3947  0.1502
  767MPD2    C211322   0.271   4.438  14.615 -0.4243 -0.1370  1.1281
  767MPD2    C311323   0.191   4.373  14.528  0.4077 -0.0234  0.5676
  767MPD2    C411324   0.062   4.418  14.524  0.4596  0.5052 -0.2755
  767MPD2    C511325   0.015   4.518  14.606  0.1390  0.0541 -0.9633
  767MPD2     H11326   0.375   4.409  14.612 -0.2734  0.4656  0.5302
  767MPD2    H111327   4.712   4.381  14.449 -1.4483  0.9567  1.2554
  767MPD2    H211328   0.045   4.633  14.774  1.0961  0.7048  0.0943
  767MPD2    H311329   4.628   4.538  14.611  0.0155 -0.9210  0.4810
  767MPD2     N11330   0.241   4.265  14.443 -0.4667 -0.3631  0.5784
  767MPD2    H511331   0.336   4.230  14.441  0.2190  1.6300 -2.3482
  767MPD2    N111332   0.318   4.601  14.791 -0.6028  0.4676  0.2602
  767MPD2    H711333   0.275   4.671  14.851 -1.6307  0.9432 -1.0358
  768MPD2     C11334   1.146   2.674  10.470 -0.3128 -0.0699  0.0057
  768MPD2    C111335   1.096   2.633  10.589  0.2600  0.7223 -0.5772
  768MPD2    C211336   1.168   2.656  10.701 -0.0168  0.5288 -0.0981
  768MPD2    C311337   1.284   2.741  10.697  0.2438 -0.4622 -0.4818
  768MPD2    C411338   1.325   2.795  10.581 -0.5743  0.0249  0.9419
  768MPD2    C511339   1.255   2.763  10.468  1.1075  0.7598 -0.1891
  768MPD2     H11340   1.129   2.610  10.791 -3.0714  1.9369 -0.6963
  768MPD2    H111341   1.404   2.869  10.583 -1.1221  0.6119  0.8252
  768MPD2    H211342   1.094   2.660  10.375 -0.0538 -1.8638  0.1344
  768MPD2    H311343   1.279   2.815  10.376  0.4313 -0.3755 -1.0105
  768MPD2     N11344   1.362   2.772  10.806 -0.5179 -0.5310 -0.1321
  768MPD2    H511345   1.448   2.823  10.788  0.0433 -1.1685  0.7740
  768MPD2    N111346   0.974   2.559  10.603  0.3738 -0.0541 -0.3202
  768MPD2    H711347   0.950   2.543  10.701 -1.0354  1.5791 -0.4031
  769MPD2     C11348   2.289   0.860  14.625 -0.6634  0.2798 -0.2043
  769MPD2    C111349   2.169   0.903  14.680 -0.2997  0.1572  0.3674
  769MPD2    C211350   2.170   0.948  14.816 -0.0838 -0.4669  0.7934
  769MPD2    C311351   2.286   0.934  14.890 -0.0850  0.0831  0.0894
  769MPD2    C411352   2.406   0.917  14.825  0.5303 -0.3654  0.2896
  769MPD2    C511353   2.407   0.875  14.691 -0.6968  0.5195 -1.0856
  769MPD2     H11354   2.082   0.985  14.868 -1.2995  0.1138 -1.6796
  769MPD2    H111355   2.505   0.941  14.860  0.0899 -0.0764  1.3145
  769MPD2    H211356   2.296   0.826  14.523 -0.9067  1.1378 -0.5079
  769MPD2    H311357   2.497   0.858  14.633 -0.2664 -2.2372  0.3812
  769MPD2     N11358   2.295   0.963  15.030 -0.3548  0.3732  0.1055
  769MPD2    H511359   2.225   1.018  15.078 -0.0983  0.9492 -0.1826
  769MPD2    N111360   2.055   0.907  14.597 -0.5295 -0.2192  0.0227
  769MPD2    H711361   2.080   0.897  14.499  2.5384 -0.3184  0.7966
  770MPD2     C11362   1.291   0.425  14.567 -0.3758  0.3058 -0.4164
  770MPD2    C111363   1.425   0.421  14.595  0.2481 -0.8709 -0.7148
  770MPD2    C211364   1.493   0.540  14.590 -0.5395  0.2192  0.6257
  770MPD2    C311365   1.427   0.660  14.564 -0.0484 -0.2361 -0.4376
  770MPD2    C411366   1.291   0.663  14.541 -0.0751  0.1365  0.7037
  770MPD2    C511367   1.227   0.540  14.542 -0.4241  0.6593 -0.4913
  770MPD2     H11368   1.599   0.561  14.602 -0.4106  0.1153 -0.3319
  770MPD2    H111369   1.236   0.752  14.514  0.8273  0.6331  0.5269
  770MPD2    H211370   1.230   0.335  14.572 -0.1515  0.0965 -1.3827
  770MPD2    H311371   1.121   0.551  14.523 -0.5200 -0.9074 -0.8683
  770MPD2     N11372   1.516   0.771  14.566 -0.0067 -0.0728  0.4961
  770MPD2    H511373   1.614   0.762  14.590  0.2715 -0.3675 -0.7640
  770MPD2    N111374   1.496   0.298  14.621  0.4053 -0.1036 -0.5280
  770MPD2    H711375   1.439   0.216  14.644  0.6736 -0.9032 -2.6618
  771MPD2     C11376   2.795   3.264  13.477  0.9464  0.6816  0.1129
  771MPD2    C111377   2.687   3.330  13.414 -0.0283 -1.0980 -0.0594
  771MPD2    C211378   2.655   3.280  13.285  0.2839  0.4055  0.5929
  771MPD2    C311379   2.723   3.169  13.223 -0.7137 -0.5375 -0.7846
  771MPD2    C411380   2.830   3.115  13.291 -0.0296 -0.2446  0.7236
  771MPD2    C511381   2.864   3.168  13.415 -0.3319  0.5868  0.6410
  771MPD2     H11382   2.562   3.313  13.240  0.2084  1.2556  1.3761
  771MPD2    H111383   2.895   3.037  13.254 -0.0616  0.2379 -0.3697
  771MPD2    H211384   2.823   3.309  13.571  2.8287  1.1126 -0.6578
  771MPD2    H311385   2.951   3.124  13.462  0.3808 -1.1930 -2.3368
  771MPD2     N11386   2.674   3.118  13.099 -0.4711 -0.3861  0.4980
  771MPD2    H511387   2.598   3.172  13.058  0.8865  0.2715 -1.1680
  771MPD2    N111388   2.638   3.437  13.484  0.1822  0.4105 -0.0220
  771MPD2    H711389   2.694   3.470  13.562  1.1965 -2.6920  0.5640
  772MPD2     C11390   1.966   4.000  13.456 -0.1986 -0.5990  0.3344
  772MPD2    C111391   2.018   3.917  13.552 -0.9312 -0.0073  0.0209
  772MPD2    C211392   1.938   3.880  13.660  0.1788 -0.2605  0.1733
  772MPD2    C311393   1.814   3.929  13.684 -0.6608 -0.9347  0.0826
  772MPD2    C411394   1.759   4.008  13.589  1.0718 -0.3848 -0.3382
  772MPD2    C511395   1.833   4.039  13.481 -0.3111 -0.7036  0.6217
  772MPD2     H11396   1.991   3.823  13.736 -1.2777 -2.3864 -0.4084
  772MPD2    H111397   1.665   4.057  13.612  1.3839 -0.0186  0.1489
  772MPD2    H211398   2.011   4.030  13.362  1.2134 -1.2527  0.8083
  772MPD2    H311399   1.778   4.101  13.411 -4.3406 -3.9406  0.9888
  772MPD2     N11400   1.732   3.899  13.795  0.2374 -0.3498  0.2320
  772MPD2    H511401   1.643   3.949  13.796  1.3787  1.6539  1.0497
  772MPD2    N111402   2.156   3.881  13.556  0.1912 -0.1955  0.4860
  772MPD2    H711403   2.193   3.827  13.634 -0.6537 -1.9797 -0.3495
  773MPD2     C11404   1.110   0.284  17.530  0.1354 -0.0155  0.3523
  773MPD2    C111405   1.213   0.189  17.515  0.1144 -0.1397  0.0169
  773MPD2    C211406   1.301   0.171  17.622 -0.1385 -0.5110 -0.4737
  773MPD2    C311407   1.297   0.245   0.053 -1.1470 -0.2488  0.4491
  773MPD2    C411408   1.207   0.353   0.058 -0.1840  0.1773  0.3958
  773MPD2    C511409   1.118   0.378  17.631  1.0448  0.1462 -0.1052
  773MPD2     H11410   1.371   0.090  17.609 -0.2167 -0.2272 -2.6043
  773MPD2    H111411   1.208   0.418   0.144 -2.4537 -0.9272  1.2493
  773MPD2    H211412   1.035   0.312  17.458 -0.6742 -3.1518 -0.0166
  773MPD2    H311413   1.040   0.452  17.640 -1.1148 -2.0629 -0.5186
  773MPD2     N11414   1.388   0.221   0.152  0.4329 -0.1727  0.0907
  773MPD2    H511415   1.447   0.140   0.135  0.8736 -0.6887  3.9112
  773MPD2    N111416   1.214   0.091  17.416  0.7743  0.0924 -0.9945
  773MPD2    H711417   1.290   0.024  17.419  0.1504 -0.5776 -0.3139
  774MPD2     C11418   1.459   3.911  12.999  0.2758  0.3461  0.1301
  774MPD2    C111419   1.326   3.946  13.039  0.6310  0.4972  0.0017
  774MPD2    C211420   1.290   4.077  13.037  0.0246  0.8994 -0.0959
  774MPD2    C311421   1.370   4.172  12.984 -0.8743 -0.2042  0.3820
  774MPD2    C411422   1.487   4.134  12.920 -0.3197 -0.0559  0.2382
  774MPD2    C511423   1.528   4.004  12.926  0.1478 -0.5470 -1.0538
  774MPD2     H11424   1.193   4.112  13.070  1.1535  1.4518  2.6261
  774MPD2    H111425   1.535   4.205  12.853 -0.3103 -0.8654 -0.6026
  774MPD2    H211426   1.485   3.807  12.985 -1.6146 -0.1110  0.0219
  774MPD2    H311427   1.617   3.980  12.870  0.2262  0.2912 -1.2950
  774MPD2     N11428   1.329   4.309  12.990 -0.4376 -0.0977  0.2733
  774MPD2    H511429   1.242   4.333  13.037 -0.3976 -2.6630  1.6550
  774MPD2    N111430   1.233   3.843  13.073 -0.3146  0.2049 -0.6696
  774MPD2    H711431   1.270   3.749  13.068 -1.5642 -0.2315 -1.5882
  775MPD2     C11432   2.609   0.908  15.624 -0.5679 -0.1466 -0.4266
  775MPD2    C111433   2.520   1.010  15.653 -1.5132  0.1946 -0.6590
  775MPD2    C211434   2.524   1.130  15.584 -0.3144  0.1922 -0.0731
  775MPD2    C311435   2.622   1.144  15.480  0.6129 -0.5337  0.9218
  775MPD2    C411436   2.705   1.037  15.451 -0.3263  0.3303 -0.1150
  775MPD2    C511437   2.704   0.920  15.523  0.2915 -0.1608  0.4716
  775MPD2     H11438   2.457   1.209  15.616 -0.1361  0.2042  0.2674
  775MPD2    H111439   2.777   1.043  15.370  1.3083  0.4424  1.3525
  775MPD2    H211440   2.606   0.807  15.665 -1.0113 -0.2969 -0.8342
  775MPD2    H311441   2.765   0.835  15.494 -1.5041 -0.0290 -3.6683
  775MPD2     N11442   2.641   1.264  15.407 -0.4538 -0.0178  0.3784
  775MPD2    H511443   2.707   1.273  15.330 -0.3438 -0.1279  0.4592
  775MPD2    N111444   2.437   0.985  15.769  0.5061 -0.2302 -0.5578
  775MPD2    H711445   2.471   0.911  15.831  0.1875 -0.5271 -0.7409
  776MPD2     C11446   1.840   1.044  11.189 -0.0517 -0.5168 -0.2798
  776MPD2    C111447   1.763   1.011  11.305 -0.5734 -0.0061 -0.5795
  776MPD2    C211448   1.750   1.114  11.394 -0.4075  0.1634 -0.3400
  776MPD2    C311449   1.806   1.236  11.380  0.6208 -0.2006 -1.0355
  776MPD2    C411450   1.880   1.265  11.267 -0.2786 -0.3432 -0.2196
  776MPD2    C511451   1.895   1.172  11.173 -0.6791  0.0758 -0.6890
  776MPD2     H11452   1.672   1.104  11.469  0.2743 -0.3989  0.2905
  776MPD2    H111453   1.930   1.361  11.266 -0.7045 -0.1681 -2.8584
  776MPD2    H211454   1.860   0.973  11.110 -1.6831 -1.4025  0.1046
  776MPD2    H311455   1.969   1.185  11.094  0.0018  0.8046  0.0653
  776MPD2     N11456   1.794   1.347  11.469 -0.1420  0.1036 -0.6245
  776MPD2    H511457   1.839   1.434  11.441 -3.3899  2.1657  0.5390
  776MPD2    N111458   1.704   0.885  11.320 -0.0333  0.0478 -0.5529
  776MPD2    H711459   1.707   0.815  11.247 -1.3769  0.2511 -0.8096
  777MPD2     C11460   2.154   3.264   0.544 -0.2748  0.1169  0.1272
  777MPD2    C111461   2.186   3.164   0.632  0.2074 -0.2260 -0.2682
  777MPD2    C211462   2.178   3.032   0.587 -0.3029  0.0930  0.1266
  777MPD2    C311463   2.163   2.998   0.454 -0.3248  0.3853 -0.4203
  777MPD2    C411464   2.155   3.105   0.360 -0.1073 -0.2375 -0.9066
  777MPD2    C511465   2.141   3.229   0.411  0.5809  0.8155  0.0794
  777MPD2     H11466   2.195   2.950   0.656 -2.1820  0.0422  0.5204
  777MPD2    H111467   2.137   3.084   0.256 -0.7001 -2.6244 -0.3235
  777MPD2    H211468   2.153   3.369   0.569  0.4880  0.6235 -1.9593
  777MPD2    H311469   2.135   3.315   0.345 -4.6929  0.4594  0.1467
  777MPD2     N11470   2.151   2.855   0.416  0.3758 -0.2548  0.6804
  777MPD2    H511471   2.141   2.791   0.494 -0.8583 -2.4068 -1.2262
  777MPD2    N111472   2.196   3.197   0.768 -0.3236  0.2771 -0.1512
  777MPD2    H711473   2.187   3.298   0.782 -2.3962  0.1996 -0.9467
  778MPD2     C11474   3.432   4.062  14.616 -0.2233 -0.3404 -0.0656
  778MPD2    C111475   3.352   3.975  14.537 -0.5468 -0.0444 -0.1035
  778MPD2    C211476   3.386   3.952  14.406  0.1956  0.0517 -0.3480
  778MPD2    C311477   3.492   4.019  14.343  0.1044  0.1560 -0.0680
  778MPD2    C411478   3.565   4.099  14.419  0.5500 -0.0231 -0.7308
  778MPD2    C511479   3.538   4.121  14.555  0.2117 -0.1824 -0.0298
  778MPD2     H11480   3.322   3.888  14.347 -0.1053 -0.1676  0.2117
  778MPD2    H111481   3.648   4.152  14.373  1.3946 -1.5058 -0.9152
  778MPD2    H211482   3.405   4.085  14.718 -3.4239 -1.9138 -0.5358
  778MPD2    H311483   3.605   4.188  14.608  0.3021 -1.2515  1.2102
  778MPD2     N11484   3.510   4.001  14.202  0.0186 -0.2362  0.0902
  778MPD2    H511485   3.447   3.939  14.151  0.8294 -2.0044  1.2147
  778MPD2    N111486   3.243   3.907  14.597  0.6075 -0.4759  0.0432
  778MPD2    H711487   3.192   3.839  14.540 -1.4394  2.3614 -1.4801
  779MPD2     C11488   2.545   2.498  14.268  0.8343 -0.0871  0.1540
  779MPD2    C111489   2.683   2.495  14.232 -0.5564  0.2156  0.1218
  779MPD2    C211490   2.748   2.618  14.210  0.0383  0.3748 -0.2476
  779MPD2    C311491   2.676   2.738  14.221  0.7233  0.0412 -0.8869
  779MPD2    C411492   2.538   2.737  14.241 -0.0458  0.9983 -0.2573
  779MPD2    C511493   2.484   2.622  14.273 -0.3667 -1.0181 -0.1581
  779MPD2     H11494   2.853   2.608  14.187 -0.2247 -1.4089 -0.7288
  779MPD2    H111495   2.471   2.821  14.247 -0.7515  0.4818 -0.8894
  779MPD2    H211496   2.484   2.409  14.273  0.6563 -0.0809 -1.6915
  779MPD2    H311497   2.376   2.622  14.279 -0.3649 -1.1008 -0.1260
  779MPD2     N11498   2.746   2.856  14.181  0.2598 -0.3097 -0.3429
  779MPD2    H511499   2.838   2.833  14.144  0.1126 -0.6857 -0.4797
  779MPD2    N111500   2.764   2.377  14.214 -0.4001 -0.4727 -0.4266
  779MPD2    H711501   2.844   2.401  14.157  0.6604  0.8920  1.6309
  780MPD2     C11502   2.328   2.025   1.357  0.2026  0.5141 -0.6854
  780MPD2    C111503   2.239   1.983   1.266 -0.5418  0.2873 -0.6186
  780MPD2    C211504   2.267   2.009   1.134 -0.4668  0.1801 -0.5496
  780MPD2    C311505   2.378   2.078   1.096  0.1990 -0.6537  0.1668
  780MPD2    C411506   2.467   2.133   1.190 -0.1767 -0.0363 -0.1153
  780MPD2    C511507   2.434   2.108   1.322  0.4518  0.2098 -0.0589
  780MPD2     H11508   2.200   1.965   1.060  0.9460 -0.8062 -1.2356
  780MPD2    H111509   2.557   2.189   1.171 -0.6143  0.4530 -0.7561
  780MPD2    H211510   2.298   2.016   1.460 -0.2439 -1.2421 -0.9750
  780MPD2    H311511   2.485   2.167   1.397  0.3477  1.4170 -0.9373
  780MPD2     N11512   2.416   2.098   0.956  0.3759 -0.0095  0.6776
  780MPD2    H511513   2.503   2.149   0.945  0.4880 -0.0840  1.2211
  780MPD2    N111514   2.134   1.898   1.307  0.5048 -0.4486 -0.3499
  780MPD2    H711515   2.130   1.867   1.404  2.2857 -0.7492 -0.3836
  781MPD2     C11516   3.949   3.965  11.846  0.0854 -0.2092 -0.5094
  781MPD2    C111517   3.973   3.832  11.870  0.0429  0.1567  0.0779
  781MPD2    C211518   4.025   3.756  11.767 -0.6139 -1.0789 -0.7749
  781MPD2    C311519   4.058   3.809  11.641 -0.1703 -0.4414 -0.0369
  781MPD2    C411520   4.031   3.945  11.624 -0.5155 -0.1843 -0.2396
  781MPD2    C511521   3.969   4.022  11.726 -0.1912  0.2788  0.0279
  781MPD2     H11522   4.040   3.649  11.783 -1.2692 -1.0091  0.3231
  781MPD2    H111523   4.043   3.993  11.528 -0.4543  0.3280  0.0235
  781MPD2    H211524   3.907   4.032  11.920  1.2362  0.2567 -0.2818
  781MPD2    H311525   3.943   4.123  11.697 -0.0802  0.7824  1.6782
  781MPD2     N11526   4.116   3.744  11.531 -0.6408 -0.0589 -0.3252
  781MPD2    H511527   4.126   3.796  11.445 -0.3987 -2.3341 -1.6676
  781MPD2    N111528   3.943   3.772  11.995 -0.9109  0.0510  0.0896
  781MPD2    H711529   3.973   3.676  12.010  0.7015  0.3819 -1.0612
  782MPD2     C11530   1.861   0.501  10.153  0.2567 -0.0779 -0.2480
  782MPD2    C111531   2.000   0.487  10.147 -1.0975 -0.1297 -0.3009
  782MPD2    C211532   2.087   0.518  10.252 -0.4415  0.4869 -0.3428
  782MPD2    C311533   2.032   0.560  10.373  0.3109  0.1410 -0.6600
  782MPD2    C411534   1.889   0.583  10.370 -0.5171 -0.4554 -0.0635
  782MPD2    C511535   1.811   0.553  10.263 -0.0033  0.3703 -0.5072
  782MPD2     H11536   2.195   0.511  10.246 -0.5197  0.0497 -1.2483
  782MPD2    H111537   1.840   0.625  10.458 -1.2475 -1.9049  0.2159
  782MPD2    H211538   1.794   0.471  10.073 -1.8817 -0.2537  1.6260
  782MPD2    H311539   1.704   0.564  10.270 -0.1351  1.1012 -3.4916
  782MPD2     N11540   2.114   0.571  10.487  0.0261  0.2834  0.8140
  782MPD2    H511541   2.207   0.530  10.481 -0.0071  0.1749  1.0298
  782MPD2    N111542   2.043   0.437  10.017  0.0426  0.2970 -0.6005
  782MPD2    H711543   1.970   0.403   9.955 -0.4274 -0.9194  0.6362
  783MPD2     C11544   1.843   4.368  10.079 -0.2265 -0.6198  0.3841
  783MPD2    C111545   1.876   4.474  10.166 -0.8541  0.0992  0.1390
  783MPD2    C211546   1.972   4.569  10.131 -0.1442 -0.0027  1.1006
  783MPD2    C311547   2.030   4.567  10.004 -1.0683 -0.1793  0.1050
  783MPD2    C411548   1.981   4.471   9.918  0.6942  0.3317  0.1999
  783MPD2    C511549   1.892   4.372   9.952  0.2003 -0.1995 -0.0527
  783MPD2     H11550   1.987   4.652  10.198  0.5873  0.7308  0.0239
  783MPD2    H111551   2.015   4.472   9.815  2.5026  0.6883  0.7925
  783MPD2    H211552   1.766   4.297  10.108 -0.5170 -0.4807 -0.0376
  783MPD2    H311553   1.870   4.299   9.875  1.1070  1.2038 -1.6416
  783MPD2     N11554   2.103   4.679   9.954  0.0140  0.1377  0.1221
  783MPD2    H511555   2.096   0.043  10.012  0.5198 -0.6787  1.3605
  783MPD2    N111556   1.796   4.475  10.285 -0.7882  1.0536 -0.1602
  783MPD2    H711557   1.728   4.400  10.287 -0.2719  0.5174 -3.0655
  784MPD2     C11558   0.328   0.441   0.353 -0.0456 -0.0678  0.0777
  784MPD2    C111559   0.302   0.391   0.476 -0.3429 -0.0332  0.1778
  784MPD2    C211560   0.176   0.351   0.505 -0.3503  0.2164 -0.5341
  784MPD2    C311561   0.074   0.374   0.421  0.1835 -0.2543  0.3564
  784MPD2    C411562   0.095   0.421   0.296  0.5483  0.0151 -0.6519
  784MPD2    C511563   0.224   0.447   0.261 -0.3487  0.2525  0.5603
  784MPD2     H11564   0.150   0.320   0.606 -1.9943 -0.0049 -1.0246
  784MPD2    H111565   0.013   0.431   0.225 -0.6285 -2.2592  0.4110
  784MPD2    H211566   0.430   0.466   0.326 -0.2308  0.0143 -0.5516
  784MPD2    H311567   0.254   0.470   0.159 -0.7158  2.7266  1.0284
  784MPD2     N11568   4.665   0.358   0.470  0.1365  0.3025 -0.3817
  784MPD2    H511569   4.663   0.332   0.568  0.7707  0.0640 -0.4361
  784MPD2    N111570   0.397   0.377   0.575 -0.1171 -0.2720 -0.0669
  784MPD2    H711571   0.369   0.353   0.669  0.7062 -0.3982  0.1479
  785MPD2     C11572   4.355   3.936  10.222 -0.6646 -0.2256 -0.8137
  785MPD2    C111573   4.278   4.010  10.140  0.7869 -0.2795  0.9728
  785MPD2    C211574   4.199   3.957  10.045  0.4338  0.2292 -0.8913
  785MPD2    C311575   4.205   3.823  10.018 -0.4060 -0.0599 -0.7921
  785MPD2    C411576   4.291   3.745  10.094  0.5282 -0.3478 -1.0785
  785MPD2    C511577   4.361   3.803  10.200 -0.4357 -0.5565 -0.4054
  785MPD2     H11578   4.149   4.025   9.976 -2.8277 -1.2155  0.0497
  785MPD2    H111579   4.311   3.639  10.084 -0.8104 -0.4889 -2.3437
  785MPD2    H211580   4.420   3.991  10.289 -4.2492  1.0275  1.6553
  785MPD2    H311581   4.434   3.744  10.254  0.0358  0.9979  0.6532
  785MPD2     N11582   4.133   3.778   9.907 -0.3328 -1.0369  0.1371
  785MPD2    H511583   4.085   3.851   9.857  0.3617 -0.4204  0.3709
  785MPD2    N111584   4.287   4.146  10.175 -0.5186 -0.0837  0.0047
  785MPD2    H711585   4.355   4.158  10.249  0.0912 -1.3069 -0.3524
  786MPD2     C11586   2.999   1.807  14.403  0.4338  0.5913 -0.1910
  786MPD2    C111587   3.099   1.714  14.427 -0.7444 -0.9109  1.6908
  786MPD2    C211588   3.208   1.750  14.506  0.6212  0.2627  0.2801
  786MPD2    C311589   3.225   1.881  14.556  0.1480  0.3135  0.4266
  786MPD2    C411590   3.124   1.968  14.531 -1.3478  0.0774 -0.3477
  786MPD2    C511591   3.008   1.932  14.461  0.1601  0.4150  0.1721
  786MPD2     H11592   3.281   1.672  14.523  1.8385  0.9484 -1.8970
  786MPD2    H111593   3.123   2.063  14.583 -2.7760 -0.5094  0.6850
  786MPD2    H211594   2.912   1.791  14.340  2.5123 -0.2514 -2.8355
  786MPD2    H311595   2.933   2.009  14.456 -0.6532 -0.6747 -4.2185
  786MPD2     N11596   3.325   1.924  14.651 -0.1090  0.3330  0.0774
  786MPD2    H511597   3.325   2.015  14.695  0.5470  0.9076 -1.1274
  786MPD2    N111598   3.079   1.578  14.378  0.5157  0.0568  0.1697
  786MPD2    H711599   3.156   1.517  14.407 -0.0715  0.0880  1.8265
  787MPD2     C11600   3.206   1.178  14.808 -0.3127 -0.7474  0.4060
  787MPD2    C111601   3.222   1.130  14.684  0.1183 -0.5044  0.5511
  787MPD2    C211602   3.332   1.053  14.659  0.1345  0.2488  0.3926
  787MPD2    C311603   3.429   1.022  14.757  0.8353  0.2393  0.1451
  787MPD2    C411604   3.401   1.060  14.883 -0.6167 -0.4248  0.3562
  787MPD2    C511605   3.295   1.146  14.908  0.4495  0.4761 -0.2136
  787MPD2     H11606   3.348   1.024  14.556 -3.8195 -0.9112  0.0974
  787MPD2    H111607   3.462   1.035  14.969 -2.9152  0.4694  2.2505
  787MPD2    H211608   3.122   1.243  14.828 -0.4518 -1.0052  0.6649
  787MPD2    H311609   3.275   1.177  15.010  2.1776  1.5845 -0.2204
  787MPD2     N11610   3.530   0.930  14.721  0.2226 -0.3453  0.0165
  787MPD2    H511611   3.536   0.889  14.628 -1.1001  1.2756 -0.7953
  787MPD2    N111612   3.129   1.162  14.587  0.2137 -0.4281  0.6629
  787MPD2    H711613   3.057   1.231  14.608 -0.6461 -1.1340  0.0293
  788MPD2     C11614   0.303   3.786   1.114 -0.0532  0.4369 -0.0252
  788MPD2    C111615   0.205   3.780   1.010 -0.3116 -0.2051 -1.2214
  788MPD2    C211616   0.232   3.854   0.895  0.0482  0.4425 -0.3225
  788MPD2    C311617   0.351   3.924   0.880  0.4848  0.6716  0.4775
  788MPD2    C411618   0.447   3.926   0.976  0.1590  0.4166 -0.0012
  788MPD2    C511619   0.427   3.851   1.090  0.9555  0.1100  0.0649
  788MPD2     H11620   0.156   3.857   0.817  0.4240  0.5316 -0.6823
  788MPD2    H111621   0.539   3.983   0.971  0.2277  0.2260 -0.8572
  788MPD2    H211622   0.301   3.737   1.211  0.1460  0.9301  0.2228
  788MPD2    H311623   0.502   3.851   1.168 -0.8260  0.7528  1.8022
  788MPD2     N11624   0.375   3.991   0.759  0.0813  0.0202 -0.0573
  788MPD2    H511625   0.464   4.039   0.758  0.7123 -1.1395  0.1288
  788MPD2    N111626   0.082   3.702   1.003  0.2870 -0.5194  0.7590
  788MPD2    H711627   0.029   3.722   0.918 -1.7134 -1.5017  1.7623
  789MPD2     C11628   1.157   4.311  16.368 -0.4887 -0.0480 -0.8305
  789MPD2    C111629   1.080   4.232  16.455  0.1929 -0.0811 -0.2240
  789MPD2    C211630   0.946   4.225  16.435 -0.3374 -0.6067 -0.0824
  789MPD2    C311631   0.877   4.291  16.337 -0.0360  0.4641  0.0560
  789MPD2    C411632   0.954   4.364  16.251  0.2085 -0.9092 -0.6631
  789MPD2    C511633   1.096   4.371  16.261  0.2645  0.1336 -0.8894
  789MPD2     H11634   0.894   4.154  16.499  0.0509 -0.0338  0.8739
  789MPD2    H111635   0.909   4.419  16.169 -0.9094  1.3473  1.4502
  789MPD2    H211636   1.265   4.319  16.374 -0.6092  0.6527  0.4504
  789MPD2    H311637   1.151   4.435  16.193  1.3273  0.4826  0.2832
  789MPD2     N11638   0.737   4.293  16.311 -0.3622 -0.9081  0.0174
  789MPD2    H511639   0.698   4.355  16.240  0.8171  1.5335  1.4698
  789MPD2    N111640   1.138   4.155  16.565 -0.1241 -0.4163  0.3128
  789MPD2    H711641   1.071   4.099  16.617 -0.8185 -1.2841 -1.4999
  790MPD2     C11642   1.423   2.036  13.001 -0.0205 -0.7002  0.4642
  790MPD2    C111643   1.433   1.934  13.097  0.0619 -0.0021 -0.6670
  790MPD2    C211644   1.373   1.806  13.084  0.3262 -0.4629  0.2554
  790MPD2    C311645   1.285   1.790  12.974  0.1438 -0.1640 -0.1064
  790MPD2    C411646   1.268   1.889  12.881  0.2889  0.8234  0.5820
  790MPD2    C511647   1.333   2.009  12.899  0.0609  0.2141  0.4328
  790MPD2     H11648   1.407   1.717  13.136 -0.1786 -0.3351  0.8070
  790MPD2    H111649   1.215   1.887  12.786  0.1969 -0.3744  0.6623
  790MPD2    H211650   1.478   2.128  13.012  0.5389 -0.7278 -2.1531
  790MPD2    H311651   1.314   2.087  12.826  0.3663  0.2867  0.4313
  790MPD2     N11652   1.234   1.662  12.950 -0.9801  0.0101  0.5568
  790MPD2    H511653   1.256   1.590  13.017  2.0921 -0.4599 -0.9579
  790MPD2    N111654   1.521   1.966  13.205 -0.0196 -0.0246 -0.4653
  790MPD2    H711655   1.567   2.056  13.214 -0.6165  0.3354 -0.9510
  791MPD2     C11656   0.722   1.521  12.391  0.0304  0.0697 -0.3453
  791MPD2    C111657   0.729   1.405  12.474 -0.1658  0.1090 -0.4679
  791MPD2    C211658   0.637   1.310  12.449  0.0795  1.0619 -0.3770
  791MPD2    C311659   0.548   1.314  12.337  0.2682 -0.2482  0.1381
  791MPD2    C411660   0.542   1.429  12.266 -0.3242  0.5104 -0.0760
  791MPD2    C511661   0.626   1.529  12.298  0.0373  0.0291 -0.0889
  791MPD2     H11662   0.636   1.225  12.517 -1.7713  0.5720 -1.0077
  791MPD2    H111663   0.480   1.434  12.177  1.1855  0.7665 -1.1257
  791MPD2    H211664   0.792   1.604  12.400  0.2984 -0.0430 -1.4325
  791MPD2    H311665   0.622   1.624  12.247  0.5513 -0.1184 -0.3999
  791MPD2     N11666   0.466   1.200  12.316  0.0060  0.4439  0.4080
  791MPD2    H511667   0.494   1.112  12.358  0.8971 -0.2478 -1.6258
  791MPD2    N111668   0.824   1.416  12.580 -0.4011  0.2127 -0.1238
  791MPD2    H711669   0.878   1.499  12.600  1.0599 -1.1384  1.4979
  792MPD2     C11670   1.304   1.213  11.377  0.0588 -0.1829  0.1721
  792MPD2    C111671   1.392   1.203  11.265  0.3197 -0.5739 -0.3817
  792MPD2    C211672   1.398   1.088  11.193 -0.0654  1.1756 -0.3131
  792MPD2    C311673   1.310   0.987  11.221  0.8789 -1.1193  0.0908
  792MPD2    C411674   1.235   0.995  11.337 -0.2220 -0.5773  0.1539
  792MPD2    C511675   1.227   1.106  11.414 -0.2042 -0.8528  0.2755
  792MPD2     H11676   1.477   1.069  11.121 -0.3793 -0.1170 -0.3020
  792MPD2    H111677   1.172   0.910  11.361 -1.4379  0.8322  1.8789
  792MPD2    H211678   1.300   1.298  11.443  1.5399 -0.0665  0.1213
  792MPD2    H311679   1.155   1.106  11.495 -0.4782  0.7584  0.0371
  792MPD2     N11680   1.311   0.865  11.151  0.6653  0.0582  0.0786
  792MPD2    H511681   1.231   0.805  11.167 -1.0559  2.3071 -0.1369
  792MPD2    N111682   1.464   1.323  11.239 -0.4199  0.5177 -0.3510
  792MPD2    H711683   1.467   1.393  11.312 -0.3233  1.3164 -1.1194
  793MPD2     C11684   1.067   0.818  10.162 -0.4430  0.4051 -0.6864
  793MPD2    C111685   1.206   0.858  10.171 -0.3377 -0.4541 -0.4584
  793MPD2    C211686   1.269   0.833  10.293 -0.1059  1.4594 -0.4678
  793MPD2    C311687   1.198   0.785  10.403 -0.0958 -0.9414  0.1092
  793MPD2    C411688   1.070   0.746  10.388 -0.1709  0.1956  0.3055
  793MPD2    C511689   1.005   0.763  10.270 -0.4272  0.0528  1.1787
  793MPD2     H11690   1.374   0.857  10.305 -0.2004  1.1121  1.1192
  793MPD2    H111691   1.014   0.712  10.475 -2.2859  1.7688 -0.4265
  793MPD2    H211692   1.012   0.829  10.069  0.3394 -1.6762 -1.4071
  793MPD2    H311693   0.902   0.733  10.255 -0.1351 -0.2507 -0.1974
  793MPD2     N11694   1.264   0.768  10.529 -0.6899 -0.3769  0.7253
  793MPD2    H511695   1.364   0.780  10.531 -0.7331  0.3545 -1.4015
  793MPD2    N111696   1.280   0.919  10.063  0.2158 -0.9207  0.8446
  793MPD2    H711697   1.371   0.958  10.086  1.4176 -0.3773 -4.7139
  794MPD2     C11698   0.724   0.131  16.780  0.2746 -0.0304  0.9771
  794MPD2    C111699   0.861   0.123  16.795  0.2766  0.0966  0.3874
  794MPD2    C211700   0.940   0.190  16.703  0.1721 -0.2339 -0.1889
  794MPD2    C311701   0.885   0.285  16.611 -0.2200 -0.5670  0.8762
  794MPD2    C411702   0.753   0.285  16.601  0.5809  0.5781  0.6323
  794MPD2    C511703   0.669   0.220  16.685  0.0345  0.0309 -0.6188
  794MPD2     H11704   1.048   0.181  16.715  0.1365 -0.5506 -0.1228
  794MPD2    H111705   0.723   0.351  16.521 -0.4333 -1.0730 -0.3591
  794MPD2    H211706   0.652   0.080  16.843  0.4992 -1.6819 -0.0949
  794MPD2    H311707   0.561   0.230  16.689  0.1916  1.4308 -0.0901
  794MPD2     N11708   0.954   0.361  16.522  0.2724 -0.3978 -0.0170
  794MPD2    H511709   0.912   0.442  16.477  0.4069  0.1827  0.9205
  794MPD2    N111710   0.933   0.044  16.886 -0.3983  0.0949 -0.0754
  794MPD2    H711711   1.033   0.057  16.889 -0.1312 -1.2802 -2.9076
  795MPD2     C11712   3.716   2.653  13.044 -0.2838 -0.7976  0.2663
  795MPD2    C111713   3.734   2.680  13.176 -0.4596  0.2244  0.3056
  795MPD2    C211714   3.860   2.648  13.224 -0.1652 -0.1264 -0.5141
  795MPD2    C311715   3.958   2.589  13.143 -0.7472  0.3410  0.6703
  795MPD2    C411716   3.931   2.564  13.015  0.2924 -0.0672  0.0852
  795MPD2    C511717   3.815   2.598  12.962 -0.1354  0.1487  0.2182
  795MPD2     H11718   3.884   2.650  13.329 -1.7511  1.7823 -0.1793
  795MPD2    H111719   4.003   2.509  12.956  0.1718  0.4938 -0.5873
  795MPD2    H211720   3.618   2.671  13.002  0.7756  0.6216 -1.5812
  795MPD2    H311721   3.796   2.579  12.857 -0.4527 -0.9929  0.4814
  795MPD2     N11722   4.071   2.528  13.196  1.0166 -0.6624  0.0064
  795MPD2    H511723   4.086   2.526  13.297  1.8403  1.6854 -0.0668
  795MPD2    N111724   3.635   2.731  13.267  0.1533 -0.2448 -0.3201
  795MPD2    H711725   3.673   2.740  13.360  0.6054 -0.9559 -0.4410
  796MPD2     C11726   3.552   4.065  15.344  0.0001 -0.5579 -0.4323
  796MPD2    C111727   3.572   4.103  15.475 -0.7624 -0.0953  0.6731
  796MPD2    C211728   3.584   4.238  15.504 -0.2334  0.8051 -0.1101
  796MPD2    C311729   3.587   4.338  15.404  0.3406 -0.1099  0.6802
  796MPD2    C411730   3.586   4.291  15.271  0.0175  0.2866 -0.4469
  796MPD2    C511731   3.563   4.161  15.245  0.1896  0.2634  0.1963
  796MPD2     H11732   3.593   4.274  15.606  2.1415  1.4736 -0.5567
  796MPD2    H111733   3.596   4.356  15.185 -1.9948  1.6482  0.3422
  796MPD2    H211734   3.533   3.960  15.324  0.9716 -1.3762  2.9033
  796MPD2    H311735   3.556   4.133  15.140 -2.5418 -0.0432  0.4601
  796MPD2     N11736   3.619   4.466  15.440  0.5900 -0.3109 -0.1904
  796MPD2    H511737   3.649   4.482  15.535  0.4881  0.5204 -0.3048
  796MPD2    N111738   3.587   4.004  15.579 -0.4496  0.0568  0.0480
  796MPD2    H711739   3.572   3.910  15.543 -0.4201 -0.5134  1.5152
  797MPD2     C11740   4.208   3.258  17.149  0.1608 -0.0832 -0.6346
  797MPD2    C111741   4.211   3.381  17.210  0.7420  0.7828 -0.7409
  797MPD2    C211742   4.121   3.483  17.172  0.0426 -0.7773  0.7367
  797MPD2    C311743   4.014   3.458  17.090  0.4991 -0.2797  0.3824
  797MPD2    C411744   4.011   3.329  17.035 -0.2930  0.0847  0.5067
  797MPD2    C511745   4.109   3.238  17.059  0.1134 -0.4131 -0.8120
  797MPD2     H11746   4.150   3.585  17.195 -1.1990  0.0501 -1.3623
  797MPD2    H111747   3.920   3.305  16.983 -0.6689  1.4852  0.5028
  797MPD2    H211748   4.284   3.182  17.165 -0.1049 -0.2361 -0.0721
  797MPD2    H311749   4.096   3.142  17.012 -1.6473 -0.1929 -0.7588
  797MPD2     N11750   3.911   3.544  17.055 -0.3660 -0.0581  0.1372
  797MPD2    H511751   3.841   3.508  16.990  0.4645 -1.1456 -0.1509
  797MPD2    N111752   4.324   3.416  17.298 -0.5725 -0.1904  0.0086
  797MPD2    H711753   4.312   3.508  17.339  2.4586  0.2642 -0.1305
  798MPD2     C11754   4.231   4.143  17.207  0.6753 -0.1841 -0.5260
  798MPD2    C111755   4.169   4.022  17.219  0.3339 -0.0964  0.2032
  798MPD2    C211756   4.239   3.919  17.280  0.4948 -0.1307  0.0672
  798MPD2    C311757   4.375   3.937  17.319  0.2267  0.1844 -0.3887
  798MPD2    C411758   4.435   4.061  17.309 -0.3087 -0.5581 -0.4883
  798MPD2    C511759   4.349   4.161  17.255 -0.4656 -0.2296 -0.3496
  798MPD2     H11760   4.196   3.819  17.285  1.6556 -0.5591  1.4195
  798MPD2    H111761   4.534   4.084  17.347 -1.1372  0.6310  0.9924
  798MPD2    H211762   4.186   4.230  17.160  2.5936  1.4171  0.5502
  798MPD2    H311763   4.382   4.264  17.261 -0.4908 -0.3481  2.0903
  798MPD2     N11764   4.434   3.820  17.363  0.2118 -0.6625  0.1848
  798MPD2    H511765   4.377   3.737  17.377 -0.2716 -0.3870 -0.2046
  798MPD2    N111766   4.042   3.990  17.170 -0.1249  0.2478  0.3655
  798MPD2    H711767   4.016   3.893  17.189  1.4567 -0.2697 -0.1706
  799MPD2     C11768   3.389   0.607  14.765 -0.3919 -0.0500 -0.0236
  799MPD2    C111769   3.402   0.514  14.663 -0.0133 -0.0488 -0.0755
  799MPD2    C211770   3.329   0.536  14.549  1.1457  0.0433  0.0991
  799MPD2    C311771   3.247   0.647  14.531  0.7591 -0.0636  0.2536
  799MPD2    C411772   3.236   0.735  14.631 -0.1597  1.0686 -0.2628
  799MPD2    C511773   3.298   0.708  14.749  0.3623  0.2396  0.1923
  799MPD2     H11774   3.344   0.466  14.467  1.4742  1.5460 -1.1217
  799MPD2    H111775   3.174   0.823  14.618 -0.7533  0.5221 -1.1495
  799MPD2    H211776   3.448   0.626  14.853  0.1486 -0.6591 -0.2556
  799MPD2    H311777   3.299   0.779  14.831 -0.6149  0.5714 -0.0840
  799MPD2     N11778   3.188   0.691  14.414  0.2083  0.3005 -0.4290
  799MPD2    H511779   3.152   0.786  14.408 -0.6875 -0.2375 -3.3245
  799MPD2    N111780   3.484   0.406  14.683  0.7283 -0.1909  0.7060
  799MPD2    H711781   3.489   0.340  14.606 -2.2174  0.5758 -0.1217
  800MPD2     C11782   3.559   1.747  14.229  0.3582 -0.0855  0.0600
  800MPD2    C111783   3.657   1.716  14.134  0.3706  0.3237  0.3713
  800MPD2    C211784   3.613   1.693  14.005  0.4406 -0.2345 -0.1910
  800MPD2    C311785   3.482   1.702  13.971 -0.0401  0.1011 -0.0216
  800MPD2    C411786   3.386   1.729  14.066 -0.0532 -0.3409  0.0229
  800MPD2    C511787   3.424   1.735  14.197 -0.3391 -0.4742  0.4860
  800MPD2     H11788   3.693   1.671  13.935  2.8053 -0.7084  2.6402
  800MPD2    H111789   3.283   1.743  14.035  0.4052 -1.4413 -1.9983
  800MPD2    H211790   3.584   1.778  14.330 -1.1183  1.3884 -0.0274
  800MPD2    H311791   3.348   1.779  14.260  0.1395 -0.0654  0.7816
  800MPD2     N11792   3.461   1.682  13.833 -0.1532  0.3061 -0.3309
  800MPD2    H511793   3.545   1.677  13.777  0.1889 -0.4204  0.2531
  800MPD2    N111794   3.799   1.734  14.161 -0.2366 -0.4139 -0.3298
  800MPD2    H711795   3.823   1.733  14.260  1.0930 -1.7625 -0.6647
  801MPD2     C11796   4.257   1.698  14.676 -0.1319 -0.6302  0.0963
  801MPD2    C111797   4.163   1.752  14.590  0.7065 -0.3451 -0.3110
  801MPD2    C211798   4.098   1.862  14.634  0.8647  0.0522 -0.8320
  801MPD2    C311799   4.128   1.935  14.746 -0.0727  0.2753 -0.5888
  801MPD2    C411800   4.208   1.870  14.840  0.5117  0.0749  0.5865
  801MPD2    C511801   4.271   1.759  14.801 -0.5785  0.1409  0.7185
  801MPD2     H11802   4.021   1.900  14.567 -0.2030 -1.8501 -0.6732
  801MPD2    H111803   4.240   1.912  14.934 -0.2054  0.9973  0.4191
  801MPD2    H211804   4.315   1.609  14.655 -0.4622 -0.7387 -0.3532
  801MPD2    H311805   4.346   1.717  14.866  0.9004  2.3703  0.4400
  801MPD2     N11806   4.080   2.063  14.770 -0.1747 -0.3311  0.1539
  801MPD2    H511807   4.105   2.105  14.859 -0.3100 -0.8997  0.4616
  801MPD2    N111808   4.135   1.709  14.461 -0.0127  0.1155 -0.0629
  801MPD2    H711809   4.083   1.769  14.398  1.5467  1.7243  0.1677
  802MPD2     C11810   2.792   2.237  16.810  0.6843 -0.1306  0.5265
  802MPD2    C111811   2.868   2.231  16.920  0.1957 -0.1023  0.9144
  802MPD2    C211812   2.994   2.178  16.918 -0.6802  0.0429  0.0949
  802MPD2    C311813   3.044   2.127  16.799  0.2291 -0.3721  0.0664
  802MPD2    C411814   2.965   2.151  16.685  0.0840 -0.4718 -0.0300
  802MPD2    C511815   2.838   2.203  16.691 -0.9615 -0.2839  0.3533
  802MPD2     H11816   3.064   2.195  16.999 -0.8762  0.7505  0.1129
  802MPD2    H111817   3.000   2.121  16.587  0.9493  1.6822 -0.3826
  802MPD2    H211818   2.691   2.277  16.812  1.4182  1.7447  0.0552
  802MPD2    H311819   2.773   2.210  16.605 -0.1751  2.3919 -0.0122
  802MPD2     N11820   3.175   2.083  16.796 -0.0756 -0.2826 -0.3195
  802MPD2    H511821   3.232   2.065  16.878 -1.3276 -2.2544  0.1297
  802MPD2    N111822   2.826   2.307  17.032  0.7473  0.5105  0.3410
  802MPD2    H711823   2.747   2.369  17.018  0.1539 -0.4447 -0.5316
  803MPD2     C11824   3.940   1.363  11.536  0.4979  0.7634  0.4986
  803MPD2    C111825   4.006   1.357  11.661  0.3390 -0.2129 -0.3759
  803MPD2    C211826   3.977   1.253  11.745 -0.1190  0.3364 -0.5195
  803MPD2    C311827   3.901   1.144  11.710  0.3354 -0.9791 -0.2959
  803MPD2    C411828   3.838   1.145  11.580 -0.3020  0.0786  0.3410
  803MPD2    C511829   3.863   1.256  11.504  0.4146 -0.3429 -0.5047
  803MPD2     H11830   4.018   1.257  11.845  0.9743 -2.1780 -0.8546
  803MPD2    H111831   3.777   1.064  11.542 -1.4536  0.7007  0.8570
  803MPD2    H211832   3.946   1.449  11.470 -0.3300  0.6445  0.2670
  803MPD2    H311833   3.816   1.257  11.406 -0.3261 -3.2104 -0.1800
  803MPD2     N11834   3.884   1.021  11.786  0.0051  0.4971  1.0420
  803MPD2    H511835   3.817   0.948  11.763  1.7678 -0.6806 -0.3680
  803MPD2    N111836   4.095   1.448  11.707  0.7626 -0.5351 -0.6098
  803MPD2    H711837   4.142   1.428  11.794  0.3400  1.1726  0.0116
  804MPD2     C11838   4.213   2.129  16.942 -0.4828  0.1163  0.1283
  804MPD2    C111839   4.203   2.076  17.074 -0.2595  1.5493 -0.6117
  804MPD2    C211840   4.253   2.139  17.182 -0.1211 -0.3999 -0.0350
  804MPD2    C311841   4.332   2.251  17.159  0.3051 -0.5072  0.6934
  804MPD2    C411842   4.346   2.303  17.033 -0.0374  0.6012 -0.4795
  804MPD2    C511843   4.285   2.238  16.925 -0.2902  0.0579 -0.0393
  804MPD2     H11844   4.252   2.088  17.278  0.8088 -0.3569 -0.0073
  804MPD2    H111845   4.408   2.390  17.014  0.2329  0.1492 -1.6674
  804MPD2    H211846   4.182   2.080  16.851  0.2542  0.1980 -0.1686
  804MPD2    H311847   4.281   2.286  16.828  4.1842 -1.3117 -0.9201
  804MPD2     N11848   4.403   2.324  17.265  0.5546  0.5660  0.1866
  804MPD2    H511849   4.459   2.404  17.238 -0.9745  0.0636 -4.4994
  804MPD2    N111850   4.133   1.949  17.104 -0.6678 -0.3180  0.2814
  804MPD2    H711851   4.130   1.919  17.201  0.0428  1.9708  1.0124
  805MPD2     C11852   3.278   0.784  15.163  0.0934 -0.0053 -0.7129
  805MPD2    C111853   3.336   0.667  15.120  0.3059  0.2161  0.8600
  805MPD2    C211854   3.466   0.639  15.170  0.2034 -0.1464 -0.9780
  805MPD2    C311855   3.531   0.719  15.260  0.2941 -0.5857 -0.3687
  805MPD2    C411856   3.480   0.840  15.292  0.2481  0.9626  0.1261
  805MPD2    C511857   3.352   0.865  15.243 -0.2230 -0.0855  0.6217
  805MPD2     H11858   3.504   0.541  15.144  0.1951 -0.3317 -0.3014
  805MPD2    H111859   3.527   0.912  15.358 -0.2499  0.3753  1.1148
  805MPD2    H211860   3.177   0.816  15.138  0.0812  0.8391  0.4445
  805MPD2    H311861   3.299   0.954  15.273  0.7798  0.2179  1.5138
  805MPD2     N11862   3.661   0.679  15.295  0.0193 -0.3924 -0.1406
  805MPD2    H511863   3.691   0.586  15.266  1.2072 -0.0289 -0.0778
  805MPD2    N111864   3.273   0.574  15.035  0.2145 -0.0805 -0.4078
  805MPD2    H711865   3.330   0.494  15.012  0.0146 -0.9558  2.1503
  806MPD2     C11866   3.593   0.309   0.850 -0.5261 -0.1258 -1.0652
  806MPD2    C111867   3.703   0.226   0.822  0.1103  0.4672 -0.3847
  806MPD2    C211868   3.733   0.186   0.699  0.1645  0.0075  0.3581
  806MPD2    C311869   3.658   0.223   0.592 -0.0086  0.1394  0.0685
  806MPD2    C411870   3.549   0.310   0.616  0.0071 -0.3036  0.3256
  806MPD2    C511871   3.524   0.342   0.746  0.0842 -0.5773 -1.5071
  806MPD2     H11872   3.819   0.122   0.681 -1.5392 -2.4082  0.7356
  806MPD2    H111873   3.477   0.347   0.544 -0.5118  0.4000  1.2180
  806MPD2    H211874   3.570   0.353   0.946  1.0073  1.1662 -1.2853
  806MPD2    H311875   3.434   0.398   0.770  2.0446  2.3196 -0.8276
  806MPD2     N11876   3.705   0.182   0.471 -0.2650 -0.1038  0.4488
  806MPD2    H511877   3.801   0.149   0.471 -0.3034 -0.2253 -1.7624
  806MPD2    N111878   3.792   0.209   0.930 -0.4021 -0.2181 -0.1800
  806MPD2    H711879   3.767   0.238   1.023  1.2881  0.8602 -0.0551
  807MPD2     C11880   3.671   4.493   1.560 -0.5937  0.7632 -0.9095
  807MPD2    C111881   3.800   4.458   1.518 -0.3202  0.2442 -0.8114
  807MPD2    C211882   3.857   4.347   1.578  0.6848 -0.4132 -1.1496
  807MPD2    C311883   3.789   4.271   1.664 -0.2635  0.4773  0.0879
  807MPD2    C411884   3.660   4.304   1.698  1.0854  0.8763  0.4204
  807MPD2    C511885   3.602   4.418   1.648  0.5528 -1.0473 -0.1079
  807MPD2     H11886   3.954   4.314   1.546  1.0047 -0.8430  0.2382
  807MPD2    H111887   3.610   4.257   1.782 -1.7363  1.2046 -1.0757
  807MPD2    H211888   3.619   4.579   1.518 -2.8201  0.3454  0.9836
  807MPD2    H311889   3.506   4.455   1.682  1.2468  0.7656 -0.1405
  807MPD2     N11890   3.857   4.162   1.720 -0.6773  0.4113  0.5888
  807MPD2    H511891   3.949   4.142   1.681 -0.4597  0.7366  0.9293
  807MPD2    N111892   3.878   4.527   1.421  0.8323 -0.1009 -0.1473
  807MPD2    H711893   3.974   4.496   1.405  0.3856 -0.4619 -2.1758
  808MPD2     C11894   3.633   1.925  10.410 -0.3054 -0.0089  0.4202
  808MPD2    C111895   3.681   1.878  10.289 -0.0024 -0.1840  0.5780
  808MPD2    C211896   3.717   1.964  10.188  0.4226  0.4160 -0.7471
  808MPD2    C311897   3.717   2.100  10.209  0.1221  0.3626  0.2536
  808MPD2    C411898   3.688   2.148  10.334 -0.0780 -0.5917  0.0131
  808MPD2    C511899   3.640   2.062  10.431  0.1169 -0.3350  0.0659
  808MPD2     H11900   3.750   1.921  10.094 -1.4650 -1.3247 -0.6098
  808MPD2    H111901   3.707   2.254  10.348 -4.6660  0.3753 -0.8390
  808MPD2    H211902   3.612   1.868  10.500  1.7725  1.4248  1.8259
  808MPD2    H311903   3.610   2.101  10.528  1.2670 -0.5875  0.5136
  808MPD2     N11904   3.747   2.195  10.109  0.4719 -0.3117 -0.3573
  808MPD2    H511905   3.741   2.291  10.143 -0.1287 -0.2085 -0.7628
  808MPD2    N111906   3.701   1.743  10.272  0.9181  0.1153 -1.2361
  808MPD2    H711907   3.758   1.716  10.192  0.6288 -2.7444 -0.4849
  809MPD2     C11908   4.277   2.040   9.330  0.0280 -0.7378  0.4259
  809MPD2    C111909   4.247   1.982   9.451  0.0439  0.1482  0.1618
  809MPD2    C211910   4.139   2.032   9.524  0.0534 -0.2232 -0.8334
  809MPD2    C311911   4.085   2.155   9.495 -0.5885  0.6774 -0.2333
  809MPD2    C411912   4.112   2.205   9.362  0.2148  0.1930 -0.9608
  809MPD2    C511913   4.204   2.140   9.283 -0.0718  0.2620  0.8319
  809MPD2     H11914   4.097   1.978   9.609  1.8611  0.6794  0.6232
  809MPD2    H111915   4.058   2.291   9.324 -0.5854  0.8203  1.5728
  809MPD2    H211916   4.355   2.007   9.262  0.8847 -1.2238  1.6486
  809MPD2    H311917   4.224   2.175   9.183 -1.6369 -2.0488 -0.2859
  809MPD2     N11918   3.987   2.213   9.576  0.3749  0.4651  0.1575
  809MPD2    H511919   3.961   2.153   9.654 -0.8451 -0.9447 -1.3516
  809MPD2    N111920   4.303   1.855   9.487  0.1586  0.0816 -0.0416
  809MPD2    H711921   4.276   1.811   9.575  0.8142 -1.2100 -0.5012
  810MPD2     C11922   3.572   1.728  10.769 -0.2560  0.2479  0.4328
  810MPD2    C111923   3.473   1.630  10.783  1.1122 -0.7407 -0.1712
  810MPD2    C211924   3.387   1.636  10.889  0.3163 -0.2374  0.6203
  810MPD2    C311925   3.391   1.731  10.983  0.0260  0.6072 -0.3880
  810MPD2    C411926   3.486   1.833  10.962 -0.1461  0.2273 -0.1150
  810MPD2    C511927   3.570   1.830  10.855  0.0568 -0.7058  0.1135
  810MPD2     H11928   3.305   1.567  10.907 -0.6745  0.6742 -0.4017
  810MPD2    H111929   3.488   1.928  11.014  3.7589 -0.2859  0.6629
  810MPD2    H211930   3.632   1.746  10.680 -0.6526  2.3583  0.5955
  810MPD2    H311931   3.632   1.916  10.834 -0.1215 -0.7610 -0.6453
  810MPD2     N11932   3.290   1.730  11.077 -0.3395 -0.3212 -0.0530
  810MPD2    H511933   3.223   1.654  11.070  0.1154 -0.7529  0.3728
  810MPD2    N111934   3.454   1.533  10.681  0.1762  0.1187 -0.1187
  810MPD2    H711935   3.498   1.550  10.592 -1.8515 -0.8959 -1.3157
  811MPD2     C11936   3.081   1.376   9.920 -0.2138 -0.1331 -0.1386
  811MPD2    C111937   3.124   1.452  10.022 -0.1120  0.3463  0.3773
  811MPD2    C211938   3.123   1.594  10.013 -0.0361  0.4213  0.3437
  811MPD2    C311939   3.063   1.653   9.899 -0.3113 -0.9492 -0.1770
  811MPD2    C411940   3.005   1.577   9.801  0.0738  0.8715 -0.8542
  811MPD2    C511941   3.021   1.437   9.818 -0.2090 -0.4245  0.1253
  811MPD2     H11942   3.180   1.655  10.083  0.6195 -2.0058  1.9188
  811MPD2    H111943   2.956   1.620   9.714 -1.0261 -1.0087 -1.1725
  811MPD2    H211944   3.085   1.268   9.921  0.5438 -0.1233 -1.7462
  811MPD2    H311945   2.972   1.374   9.744 -1.9633  1.7207 -0.5271
  811MPD2     N11946   3.086   1.791   9.884 -0.4530 -0.3834  0.1014
  811MPD2    H511947   3.120   1.839   9.967 -0.2694  0.8029 -0.6552
  811MPD2    N111948   3.188   1.393  10.129 -0.3164  0.4036  0.6338
  811MPD2    H711949   3.189   1.291  10.125  0.4856  0.5201 -1.8717
  812MPD2     C11950   1.981   1.046  12.152  0.3259  0.2842 -0.2103
  812MPD2    C111951   1.897   1.082  12.259  0.2012 -0.1867  0.0534
  812MPD2    C211952   1.855   0.987  12.352 -0.3185 -0.7537 -0.4968
  812MPD2    C311953   1.900   0.853  12.337  0.7266  0.3804 -0.4162
  812MPD2    C411954   1.982   0.823  12.231  0.6993 -0.3721  0.0916
  812MPD2    C511955   2.018   0.919  12.137  0.3582  0.1961  0.8807
  812MPD2     H11956   1.807   1.008  12.447  1.0337 -0.1499  0.0475
  812MPD2    H111957   2.029   0.728  12.211 -0.8779 -1.5208  1.9575
  812MPD2    H211958   2.014   1.129  12.091 -0.1908  0.3470 -0.4051
  812MPD2    H311959   2.094   0.899  12.062 -1.7108  0.6040 -1.2906
  812MPD2     N11960   1.859   0.760  12.432 -0.3477 -0.1960 -0.6729
  812MPD2    H511961   1.790   0.784  12.502  0.4361  0.4133 -0.1113
  812MPD2    N111962   1.867   1.218  12.269  0.2046  0.9956 -0.5966
  812MPD2    H711963   1.895   1.281  12.195  3.3538  0.3891  0.0944
  813MPD2     C11964   1.268   3.319  12.505 -0.9886  0.0852 -0.4033
  813MPD2    C111965   1.398   3.298  12.524 -0.2124  0.1597 -0.6006
  813MPD2    C211966   1.426   3.247  12.643  0.3554 -0.3413  0.1264
  813MPD2    C311967   1.338   3.230  12.747  0.6698 -0.2896 -0.0962
  813MPD2    C411968   1.207   3.270  12.731  0.8654  0.3632 -0.1981
  813MPD2    C511969   1.173   3.313  12.609  0.9487 -0.2176  0.2078
  813MPD2     H11970   1.529   3.230  12.671  0.1089 -1.6666  0.2471
  813MPD2    H111971   1.126   3.265  12.803  1.0798  1.5885  0.1196
  813MPD2    H211972   1.232   3.359  12.411  0.1342  3.4926  0.6220
  813MPD2    H311973   1.069   3.341  12.598  1.3998  0.9680 -0.9856
  813MPD2     N11974   1.379   3.158  12.861 -0.6888  0.8870 -0.2377
  813MPD2    H511975   1.474   3.124  12.866 -0.2179  2.1754 -0.4623
  813MPD2    N111976   1.488   3.321  12.422 -0.1051  0.3476  0.0411
  813MPD2    H711977   1.446   3.390  12.361 -0.0522  0.1083 -0.2657
  814MPD2     C11978   2.027   4.199  12.245 -0.5771 -0.6381  0.5182
  814MPD2    C111979   2.051   4.255  12.118 -0.2726  0.9665  0.7863
  814MPD2    C211980   2.111   4.380  12.119  0.6634  0.1294 -0.2940
  814MPD2    C311981   2.139   4.454  12.233  0.2724  0.1881 -0.7986
  814MPD2    C411982   2.109   4.398  12.349 -0.2923  0.5694 -0.7326
  814MPD2    C511983   2.065   4.268  12.360  0.1710 -0.4845  0.3590
  814MPD2     H11984   2.139   4.423  12.023 -2.5132  4.2085  0.6195
  814MPD2    H111985   2.125   4.448  12.443 -2.5928  0.2527 -0.1664
  814MPD2    H211986   1.970   4.107  12.256 -1.6012 -0.1935 -1.1159
  814MPD2    H311987   2.033   4.227  12.455 -1.5379 -0.8413 -0.3642
  814MPD2     N11988   2.172   4.591  12.240 -0.2941  0.0169 -0.2603
  814MPD2    H511989   2.202   4.641  12.323  1.3080 -0.6882 -0.4112
  814MPD2    N111990   2.001   4.206  11.995  0.0996  0.2750 -0.0931
  814MPD2    H711991   2.020   4.272  11.919 -0.6742  0.9698  0.3203
  815MPD2     C11992   2.058   3.225  11.855 -0.2696  0.3083  0.7057
  815MPD2    C111993   2.077   3.087  11.859 -0.2178 -0.4707 -0.6094
  815MPD2    C211994   2.001   3.011  11.944 -0.3541  0.2523  1.0713
  815MPD2    C311995   1.896   3.066  12.002 -0.5365 -0.0228  0.2094
  815MPD2    C411996   1.865   3.199  11.989 -0.7319 -0.7115 -0.2382
  815MPD2    C511997   1.948   3.275  11.916 -0.5252  0.1945  0.3486
  815MPD2     H11998   2.004   2.902  11.941  1.0703  0.2926  1.1972
  815MPD2    H111999   1.772   3.245  12.021 -0.1891 -2.3029  3.6514
  815MPD2    H212000   2.108   3.294  11.787  0.5832 -0.8825  0.1292
  815MPD2    H312001   1.928   3.381  11.904  1.7532  0.5052 -0.7281
  815MPD2     N12002   1.815   2.969  12.063 -0.8363  0.7640 -0.0294
  815MPD2    H512003   1.856   2.876  12.054 -2.5134  0.1034 -0.7225
  815MPD2    N112004   2.170   3.029  11.770 -0.1357  0.1443 -0.0278
  815MPD2    H712005   2.207   3.085  11.694  2.4372 -1.1124  0.3324
  816MPD2     C12006   2.660   1.769  17.148  0.1568 -0.5824 -1.1501
  816MPD2    C112007   2.635   1.861  17.057  0.4863  0.4362 -0.6768
  816MPD2    C212008   2.726   1.874  16.950 -0.2642 -0.0381 -0.5830
  816MPD2    C312009   2.826   1.774  16.932 -0.0432 -0.9358  0.5500
  816MPD2    C412010   2.856   1.685  17.030 -0.3109  0.0063  0.0245
  816MPD2    C512011   2.772   1.686  17.139  0.6189 -0.7343 -0.0947
  816MPD2     H12012   2.697   1.941  16.869 -0.0027 -1.2475 -1.6736
  816MPD2    H112013   2.933   1.609  17.037  1.5522  1.9336  0.5086
  816MPD2    H212014   2.585   1.750  17.224  1.4787 -3.1088 -0.4796
  816MPD2    H312015   2.793   1.618  17.220 -1.2518 -1.1571  0.0396
  816MPD2     N12016   2.907   1.774  16.815 -0.3436  0.0582 -1.0145
  816MPD2    H512017   2.861   1.821  16.738 -1.8217 -0.8712 -0.6955
  816MPD2    N112018   2.532   1.957  17.076 -0.4560 -0.2527  0.0311
  816MPD2    H712019   2.494   1.960  17.170 -2.1084 -0.7479 -0.6194
  817MPD2     C12020   1.927   3.664   9.769  0.4440 -0.1202 -0.1380
  817MPD2    C112021   2.017   3.665   9.665  0.3261  0.0500 -0.1727
  817MPD2    C212022   2.013   3.771   9.573  0.4064 -0.0072 -0.9539
  817MPD2    C312023   1.910   3.864   9.583 -0.1458  0.0184  0.1988
  817MPD2    C412024   1.820   3.855   9.688 -0.0110 -0.0382  0.7343
  817MPD2    C512025   1.834   3.759   9.781 -0.3325 -0.3102 -0.2629
  817MPD2     H12026   2.077   3.775   9.486 -0.1688  0.6656 -1.3510
  817MPD2    H112027   1.748   3.936   9.696  1.5711  1.6432 -1.8090
  817MPD2    H212028   1.929   3.586   9.845 -3.1039  0.6652  0.7263
  817MPD2    H312029   1.769   3.758   9.867  1.1057 -0.9456  0.8181
  817MPD2     N12030   1.915   3.976   9.495 -0.0877  0.0011  0.0656
  817MPD2    H512031   1.995   3.976   9.433 -0.2554  1.3598 -0.1591
  817MPD2    N112032   2.099   3.556   9.634 -0.2636  0.0957 -0.1787
  817MPD2    H712033   2.142   3.554   9.542  1.2941 -0.3609  0.5593
  818MPD2     C12034   1.012   3.511   9.692 -0.1880  0.3777 -0.2946
  818MPD2    C112035   0.967   3.409   9.774  0.0714  0.3940 -0.2475
  818MPD2    C212036   1.041   3.289   9.768  0.4521 -0.2376 -0.9237
  818MPD2    C312037   1.140   3.262   9.687 -0.5912 -1.0621 -0.1482
  818MPD2    C412038   1.193   3.369   9.611 -0.5298 -0.4329 -0.6597
  818MPD2    C512039   1.130   3.490   9.618 -0.4544  0.0618  0.2740
  818MPD2     H12040   1.014   3.202   9.827  2.1641 -1.1264 -1.4617
  818MPD2    H112041   1.275   3.365   9.540 -0.0606 -1.6876 -0.0399
  818MPD2    H212042   0.947   3.593   9.668 -1.0835  0.4157  2.3131
  818MPD2    H312043   1.164   3.570   9.554  0.0137  0.5522  1.1333
  818MPD2     N12044   1.198   3.134   9.693  0.2677 -0.7193 -0.9448
  818MPD2    H512045   1.162   3.071   9.764 -0.6950 -0.0067 -0.8002
  818MPD2    N112046   0.854   3.424   9.850  0.1602 -0.3482  0.6816
  818MPD2    H712047   0.834   3.348   9.914 -0.3086 -0.3658  0.5138
  819MPD2     C12048   3.939   0.143  15.259  0.3171 -0.3742 -0.2705
  819MPD2    C112049   4.001   0.021  15.246  0.0703 -0.1730 -0.1042
  819MPD2    C212050   4.132   4.718  15.290 -0.9463 -0.3799  0.5097
  819MPD2    C312051   4.192   0.088  15.374  0.1897  0.2707  0.4973
  819MPD2    C412052   4.127   0.216  15.393 -0.5036  0.7113 -0.5266
  819MPD2    C512053   3.998   0.238  15.336  0.2694 -0.0996  0.1848
  819MPD2     H12054   4.182   4.625  15.266 -1.9147 -0.8269  0.2226
  819MPD2    H112055   4.161   0.298  15.455  2.0048 -0.7376 -0.0019
  819MPD2    H212056   3.843   0.160  15.213  1.2334  3.2173 -0.8529
  819MPD2    H312057   3.945   0.330  15.357 -1.6057 -0.7798 -1.5607
  819MPD2     N12058   4.326   0.063  15.428 -0.0621 -0.7046  0.3110
  819MPD2    H512059   4.372   4.701  15.389  2.2471  1.1454 -0.7928
  819MPD2    N112060   3.934   4.650  15.159  0.0751 -0.1185 -0.1322
  819MPD2    H712061   3.859   4.690  15.103  1.0299 -0.1317 -1.4202
  820MPD2     C12062   3.106   4.537  14.686  0.0943  1.1649  0.3480
  820MPD2    C112063   3.197   4.631  14.725 -0.1801  0.2876  0.3279
  820MPD2    C212064   3.310   4.588  14.780 -0.4834 -0.2019 -0.1047
  820MPD2    C312065   3.348   4.455  14.785 -0.5001  0.3750  0.1136
  820MPD2    C412066   3.249   4.364  14.756 -0.3267 -0.0953 -0.5941
  820MPD2    C512067   3.137   4.405  14.695 -0.6209 -0.6259 -0.1604
  820MPD2     H12068   3.378   4.649  14.838  2.7472 -1.3364 -2.7004
  820MPD2    H112069   3.264   4.258  14.774 -1.2068  0.3623  2.6744
  820MPD2    H212070   3.012   4.570  14.643 -1.4661 -0.6774  2.3654
  820MPD2    H312071   3.058   4.336  14.667 -0.1058 -0.4999 -1.9169
  820MPD2     N12072   3.473   4.398  14.833  0.7097 -0.7275 -0.6269
  820MPD2    H512073   3.475   4.299  14.858 -1.5765 -0.7962 -0.6942
  820MPD2    N112074   3.151   0.044  14.716 -0.3696  0.7634 -0.4975
  820MPD2    H712075   3.057   0.053  14.678 -0.8534  2.6304  1.1541
  821MPD2     C12076   3.311   2.062  13.101 -0.1109 -0.6620  0.4429
  821MPD2    C112077   3.416   2.066  13.191  0.5897  0.1150  0.2402
  821MPD2    C212078   3.531   2.125  13.147 -0.1058  0.0255  0.1478
  821MPD2    C312079   3.550   2.168  13.016  0.0084  0.1942  0.0450
  821MPD2    C412080   3.441   2.160  12.929 -0.5750 -0.1916 -0.0032
  821MPD2    C512081   3.321   2.111  12.970  0.0456 -0.0844 -0.4693
  821MPD2     H12082   3.618   2.118  13.211 -1.2913 -1.1799  1.6249
  821MPD2    H112083   3.455   2.200  12.829  1.8599  1.6301  1.0631
  821MPD2    H212084   3.215   2.015  13.121 -1.2965  2.2706  1.6581
  821MPD2    H312085   3.237   2.100  12.902 -0.8700  2.1257  0.3140
  821MPD2     N12086   3.677   2.211  12.970 -0.0956  0.4854 -0.6649
  821MPD2    H512087   3.689   2.229  12.871  1.5967 -0.3520 -0.5919
  821MPD2    N112088   3.416   2.002  13.312  0.7238 -0.0135 -0.3990
  821MPD2    H712089   3.505   1.994  13.361  0.9742  2.5723 -0.3875
  822MPD2     C12090   4.291   1.718  15.635  0.5049 -0.1735 -0.6717
  822MPD2    C112091   4.426   1.736  15.666 -0.2956  0.2590  0.3403
  822MPD2    C212092   4.461   1.858  15.722 -0.7304 -0.0099  0.1331
  822MPD2    C312093   4.368   1.953  15.766  0.1600 -0.7087  0.4540
  822MPD2    C412094   4.236   1.932  15.735  0.1205  0.5197  0.2029
  822MPD2    C512095   4.199   1.813  15.671 -0.1876 -0.7270  0.4939
  822MPD2     H12096   4.563   1.885  15.746  0.2815 -1.8626 -2.1139
  822MPD2    H112097   4.163   2.003  15.774 -1.3147 -2.3966  2.7718
  822MPD2    H212098   4.244   1.630  15.592 -0.3250  0.4700 -1.0925
  822MPD2    H312099   4.093   1.794  15.657  0.0787 -0.9326 -1.2919
  822MPD2     N12100   4.403   2.065  15.847 -0.0444 -0.1750 -0.0863
  822MPD2    H512101   4.333   2.131  15.878  2.6058  1.5128  2.4023
  822MPD2    N112102   4.527   1.636  15.657 -0.1444  0.1628  0.0778
  822MPD2    H712103   4.619   1.658  15.694  0.0319 -1.6914  0.7446
  823MPD2     C12104   4.450   2.032  16.681 -0.2428  0.7177  0.3228
  823MPD2    C112105   4.446   1.985  16.551  0.0703  0.0253 -0.0799
  823MPD2    C212106   4.422   1.853  16.521  0.2106 -0.0184  0.0268
  823MPD2    C312107   4.394   1.761  16.615 -0.0673  0.4504  0.6951
  823MPD2    C412108   4.397   1.810  16.740 -0.1576  0.1006  0.2486
  823MPD2    C512109   4.422   1.939  16.774 -0.8325 -0.3501  0.3955
  823MPD2     H12110   4.429   1.820  16.418  0.5304  0.6127 -0.1554
  823MPD2    H112111   4.362   1.741  16.816  0.1194  0.4004  0.6452
  823MPD2    H212112   4.480   2.134  16.700  0.7717  0.5646 -0.4466
  823MPD2    H312113   4.432   1.969  16.877  3.4687  0.6225 -0.3128
  823MPD2     N12114   4.378   1.622  16.587 -0.3341 -0.0918  0.0933
  823MPD2    H512115   4.370   1.563  16.669  0.1492 -2.2027 -1.3770
  823MPD2    N112116   4.471   2.078  16.449  0.3325  0.3483  0.0497
  823MPD2    H712117   4.494   2.170  16.484  3.2085 -1.2829  2.4676
  824MPD2     C12118   0.095   0.816  15.435  0.7674  0.1215  0.2418
  824MPD2    C112119   0.178   0.918  15.468 -0.8939 -0.1755 -0.0957
  824MPD2    C212120   0.317   0.897  15.464 -0.2088  0.1281  0.1427
  824MPD2    C312121   0.372   0.784  15.409 -0.1361  0.2215 -0.6761
  824MPD2    C412122   0.290   0.681  15.374 -0.4946  0.3146 -0.2135
  824MPD2    C512123   0.153   0.694  15.399  0.3095  0.2260  0.1505
  824MPD2     H12124   0.376   0.986  15.485 -3.3244  1.7763  1.9393
  824MPD2    H112125   0.317   0.582  15.339  0.5757  0.6895 -0.4492
  824MPD2    H212126   4.707   0.817  15.448  0.2961  0.4571 -3.5397
  824MPD2    H312127   0.084   0.611  15.391 -0.1547  0.5112  1.1153
  824MPD2     N12128   0.511   0.786  15.384  0.5560 -0.2942  0.2008
  824MPD2    H512129   0.551   0.878  15.403 -0.1650 -0.3890  2.2410
  824MPD2    N112130   0.128   1.042  15.507  0.5404 -0.0288 -0.5860
  824MPD2    H712131   0.196   1.104  15.551 -0.8308  0.8779  0.2671
  825MPD2     C12132   1.272   1.111  15.136  0.1922  0.2732 -0.1552
  825MPD2    C112133   1.134   1.106  15.128  0.4454 -0.5042 -0.0720
  825MPD2    C212134   1.063   1.208  15.063  0.4284  0.5514 -0.1433
  825MPD2    C312135   1.133   1.308  15.009  0.4807 -0.0441  0.2076
  825MPD2    C412136   1.271   1.305  15.011 -0.8014  0.8887 -0.1165
  825MPD2    C512137   1.341   1.207  15.076  0.8084 -0.6415  0.6664
  825MPD2     H12138   0.955   1.214  15.067  0.4515  1.3893 -0.8248
  825MPD2    H112139   1.329   1.383  14.962  0.9727 -0.4233 -0.1009
  825MPD2    H212140   1.335   1.043  15.192  0.5152  1.0001  0.3727
  825MPD2    H312141   1.448   1.200  15.090  0.5895 -0.0386  2.7072
  825MPD2     N12142   1.076   1.416  14.939  0.3628 -0.4907  0.0370
  825MPD2    H512143   1.132   1.493  14.903 -0.3943 -0.2505 -0.6343
  825MPD2    N112144   1.071   0.999  15.188 -0.5381 -0.0135  0.0450
  825MPD2    H712145   1.124   0.931  15.241 -0.5062  0.5122  0.6842
  826MPD2     C12146   0.561   0.921  13.601  0.5574  0.4334 -0.3451
  826MPD2    C112147   0.468   0.936  13.501 -0.5707 -0.6581  0.0830
  826MPD2    C212148   0.356   1.019  13.523 -0.3272 -0.8804  0.0210
  826MPD2    C312149   0.333   1.077  13.642  0.1146  0.0007  0.3985
  826MPD2    C412150   0.429   1.069  13.743  0.1200 -0.0820  0.8056
  826MPD2    C512151   0.537   0.986  13.720  0.2190 -0.4727 -0.0628
  826MPD2     H12152   0.283   1.033  13.444 -1.4377  0.4096  1.2820
  826MPD2    H112153   0.420   1.125  13.835  1.2852  2.8936 -0.8590
  826MPD2    H212154   0.657   0.874  13.584  0.1759 -0.6878  0.6420
  826MPD2    H312155   0.620   0.993  13.790 -1.9131 -0.8003  2.4689
  826MPD2     N12156   0.238   1.168  13.660 -0.6396 -0.0555 -0.0998
  826MPD2    H512157   0.252   1.236  13.734 -1.0820  1.3384 -1.3050
  826MPD2    N112158   0.487   0.855  13.383  0.0515  0.6388  0.1693
  826MPD2    H712159   0.569   0.796  13.375  1.3977  2.1770  2.5799
  827MPD2     C12160   1.552   2.480   9.885  0.1962  0.3295 -0.3287
  827MPD2    C112161   1.536   2.353   9.925 -0.9786 -0.6130 -0.7056
  827MPD2    C212162   1.472   2.268   9.838  0.2677 -0.2553 -0.1343
  827MPD2    C312163   1.428   2.308   9.713 -0.1553  0.8306  0.0927
  827MPD2    C412164   1.434   2.440   9.677 -1.0357 -0.6726 -0.1395
  827MPD2    C512165   1.502   2.522   9.764 -0.3353  0.1426 -0.1434
  827MPD2     H12166   1.453   2.165   9.866 -0.4258 -0.4767 -1.3944
  827MPD2    H112167   1.401   2.475   9.580 -0.7300  0.8569  0.3043
  827MPD2    H212168   1.609   2.561   9.929 -1.6227 -0.0470  2.7421
  827MPD2    H312169   1.515   2.626   9.737 -1.2874  0.4795  0.6757
  827MPD2     N12170   1.374   2.210   9.628 -1.0151  0.3919 -0.0094
  827MPD2    H512171   1.368   2.114   9.660  0.5884 -0.0764 -1.1379
  827MPD2    N112172   1.587   2.305  10.048  0.5236 -0.5672  0.3519
  827MPD2    H712173   1.638   2.374  10.102 -0.8398  0.2684  0.5711
  828MPD2     C12174   3.961   1.960  12.743 -0.4783  0.0502 -0.2000
  828MPD2    C112175   3.993   2.019  12.620 -0.5005  0.2167  0.7316
  828MPD2    C212176   4.123   2.005  12.571 -0.3059  0.1585 -0.4509
  828MPD2    C312177   4.206   1.909  12.628 -0.2404  0.1905  0.2198
  828MPD2    C412178   4.170   1.852  12.750  0.1836  0.0215  0.0722
  828MPD2    C512179   4.052   1.877  12.806  0.3212  0.8079  0.3788
  828MPD2     H12180   4.149   2.058  12.480  1.3799 -0.1263 -0.1335
  828MPD2    H112181   4.240   1.785  12.798 -0.4718 -0.5373  0.2616
  828MPD2    H212182   3.866   1.985  12.789 -0.6585  1.6545 -1.4451
  828MPD2    H312183   4.022   1.832  12.900 -4.4234  2.3075 -0.4587
  828MPD2     N12184   4.335   1.876  12.585 -0.2586  0.2759 -0.3057
  828MPD2    H512185   4.385   1.816  12.651  1.3477  3.1430  1.0802
  828MPD2    N112186   3.905   2.096  12.543 -0.0659  0.5136  0.6671
  828MPD2    H712187   3.944   2.140  12.460 -1.3573 -0.9263 -0.6949
  829MPD2     C12188   4.128   2.349  11.774  0.2004 -0.1992  0.3232
  829MPD2    C112189   3.997   2.376  11.759 -0.5641 -0.0810  0.1623
  829MPD2    C212190   3.918   2.357  11.869 -0.2414  0.0668  0.4090
  829MPD2    C312191   3.961   2.309  11.991  0.8489 -0.7395  0.1251
  829MPD2    C412192   4.095   2.275  12.003  0.6021  0.4177 -0.1711
  829MPD2    C512193   4.176   2.302  11.893  0.1881 -0.1753  0.0930
  829MPD2     H12194   3.814   2.386  11.859 -0.1480 -0.0486 -0.9285
  829MPD2    H112195   4.131   2.240  12.100  0.5708 -1.6768 -0.9019
  829MPD2    H212196   4.190   2.349  11.685 -2.1526 -1.1862 -1.3164
  829MPD2    H312197   4.283   2.292  11.906  0.1383  0.8898  1.2981
  829MPD2     N12198   3.881   2.281  12.103  0.7764  0.0751 -0.7241
  829MPD2    H512199   3.931   2.242  12.182 -2.1581  0.7549  1.4644
  829MPD2    N112200   3.951   2.426  11.637 -0.0189  1.0772  0.1819
  829MPD2    H712201   4.022   2.447  11.567  0.6081 -0.7468  0.2755
  830MPD2     C12202   0.454   0.021  15.388  0.0267  0.4666 -0.5308
  830MPD2    C112203   0.337   0.063  15.335  0.5540  0.3391  0.9772
  830MPD2    C212204   0.329   0.165  15.242  0.6648  0.8941 -0.6482
  830MPD2    C312205   0.444   0.232  15.206 -0.0043  0.2979  0.1206
  830MPD2    C412206   0.563   0.192  15.268 -0.0852 -0.3197  0.3465
  830MPD2    C512207   0.567   0.088  15.357  0.4255  0.1666 -0.0054
  830MPD2     H12208   0.234   0.202  15.204  1.0786  0.3237 -2.2325
  830MPD2    H112209   0.653   0.250  15.250 -0.7221  0.6876  0.3867
  830MPD2    H212210   0.458   4.660  15.460 -1.7165 -0.0649 -1.0477
  830MPD2    H312211   0.658   0.056  15.409 -0.3626 -0.2176  1.1526
  830MPD2     N12212   0.446   0.331  15.106 -0.2699  0.1525 -0.3163
  830MPD2    H512213   0.530   0.386  15.093 -1.9261  2.4704 -1.1561
  830MPD2    N112214   0.225   4.717  15.384 -0.7043 -0.4980  0.5010
  830MPD2    H712215   0.243   4.665  15.469  0.0832 -0.8893  0.0915
  831MPD2     C12216   0.172   1.899  16.097  0.4231  0.4191  0.3240
  831MPD2    C112217   0.117   1.848  15.979  0.6549  0.1787  0.0600
  831MPD2    C212218   4.708   1.793  15.992 -0.0740  0.3404  0.1093
  831MPD2    C312219   4.634   1.797  16.106  0.2874  0.2603 -0.4854
  831MPD2    C412220   4.689   1.855  16.218 -0.4930 -0.0313 -0.3795
  831MPD2    C512221   0.092   1.909  16.204 -0.2414 -0.2478 -0.5397
  831MPD2     H12222   4.662   1.743  15.907  3.6743  0.5904 -2.0419
  831MPD2    H112223   4.630   1.856  16.309 -1.7463  1.7704 -1.2142
  831MPD2    H212224   0.270   1.945  16.096  1.1000 -1.0247  0.1709
  831MPD2    H312225   0.126   1.956  16.296 -0.0058 -0.3742 -0.5637
  831MPD2     N12226   4.495   1.747  16.115  0.3293 -0.2678 -0.0671
  831MPD2    H512227   4.446   1.785  16.195  0.4961 -1.8668  0.7788
  831MPD2    N112228   0.197   1.859  15.860 -0.6907 -0.2490 -0.0389
  831MPD2    H712229   0.275   1.924  15.863 -0.9537  0.0865 -0.4461
  832MPD2     C12230   3.356   2.693  17.208  0.1667  0.2892 -0.2107
  832MPD2    C112231   3.335   2.825  17.203 -0.6372  0.2065 -0.6179
  832MPD2    C212232   3.253   2.875  17.098 -0.5182  0.3565  0.1451
  832MPD2    C312233   3.202   2.791  17.002  0.3026 -0.5375  0.1864
  832MPD2    C412234   3.218   2.654  17.015  0.0060  0.8503 -0.9321
  832MPD2    C512235   3.295   2.605  17.115 -0.4002  0.4625  0.5041
  832MPD2     H12236   3.218   2.977  17.111 -0.0488  0.4348  0.7806
  832MPD2    H112237   3.164   2.579  16.958 -1.9395  1.7092 -0.2332
  832MPD2    H212238   3.429   2.658  17.280  1.4303 -1.5917 -2.4200
  832MPD2    H312239   3.332   2.503  17.119  0.7810  0.8528 -0.9263
  832MPD2     N12240   3.104   2.834  16.912 -1.1163 -0.0062  0.4773
  832MPD2    H512241   3.052   2.758  16.868  1.4593 -0.0761 -2.4162
  832MPD2    N112242   3.396   2.899  17.298  0.3873  0.3636 -0.0271
  832MPD2    H712243   3.467   2.852  17.352  0.7111  1.8051  0.7803
  833MPD2     C12244   0.065   0.002  12.542 -0.5073  0.2573 -0.2043
  833MPD2    C112245   0.027   0.046  12.418  0.4886 -0.7664 -0.5951
  833MPD2    C212246   0.049   4.688  12.304 -0.7276  0.1008  0.5041
  833MPD2    C312247   0.123   4.568  12.306 -0.0041 -0.5505 -0.3840
  833MPD2    C412248   0.157   4.532  12.436  0.4448  0.4097  0.4175
  833MPD2    C512249   0.144   4.609  12.548 -0.8252  0.0943  0.2961
  833MPD2     H12250   4.709   0.006  12.220 -1.8526  2.4850  2.3386
  833MPD2    H112251   0.220   4.443  12.435 -0.7409 -0.4295  1.1954
  833MPD2    H212252   0.047   0.062  12.630 -0.2290 -2.4326  1.6785
  833MPD2    H312253   0.180   4.589  12.649 -0.1431  0.5578  0.1473
  833MPD2     N12254   0.158   4.488  12.198 -0.3357 -0.3542  0.1200
  833MPD2    H512255   0.197   4.397  12.222 -1.9789 -1.3845 -1.0767
  833MPD2    N112256   4.673   0.163  12.411 -0.8162  0.4765 -0.3161
  833MPD2    H712257   4.646   0.201  12.501  3.0273  0.6124  0.8194
  834MPD2     C12258   0.040   3.693  11.549  0.9027  0.0833  0.0015
  834MPD2    C112259   0.090   3.789  11.465 -0.2606 -0.1132  0.3625
  834MPD2    C212260   0.120   3.913  11.513  0.1471 -0.7981 -0.0205
  834MPD2    C312261   0.086   3.938  11.648  0.8166 -0.4017 -0.1686
  834MPD2    C412262   0.026   3.845  11.724 -0.1132  0.0362 -0.1932
  834MPD2    C512263   0.004   3.720  11.680 -0.5947  0.0402  0.1936
  834MPD2     H12264   0.159   3.990  11.447  1.9948 -0.9158  0.9101
  834MPD2    H112265   4.716   3.860  11.828 -0.1587 -0.4808 -0.1274
  834MPD2    H212266   0.014   3.593  11.515 -2.3356  1.7639 -2.4931
  834MPD2    H312267   4.666   3.647  11.734 -2.5594  0.0090 -1.9273
  834MPD2     N12268   0.113   4.065  11.707 -0.5133 -0.1608  0.0396
  834MPD2    H512269   0.167   4.125  11.645 -1.9153  1.8654  0.7697
  834MPD2    N112270   0.129   3.748  11.334  0.0511  0.2090 -0.1984
  834MPD2    H712271   0.116   3.648  11.321 -0.1884  0.1274  0.6384
  835MPD2     C12272   0.566   2.113  11.020  0.5392 -0.5289  0.5754
  835MPD2    C112273   0.506   2.217  11.076  0.4400  0.2831  0.0502
  835MPD2    C212274   0.492   2.230  11.217  0.3306  0.5400  0.1761
  835MPD2    C312275   0.551   2.132  11.298 -0.2257 -0.1465  0.1238
  835MPD2    C412276   0.615   2.024  11.238 -0.3565 -0.3558  0.3083
  835MPD2    C512277   0.617   2.017  11.101 -0.1216 -0.8820 -0.0256
  835MPD2     H12278   0.447   2.316  11.265  1.3030  1.4437 -0.5446
  835MPD2    H112279   0.664   1.948  11.298 -0.7181 -1.2893 -0.5748
  835MPD2    H212280   0.589   2.109  10.914 -2.1261 -1.5006  0.0297
  835MPD2    H312281   0.667   1.931  11.057  0.1166 -0.9381  0.3541
  835MPD2     N12282   0.547   2.153  11.437  0.5063  0.0279  0.0757
  835MPD2    H512283   0.505   2.243  11.456  2.4962  0.7696  1.0479
  835MPD2    N112284   0.440   2.318  11.008 -0.3556  0.2161  0.0735
  835MPD2    H712285   0.396   2.388  11.067 -0.4926  0.7298 -0.6295
  836MPD2     C12286   0.216   2.577  11.525 -0.3568  1.2141  0.8495
  836MPD2    C112287   0.222   2.531  11.657  0.2426  0.3109  0.0657
  836MPD2    C212288   0.119   2.562  11.741 -0.8105  0.3099  0.4769
  836MPD2    C312289   0.012   2.629  11.684 -0.5476  0.2707  0.1146
  836MPD2    C412290   0.012   2.672  11.550 -0.0135 -1.0783 -0.3204
  836MPD2    C512291   0.115   2.639  11.467  0.5589  1.0712 -0.2443
  836MPD2     H12292   0.127   2.530  11.845 -2.1841 -0.3655  0.3864
  836MPD2    H112293   4.646   2.722  11.506  0.4196  1.8967  2.2241
  836MPD2    H212294   0.293   2.543  11.457 -2.6047  1.5267 -1.8559
  836MPD2    H312295   0.119   2.667  11.363  1.7215 -1.5442 -0.8797
  836MPD2     N12296   4.608   2.651  11.756  0.6809 -0.0731  0.6795
  836MPD2    H512297   4.532   2.698  11.707 -1.5524 -3.2842  0.9993
  836MPD2    N112298   0.327   2.446  11.697 -0.5110 -0.2965  0.4418
  836MPD2    H712299   0.390   2.425  11.620 -0.2020  0.3547  0.5143
  837MPD2     C12300   2.998   2.448  10.251  0.3215  0.1186 -0.3182
  837MPD2    C112301   3.041   2.486  10.124 -0.5327 -0.0984 -0.3361
  837MPD2    C212302   3.018   2.608  10.085  0.3438 -0.4454 -0.6114
  837MPD2    C312303   2.943   2.702  10.156 -0.2570  0.6026 -0.7183
  837MPD2    C412304   2.901   2.668  10.284  0.2776 -0.1215 -0.4776
  837MPD2    C512305   2.925   2.542  10.328  0.3548 -1.0489 -0.2254
  837MPD2     H12306   3.051   2.632   9.985  2.2435  0.7896  0.3111
  837MPD2    H112307   2.855   2.740  10.351  1.1329 -0.9573  1.0141
  837MPD2    H212308   3.006   2.347  10.289 -0.0438  1.1186  2.4021
  837MPD2    H312309   2.902   2.519  10.431  0.8833  0.4088  0.2123
  837MPD2     N12310   2.917   2.820  10.095  0.0414 -0.7389  0.1470
  837MPD2    H512311   2.953   2.845  10.004  0.2083 -1.3085  0.0605
  837MPD2    N112312   3.094   2.396  10.031 -0.5132  0.3378  0.8685
  837MPD2    H712313   3.133   2.436   9.946  2.2949  0.4860  2.2257
  838MPD2     C12314   1.430   0.035  11.348  0.3350  0.2983  0.7767
  838MPD2    C112315   1.392   0.046  11.479 -0.1087 -0.5096 -0.1122
  838MPD2    C212316   1.276   4.704  11.524  0.3498  0.2677  0.4328
  838MPD2    C312317   1.205   4.622  11.438 -0.8811  0.2855 -0.3505
  838MPD2    C412318   1.251   4.613  11.309  0.9465  0.0037  0.4645
  838MPD2    C512319   1.358   4.683  11.268  0.4998  0.1728 -0.2599
  838MPD2     H12320   1.244   0.008  11.625 -0.4788  3.9468 -0.6735
  838MPD2    H112321   1.203   4.547  11.237  3.2604  0.1937 -1.2192
  838MPD2    H212322   1.523   0.069  11.305 -0.8469  2.3609 -0.1374
  838MPD2    H312323   1.408   4.668  11.173  2.3679 -0.8664  0.8901
  838MPD2     N12324   1.097   4.543  11.489  0.3734 -0.1883 -0.2084
  838MPD2    H512325   1.072   4.572  11.583 -0.5939  0.2043 -0.5910
  838MPD2    N112326   1.462   0.122  11.576  0.8006 -0.0028  0.3337
  838MPD2    H712327   1.409   0.140  11.660 -1.3497  1.0455 -1.2542
  839MPD2     C12328   1.588   4.329  11.905 -0.0142  0.4776 -0.1548
  839MPD2    C112329   1.583   4.382  11.779 -0.2041  0.1909  0.3771
  839MPD2    C212330   1.671   4.486  11.755  0.1209  0.1737 -0.7195
  839MPD2    C312331   1.740   4.549  11.862  0.1529 -0.1145 -0.4283
  839MPD2    C412332   1.719   4.501  11.987 -0.1545  0.0044  0.3394
  839MPD2    C512333   1.649   4.387  12.011 -0.3624  0.3492  0.7877
  839MPD2     H12334   1.670   4.536  11.659 -4.0518  0.9090 -0.2901
  839MPD2    H112335   1.749   4.545  12.081  1.0475 -2.3626  1.0543
  839MPD2    H212336   1.533   4.238  11.928 -0.7503  1.1881  0.9057
  839MPD2    H312337   1.651   4.343  12.109 -0.7701  1.8843  1.4900
  839MPD2     N12338   1.806   4.671  11.851 -0.2828 -0.7519  0.3965
  839MPD2    H512339   1.808   0.002  11.940 -0.7661 -0.7747  0.4221
  839MPD2    N112340   1.498   4.336  11.675 -0.6454  0.5294 -0.3810
  839MPD2    H712341   1.519   4.361  11.579  0.2453  1.7612  0.1237
  840MPD2     C12342   1.993   2.661  10.319  0.3399  0.1823 -0.3570
  840MPD2    C112343   1.938   2.593  10.424 -0.1310 -1.3457 -0.2783
  840MPD2    C212344   1.944   2.644  10.554  0.4907  0.9571  0.6274
  840MPD2    C312345   2.012   2.766  10.577 -0.8894  0.1511  0.3680
  840MPD2    C412346   2.082   2.822  10.479 -0.4447  0.2610 -0.2164
  840MPD2    C512347   2.069   2.770  10.346 -0.5519 -0.6164 -0.9601
  840MPD2     H12348   1.889   2.603  10.638  1.6506 -0.1995  0.8380
  840MPD2    H112349   2.120   2.923  10.493 -0.6690  0.1950  0.8206
  840MPD2    H212350   1.988   2.626  10.217 -0.4413 -1.9584  0.4205
  840MPD2    H312351   2.117   2.819  10.263 -0.7043  0.4942 -0.4064
  840MPD2     N12352   2.014   2.838  10.701  0.0822 -0.1596  0.3506
  840MPD2    H512353   2.079   2.915  10.718  1.3049 -0.9530 -0.7166
  840MPD2    N112354   1.863   2.473  10.395  0.3398  0.3038  0.2311
  840MPD2    H712355   1.844   2.451  10.297 -0.1187 -0.0376  0.3959
  841MPD2     C12356   1.647   3.000  14.829  0.0636 -0.2478  0.2109
  841MPD2    C112357   1.687   2.880  14.776 -1.0671 -0.0889 -1.3165
  841MPD2    C212358   1.797   2.871  14.705  0.0353 -0.4665  0.7840
  841MPD2    C312359   1.891   2.981  14.716 -0.1359  0.2982  0.2994
  841MPD2    C412360   1.856   3.095  14.782  0.1603  0.1814 -0.9344
  841MPD2    C512361   1.725   3.108  14.835 -0.7911  1.0420 -0.2881
  841MPD2     H12362   1.804   2.779  14.647 -1.7459  0.1885 -0.4693
  841MPD2    H112363   1.914   3.187  14.780 -3.4215  2.4542 -1.4642
  841MPD2    H212364   1.548   3.003  14.872 -0.9005  0.7493 -2.0925
  841MPD2    H312365   1.680   3.202  14.865 -1.5203  1.0465 -1.3936
  841MPD2     N12366   2.011   2.966  14.652  0.0729  0.1143  0.4418
  841MPD2    H512367   2.039   2.871  14.631  0.3623  0.4446 -0.6874
  841MPD2    N112368   1.595   2.775  14.778 -0.7635 -0.0351  0.0373
  841MPD2    H712369   1.598   2.696  14.714 -2.1197  1.1278 -1.4383
  842MPD2     C12370   2.473   3.425  16.407 -0.0608 -0.4636  0.2833
  842MPD2    C112371   2.340   3.384  16.426  0.0645 -0.0282  0.1085
  842MPD2    C212372   2.309   3.311  16.536 -0.0583  0.2205 -0.5094
  842MPD2    C312373   2.402   3.286  16.635  0.6541  0.0211  0.0072
  842MPD2    C412374   2.529   3.333  16.616 -0.1975  0.1295  0.4312
  842MPD2    C512375   2.567   3.406  16.511 -0.4143 -1.0587 -0.0498
  842MPD2     H12376   2.204   3.292  16.557  0.2288  0.5535  1.1992
  842MPD2    H112377   2.595   3.319  16.701  1.1105 -0.3050 -0.6573
  842MPD2    H212378   2.501   3.476  16.316 -2.9902  0.5435 -0.0598
  842MPD2    H312379   2.667   3.446  16.505 -0.8951 -0.0093 -1.1127
  842MPD2     N12380   2.367   3.210  16.751 -0.0869 -0.3268  0.5392
  842MPD2    H512381   2.434   3.203  16.827 -0.2219  1.8131  0.8660
  842MPD2    N112382   2.252   3.417  16.324  0.0605  0.1221  0.4059
  842MPD2    H712383   2.291   3.481  16.256  0.9565 -0.7637  0.0916
  843MPD2     C12384   3.886   2.955  17.514  0.5567 -0.5178  0.2536
  843MPD2    C112385   3.877   2.944  17.641  0.3366  0.1434 -0.1154
  843MPD2    C212386   3.963   3.022   0.038 -0.8439 -0.6048  0.0251
  843MPD2    C312387   4.049   3.119  17.664  0.5591 -0.1719 -0.6100
  843MPD2    C412388   4.044   3.125  17.525 -1.0652 -0.0722  0.1598
  843MPD2    C512389   3.968   3.047  17.454  0.2114 -0.6048 -0.1135
  843MPD2     H12390   3.947   3.020   0.146 -0.2781 -1.0761  0.0963
  843MPD2    H112391   4.103   3.197  17.469 -1.3336  2.3189  2.9486
  843MPD2    H212392   3.823   2.890  17.454  1.2957 -2.4097  1.5397
  843MPD2    H312393   3.964   3.054  17.346  1.5069  0.4452 -0.0945
  843MPD2     N12394   4.126   3.218   0.051 -1.0639 -0.3434 -0.1004
  843MPD2    H512395   4.161   3.302   0.006  0.8919 -0.7594  0.6472
  843MPD2    N112396   3.788   2.845   0.011 -0.5928  0.1901 -0.3423
  843MPD2    H712397   3.762   2.773  17.624  1.8141  0.4941 -1.6302
  844MPD2     C12398   3.160   2.999  16.190  0.5816 -0.4484  0.1555
  844MPD2    C112399   3.129   2.872  16.242 -0.0970 -0.0276 -0.5986
  844MPD2    C212400   3.179   2.856  16.374  0.7840  0.2956  0.7039
  844MPD2    C312401   3.244   2.951  16.447  0.8735  0.2735 -0.0878
  844MPD2    C412402   3.274   3.073  16.389  0.2239  0.0712 -0.3140
  844MPD2    C512403   3.236   3.091  16.258 -0.0320 -0.1222 -0.5027
  844MPD2     H12404   3.163   2.760  16.422  0.8777  0.3981  0.9417
  844MPD2    H112405   3.308   3.164  16.438 -2.5148  1.1417 -0.3940
  844MPD2    H212406   3.121   3.031  16.094 -0.3451  2.0156  1.3386
  844MPD2    H312407   3.254   3.185  16.205 -0.0931 -0.4822 -1.1657
  844MPD2     N12408   3.277   2.916  16.581  0.0081  0.0957 -0.0048
  844MPD2    H512409   3.242   2.825  16.612 -2.6662  0.5780 -1.6280
  844MPD2    N112410   3.052   2.771  16.178 -0.2810  0.4162 -0.1631
  844MPD2    H712411   3.039   2.679  16.220 -0.9872  0.0615 -1.1786
  845MPD2     C12412   3.734   3.446  17.339 -0.4145 -0.4404 -0.5690
  845MPD2    C112413   3.636   3.480  17.249 -0.4758 -0.2138  0.1511
  845MPD2    C212414   3.589   3.379  17.165 -0.0971  0.1858 -0.3252
  845MPD2    C312415   3.654   3.252  17.154 -0.3784 -0.7525 -0.2169
  845MPD2    C412416   3.764   3.230  17.241  0.0886  0.5831  0.0542
  845MPD2    C512417   3.802   3.327  17.333 -0.4775 -0.4352 -0.0839
  845MPD2     H12418   3.499   3.408  17.112  0.1373 -1.1029 -1.4465
  845MPD2    H112419   3.808   3.131  17.240 -1.9083 -0.2889  0.0898
  845MPD2    H212420   3.766   3.526  17.405 -0.3087 -1.6712  0.8490
  845MPD2    H312421   3.878   3.306  17.408  0.6516 -0.3880 -1.2178
  845MPD2     N12422   3.605   3.154  17.060 -0.7376 -0.0809  0.1949
  845MPD2    H512423   3.525   3.182  17.005  0.1901  1.2423 -0.4795
  845MPD2    N112424   3.562   3.605  17.249 -0.7067 -0.3706  0.5040
  845MPD2    H712425   3.489   3.608  17.179 -1.0827  1.9635  1.0001
  846MPD2     C12426   4.485   3.800  13.354 -0.1909 -0.0135 -0.2930
  846MPD2    C112427   4.439   3.920  13.411 -0.4744  0.4157 -0.9203
  846MPD2    C212428   4.444   3.937  13.543  0.4614  0.1641  0.0296
  846MPD2    C312429   4.507   3.849  13.626  0.0402 -0.5827  0.6687
  846MPD2    C412430   4.570   3.736  13.570  0.4432  0.3072  0.2849
  846MPD2    C512431   4.556   3.712  13.431  0.3039 -0.2446  0.4248
  846MPD2     H12432   4.397   4.019  13.596  2.6212  3.0900 -2.5335
  846MPD2    H112433   4.628   3.663  13.625 -2.1478  0.1468  2.8028
  846MPD2    H212434   4.476   3.783  13.247  0.3091  0.9196 -0.4831
  846MPD2    H312435   4.602   3.625  13.385 -1.5316 -0.1839 -1.5111
  846MPD2     N12436   4.514   3.871  13.766  0.3330  0.6325  0.3034
  846MPD2    H512437   4.455   3.941  13.809 -2.7501 -0.1870 -2.7013
  846MPD2    N112438   4.379   4.020  13.334 -0.0464 -0.2014  0.4277
  846MPD2    H712439   4.345   4.093  13.397 -0.8592  0.3517 -0.6397
  847MPD2     C12440   4.566   0.140  13.624 -0.7293  0.5912 -0.1338
  847MPD2    C112441   4.581   0.208  13.744 -0.2766 -0.4499 -0.0449
  847MPD2    C212442   4.649   0.147  13.847 -0.1663  0.0657 -0.6101
  847MPD2    C312443   4.709   0.021  13.830 -0.2979 -0.3100  0.2199
  847MPD2    C412444   4.697   4.679  13.710  0.3726  0.1711 -0.3780
  847MPD2    C512445   4.623   0.019  13.610 -0.0412  0.3855  0.3393
  847MPD2     H12446   4.652   0.207  13.937 -0.9979  0.7804 -1.0580
  847MPD2    H112447   0.023   4.581  13.701 -2.0178 -0.9292 -0.4580
  847MPD2    H212448   4.503   0.181  13.545 -1.5613  0.8206  0.6462
  847MPD2    H312449   4.610   4.695  13.512  0.2333 -0.0564  0.4960
  847MPD2     N12450   0.069   4.674  13.925 -0.0668  0.0503 -0.1744
  847MPD2    H512451   0.112   4.589  13.889 -1.8106 -1.4205  1.2571
  847MPD2    N112452   4.516   0.332  13.765  0.7619 -0.2722  0.0810
  847MPD2    H712453   4.533   0.369  13.858 -0.7010  2.0804 -0.5790
  848MPD2     C12454   2.975   3.305  16.240 -0.0309  0.0186  0.4188
  848MPD2    C112455   2.955   3.348  16.368  0.5172  0.1089 -0.0896
  848MPD2    C212456   2.954   3.489  16.394  0.6082  0.3686 -0.2369
  848MPD2    C312457   2.970   3.582  16.292 -1.0686  0.5285 -1.1415
  848MPD2    C412458   3.007   3.533  16.166 -0.3179  0.3224 -0.5785
  848MPD2    C512459   3.002   3.396  16.144  0.0585  0.1111  0.8367
  848MPD2     H12460   2.938   3.524  16.496 -2.0371  1.7056 -1.1123
  848MPD2    H112461   3.024   3.600  16.082 -2.5036  1.0092 -0.4774
  848MPD2    H212462   2.975   3.199  16.216 -0.2489  0.4411 -1.4185
  848MPD2    H312463   3.020   3.351  16.047  0.8865  0.1957  0.9516
  848MPD2     N12464   2.956   3.720  16.303  0.4666  0.6898  0.8861
  848MPD2    H512465   2.989   3.777  16.226 -0.4771  3.4125  2.4703
  848MPD2    N112466   2.927   3.266  16.476  0.0380  0.3193 -0.0137
  848MPD2    H712467   2.928   3.315  16.565 -0.8553 -0.3517  0.3545
  849MPD2     C12468   1.809   3.329  13.609  0.2660  0.1547 -0.6839
  849MPD2    C112469   1.926   3.264  13.611 -0.4217  0.4309 -0.5958
  849MPD2    C212470   1.975   3.210  13.724 -0.5880 -0.2070 -0.0164
  849MPD2    C312471   1.907   3.223  13.845 -0.3595 -0.1270  0.6949
  849MPD2    C412472   1.785   3.283  13.850 -0.5893  0.5889  0.0490
  849MPD2    C512473   1.736   3.337  13.730 -0.0252 -0.3534  0.3899
  849MPD2     H12474   2.070   3.160  13.737  0.6185  1.6233 -1.6688
  849MPD2    H112475   1.720   3.300  13.935  1.4506  0.0779  1.6995
  849MPD2    H212476   1.770   3.366  13.515  2.4912  0.7691 -1.3644
  849MPD2    H312477   1.642   3.390  13.717  0.4234  0.7147  1.5114
  849MPD2     N12478   1.961   3.167  13.960 -0.4893 -0.7069  0.1117
  849MPD2    H512479   2.034   3.097  13.948  2.3011  1.7215  2.7377
  849MPD2    N112480   2.016   3.258  13.501  0.3657 -0.5509 -0.8226
  849MPD2    H712481   2.112   3.231  13.521  0.4602 -0.3100 -0.9553
  850MPD2     C12482   4.497   1.059  14.499 -0.2228 -0.0804  0.0390
  850MPD2    C112483   4.491   1.158  14.595 -0.7072 -0.0119  0.3638
  850MPD2    C212484   4.612   1.203  14.641  0.5598 -0.4290  0.1304
  850MPD2    C312485   0.011   1.128  14.626  0.0240 -0.2929 -0.2875
  850MPD2    C412486   0.006   1.008  14.546  1.1062  0.4165  1.1136
  850MPD2    C512487   4.610   0.984  14.471  0.3397 -0.7050  0.7802
  850MPD2     H12488   4.632   1.291  14.702 -0.6702  0.3823 -0.6285
  850MPD2    H112489   0.089   0.942  14.526  0.3434 -0.1975  0.0092
  850MPD2    H212490   4.414   1.031  14.434  0.9093 -0.4465 -1.2323
  850MPD2    H312491   4.603   0.903  14.399  1.7858  1.5613 -1.8880
  850MPD2     N12492   0.137   1.164  14.675  0.3898  0.8264  0.2357
  850MPD2    H512493   0.212   1.098  14.656  0.3795  0.1732  2.4136
  850MPD2    N112494   4.359   1.192  14.628  0.0218  0.8306 -0.2539
  850MPD2    H712495   4.294   1.163  14.555 -0.5446 -2.0479  1.3743
  851MPD2     C12496   0.250   1.171  15.244 -0.1300  0.6318  0.6962
  851MPD2    C112497   0.153   1.117  15.159 -0.0119 -0.5424  0.1908
  851MPD2    C212498   0.194   1.013  15.082  0.7026 -0.6297  0.1726
  851MPD2    C312499   0.323   0.960  15.085  0.9609 -0.3530 -0.4556
  851MPD2    C412500   0.423   1.016  15.168  0.1567  0.3064  0.8665
  851MPD2    C512501   0.383   1.123  15.247  0.6767 -0.3618 -0.6438
  851MPD2     H12502   0.123   0.954  15.025 -0.0344 -0.5032  0.9582
  851MPD2    H112503   0.528   0.988  15.170  0.0239 -0.2702 -0.0852
  851MPD2    H212504   0.238   1.258  15.308 -0.1139  0.3034  1.1499
  851MPD2    H312505   0.449   1.182  15.310  0.5608 -2.1365  1.1662
  851MPD2     N12506   0.354   0.847  15.005 -0.4059 -0.3956  0.2748
  851MPD2    H512507   0.277   0.789  14.977  1.7056 -1.8111 -2.5604
  851MPD2    N112508   0.018   1.174  15.152  0.1443  0.2651 -0.5992
  851MPD2    H712509   0.007   1.257  15.211  1.0600  0.5228 -0.7892
  852MPD2     C12510   4.565   3.706   9.259  0.4371 -0.4854  0.1015
  852MPD2    C112511   4.524   3.808   9.344 -0.3271  0.2026 -0.2863
  852MPD2    C212512   4.614   3.907   9.371 -0.3729 -0.9752  0.5479
  852MPD2    C312513   0.030   3.894   9.324  0.1737 -0.1199  0.4633
  852MPD2    C412514   0.064   3.790   9.240 -0.0804  0.7371  0.1861
  852MPD2    C512515   4.693   3.694   9.209  0.1869 -0.1762  0.1042
  852MPD2     H12516   4.592   3.994   9.432  1.4750 -0.0872 -0.0328
  852MPD2    H112517   0.161   3.786   9.192 -0.2657 -0.2447 -0.1115
  852MPD2    H212518   4.491   3.630   9.236  0.1309 -0.2752  0.4014
  852MPD2    H312519   0.010   3.615   9.144  0.2797  0.0252 -0.0874
  852MPD2     N12520   0.120   3.993   9.372  0.0554 -0.0660  0.1850
  852MPD2    H512521   0.080   4.036   9.456  0.1533 -0.6218  0.5149
  852MPD2    N112522   4.399   3.813   9.413 -1.0179  0.1555 -0.0079
  852MPD2    H712523   4.387   3.891   9.477 -0.4769  0.6585 -0.5198
  853MPD2     C12524   0.677   3.636  12.019 -0.2460  0.5163 -0.6310
  853MPD2    C112525   0.806   3.637  12.067  0.8411  0.4505  0.3809
  853MPD2    C212526   0.904   3.604  11.972  0.1748  0.3178  0.0309
  853MPD2    C312527   0.872   3.568  11.837 -0.2142 -0.5578  0.0875
  853MPD2    C412528   0.742   3.565  11.800  0.6325 -1.0008  0.3238
  853MPD2    C512529   0.646   3.597  11.892  0.3371 -0.2403 -0.1703
  853MPD2     H12530   1.008   3.601  12.003  0.0894  2.9837  0.5777
  853MPD2    H112531   0.710   3.536  11.700 -0.5483  0.0446  0.3914
  853MPD2    H212532   0.593   3.646  12.087  1.0586 -0.1388  1.0860
  853MPD2    H312533   0.540   3.586  11.874  0.7266 -1.5650 -1.6805
  853MPD2     N12534   0.972   3.539  11.733  0.1354  0.5712 -0.7064
  853MPD2    H512535   0.938   3.532  11.638 -1.8835 -2.8930  0.3052
  853MPD2    N112536   0.833   3.669  12.203  0.0829  0.4980  0.2471
  853MPD2    H712537   0.753   3.698  12.258  0.3136  0.0571  0.8186
  854MPD2     C12538   2.818   4.077  12.575  0.1382 -0.5378  0.2112
  854MPD2    C112539   2.959   4.073  12.541  0.0470 -0.2649  0.7758
  854MPD2    C212540   3.046   3.992  12.611  0.7508  0.4111 -0.2383
  854MPD2    C312541   2.993   3.914  12.712 -0.0801  0.4175  0.0513
  854MPD2    C412542   2.861   3.894  12.722 -0.2664  0.7821 -0.1955
  854MPD2    C512543   2.770   3.967  12.649 -0.4745 -0.0771 -0.5207
  854MPD2     H12544   3.154   3.989  12.605  0.7598  1.2251 -0.3945
  854MPD2    H112545   2.825   3.834  12.805  1.6091 -0.6750 -0.4340
  854MPD2    H212546   2.749   4.133  12.513  1.8898  1.7919  0.3237
  854MPD2    H312547   2.667   3.960  12.684  0.5656  2.7172  3.0774
  854MPD2     N12548   3.078   3.835  12.794  0.0921  0.5165 -0.0997
  854MPD2    H512549   3.029   3.759  12.840 -0.0998  1.7307  1.6904
  854MPD2    N112550   3.005   4.154  12.438  0.2171  0.7823  0.3425
  854MPD2    H712551   2.941   4.224  12.402 -0.4284  0.2918  0.5352
  855MPD2     C12552   3.760   3.865  13.543  0.0039  0.0450  0.3636
  855MPD2    C112553   3.736   3.740  13.499 -0.2107  0.1520  0.6106
  855MPD2    C212554   3.679   3.709  13.376  0.2307  0.2933 -0.3377
  855MPD2    C312555   3.642   3.821  13.304 -0.1591 -0.8667 -0.6651
  855MPD2    C412556   3.671   3.951  13.347  0.3851 -0.8060 -0.3467
  855MPD2    C512557   3.720   3.971  13.469  0.1324  0.4400  0.2731
  855MPD2     H12558   3.667   3.606  13.345 -0.0976  0.4197 -0.6258
  855MPD2    H112559   3.646   4.034  13.282  0.5468 -0.5981 -0.1425
  855MPD2    H212560   3.801   3.880  13.642  1.9643 -0.3309 -0.4015
  855MPD2    H312561   3.731   4.074  13.499  0.4993  0.6288 -0.5242
  855MPD2     N12562   3.570   3.808  13.179  0.5492 -0.3092  0.5927
  855MPD2    H512563   3.553   3.895  13.131  0.9797  0.5331  1.9757
  855MPD2    N112564   3.771   3.635  13.586 -0.1754  0.1715 -0.3364
  855MPD2    H712565   3.810   3.657  13.677 -1.4125  1.1763 -0.0583
  856MPD2     C12566   0.699   4.043  13.420 -0.0746 -0.3985 -0.3011
  856MPD2    C112567   0.793   4.147  13.430  0.3183 -0.3683  0.1877
  856MPD2    C212568   0.744   4.274  13.426 -0.3756 -0.9401 -0.6216
  856MPD2    C312569   0.614   4.305  13.434 -0.0639  0.5641  0.2766
  856MPD2    C412570   0.521   4.206  13.436 -0.3043  0.5014 -0.4566
  856MPD2    C512571   0.561   4.074  13.436 -0.1983 -0.1884 -0.1695
  856MPD2     H12572   0.818   4.353  13.432 -1.5076  0.2231 -2.1210
  856MPD2    H112573   0.415   4.228  13.436 -0.3004  0.5869  2.4653
  856MPD2    H212574   0.722   3.938  13.407 -1.5885 -1.0435  2.1591
  856MPD2    H312575   0.490   3.993  13.451 -1.2272  0.5816 -0.9786
  856MPD2     N12576   0.566   4.440  13.443  0.0927 -0.4598 -0.2253
  856MPD2    H512577   0.466   4.451  13.430 -0.1356 -1.4884  0.6296
  856MPD2    N112578   0.939   4.127  13.442  0.6169  0.0231 -0.4170
  856MPD2    H712579   0.998   4.209  13.453 -0.9017  0.8362  1.5975
  857MPD2     C12580   2.193   1.347  13.079  0.2515  0.0318  0.1554
  857MPD2    C112581   2.237   1.412  12.966 -0.3419  0.0638  0.6646
  857MPD2    C212582   2.304   1.533  12.982 -0.3353 -0.1292 -0.7135
  857MPD2    C312583   2.349   1.575  13.102 -0.4231 -0.3511  0.1904
  857MPD2    C412584   2.325   1.498  13.213  0.0479  0.4476  0.4354
  857MPD2    C512585   2.244   1.389  13.199 -0.0132  0.0136 -0.1572
  857MPD2     H12586   2.317   1.604  12.901 -0.3191 -1.3323 -1.7560
  857MPD2    H112587   2.337   1.540  13.312 -0.2447  2.2494 -0.2957
  857MPD2    H212588   2.139   1.253  13.069 -3.0162  1.9996 -0.6909
  857MPD2    H312589   2.219   1.339  13.292 -1.2611 -0.7719 -0.9187
  857MPD2     N12590   2.401   1.702  13.105  0.1171 -0.0077 -0.3088
  857MPD2    H512591   2.431   1.747  13.019 -2.3101  1.0137 -0.6173
  857MPD2    N112592   2.194   1.367  12.840 -0.5168 -0.0086  0.2794
  857MPD2    H712593   2.161   1.272  12.830  2.0044 -1.1346  2.6138
  858MPD2     C12594   2.642   0.477  16.450 -0.3568  0.5619 -0.1621
  858MPD2    C112595   2.772   0.525  16.428 -0.1885 -0.7853 -0.3999
  858MPD2    C212596   2.795   0.665  16.422 -0.4505  0.7410  0.3618
  858MPD2    C312597   2.686   0.747  16.423 -0.1223 -0.6787  0.2507
  858MPD2    C412598   2.559   0.694  16.421  1.3524 -0.4269  0.2127
  858MPD2    C512599   2.535   0.558  16.449  0.3553 -0.6987  0.0668
  858MPD2     H12600   2.896   0.695  16.397  0.0242 -1.4747 -0.4073
  858MPD2    H112601   2.470   0.757  16.417  0.9771 -0.9212  0.7886
  858MPD2    H212602   2.628   0.370  16.460 -1.5517  0.7972  0.7111
  858MPD2    H312603   2.434   0.528  16.474 -0.1600  1.0415  0.1202
  858MPD2     N12604   2.703   0.887  16.418 -0.2332  0.2523 -0.2693
  858MPD2    H512605   2.624   0.945  16.393  0.0830  0.2035 -1.3977
  858MPD2    N112606   2.875   0.430  16.410  0.0515 -0.4985  0.6952
  858MPD2    H712607   2.850   0.335  16.436 -0.3015 -0.3771  0.8083
  859MPD2     C12608   2.127   3.014  15.614  0.4922  0.0730  0.4231
  859MPD2    C112609   2.137   3.003  15.476  0.4716  0.4514 -0.6810
  859MPD2    C212610   2.124   2.877  15.414 -0.3012  0.5836 -0.4654
  859MPD2    C312611   2.112   2.766  15.500 -0.9065 -0.3658 -0.4392
  859MPD2    C412612   2.116   2.778  15.638 -0.1051  0.0668 -0.4147
  859MPD2    C512613   2.115   2.904  15.690  0.1172  0.2381 -0.4757
  859MPD2     H12614   2.129   2.864  15.307 -1.0768 -0.2525 -0.3964
  859MPD2    H112615   2.101   2.692  15.702  1.0033  1.2501  1.4493
  859MPD2    H212616   2.147   3.113  15.653 -1.7970  0.9920 -0.7374
  859MPD2    H312617   2.101   2.914  15.797  2.3084  0.1986 -0.1785
  859MPD2     N12618   2.118   2.637  15.456  0.1886 -0.4969  0.0917
  859MPD2    H512619   2.129   2.561  15.522  2.9870  0.5471  0.7774
  859MPD2    N112620   2.137   3.127  15.406  0.3154 -0.0123 -1.2564
  859MPD2    H712621   2.163   3.209  15.460 -1.1310  1.1135 -2.2659
  860MPD2     C12622   3.722   2.794  11.684  0.0768  0.0517 -0.2259
  860MPD2    C112623   3.683   2.922  11.681  0.4892 -0.0270  1.0813
  860MPD2    C212624   3.564   2.949  11.746  0.1162 -0.0879 -0.0069
  860MPD2    C312625   3.501   2.865  11.834  0.1465 -0.4080 -0.1251
  860MPD2    C412626   3.555   2.742  11.842 -0.3016  0.5445 -0.4895
  860MPD2    C512627   3.665   2.703  11.766 -0.7564  0.3204 -0.2080
  860MPD2     H12628   3.525   3.050  11.742  0.0906 -0.0788  0.6066
  860MPD2    H112629   3.532   2.681  11.928  0.6619  2.0799  0.8515
  860MPD2    H212630   3.810   2.768  11.627 -0.9351 -0.4565 -1.5568
  860MPD2    H312631   3.715   2.608  11.779 -0.6764 -0.0468 -3.2276
  860MPD2     N12632   3.403   2.907  11.926  0.2612 -0.6600  0.5698
  860MPD2    H512633   3.379   3.005  11.929  2.0094 -0.2201 -0.0040
  860MPD2    N112634   3.748   3.030  11.614 -0.2028  0.0185 -0.0269
  860MPD2    H712635   3.718   3.126  11.627  1.1774  0.2254  1.6535
  861MPD2     C12636   2.164   1.580  11.081  0.1620  0.8246 -0.4791
  861MPD2    C112637   2.236   1.699  11.110  0.0110 -0.0392  0.1100
  861MPD2    C212638   2.231   1.803  11.016  0.2413 -0.0500 -1.1215
  861MPD2    C312639   2.156   1.796  10.902  0.1079  0.2466 -0.3735
  861MPD2    C412640   2.089   1.675  10.878  0.7432  0.5730 -1.2277
  861MPD2    C512641   2.093   1.569  10.965 -0.4345  0.3697  0.0102
  861MPD2     H12642   2.289   1.892  11.039 -1.2855  0.6758 -0.1080
  861MPD2    H112643   2.032   1.656  10.787 -2.4553  0.2769  0.8208
  861MPD2    H212644   2.157   1.498  11.152 -3.1485  1.3626 -0.1830
  861MPD2    H312645   2.040   1.476  10.946  2.8814 -1.5823  0.3500
  861MPD2     N12646   2.133   1.906  10.812  0.9582 -0.5053  0.4363
  861MPD2    H512647   2.070   1.897  10.733  0.1592 -0.2410  1.0431
  861MPD2    N112648   2.326   1.713  11.219 -0.5560  0.5492 -0.3391
  861MPD2    H712649   2.359   1.808  11.235 -0.6033  0.0578  2.8347
  862MPD2     C12650   2.361   2.180  10.143 -0.2573  0.7301  0.7082
  862MPD2    C112651   2.332   2.088  10.237 -0.0277  0.2315 -0.2740
  862MPD2    C212652   2.370   1.958  10.221 -0.2062  0.8038  0.4089
  862MPD2    C312653   2.409   1.913  10.095  0.0312  0.0989 -0.1569
  862MPD2    C412654   2.418   2.007   9.990  0.7280  0.8720  0.5179
  862MPD2    C512655   2.388   2.139  10.014  0.0372 -0.3553  0.3818
  862MPD2     H12656   2.354   1.887  10.302  0.8107 -0.4074 -0.4557
  862MPD2    H112657   2.431   1.978   9.886 -1.7210 -1.1230  0.7835
  862MPD2    H212658   2.356   2.287  10.159  1.9850  0.7477  1.2615
  862MPD2    H312659   2.404   2.205   9.929 -0.6525 -2.4407 -1.3588
  862MPD2     N12660   2.429   1.774  10.067  0.3657  0.0167  0.8882
  862MPD2    H512661   2.444   1.755   9.968  0.3789 -0.8190  1.0543
  862MPD2    N112662   2.293   2.119  10.370  0.2055  0.5910 -0.3841
  862MPD2    H712663   2.280   2.039  10.431  0.4993  0.1532 -0.8977
  863MPD2     C12664   1.003   4.269  16.961  0.3794 -0.2561  0.1267
  863MPD2    C112665   1.081   4.334  16.866 -0.3944 -0.1942 -0.1627
  863MPD2    C212666   1.218   4.311  16.862  0.1103 -0.2627  0.0835
  863MPD2    C312667   1.283   4.231  16.953  0.9843 -0.2394 -0.1432
  863MPD2    C412668   1.202   4.169  17.044  0.1810 -0.1878  0.4202
  863MPD2    C512669   1.069   4.188  17.048 -0.1974 -0.1395  0.1100
  863MPD2     H12670   1.285   4.354  16.789  1.4297 -1.3189  0.6793
  863MPD2    H112671   1.248   4.121  17.130  0.3728 -0.9050 -0.0772
  863MPD2    H212672   0.896   4.276  16.973  0.4558  0.1338  0.5962
  863MPD2    H312673   1.008   4.145  17.126 -0.4948  0.5981  0.2824
  863MPD2     N12674   1.423   4.223  16.959 -0.3042  0.2129 -0.0552
  863MPD2    H512675   1.465   4.150  17.016  3.1254  1.5699 -0.8210
  863MPD2    N112676   1.014   4.415  16.770 -0.2974  0.3439  0.3921
  863MPD2    H712677   0.915   4.404  16.750  0.2395 -1.1693 -1.5184
  864MPD2     C12678   2.101   1.181  17.191 -0.4413 -0.1849 -0.2349
  864MPD2    C112679   2.154   1.090  17.101 -0.0977  0.0266  0.3596
  864MPD2    C212680   2.200   1.140  16.976 -1.0172  0.0201  0.6613
  864MPD2    C312681   2.171   1.274  16.933  0.2385  0.1682 -0.2719
  864MPD2    C412682   2.122   1.362  17.029 -0.2452  0.2715  0.2165
  864MPD2    C512683   2.091   1.309  17.151  0.3981  0.2993 -0.0657
  864MPD2     H12684   2.261   1.078  16.911 -0.7333  0.8053  0.1764
  864MPD2    H112685   2.119   1.469  17.013 -2.9808  0.4541  2.0477
  864MPD2    H212686   2.064   1.151  17.288 -1.4178 -3.9694 -1.8010
  864MPD2    H312687   2.065   1.381  17.228  0.3752  0.8708 -0.6085
  864MPD2     N12688   2.204   1.321  16.801  0.6421  1.0421  0.2142
  864MPD2    H512689   2.210   1.421  16.787  2.5734  0.8819 -0.0012
  864MPD2    N112690   2.147   0.953  17.134 -0.0851 -0.0615  0.2844
  864MPD2    H712691   2.106   0.928  17.223 -0.8805 -2.0192 -0.6364
  865MPD2     C12692   1.941   1.482  15.984 -0.2016  0.3152 -0.1000
  865MPD2    C112693   2.004   1.398  16.073 -0.9048  0.2615  0.1921
  865MPD2    C212694   2.083   1.455  16.174  0.1022 -0.9657 -0.4730
  865MPD2    C312695   2.130   1.583  16.171 -0.2194  0.4610 -0.7061
  865MPD2    C412696   2.073   1.661  16.074 -0.4957  0.0752 -1.3396
  865MPD2    C512697   1.982   1.613  15.988  0.2861  0.4957  0.4160
  865MPD2     H12698   2.123   1.385  16.246 -0.0720 -0.2109  0.3522
  865MPD2    H112699   2.100   1.765  16.061  1.1215 -0.1973 -0.2182
  865MPD2    H212700   1.875   1.457  15.903 -0.8354  1.4259  0.0698
  865MPD2    H312701   1.951   1.690  15.919  0.3770 -1.1696 -1.4782
  865MPD2     N12702   2.220   1.656  16.258 -0.6620  0.3394 -0.1066
  865MPD2    H512703   2.213   1.756  16.242 -0.7416  0.4369  0.5482
  865MPD2    N112704   1.978   1.259  16.064 -0.5967  0.1929 -0.1725
  865MPD2    H712705   1.926   1.228  15.984 -1.8349  0.6560  0.4476
  866MPD2     C12706   3.108   2.387  11.583 -0.4622 -0.2751 -0.6196
  866MPD2    C112707   3.111   2.406  11.446 -0.1246  0.3080 -0.5886
  866MPD2    C212708   2.993   2.437  11.371  0.2843  0.2062  0.2649
  866MPD2    C312709   2.866   2.433  11.438  0.2400  0.6604  0.6071
  866MPD2    C412710   2.868   2.380  11.567 -0.2985 -0.5507 -0.3667
  866MPD2    C512711   2.985   2.365  11.635  0.3566 -0.8738 -0.8324
  866MPD2     H12712   3.001   2.468  11.268 -1.4856  0.7961  0.3086
  866MPD2    H112713   2.778   2.357  11.623  0.2003 -2.0303 -0.1762
  866MPD2    H212714   3.190   2.357  11.647 -0.3215  1.8981  0.2029
  866MPD2    H312715   2.993   2.341  11.740  3.0538  0.6090 -0.6898
  866MPD2     N12716   2.745   2.455  11.368 -0.3524 -0.8567  0.0025
  866MPD2    H512717   2.657   2.465  11.418 -1.1623 -0.9812 -1.4270
  866MPD2    N112718   3.238   2.400  11.383  0.6536  0.4281  0.3823
  866MPD2    H712719   3.322   2.392  11.439  1.0822 -1.1262 -0.4905
  867MPD2     C12720   1.159   1.029  16.051 -0.2274 -0.0431 -0.2936
  867MPD2    C112721   1.115   0.987  16.173 -0.2455 -0.0729 -0.5663
  867MPD2    C212722   1.097   1.077  16.274  0.0256  0.6396  0.2112
  867MPD2    C312723   1.134   1.207  16.252  0.2073  1.1737 -0.0322
  867MPD2    C412724   1.187   1.244  16.131 -0.2660 -0.2288  0.2808
  867MPD2    C512725   1.200   1.158  16.035  0.6506  0.4514  0.2519
  867MPD2     H12726   1.045   1.053  16.366  2.8988  1.2116  1.9705
  867MPD2    H112727   1.205   1.348  16.102  0.0973 -0.3930 -0.0901
  867MPD2    H212728   1.167   0.964  15.964 -2.3367 -2.3233  1.2148
  867MPD2    H312729   1.232   1.195  15.938  1.2304  1.6431  0.8991
  867MPD2     N12730   1.104   1.310  16.344 -0.3824  0.1258 -0.3828
  867MPD2    H512731   1.117   1.403  16.307 -1.4922  0.0527 -0.9561
  867MPD2    N112732   1.078   0.853  16.187 -0.1539 -0.1709 -0.7118
  867MPD2    H712733   1.090   0.791  16.107  0.2987 -0.9135 -0.0726
  868MPD2     C12734   2.278   0.143  12.829  0.9132 -0.1905 -0.7346
  868MPD2    C112735   2.357   0.176  12.940  0.5413  0.0415  0.1081
  868MPD2    C212736   2.290   0.207  13.060 -0.6955 -0.0359 -0.5850
  868MPD2    C312737   2.155   0.207  13.061 -0.9457  0.1168 -0.1147
  868MPD2    C412738   2.082   0.179  12.950 -0.4769 -0.3561  0.6097
  868MPD2    C512739   2.140   0.156  12.831 -0.1821  0.1880 -0.3006
  868MPD2     H12740   2.342   0.230  13.152  0.2782  0.3878 -1.2342
  868MPD2    H112741   1.974   0.179  12.938 -0.6302  0.6326  1.9690
  868MPD2    H212742   2.331   0.113  12.740 -1.3019 -0.3656 -1.9954
  868MPD2    H312743   2.093   0.130  12.737  0.8474  0.4492 -0.8836
  868MPD2     N12744   2.100   0.227  13.194  0.7718 -0.1689 -0.0161
  868MPD2    H512745   2.167   0.255  13.265  1.6060 -1.2707 -0.3756
  868MPD2    N112746   2.495   0.154  12.927 -0.6363  0.6131  0.2157
  868MPD2    H712747   2.529   0.102  12.846  0.5165  0.2579  0.9198
  869MPD2     C12748   3.811   2.155   1.599 -0.0454 -0.2557 -0.2592
  869MPD2    C112749   3.922   2.220   1.551  0.4313 -0.6700 -0.5439
  869MPD2    C212750   3.899   2.332   1.476 -0.4706 -0.5943 -0.0361
  869MPD2    C312751   3.766   2.361   1.441  0.0407  0.3179  0.0160
  869MPD2    C412752   3.656   2.287   1.488  0.2106  0.2009  0.0027
  869MPD2    C512753   3.679   2.187   1.573 -0.6974  0.4630 -0.1197
  869MPD2     H12754   3.978   2.394   1.436 -0.4875 -1.9674 -2.2248
  869MPD2    H112755   3.555   2.326   1.484 -0.2503 -1.0304 -0.4132
  869MPD2    H212756   3.831   2.074   1.667  0.8994  0.0571 -0.1546
  869MPD2    H312757   3.592   2.132   1.607  0.7691 -1.1674  0.9898
  869MPD2     N12758   3.731   2.478   1.372  0.1326  0.3258 -0.6508
  869MPD2    H512759   3.637   2.495   1.336 -0.3694 -1.2913 -0.0739
  869MPD2    N112760   4.045   2.169   1.587  0.3825  0.1163 -0.0507
  869MPD2    H712761   4.053   2.090   1.650  1.3973 -0.9888 -1.5672
  870MPD2     C12762   3.665   1.002   1.838  0.1490 -0.1166 -0.7408
  870MPD2    C112763   3.647   0.936   1.721 -0.1603  0.7927 -0.1017
  870MPD2    C212764   3.558   0.997   1.633 -1.2090 -0.1409 -0.1051
  870MPD2    C312765   3.481   1.105   1.673 -1.3433 -0.2538 -0.9502
  870MPD2    C412766   3.515   1.175   1.786  0.1731 -0.5334  0.1193
  870MPD2    C512767   3.603   1.117   1.870  0.1434 -0.4235  0.0525
  870MPD2     H12768   3.541   0.965   1.530 -0.7249  3.1955 -1.2229
  870MPD2    H112769   3.471   1.271   1.812  0.7886 -0.9336  2.7037
  870MPD2    H212770   3.737   0.970   1.913 -1.7251  0.6582  1.4111
  870MPD2    H312771   3.636   1.172   1.958 -1.7805  0.6195  0.1268
  870MPD2     N12772   3.393   1.156   1.574  0.2777  0.5798  0.1952
  870MPD2    H512773   3.371   1.101   1.491  0.8449  0.2533  0.2650
  870MPD2    N112774   3.722   0.820   1.694  0.0949  0.5186 -0.4931
  870MPD2    H712775   3.774   0.782   1.773 -0.6168  0.4347 -0.0624
  871MPD2     C12776   4.428   1.222  15.889 -0.5367 -0.0361  0.8675
  871MPD2    C112777   4.450   1.141  16.001  0.9149  0.0644 -0.1445
  871MPD2    C212778   4.467   1.000  15.980  0.0438  0.3800 -0.5277
  871MPD2    C312779   4.460   0.946  15.849  0.5084 -0.4985 -0.1896
  871MPD2    C412780   4.436   1.031  15.746  0.3613  0.5623 -0.7661
  871MPD2    C512781   4.421   1.168  15.763  0.0125  0.5889  0.0234
  871MPD2     H12782   4.488   0.941  16.068  0.3889 -0.5322 -1.2199
  871MPD2    H112783   4.422   1.004  15.642 -1.4946  0.7128 -0.5529
  871MPD2    H212784   4.421   1.329  15.900 -0.8319  0.1344 -1.0086
  871MPD2    H312785   4.397   1.230  15.678  0.8927  0.9715  0.0596
  871MPD2     N12786   4.463   0.808  15.831 -0.3084 -0.0472 -0.5612
  871MPD2    H512787   4.478   0.770  15.738  0.9040  2.3504 -1.3531
  871MPD2    N112788   4.463   1.200  16.133  0.5566  0.2975 -0.0685
  871MPD2    H712789   4.448   1.300  16.148 -2.3223 -0.0380 -0.5852
  872MPD2     C12790   0.417   3.766  13.350  0.1646 -0.1864  0.5710
  872MPD2    C112791   0.505   3.694  13.428 -0.2293  0.1171 -0.2365
  872MPD2    C212792   0.472   3.642  13.553  0.1171  0.3224 -0.4925
  872MPD2    C312793   0.349   3.676  13.602  0.3957 -0.1034  0.0612
  872MPD2    C412794   0.256   3.746  13.521 -0.3907  0.4130  0.0039
  872MPD2    C512795   0.289   3.785  13.396 -0.9478  0.3702  0.1260
  872MPD2     H12796   0.552   3.594  13.609 -0.2975 -1.5442 -1.5050
  872MPD2    H112797   0.156   3.765  13.558  0.0099 -0.1757  1.3935
  872MPD2    H212798   0.444   3.803  13.252  1.2025 -1.2060  0.4613
  872MPD2    H312799   0.219   3.835  13.329 -0.2430 -0.2811 -1.1031
  872MPD2     N12800   0.302   3.631  13.731  0.1912  0.4147 -0.3696
  872MPD2    H512801   0.203   3.642  13.746  0.1710  0.7547 -0.7184
  872MPD2    N112802   0.643   3.681  13.386 -0.1408 -0.5169  0.1054
  872MPD2    H712803   0.703   3.642  13.459 -0.0762  0.4768  0.5800
  873MPD2     C12804   2.795   3.097   1.221 -0.1331 -0.5233  0.3037
  873MPD2    C112805   2.712   3.173   1.144 -0.0462 -0.3407  0.5186
  873MPD2    C212806   2.679   3.120   1.018 -0.7224 -0.1787  0.7299
  873MPD2    C312807   2.716   2.993   0.982  0.1720  0.2746 -0.2236
  873MPD2    C412808   2.802   2.917   1.062 -0.3615 -0.0916  0.0456
  873MPD2    C512809   2.831   2.973   1.180  0.3412  0.5432  0.0751
  873MPD2     H12810   2.616   3.180   0.954 -3.2072 -1.9318  1.5289
  873MPD2    H112811   2.844   2.822   1.030 -1.9888 -0.6885 -0.3430
  873MPD2    H212812   2.838   3.126   1.317  2.5302 -0.4667 -0.9150
  873MPD2    H312813   2.894   2.920   1.250  1.4168  3.2873  1.1997
  873MPD2     N12814   2.672   2.936   0.857  0.8254 -0.4265 -0.5905
  873MPD2    H512815   2.697   2.839   0.841  0.6697 -0.2727 -1.7847
  873MPD2    N112816   2.671   3.295   1.202 -0.0925 -0.2722 -0.2709
  873MPD2    H712817   2.711   3.312   1.294  0.8238 -1.9474 -0.3728
  874MPD2     C12818   2.352   4.002  15.887  0.4254 -0.7259  0.0234
  874MPD2    C112819   2.347   3.914  15.998  0.2713  0.7591  0.4744
  874MPD2    C212820   2.458   3.910  16.082  0.0570  0.3306  0.1198
  874MPD2    C312821   2.555   4.009  16.078 -0.1866  0.1169  0.4100
  874MPD2    C412822   2.548   4.101  15.976  0.2358 -0.0909 -0.3740
  874MPD2    C512823   2.450   4.093  15.880 -0.3388 -0.3437 -0.4781
  874MPD2     H12824   2.457   3.847  16.170  1.9114  1.8855  1.2672
  874MPD2    H112825   2.618   4.180  15.951  0.7865 -0.2764  0.5648
  874MPD2    H212826   2.271   3.994  15.815  1.4566 -3.3984 -0.8651
  874MPD2    H312827   2.455   4.164  15.798 -0.4229 -1.0353 -1.0828
  874MPD2     N12828   2.656   4.020  16.175 -0.2764  0.1460 -0.0478
  874MPD2    H512829   2.659   3.942  16.239 -1.1866  0.4767  0.3928
  874MPD2    N112830   2.242   3.815  16.002  0.3981 -0.6832 -0.3880
  874MPD2    H712831   2.162   3.838  15.945  0.6730 -1.0287 -0.9086
  875MPD2     C12832   3.461   2.149  14.245  0.2168 -0.3200  0.4285
  875MPD2    C112833   3.345   2.175  14.320  0.0664  0.3489  0.0533
  875MPD2    C212834   3.357   2.222  14.447  0.1580  0.1078  0.2434
  875MPD2    C312835   3.478   2.239  14.506 -0.3984 -0.3744 -0.1038
  875MPD2    C412836   3.591   2.218  14.431 -0.4424  0.1535  0.2897
  875MPD2    C512837   3.578   2.170  14.302  0.2766  0.3198  1.2777
  875MPD2     H12838   3.269   2.253  14.502  0.6551  1.2614  0.3966
  875MPD2    H112839   3.685   2.215  14.486  0.4929  0.0862 -1.3023
  875MPD2    H212840   3.456   2.107  14.146 -1.3077  0.9352 -0.0293
  875MPD2    H312841   3.665   2.130  14.251 -1.4656  0.9273 -2.1754
  875MPD2     N12842   3.495   2.291  14.633  0.0894  0.1555 -0.0147
  875MPD2    H512843   3.584   2.337  14.650 -0.5142  1.4158 -0.3170
  875MPD2    N112844   3.221   2.169  14.259 -0.1228 -0.0357  0.5653
  875MPD2    H712845   3.137   2.170  14.316 -0.5826  0.0079 -0.1068
  876MPD2     C12846   1.978   3.501  15.752 -0.1445 -0.2890  0.6039
  876MPD2    C112847   2.112   3.508  15.730  0.3062 -0.5352 -0.2790
  876MPD2    C212848   2.180   3.400  15.784 -0.3581 -0.7705 -0.6073
  876MPD2    C312849   2.134   3.297  15.861  0.7175  0.2349  0.2940
  876MPD2    C412850   2.001   3.294  15.887  0.2923  0.5032  0.5891
  876MPD2    C512851   1.926   3.399  15.830  0.4304 -0.3840  0.4481
  876MPD2     H12852   2.282   3.389  15.749 -0.2623 -1.6478 -0.0554
  876MPD2    H112853   1.948   3.214  15.938 -1.5847  0.6436 -1.1373
  876MPD2    H212854   1.915   3.582  15.717 -1.0856  0.2745  3.5315
  876MPD2    H312855   1.820   3.388  15.849  0.0137  0.7366 -1.2369
  876MPD2     N12856   2.230   3.197  15.904  0.4404 -0.5233  0.7460
  876MPD2    H512857   2.326   3.209  15.873 -0.3693  1.5014 -0.9997
  876MPD2    N112858   2.170   3.615  15.657 -0.8039 -0.8151 -0.9797
  876MPD2    H712859   2.103   3.688  15.635 -1.0184  0.1041  2.6654
  877MPD2     C12860   2.052   4.037  15.022  0.0344 -0.6596 -0.0142
  877MPD2    C112861   2.188   4.031  15.048 -0.5688  0.0375  0.0669
  877MPD2    C212862   2.283   4.055  14.946 -0.5763  0.3905 -0.4146
  877MPD2    C312863   2.235   4.083  14.818 -0.0212  0.1782 -0.6360
  877MPD2    C412864   2.098   4.087  14.795 -0.0997  0.1162 -0.0139
  877MPD2    C512865   2.010   4.069  14.895 -0.3681  0.1150  0.2578
  877MPD2     H12866   2.386   4.030  14.969 -0.3362  0.1593 -1.7251
  877MPD2    H112867   2.069   4.097  14.691 -1.8740  1.0301  0.5825
  877MPD2    H212868   1.980   4.022  15.100  1.3512  1.2929  1.5797
  877MPD2    H312869   1.904   4.062  14.873 -0.3943  0.4739  0.2766
  877MPD2     N12870   2.311   4.084  14.705 -0.1792  0.1236 -0.0650
  877MPD2    H512871   2.268   4.090  14.613 -0.7264  1.8272  0.2909
  877MPD2    N112872   2.236   4.003  15.178  0.5742 -0.1200  0.0580
  877MPD2    H712873   2.333   4.028  15.191 -0.1063  2.6008 -0.0196
  878MPD2     C12874   2.127   2.945  12.547  0.8069  0.3621 -0.1115
  878MPD2    C112875   2.097   3.076  12.568  0.1719  0.2412  0.2457
  878MPD2    C212876   2.123   3.126  12.700  0.3124 -0.1480 -0.4493
  878MPD2    C312877   2.173   3.040  12.795 -0.7790  0.4513 -0.2868
  878MPD2    C412878   2.212   2.914  12.768  0.2414  1.1658 -0.3332
  878MPD2    C512879   2.189   2.865  12.638 -1.2656 -0.1857 -0.4478
  878MPD2     H12880   2.098   3.228  12.727 -1.3410 -0.4834 -0.6872
  878MPD2    H112881   2.245   2.842  12.842  0.3220 -0.3403 -1.8474
  878MPD2    H212882   2.107   2.899  12.450  0.2143 -1.4137  0.8386
  878MPD2    H312883   2.216   2.763  12.612  1.3522  0.5682 -0.6539
  878MPD2     N12884   2.178   3.094  12.928  0.5288  0.0907 -0.8240
  878MPD2    H512885   2.126   3.180  12.942 -0.9892 -0.8366 -0.6807
  878MPD2    N112886   2.031   3.146  12.467 -0.1293 -0.0599 -0.5005
  878MPD2    H712887   2.038   3.100  12.377 -0.7229  0.4503 -0.8115
  879MPD2     C12888   2.627   4.096  17.037  0.7861 -0.0814 -0.1664
  879MPD2    C112889   2.496   4.123  17.042 -0.2112  0.4206 -0.6228
  879MPD2    C212890   2.427   4.071  16.930 -0.2925  0.2581  0.3383
  879MPD2    C312891   2.473   3.978  16.837  0.0571 -0.2835  0.8027
  879MPD2    C412892   2.604   3.941  16.850  0.5611 -1.2293 -0.2681
  879MPD2    C512893   2.674   3.999  16.951 -0.3453 -0.5907  0.2577
  879MPD2     H12894   2.323   4.101  16.924  0.2486  2.4149  1.7101
  879MPD2    H112895   2.658   3.878  16.779 -1.3424 -3.1966  0.0219
  879MPD2    H212896   2.694   4.124  17.117  0.6418 -0.7771  0.2035
  879MPD2    H312897   2.780   3.978  16.959 -0.7857 -3.2220 -1.0504
  879MPD2     N12898   2.387   3.926  16.735  0.4267 -0.5754 -0.0468
  879MPD2    H512899   2.291   3.958  16.734  0.7577  0.4418  1.7555
  879MPD2    N112900   2.446   4.223  17.128 -0.0031 -0.0495  1.7239
  879MPD2    H712901   2.516   4.263  17.190  0.6249 -0.2819  1.1612
  880MPD2     C12902   3.700   0.754   0.424  0.0641  0.1224  0.2925
  880MPD2    C112903   3.813   0.821   0.426  1.1780  0.0241  0.0987
  880MPD2    C212904   3.931   0.751   0.425  0.0497 -0.0161 -0.1073
  880MPD2    C312905   3.939   0.614   0.442 -0.5624 -0.6556 -0.0916
  880MPD2    C412906   3.821   0.548   0.431  0.7388 -0.7776  0.4575
  880MPD2    C512907   3.706   0.619   0.422  0.1487  0.7365 -0.2511
  880MPD2     H12908   4.027   0.799   0.440 -0.6876  0.6617  2.4611
  880MPD2    H112909   3.805   0.443   0.450 -0.6329 -0.7710 -0.6926
  880MPD2    H212910   3.602   0.801   0.420  1.4472  3.2264  3.1734
  880MPD2    H312911   3.612   0.567   0.430  0.0089  0.8679 -1.0564
  880MPD2     N12912   4.066   0.551   0.473 -0.1987 -0.1855  0.3133
  880MPD2    H512913   4.139   0.623   0.476  1.3530 -1.6470 -2.0277
  880MPD2    N112914   3.803   0.962   0.445  0.2433 -0.1598 -0.4247
  880MPD2    H712915   3.712   1.005   0.431  0.2850  0.1110  0.1234
  881MPD2     C12916   3.681   1.769  17.526  0.2954 -0.4686  0.0811
  881MPD2    C112917   3.770   1.670  17.513  0.4002 -0.2729  0.4858
  881MPD2    C212918   3.799   1.596  17.628  0.2303 -0.1500  0.6035
  881MPD2    C312919   3.724   1.618   0.069 -0.0782 -0.2266  0.2267
  881MPD2    C412920   3.645   1.726   0.077 -0.6316  0.5478 -0.1336
  881MPD2    C512921   3.635   1.809  17.647  0.4120  0.0118 -0.0991
  881MPD2     H12922   3.874   1.518  17.630  0.8926  0.5056  1.5011
  881MPD2    H112923   3.600   1.765   0.167 -1.7231 -0.5823 -0.2007
  881MPD2    H212924   3.686   1.847  17.450 -2.5275  1.4279  1.8658
  881MPD2    H312925   3.594   1.909  17.654  0.3643 -0.1366  1.7279
  881MPD2     N12926   3.740   1.541   0.183 -0.4333  0.5344  0.2722
  881MPD2    H512927   3.680   1.568   0.261  0.2599  0.9843  0.6567
  881MPD2    N112928   3.847   1.662  17.394 -0.2976  0.6054 -1.0527
  881MPD2    H712929   3.840   1.741  17.331 -0.2520  0.6261 -1.0318
  882MPD2     C12930   2.346   3.630  14.116 -0.0944  0.1879  0.0492
  882MPD2    C112931   2.275   3.731  14.175 -0.6290  0.0229 -0.0363
  882MPD2    C212932   2.139   3.707  14.201  0.1268  0.5309  0.2479
  882MPD2    C312933   2.065   3.597  14.156 -0.4153 -0.0360 -0.1158
  882MPD2    C412934   2.135   3.504  14.081 -0.8051  0.3686  0.6552
  882MPD2    C512935   2.271   3.520  14.069 -0.2374  0.2754 -0.1852
  882MPD2     H12936   2.085   3.780  14.260 -1.8246 -0.5673 -0.2040
  882MPD2    H112937   2.087   3.420  14.032  0.5158 -0.1338  0.1989
  882MPD2    H212938   2.449   3.638  14.085  0.2852 -1.4654  0.9093
  882MPD2    H312939   2.315   3.435  14.018 -2.2276 -0.3982 -0.7670
  882MPD2     N12940   1.930   3.577  14.185  0.6316  0.1228  0.0696
  882MPD2    H512941   1.885   3.487  14.173  0.0111  0.3955  0.3786
  882MPD2    N112942   2.347   3.842  14.216  0.4870  0.0307 -0.1725
  882MPD2    H712943   2.440   3.837  14.175  1.1986 -1.0132  1.5806
  883MPD2     C12944   4.291   3.475  16.332 -0.2452  0.2056 -0.8124
  883MPD2    C112945   4.379   3.429  16.242 -0.2924 -0.4763 -0.2703
  883MPD2    C212946   4.507   3.394  16.293 -0.4191 -0.1887 -0.8674
  883MPD2    C312947   4.543   3.419  16.422 -0.5269 -0.0699  0.2667
  883MPD2    C412948   4.449   3.470  16.507  0.1723  1.1353 -0.3080
  883MPD2    C512949   4.326   3.499  16.460 -0.3936 -0.7299 -0.1829
  883MPD2     H12950   4.574   3.342  16.226 -0.0483 -0.0999 -0.5614
  883MPD2    H112951   4.465   3.491  16.612 -0.0269  1.6790 -0.3901
  883MPD2    H212952   4.190   3.507  16.306 -0.1582  0.6958 -0.5603
  883MPD2    H312953   4.251   3.538  16.527 -0.5155 -1.6415  0.2126
  883MPD2     N12954   4.675   3.393  16.457  0.5360 -0.3204 -0.6175
  883MPD2    H512955   0.010   3.340  16.389  0.0210 -2.3049  0.5188
  883MPD2    N112956   4.353   3.409  16.107  0.3264 -0.8039 -0.2563
  883MPD2    H712957   4.434   3.389  16.049  1.4042  1.8041  0.3591
  884MPD2     C12958   1.279   4.397  14.877 -0.1006  0.0368  0.4001
  884MPD2    C112959   1.273   4.532  14.852  0.2325  0.2440  0.5914
  884MPD2    C212960   1.158   4.592  14.883 -0.1995 -0.0393 -0.0423
  884MPD2    C312961   1.044   4.521  14.921  0.5764  0.7102 -0.8344
  884MPD2    C412962   1.051   4.387  14.937 -0.7547  0.4198  0.4336
  884MPD2    C512963   1.170   4.322  14.904 -0.7342  0.5409 -0.3970
  884MPD2     H12964   1.153   4.699  14.869 -2.1767  0.4248  4.1166
  884MPD2    H112965   0.969   4.323  14.967 -0.2045 -0.6269 -0.2996
  884MPD2    H212966   1.370   4.343  14.853 -1.0524 -1.5607  0.3908
  884MPD2    H312967   1.179   4.214  14.900  0.1611  0.5890  0.2912
  884MPD2     N12968   0.924   4.598  14.939  0.5533 -0.2059  0.4209
  884MPD2    H512969   0.931   4.698  14.924  0.5044 -0.2008  0.4334
  884MPD2    N112970   1.383   4.606  14.800 -0.4168  0.0448  0.3192
  884MPD2    H712971   1.361   4.702  14.776 -2.1826 -0.8867 -1.7847
  885MPD2     C12972   3.964   4.561  17.655  0.2180 -0.1697  0.2247
  885MPD2    C112973   4.058   4.469  17.607  0.4896  0.7413  0.3277
  885MPD2    C212974   4.084   4.460  17.469  0.0807  0.3301  0.1057
  885MPD2    C312975   4.021   4.550  17.382 -0.2619  0.1638 -0.3963
  885MPD2    C412976   3.930   4.649  17.429 -0.0680  0.1513  0.6946
  885MPD2    C512977   3.903   4.645  17.563 -0.6901  0.1484  0.2144
  885MPD2     H12978   4.155   4.388  17.428 -0.6209 -0.0816 -0.3844
  885MPD2    H112979   3.892   0.010  17.368  1.0163  0.2512  0.1611
  885MPD2    H212980   3.934   4.574   0.078  4.0231 -0.3394  1.3729
  885MPD2    H312981   3.841   0.011  17.592 -1.4559 -0.2034 -0.3859
  885MPD2     N12982   4.070   4.546  17.253  0.6324  0.4768  0.0713
  885MPD2    H512983   4.128   4.465  17.233 -0.4188 -0.1210 -0.5861
  885MPD2    N112984   4.125   4.378   0.011 -0.1737  0.2289  0.7241
  885MPD2    H712985   4.175   4.302  17.645  2.9184  3.2730 -0.9045
  886MPD2     C12986   1.104   2.733  14.850  0.3103  0.0838 -0.1338
  886MPD2    C112987   1.163   2.825  14.938  0.4184 -0.4812 -0.1809
  886MPD2    C212988   1.189   2.951  14.887  0.2968 -0.2942 -0.2813
  886MPD2    C312989   1.136   2.990  14.763 -0.2824  0.0789  0.0829
  886MPD2    C412990   1.070   2.893  14.686 -0.0444  1.2477 -0.2929
  886MPD2    C512991   1.063   2.766  14.728 -0.0215  0.0428 -0.7077
  886MPD2     H12992   1.240   3.027  14.945  1.2137 -0.5087 -0.8130
  886MPD2    H112993   1.024   2.913  14.590 -0.7256 -1.3559 -0.5198
  886MPD2    H212994   1.081   2.631  14.878 -1.8358  1.2188  2.3067
  886MPD2    H312995   1.016   2.690  14.666 -0.2084 -0.1576 -0.3263
  886MPD2     N12996   1.151   3.122  14.715 -0.2158 -0.3440  0.1784
  886MPD2    H512997   1.217   3.181  14.765 -1.1164 -1.8345  3.1128
  886MPD2    N112998   1.199   2.790  15.074  0.0625  0.4783  0.2503
  886MPD2    H712999   1.258   2.857  15.122 -2.5141  3.3440 -0.5814
  887MPD2     C13000   1.680   2.971  15.558 -0.2161  0.3847 -0.0331
  887MPD2    C113001   1.575   3.010  15.486  0.3250 -0.3951  0.0545
  887MPD2    C213002   1.570   3.142  15.443 -0.2248  0.2066  0.6979
  887MPD2    C313003   1.676   3.231  15.462  0.1538  0.0110  0.8278
  887MPD2    C413004   1.786   3.181  15.537 -0.0085 -0.4906 -0.4370
  887MPD2    C513005   1.787   3.054  15.585  0.3619 -0.7582 -0.0851
  887MPD2     H13006   1.482   3.181  15.394  0.6677  1.0281 -0.2688
  887MPD2    H113007   1.869   3.244  15.567  0.5315 -0.6516 -1.6072
  887MPD2    H213008   1.692   2.869  15.592 -0.3563  0.0935 -0.8440
  887MPD2    H313009   1.872   3.014  15.640  0.9991  0.2413 -0.3634
  887MPD2     N13010   1.668   3.367  15.418  0.0378 -0.3048 -0.0881
  887MPD2    H513011   1.576   3.393  15.385  0.5582  2.9153  0.9920
  887MPD2    N113012   1.473   2.919  15.451 -0.4633  0.4206 -0.6029
  887MPD2    H713013   1.412   2.943  15.373 -0.4932 -1.4095 -1.1511
  888MPD2     C13014   3.373   2.967  14.524  0.1232 -0.1421 -0.1875
  888MPD2    C113015   3.323   3.026  14.639  0.5004  0.4777  0.5498
  888MPD2    C213016   3.376   3.156  14.673  0.6781  0.5084  0.6780
  888MPD2    C313017   3.463   3.226  14.590  1.4606 -0.0824  0.0229
  888MPD2    C413018   3.506   3.165  14.481  0.3894 -0.3643  0.3521
  888MPD2    C513019   3.467   3.034  14.450 -0.1186  0.1336  0.0692
  888MPD2     H13020   3.332   3.204  14.760 -1.3878  1.3880 -0.8716
  888MPD2    H113021   3.566   3.211  14.403 -0.8347  1.3953  0.4377
  888MPD2    H213022   3.362   2.862  14.500  1.7698 -0.1430 -0.9487
  888MPD2    H313023   3.514   2.978  14.370  1.6972  4.1320 -1.6143
  888MPD2     N13024   3.490   3.361  14.624  0.1097 -0.6619  0.0229
  888MPD2    H513025   3.478   3.390  14.720  0.6677 -0.4150  0.0156
  888MPD2    N113026   3.237   2.956  14.729 -1.1321  0.1786 -0.5492
  888MPD2    H713027   3.219   3.003  14.817  0.1581  0.2340 -0.3204
  889MPD2     C13028   2.689   2.223  12.667 -0.8097  0.2528  0.3775
  889MPD2    C113029   2.698   2.282  12.791  0.0602 -0.3304  0.1818
  889MPD2    C213030   2.686   2.418  12.808  0.1606 -0.9537 -0.5360
  889MPD2    C313031   2.660   2.497  12.706 -0.3471  0.7373  0.4905
  889MPD2    C413032   2.654   2.441  12.578  0.7688  0.7900 -0.3557
  889MPD2    C513033   2.671   2.304  12.558  0.4314  0.9907 -0.3817
  889MPD2     H13034   2.662   2.464  12.903 -1.5819  2.0415 -2.4035
  889MPD2    H113035   2.642   2.498  12.486  2.0012  0.0451 -0.9794
  889MPD2    H213036   2.679   2.116  12.658  1.4381 -0.0484  1.3717
  889MPD2    H313037   2.672   2.268  12.455  0.3183  0.6530 -0.2633
  889MPD2     N13038   2.638   2.632  12.733 -0.8646 -0.4492 -0.0580
  889MPD2    H513039   2.649   2.661  12.830  0.4414  1.4333 -0.7757
  889MPD2    N113040   2.676   2.206  12.911 -0.7360  0.1710  0.8126
  889MPD2    H713041   2.654   2.251  12.999  2.3797  0.7801  1.3023
  890MPD2     C13042   1.917   4.710  14.372 -0.9652  0.1555 -0.4975
  890MPD2    C113043   2.016   0.079  14.411 -0.1807  0.2275 -0.4310
  890MPD2    C213044   2.085   0.052  14.527 -0.7686 -0.8714 -0.1999
  890MPD2    C313045   2.066   4.657  14.600 -0.0618  0.5220 -0.8115
  890MPD2    C413046   1.970   4.578  14.553 -0.0334  0.0354  0.1889
  890MPD2    C513047   1.892   4.600  14.442 -0.6191 -0.6877  0.4746
  890MPD2     H13048   2.168   0.116  14.556 -0.2444 -1.2956 -0.7488
  890MPD2    H113049   1.964   4.487  14.613 -2.9805 -0.2370 -0.5242
  890MPD2    H213050   1.841   0.017  14.300 -1.3279  0.1407 -0.1193
  890MPD2    H313051   1.816   4.529  14.414  0.8439 -2.2694  0.5025
  890MPD2     N13052   2.158   4.630  14.706  0.8492  0.3870 -0.0451
  890MPD2    H513053   2.214   4.712  14.728 -0.2998  1.3034 -0.4974
  890MPD2    N113054   2.039   0.195  14.331  0.1142  0.8623 -0.6634
  890MPD2    H713055   1.987   0.197  14.244 -1.7962 -0.7250  0.4399
  891MPD2     C13056   0.249   2.509  16.498 -0.5334 -0.3704 -0.3176
  891MPD2    C113057   0.195   2.631  16.524 -0.2364 -0.1110 -0.3455
  891MPD2    C213058   0.249   2.714  16.621  0.1991 -0.3720 -0.8889
  891MPD2    C313059   0.366   2.681  16.687 -0.2163  0.7262 -0.2823
  891MPD2    C413060   0.431   2.564  16.646 -0.3804 -0.3281  1.2044
  891MPD2    C513061   0.368   2.479  16.559  0.6830 -0.5089 -0.1467
  891MPD2     H13062   0.202   2.808  16.648  0.8377 -0.3288  0.0537
  891MPD2    H113063   0.525   2.523  16.680 -0.3610 -1.3689 -0.0938
  891MPD2    H213064   0.213   2.442  16.421 -1.4090 -1.3383  0.9228
  891MPD2    H313065   0.416   2.383  16.541 -1.1479 -1.2887 -0.9040
  891MPD2     N13066   0.420   2.764  16.789  0.1051  0.1333  0.1689
  891MPD2    H513067   0.367   2.840  16.831 -0.6140  0.9705 -2.3033
  891MPD2    N113068   0.072   2.658  16.459  0.8539  0.1341 -0.4634
  891MPD2    H713069   0.043   2.586  16.393  1.6770  1.5297 -2.3545
  892MPD2     C13070   1.308   4.303  14.499 -0.9742 -0.5627 -0.4605
  892MPD2    C113071   1.241   4.190  14.548 -0.3673  0.1473 -0.2000
  892MPD2    C213072   1.293   4.067  14.530  0.5156 -0.8411 -0.0642
  892MPD2    C313073   1.423   4.057  14.475 -0.6931 -0.2947 -0.4937
  892MPD2    C413074   1.500   4.169  14.458 -0.3498  0.5809 -0.1913
  892MPD2    C513075   1.432   4.288  14.460 -0.0620  0.6356 -0.9586
  892MPD2     H13076   1.245   3.973  14.557 -2.0879  0.9333  1.4396
  892MPD2    H113077   1.606   4.174  14.433 -0.1893  2.0595  0.7329
  892MPD2    H213078   1.275   4.406  14.513 -1.9637 -0.6785 -1.9407
  892MPD2    H313079   1.491   4.373  14.427  1.6162 -0.0166  0.3919
  892MPD2     N13080   1.487   3.935  14.433  0.2856 -0.0536 -0.2963
  892MPD2    H513081   1.583   3.941  14.399 -0.1251  0.3083 -1.3746
  892MPD2    N113082   1.119   4.210  14.603  0.0955  1.0508  0.6599
  892MPD2    H713083   1.075   4.301  14.593 -1.0970  0.3815 -0.3075
  893MPD2     C13084   3.595   1.067   2.520  0.0043 -0.5965  0.3401
  893MPD2    C113085   3.513   1.100   2.414 -0.1108 -0.5573 -0.0729
  893MPD2    C213086   3.436   1.000   2.354 -0.3324 -0.7335  0.5692
  893MPD2    C313087   3.436   0.874   2.407 -0.1970  0.6822 -1.0490
  893MPD2    C413088   3.514   0.844   2.512 -0.2201  0.4411  0.5181
  893MPD2    C513089   3.595   0.939   2.565  0.2009  0.0851  0.5849
  893MPD2     H13090   3.369   1.018   2.271  1.7546 -1.8303 -1.3529
  893MPD2    H113091   3.512   0.749   2.565  1.5994 -0.6011 -1.2949
  893MPD2    H213092   3.661   1.140   2.565  0.0039  0.6388 -1.6605
  893MPD2    H313093   3.655   0.910   2.651 -2.7781 -1.1571  2.2433
  893MPD2     N13094   3.363   0.760   2.359  0.3951  0.0442 -0.2681
  893MPD2    H513095   3.390   0.666   2.388  0.8023 -0.1903 -1.3913
  893MPD2    N113096   3.533   1.232   2.357  0.3577  0.3418 -0.3334
  893MPD2    H713097   3.610   1.288   2.390  0.1342 -0.6237  1.8228
  894MPD2     C13098   1.199   4.612   0.390 -0.1446  0.1462 -0.5195
  894MPD2    C113099   1.240   4.636   0.518 -0.0313  0.3978  0.2115
  894MPD2    C213100   1.239   0.041   0.571  0.7956 -0.1593 -1.3200
  894MPD2    C313101   1.188   0.151   0.503 -0.5247 -0.4587  0.0067
  894MPD2    C413102   1.151   0.129   0.367 -0.0190 -0.0377 -0.3785
  894MPD2    C513103   1.154   0.000   0.316 -0.7648 -0.4441  0.1986
  894MPD2     H13104   1.267   0.048   0.676  3.2070  0.4439 -1.9993
  894MPD2    H113105   1.121   0.205   0.295 -1.1965  0.7302  0.9239
  894MPD2    H213106   1.191   4.515   0.343 -0.0164 -0.6140  1.0365
  894MPD2    H313107   1.126   4.707   0.212  0.6511  2.0104 -0.4784
  894MPD2     N13108   1.173   0.269   0.565 -0.2273  0.4161  0.5860
  894MPD2    H513109   1.217   0.280   0.655  0.7932  4.3348 -0.3947
  894MPD2    N113110   1.276   4.530   0.604 -0.4301  0.0112 -0.1433
  894MPD2    H713111   1.310   4.546   0.698 -0.5576  0.6099 -0.2031
  895MPD2     C13112   0.276   3.327  13.401 -0.1625 -0.3287  0.0984
  895MPD2    C113113   0.217   3.239  13.311  0.5064 -0.2661  0.2418
  895MPD2    C213114   0.283   3.131  13.266  0.4609 -0.6054 -0.0363
  895MPD2    C313115   0.414   3.109  13.308 -0.4937  0.0825 -0.5942
  895MPD2    C413116   0.473   3.196  13.398 -0.1615  0.9159  0.5487
  895MPD2    C513117   0.404   3.301  13.443 -0.1102  0.4395 -0.1212
  895MPD2     H13118   0.239   3.060  13.197 -0.7077  0.9151 -0.8679
  895MPD2    H113119   0.574   3.184  13.433 -0.9769 -2.0883  1.8811
  895MPD2    H213120   0.231   3.420  13.434  0.2576 -0.3667  0.7722
  895MPD2    H313121   0.448   3.372  13.513 -1.5480  1.6742 -0.4957
  895MPD2     N13122   0.473   2.997  13.252 -0.1172  0.5948  0.0273
  895MPD2    H513123   0.422   2.945  13.182  0.4048  0.4162 -0.2244
  895MPD2    N113124   0.086   3.256  13.266 -0.3068  0.0941  0.2602
  895MPD2    H713125   0.036   3.184  13.214 -1.0810  0.9935 -0.2329
  896MPD2     C13126   2.958   1.499   0.863 -0.4820  0.7439  1.5308
  896MPD2    C113127   2.974   1.363   0.855  0.3602  0.7213  0.7997
  896MPD2    C213128   2.865   1.283   0.880  0.5591 -0.2325  0.3717
  896MPD2    C313129   2.742   1.335   0.926  0.0659  0.1805  0.2935
  896MPD2    C413130   2.732   1.470   0.933 -0.3763 -0.7906  0.0635
  896MPD2    C513131   2.840   1.548   0.905  0.9457 -0.1058 -0.4082
  896MPD2     H13132   2.865   1.175   0.884 -0.2815 -0.2781 -0.8795
  896MPD2    H113133   2.636   1.515   0.953  0.5226  0.9297  0.5730
  896MPD2    H213134   3.040   1.565   0.836  0.2298 -0.7373  0.0777
  896MPD2    H313135   2.848   1.655   0.916 -0.6369  0.0117 -0.4211
  896MPD2     N13136   2.635   1.245   0.940 -0.3116  0.2682 -0.1495
  896MPD2    H513137   2.655   1.147   0.922  2.1720  0.8648 -0.5905
  896MPD2    N113138   3.095   1.300   0.810 -0.5317  0.6199 -0.0384
  896MPD2    H713139   3.165   1.362   0.770  0.8624 -1.5042 -0.8549
  897MPD2     C13140   3.102   2.237  10.680 -0.6836 -0.1315 -0.4153
  897MPD2    C113141   3.105   2.369  10.641 -0.4033 -0.3284  0.2697
  897MPD2    C213142   3.023   2.457  10.703  0.6142 -0.4201 -0.5093
  897MPD2    C313143   2.952   2.423  10.816 -0.4271 -0.4442 -0.6516
  897MPD2    C413144   2.957   2.296  10.864 -0.7149 -0.1504  0.4155
  897MPD2    C513145   3.028   2.203  10.790 -0.0883 -0.8753  0.5060
  897MPD2     H13146   3.021   2.562  10.676  1.6826 -1.0165 -2.8533
  897MPD2    H113147   2.904   2.267  10.954  2.4789 -1.4624  1.8774
  897MPD2    H213148   3.167   2.159  10.640 -1.4362  0.3637 -2.5856
  897MPD2    H313149   3.023   2.102  10.829 -2.9863 -0.1943  1.9043
  897MPD2     N13150   2.875   2.517  10.880  0.1609  0.2963  0.4455
  897MPD2    H513151   2.834   2.492  10.969 -0.1682 -1.3020 -0.1604
  897MPD2    N113152   3.186   2.422  10.546 -0.2611 -0.3777 -0.0446
  897MPD2    H713153   3.185   2.523  10.539  0.4178 -0.4180 -0.6738
  898MPD2     C13154   0.985   2.806  17.352 -0.5684  0.5558 -0.0869
  898MPD2    C113155   1.097   2.889  17.346 -0.1707  0.0643 -0.6409
  898MPD2    C213156   1.084   3.012  17.392 -0.5029  0.1069  0.4175
  898MPD2    C313157   0.972   3.057  17.456 -0.0037 -0.0537  0.0146
  898MPD2    C413158   0.860   2.979  17.457  0.2501  0.0902 -0.2775
  898MPD2    C513159   0.869   2.851  17.407  0.2861 -0.0570 -0.1678
  898MPD2     H13160   1.168   3.080  17.381 -0.8701  0.1269 -2.1934
  898MPD2    H113161   0.766   3.008  17.502 -0.0288 -0.6520 -0.3863
  898MPD2    H213162   0.989   2.704  17.317 -1.4667 -0.0821  1.6818
  898MPD2    H313163   0.780   2.791  17.405  0.4089 -0.2494  0.2329
  898MPD2     N13164   0.977   3.188  17.509  0.2934 -0.4031 -0.1267
  898MPD2    H513165   1.067   3.236  17.511 -1.1040  2.1815  0.5698
  898MPD2    N113166   1.221   2.858  17.287 -0.1101 -0.0288 -0.3942
  898MPD2    H713167   1.282   2.938  17.297 -0.2098  0.0152 -0.1502
  899MPD2     C13168   2.108   3.975  17.390 -0.4474 -0.0322 -0.5849
  899MPD2    C113169   1.986   4.040  17.377 -0.0434  0.0259 -0.6759
  899MPD2    C213170   1.891   4.021  17.487 -0.1520 -0.0258 -0.2169
  899MPD2    C313171   1.920   3.964  17.606  0.2588  0.6058  0.3230
  899MPD2    C413172   2.045   3.901  17.613  0.3805  0.3740  0.3037
  899MPD2    C513173   2.137   3.913  17.510 -0.2698  0.2931 -0.1152
  899MPD2     H13174   1.790   4.053  17.465  0.1426  0.9273 -0.2118
  899MPD2    H113175   2.080   3.841   0.016 -0.1801  1.3953  1.2839
  899MPD2    H213176   2.179   3.980  17.308  1.6765 -1.4557  1.1651
  899MPD2    H313177   2.234   3.866  17.522 -0.1131  0.5876 -0.2167
  899MPD2     N13178   1.828   3.945   0.028 -0.3838 -0.1510  0.2298
  899MPD2    H513179   1.861   3.882   0.101  1.4813 -0.8053 -1.1579
  899MPD2    N113180   1.947   4.105  17.256  0.3120 -0.0770  0.1145
  899MPD2    H713181   2.017   4.098  17.184 -0.3638  0.7049 -0.6204
  900MPD2     C13182   1.153   1.202  12.038  0.7676 -0.1109  0.4922
  900MPD2    C113183   1.088   1.084  12.040  0.4758 -0.3761  0.0165
  900MPD2    C213184   0.967   1.083  11.976  0.0517 -0.8765 -0.6744
  900MPD2    C313185   0.906   1.199  11.928 -0.0868  0.0446  0.0638
  900MPD2    C413186   0.974   1.317  11.928  0.4811  0.7975  0.4805
  900MPD2    C513187   1.104   1.315  11.977 -0.2144 -0.0872 -0.2350
  900MPD2     H13188   0.900   0.998  11.971  1.4650 -2.0784  1.1196
  900MPD2    H113189   0.929   1.409  11.892  1.5428  1.2846  0.3796
  900MPD2    H213190   1.250   1.208  12.086  1.0354  0.0007 -0.0628
  900MPD2    H313191   1.170   1.401  11.978  0.1178 -0.3347 -0.6481
  900MPD2     N13192   0.776   1.183  11.877  0.1740  0.3999  0.0118
  900MPD2    H513193   0.726   1.095  11.882  0.8627  0.0875  1.2726
  900MPD2    N113194   1.129   0.969  12.110  0.0004 -0.2367 -0.1561
  900MPD2    H713195   1.072   0.886  12.098 -0.2407 -0.1148  0.1472
  901MPD2     C13196   0.907   0.070  12.533  0.4400 -0.0584 -0.3364
  901MPD2    C113197   1.043   0.052  12.508  0.1553  0.1278  0.3297
  901MPD2    C213198   1.111   0.159  12.454 -0.1960  0.3939  0.6764
  901MPD2    C313199   1.053   0.283  12.428 -0.7591  0.2479  0.3256
  901MPD2    C413200   0.921   0.302  12.466  0.1106 -0.1191 -0.6293
  901MPD2    C513201   0.854   0.193  12.517  0.5483  0.8180  0.4366
  901MPD2     H13202   1.212   0.140  12.419 -0.1646  0.3153  0.8111
  901MPD2    H113203   0.870   0.397  12.457  0.5665  0.1356 -0.5124
  901MPD2    H213204   0.837   4.712  12.562  1.2246 -0.5114  0.3710
  901MPD2    H313205   0.755   0.206  12.560 -0.7905 -1.5956 -1.8914
  901MPD2     N13206   1.125   0.390  12.365 -0.0654  0.3275  0.2256
  901MPD2    H513207   1.213   0.351  12.333  0.7366  3.1712 -0.9516
  901MPD2    N113208   1.103   4.645  12.525  0.7705  0.0578  0.4373
  901MPD2    H713209   1.028   4.580  12.544  2.8607 -2.3044  0.5824
  902MPD2     C13210   4.425   3.742  12.530  0.7531  0.0445  0.7753
  902MPD2    C113211   4.557   3.739  12.565  0.7112 -0.2839 -0.2475
  902MPD2    C213212   4.621   3.620  12.536 -0.2407 -0.3411 -0.6132
  902MPD2    C313213   4.556   3.510  12.486  0.5052  0.7064  0.1505
  902MPD2    C413214   4.428   3.519  12.452  0.2530  0.0824 -1.1605
  902MPD2    C513215   4.361   3.632  12.489 -0.1600  0.0051  0.0866
  902MPD2     H13216   0.004   3.598  12.566 -0.3727 -2.1372 -1.4260
  902MPD2    H113217   4.376   3.438  12.403 -1.0786 -0.1480  0.6318
  902MPD2    H213218   4.368   3.829  12.561 -0.3140 -0.6770  0.8506
  902MPD2    H313219   4.257   3.618  12.461 -0.1112  2.9814 -1.5986
  902MPD2     N13220   4.610   3.382  12.465 -0.8815  0.9026  0.5536
  902MPD2    H513221   4.548   3.313  12.424  0.2820  0.7003 -0.8704
  902MPD2    N113222   4.606   3.853  12.637 -0.3112  0.5860  0.0800
  902MPD2    H713223   4.537   3.925  12.658  1.6297  2.4307  0.1853
  903MPD2     C13224   0.038   2.989  11.822  0.0764  0.0017 -0.2471
  903MPD2    C113225   4.667   3.005  11.925 -0.1889 -0.5697 -0.3250
  903MPD2    C213226   4.535   3.035  11.891  0.3548 -0.2416 -0.3861
  903MPD2    C313227   4.494   3.039  11.757 -0.2218 -0.5928 -0.1387
  903MPD2    C413228   4.592   3.028  11.661  0.6826  0.8872 -0.8757
  903MPD2    C513229   0.004   3.009  11.689  0.0800  0.0661 -0.1278
  903MPD2     H13230   4.462   3.052  11.969  1.5093  1.8966  0.2193
  903MPD2    H113231   4.571   3.017  11.556 -1.4412 -0.7897 -0.2809
  903MPD2    H213232   0.144   2.971  11.839  0.1771  0.9250  0.1277
  903MPD2    H313233   0.083   3.010  11.614 -1.7259  2.7988 -1.9844
  903MPD2     N13234   4.368   3.069  11.727 -0.5630 -0.4461 -0.5916
  903MPD2    H513235   4.309   3.096  11.805  2.8180 -3.4400  2.9572
  903MPD2    N113236   4.711   3.000  12.060  0.2531 -0.1972  0.3194
  903MPD2    H713237   0.091   3.007  12.075  0.0800  2.1020  0.4125
  904MPD2     C13238   0.231   2.723  13.553 -0.2152  0.2662  0.2166
  904MPD2    C113239   0.224   2.617  13.637  1.2620 -0.2290  0.2309
  904MPD2    C213240   0.339   2.579  13.716 -0.1572 -0.2595  0.2047
  904MPD2    C313241   0.455   2.659  13.709 -0.3240 -0.1593  0.3889
  904MPD2    C413242   0.453   2.765  13.630 -0.3471 -0.2491  0.2750
  904MPD2    C513243   0.352   2.796  13.547  0.2313 -0.1922 -0.0400
  904MPD2     H13244   0.327   2.502  13.792  0.1134  1.1781  1.7143
  904MPD2    H113245   0.534   2.836  13.614  0.3223 -0.6994  1.7266
  904MPD2    H213246   0.161   2.745  13.474 -0.9667 -1.3032  0.4498
  904MPD2    H313247   0.363   2.879  13.477 -1.4467  0.3300  0.3190
  904MPD2     N13248   0.563   2.619  13.795 -0.3805  0.0413 -0.0513
  904MPD2    H513249   0.541   2.546  13.862  0.1803  0.1619  0.2680
  904MPD2    N113250   0.100   2.546  13.655 -0.1958 -0.5508 -0.3927
  904MPD2    H713251   0.103   2.459  13.707 -0.3152 -0.4655 -0.2417
  905MPD2     C13252   4.561   2.652  13.035  0.3363  0.1818 -0.6722
  905MPD2    C113253   4.638   2.742  13.105  0.2209 -0.0218 -0.3807
  905MPD2    C213254   0.050   2.759  13.084 -0.1616  0.0414  0.3073
  905MPD2    C313255   0.115   2.671  13.000 -0.5354  0.4459 -0.0034
  905MPD2    C413256   0.044   2.576  12.933  0.0429 -0.2189 -0.7355
  905MPD2    C513257   4.632   2.573  12.946 -0.3143  0.4676  0.2097
  905MPD2     H13258   0.107   2.841  13.129  2.2345 -1.6856  0.4302
  905MPD2    H113259   0.096   2.520  12.856 -2.2831 -0.0998 -2.4258
  905MPD2    H213260   4.455   2.635  13.051  0.8995 -0.9740  1.9060
  905MPD2    H313261   4.576   2.493  12.900  0.0697 -0.9386  2.1981
  905MPD2     N13262   0.251   2.661  12.984  0.0900 -0.2402 -0.3027
  905MPD2    H513263   0.286   2.571  12.953 -0.3269  0.2784 -2.2800
  905MPD2    N113264   4.569   2.808  13.208  0.2040  0.5372  0.0571
  905MPD2    H713265   4.475   2.777  13.231 -0.0554  0.9338 -0.4687
  906MPD2     C13266   1.931   2.802  11.568  0.8210  0.2960  0.1574
  906MPD2    C113267   1.935   2.727  11.455 -0.2095 -0.0274 -0.0532
  906MPD2    C213268   1.893   2.590  11.464  0.8666  0.2162  0.4144
  906MPD2    C313269   1.879   2.533  11.586  0.0584  0.0847 -0.6152
  906MPD2    C413270   1.875   2.611  11.699 -0.3401  0.3515 -0.6231
  906MPD2    C513271   1.905   2.743  11.686  0.4268 -0.0979 -0.3369
  906MPD2     H13272   1.895   2.528  11.375 -0.1856  2.6613 -1.3012
  906MPD2    H113273   1.876   2.563  11.797 -0.3231  2.8048  0.5875
  906MPD2    H213274   1.949   2.908  11.568  4.0190 -0.2426 -0.1658
  906MPD2    H313275   1.906   2.815  11.768  0.5089 -0.5459  0.0576
  906MPD2     N13276   1.860   2.390  11.596  0.2253 -0.3035  0.0244
  906MPD2    H513277   1.824   2.360  11.686  1.7347 -1.3723  0.2580
  906MPD2    N113278   1.963   2.785  11.330  0.2551  0.2084 -0.4840
  906MPD2    H713279   1.976   2.717  11.255 -0.6153  0.6278 -1.0004
  907MPD2     C13280   0.941   2.024  15.346  0.2518  0.3347 -0.2617
  907MPD2    C113281   1.010   1.910  15.308 -0.4144 -0.0362 -0.4875
  907MPD2    C213282   1.114   1.868  15.385 -0.5476  0.5198  0.2316
  907MPD2    C313283   1.155   1.933  15.508  0.2976  0.9181  0.0086
  907MPD2    C413284   1.076   2.038  15.547  0.4149 -0.5405  0.3162
  907MPD2    C513285   0.967   2.080  15.462  0.2775  0.3599  0.0948
  907MPD2     H13286   1.173   1.782  15.357  0.3287  1.5182 -0.9925
  907MPD2    H113287   1.101   2.087  15.641  0.5008  1.2772 -0.6510
  907MPD2    H213288   0.866   2.082  15.293  0.0848  1.1166  0.8190
  907MPD2    H313289   0.918   2.173  15.488  0.4294 -0.1283  2.1395
  907MPD2     N13290   1.273   1.884  15.573  1.0988  0.5285 -0.3471
  907MPD2    H513291   1.330   1.818  15.521  1.0284 -1.2109  1.7408
  907MPD2    N113292   0.987   1.835  15.194  0.0718  0.2431 -0.0637
  907MPD2    H713293   1.048   1.756  15.175 -0.4610 -0.1528 -0.1437
  908MPD2     C13294   3.494   2.200   9.690 -0.6324 -0.3621  0.4712
  908MPD2    C113295   3.462   2.123   9.795 -0.1706  0.1651  0.6291
  908MPD2    C213296   3.444   2.185   9.917  0.6843 -0.1260  0.0052
  908MPD2    C313297   3.453   2.319   9.932  0.1179 -0.1073  0.5254
  908MPD2    C413298   3.498   2.396   9.828 -0.1388  0.4025  0.3405
  908MPD2    C513299   3.511   2.336   9.705 -0.3681  0.5419 -0.0368
  908MPD2     H13300   3.420   2.134  10.010 -0.0560  0.4514  0.1316
  908MPD2    H113301   3.508   2.504   9.830 -1.5893  0.5740 -2.1241
  908MPD2    H213302   3.504   2.167   9.587 -0.5537  0.6004  0.1736
  908MPD2    H313303   3.543   2.400   9.624 -1.7727  0.4077 -0.6811
  908MPD2     N13304   3.428   2.370  10.057  0.0181  0.2036 -0.0344
  908MPD2    H513305   3.414   2.300  10.130 -1.8244  1.4977  0.8476
  908MPD2    N113306   3.462   1.984   9.792  0.3705  0.0384 -0.2696
  908MPD2    H713307   3.445   1.926   9.873  1.2822 -0.2708 -0.3020
  909MPD2     C13308   3.435   0.431  11.215 -0.2467  0.1780 -0.3885
  909MPD2    C113309   3.501   0.548  11.259 -0.9789 -0.9039 -0.6286
  909MPD2    C213310   3.458   0.611  11.367  0.3377 -0.3857  0.0203
  909MPD2    C313311   3.348   0.568  11.439  0.2741 -0.4430  0.4097
  909MPD2    C413312   3.277   0.463  11.390  0.4185  0.1786  0.2914
  909MPD2    C513313   3.323   0.390  11.287 -0.3975  0.3735  0.2516
  909MPD2     H13314   3.519   0.689  11.411 -0.6886  0.1128  0.5554
  909MPD2    H113315   3.180   0.437  11.432  0.4413  2.5559  1.8213
  909MPD2    H213316   3.457   0.372  11.127  0.6916  1.8158 -1.2627
  909MPD2    H313317   3.266   0.301  11.263  0.8895  0.2925 -2.5338
  909MPD2     N13318   3.314   0.637  11.555  0.0152 -0.2369  0.4516
  909MPD2    H513319   3.374   0.714  11.580  3.4146 -2.2795 -1.5188
  909MPD2    N113320   3.611   0.604  11.194  0.2496  0.3701  0.4369
  909MPD2    H713321   3.657   0.689  11.227  0.8965  0.3942 -0.5044
  910MPD2     C13322   0.657   2.203  15.914 -0.0393 -0.1718 -0.1391
  910MPD2    C113323   0.721   2.143  15.807 -0.2589 -0.0645 -0.4135
  910MPD2    C213324   0.686   2.181  15.678  0.3053 -0.0628 -0.1245
  910MPD2    C313325   0.589   2.276  15.650  0.1747 -0.0999  0.4097
  910MPD2    C413326   0.537   2.340  15.762 -0.3006 -0.1197 -1.0055
  910MPD2    C513327   0.563   2.304  15.893 -0.2864 -0.0894 -0.6467
  910MPD2     H13328   0.715   2.112  15.600 -0.5679 -1.2781  0.6245
  910MPD2    H113329   0.459   2.414  15.755  0.5500  0.7994 -0.6871
  910MPD2    H213330   0.672   2.176  16.018  0.5037 -1.7794 -0.6419
  910MPD2    H313331   0.509   2.342  15.979 -0.0452 -1.0651 -0.0753
  910MPD2     N13332   0.531   2.314  15.528 -0.6591  0.4933  0.9824
  910MPD2    H513333   0.459   2.385  15.532 -2.9653 -1.7074 -1.9676
  910MPD2    N113334   0.820   2.047  15.823 -0.4324  0.1535 -0.6067
  910MPD2    H713335   0.847   1.988  15.745  3.2494 -1.4153  1.8817
  911MPD2     C13336   3.665   2.921  15.883 -0.3998 -0.4526  0.1438
  911MPD2    C113337   3.618   3.016  15.973  0.0091 -0.3264 -0.5496
  911MPD2    C213338   3.564   3.133  15.921  0.0472  0.1137 -0.4205
  911MPD2    C313339   3.546   3.157  15.783  0.1603 -0.2368  0.1043
  911MPD2    C413340   3.594   3.059  15.700  0.5684 -0.9676 -0.2256
  911MPD2    C513341   3.652   2.945  15.746  0.0714 -0.2475 -0.1108
  911MPD2     H13342   3.532   3.211  15.990  0.1354  0.4485 -0.7583
  911MPD2    H113343   3.582   3.071  15.592  3.5770  2.5931 -0.1601
  911MPD2    H213344   3.711   2.825  15.905  1.2141  0.3642  0.3319
  911MPD2    H313345   3.674   2.864  15.676  0.7657  0.7434 -1.0358
  911MPD2     N13346   3.463   3.263  15.733  0.7161 -0.0105 -0.0716
  911MPD2    H513347   3.464   3.279  15.633 -2.4320 -2.2726 -0.4814
  911MPD2    N113348   3.622   2.982  16.107  0.3583  0.0661 -0.2818
  911MPD2    H713349   3.641   2.883  16.120  1.6799  0.5976  1.9099
  912MPD2     C13350   2.801   3.168  15.439 -0.1301  0.4569  0.3392
  912MPD2    C113351   2.874   3.180  15.555 -0.5204 -0.5962 -0.6080
  912MPD2    C213352   2.902   3.072  15.635  0.9304 -0.4488  0.4041
  912MPD2    C313353   2.859   2.952  15.594  0.3261  0.6297 -0.6654
  912MPD2    C413354   2.796   2.936  15.473 -0.1379  0.6980 -0.3076
  912MPD2    C513355   2.765   3.041  15.396  0.1286 -0.1810 -0.1910
  912MPD2     H13356   2.965   3.070  15.723  0.9016 -1.4088  0.3931
  912MPD2    H113357   2.757   2.845  15.429 -0.4424  0.3451  0.7139
  912MPD2    H213358   2.782   3.259  15.382 -0.0523  0.4604  0.3192
  912MPD2    H313359   2.693   3.022  15.316 -0.9709  0.2171  0.7000
  912MPD2     N13360   2.901   2.840  15.674  0.2211  0.1888 -0.0232
  912MPD2    H513361   2.954   2.863  15.758 -3.4500 -0.2172  2.3875
  912MPD2    N113362   2.931   3.304  15.575  0.3783  0.9904  0.2606
  912MPD2    H713363   2.925   3.372  15.500 -0.7660  0.7590  0.1457
  913MPD2     C13364   3.359   3.939  10.122 -0.1228 -0.3151 -0.1286
  913MPD2    C113365   3.445   4.012  10.199  0.5411 -0.0637  0.5312
  913MPD2    C213366   3.463   4.140  10.165 -0.0330 -0.4386  1.1337
  913MPD2    C313367   3.398   4.204  10.059 -0.7655 -0.9598 -0.9067
  913MPD2    C413368   3.306   4.130   9.991 -0.2716  0.2970  0.3763
  913MPD2    C513369   3.291   3.996  10.019 -0.3179 -0.8156  0.0431
  913MPD2     H13370   3.520   4.209  10.226  1.1685 -1.3554  1.0383
  913MPD2    H113371   3.238   4.170   9.917  1.0787  1.0445 -0.4632
  913MPD2    H213372   3.355   3.832  10.141  1.3970 -0.0242  1.9360
  913MPD2    H313373   3.231   3.933   9.954  0.9266  1.2573 -3.1384
  913MPD2     N13374   3.399   4.342  10.022 -0.2534  0.0505  0.8137
  913MPD2    H513375   3.341   4.366   9.942  1.3996 -1.4178 -0.8179
  913MPD2    N113376   3.516   3.940  10.303  0.7338  0.8149  0.3549
  913MPD2    H713377   3.497   3.841  10.314  0.3228  1.0464  1.7221
  914MPD2     C13378   0.818   4.088  11.956  0.0071 -0.1617  0.7787
  914MPD2    C113379   0.857   4.216  11.959 -0.2817  0.9750 -0.4006
  914MPD2    C213380   0.916   4.268  12.074  0.7383 -0.6637 -0.1592
  914MPD2    C313381   0.952   4.179  12.177  0.8965  0.5824 -0.0681
  914MPD2    C413382   0.926   4.042  12.166 -0.3319 -0.2709 -0.2553
  914MPD2    C513383   0.849   4.004  12.058  0.0124 -0.2864  0.2009
  914MPD2     H13384   0.945   4.372  12.079  1.9247 -1.0153  0.2053
  914MPD2    H113385   0.964   3.962  12.228 -0.6719 -0.5575 -0.4135
  914MPD2    H213386   0.762   4.045  11.874  0.5955 -1.1302  0.8834
  914MPD2    H313387   0.818   3.900  12.059  1.0936 -0.6132  0.2551
  914MPD2     N13388   1.029   4.232  12.286 -0.1322 -0.1903  0.6642
  914MPD2    H513389   1.042   4.332  12.281 -1.5378  0.1692  4.4470
  914MPD2    N113390   0.831   4.293  11.850 -0.3226  0.7050 -0.1833
  914MPD2    H713391   0.794   4.238  11.773 -1.1773  2.8287 -1.2916
  915MPD2     C13392   0.129   4.107  15.491 -0.2019  0.0447  0.4205
  915MPD2    C113393   0.057   4.216  15.450  0.6585  0.1164 -0.7155
  915MPD2    C213394   0.003   4.302  15.549 -0.2996  0.3837 -0.2096
  915MPD2    C313395   0.028   4.281  15.689  0.4914 -0.0065  0.4089
  915MPD2    C413396   0.106   4.169  15.719  0.8641 -0.1618 -0.0263
  915MPD2    C513397   0.151   4.083  15.622 -0.6345 -0.5287 -0.4472
  915MPD2     H13398   4.666   4.391  15.525  1.8602  1.6504 -0.6241
  915MPD2    H113399   0.130   4.131  15.818 -0.8898 -1.2343 -0.0116
  915MPD2    H213400   0.161   4.032  15.420  0.2161  0.0793  0.5716
  915MPD2    H313401   0.222   4.007  15.652  0.8965  1.7594  1.6732
  915MPD2     N13402   4.685   4.366  15.786 -0.6101 -0.3309  0.6581
  915MPD2    H513403   4.616   4.433  15.756  1.0766  1.3553  0.5013
  915MPD2    N113404   0.027   4.230  15.312 -0.2621 -0.1488  0.2341
  915MPD2    H713405   0.059   4.156  15.250 -1.0675 -0.7059  0.4746
  916MPD2     C13406   2.453   2.869  15.426 -0.1297  0.0854  0.2733
  916MPD2    C113407   2.478   2.785  15.534 -0.7019 -0.3735  0.2379
  916MPD2    C213408   2.478   2.646  15.504  0.9090 -0.3441 -0.0443
  916MPD2    C313409   2.451   2.595  15.378  0.0920  0.0904  0.2337
  916MPD2    C413410   2.427   2.688  15.277 -0.0541 -0.4803 -1.4667
  916MPD2    C513411   2.425   2.825  15.300 -0.4205 -0.2142  0.0951
  916MPD2     H13412   2.497   2.577  15.586 -1.3913  0.9845  1.6217
  916MPD2    H113413   2.403   2.654  15.177  1.4376 -0.0200 -1.9811
  916MPD2    H213414   2.433   2.973  15.448 -1.1333 -0.5830  2.5549
  916MPD2    H313415   2.400   2.897  15.223  0.4980 -0.9412 -0.8859
  916MPD2     N13416   2.445   2.462  15.344  0.7322 -0.4360 -0.0329
  916MPD2    H513417   2.418   2.452  15.246  1.0692  0.1294 -0.1880
  916MPD2    N113418   2.482   2.836  15.669  0.5377 -0.4399  0.0402
  916MPD2    H713419   2.510   2.933  15.680 -2.8152  0.8978 -3.0404
  917MPD2     C13420   2.721   0.266  11.144 -0.4692 -0.0224 -0.1731
  917MPD2    C113421   2.698   0.342  11.250  0.3261  0.0946  0.0753
  917MPD2    C213422   2.706   0.476  11.230 -0.3685 -1.1182 -0.7703
  917MPD2    C313423   2.737   0.528  11.110 -0.0389 -0.2170  0.5319
  917MPD2    C413424   2.761   0.445  11.004  1.0550 -0.5727  0.9461
  917MPD2    C513425   2.760   0.315  11.024  0.1783  0.6580  0.5200
  917MPD2     H13426   2.687   0.543  11.313 -1.7059 -0.5653 -1.5181
  917MPD2    H113427   2.774   0.481  10.903 -2.0430  1.0913  1.1430
  917MPD2    H213428   2.711   0.158  11.154 -1.4917  0.0165 -0.7467
  917MPD2    H313429   2.759   0.249  10.939  1.6213 -0.3215  1.2712
  917MPD2     N13430   2.730   0.666  11.080 -0.1520 -0.4025 -0.5463
  917MPD2    H513431   2.723   0.697  10.984  0.5836  0.8417 -0.1993
  917MPD2    N113432   2.649   0.279  11.366  0.2541 -0.0159  0.6977
  917MPD2    H713433   2.615   0.183  11.358 -0.8880  0.6052 -1.8335
  918MPD2     C13434   2.721   0.467  12.380  0.0471  0.0800 -0.3470
  918MPD2    C113435   2.787   0.513  12.269  0.2815 -0.4326 -0.5045
  918MPD2    C213436   2.753   0.480  12.138  0.0197  1.0122 -0.6111
  918MPD2    C313437   2.650   0.394  12.118 -0.3388 -0.0013 -0.7040
  918MPD2    C413438   2.589   0.337  12.226 -0.0144  0.6857  0.2860
  918MPD2    C513439   2.620   0.373  12.358 -0.6937 -0.3902  0.2215
  918MPD2     H13440   2.795   0.528  12.050 -0.9662  2.0130 -0.5407
  918MPD2    H113441   2.497   0.283  12.209  1.0535 -0.6011 -1.3540
  918MPD2    H213442   2.740   0.496  12.482  2.3557 -1.2059 -0.4239
  918MPD2    H313443   2.570   0.328  12.443 -0.8165 -2.1645 -0.7965
  918MPD2     N13444   2.606   0.364  11.982 -0.0038 -0.4600  0.4381
  918MPD2    H513445   2.653   0.419  11.911 -0.6063  2.2527  2.1489
  918MPD2    N113446   2.904   0.593  12.274  0.0706 -0.6449  0.4122
  918MPD2    H713447   2.949   0.620  12.188 -0.7202 -1.5825 -0.2918
  919MPD2     C13448   3.536   3.860  11.909  0.1882 -0.2805 -0.1263
  919MPD2    C113449   3.453   3.753  11.882 -0.1253 -0.1475 -0.2057
  919MPD2    C213450   3.480   3.689  11.761  0.0519 -0.2420  0.1200
  919MPD2    C313451   3.562   3.741  11.666 -0.8455 -0.2496  0.0008
  919MPD2    C413452   3.640   3.846  11.701  0.2583  0.2152 -0.1411
  919MPD2    C513453   3.632   3.898  11.826 -0.4405  0.1640  0.0472
  919MPD2     H13454   3.413   3.610  11.731  0.3585  0.0716 -1.3514
  919MPD2    H113455   3.717   3.885  11.635 -0.6240  0.2078 -1.1800
  919MPD2    H213456   3.530   3.915  12.002  1.7087  1.4736 -1.0699
  919MPD2    H313457   3.690   3.987  11.846 -0.9748  0.5649 -0.1993
  919MPD2     N13458   3.567   3.696  11.530 -0.5976  0.1834  0.1196
  919MPD2    H513459   3.619   3.752  11.463 -0.4456 -0.1840 -0.0668
  919MPD2    N113460   3.337   3.716  11.957  0.4030  0.3938  0.2756
  919MPD2    H713461   3.280   3.642  11.919 -0.4465  1.8329 -1.2663
  920MPD2     C13462   3.482   4.257  10.769  0.8708  0.2120  0.2973
  920MPD2    C113463   3.415   4.154  10.708 -0.4407 -0.3592 -0.1049
  920MPD2    C213464   3.423   4.022  10.763 -0.6683  0.0254  0.1773
  920MPD2    C313465   3.499   4.002  10.883  0.0763  0.3788 -0.1292
  920MPD2    C413466   3.550   4.111  10.947  0.5436  0.0337  0.5488
  920MPD2    C513467   3.547   4.234  10.887  0.1802 -0.5979 -0.2895
  920MPD2     H13468   3.384   3.937  10.707  0.2638  1.1278 -2.1455
  920MPD2    H113469   3.604   4.109  11.042 -0.5903  0.9404  1.2020
  920MPD2    H213470   3.478   4.358  10.732 -2.0492  1.7430  4.8047
  920MPD2    H313471   3.598   4.315  10.938  0.4333 -0.5628 -0.6037
  920MPD2     N13472   3.498   3.871  10.936  0.1815 -0.1783  0.3056
  920MPD2    H513473   3.478   3.797  10.869 -0.2252  0.6980 -0.5432
  920MPD2    N113474   3.338   4.164  10.586 -0.1133  0.1506 -0.2479
  920MPD2    H713475   3.303   4.079  10.543  0.2060 -0.2273  0.2222
  921MPD2     C13476   4.214   3.179  16.578  0.4879 -0.4476  0.6302
  921MPD2    C113477   4.171   3.055  16.535 -0.0667  0.2066  0.2235
  921MPD2    C213478   4.043   3.022  16.563 -0.4816 -0.2645 -0.1992
  921MPD2    C313479   3.947   3.114  16.611 -0.5976  1.0224 -0.3342
  921MPD2    C413480   3.991   3.244  16.630  0.0137 -0.2506  0.1307
  921MPD2    C513481   4.120   3.266  16.623 -0.4635 -0.0205 -0.5220
  921MPD2     H13482   4.014   2.925  16.524 -0.7268  0.2293 -1.2418
  921MPD2    H113483   3.922   3.325  16.650 -0.7918 -0.7559 -0.6196
  921MPD2    H213484   4.317   3.214  16.569  0.2299 -0.3990 -2.2617
  921MPD2    H313485   4.153   3.362  16.662 -0.2297  0.0038 -0.7793
  921MPD2     N13486   3.809   3.080  16.599  0.0979  0.5094  0.4721
  921MPD2    H513487   3.745   3.158  16.586 -2.1847 -1.3427  0.5880
  921MPD2    N113488   4.261   2.957  16.480 -0.2001  0.3639  0.3812
  921MPD2    H713489   4.357   2.988  16.471  0.2692 -0.9794  0.7815
  922MPD2     C13490   0.280   0.480  16.732  0.5583  0.5209  0.0619
  922MPD2    C113491   0.191   0.577  16.777  0.9433  0.0271 -0.1621
  922MPD2    C213492   0.090   0.539  16.866  0.4407 -0.4979 -0.0426
  922MPD2    C313493   0.039   0.408  16.860 -0.0430  0.0820 -0.2378
  922MPD2    C413494   0.125   0.314  16.794 -0.0343 -0.2915 -0.3252
  922MPD2    C513495   0.242   0.354  16.734 -0.4766  0.0066 -0.4900
  922MPD2     H13496   0.040   0.619  16.919  1.2723  1.3898 -2.0963
  922MPD2    H113497   0.095   0.213  16.767 -0.5915  0.4401 -2.4675
  922MPD2    H213498   0.378   0.509  16.698  1.1984 -0.2728  1.2272
  922MPD2    H313499   0.313   0.276  16.706 -1.1981 -0.5797 -0.6682
  922MPD2     N13500   4.631   0.370  16.904  0.0724 -0.4890 -0.2191
  922MPD2    H513501   4.580   0.446  16.948 -0.0583 -1.0581  0.6144
  922MPD2    N113502   0.206   0.720  16.755 -0.7080 -0.0550 -0.2248
  922MPD2    H713503   0.137   0.782  16.798 -0.9413  0.4334 -1.3174
  923MPD2     C13504   2.118   3.087   8.783 -0.5477  0.4631 -0.0128
  923MPD2    C113505   2.059   3.118   8.904 -0.9271 -0.1952  0.2964
  923MPD2    C213506   2.085   3.046   9.022 -0.6406 -0.1182 -0.1409
  923MPD2    C313507   2.171   2.945   9.016 -0.3505 -0.3410 -0.4141
  923MPD2    C413508   2.238   2.917   8.898 -0.2698 -0.2361 -0.1909
  923MPD2    C513509   2.206   2.985   8.784 -0.3817  0.1581 -0.0209
  923MPD2     H13510   2.035   3.081   9.112 -0.7368 -1.1752  0.2194
  923MPD2    H113511   2.312   2.838   8.896  0.9386  0.8660  1.0223
  923MPD2    H213512   2.103   3.145   8.693 -3.0058 -2.9517 -1.8279
  923MPD2    H313513   2.252   2.954   8.690 -0.2527 -0.2774  0.1844
  923MPD2     N13514   2.204   2.872   9.133 -0.9499  0.2850 -0.2927
  923MPD2    H513515   2.288   2.815   9.125 -1.4024 -0.5208  0.5809
  923MPD2    N113516   1.974   3.231   8.886 -0.7044 -0.5836 -0.6706
  923MPD2    H713517   1.978   3.275   8.794  1.3774  2.8797  1.0588
  924MPD2     C13518   1.926   1.256  15.440  0.4794  0.1080 -0.7266
  924MPD2    C113519   1.866   1.239  15.565  0.0176  0.9143 -0.4034
  924MPD2    C213520   1.805   1.342  15.632 -0.2857 -0.0666 -0.5863
  924MPD2    C313521   1.799   1.463  15.566  0.2507  0.2046 -0.0381
  924MPD2    C413522   1.848   1.478  15.439  0.1853  0.0936  0.4116
  924MPD2    C513523   1.924   1.378  15.386  0.0774  0.1035  0.3229
  924MPD2     H13524   1.760   1.327  15.729  0.2029  0.5393 -0.2643
  924MPD2    H113525   1.847   1.575  15.391  0.9170  0.2132  0.6274
  924MPD2    H213526   1.967   1.173  15.383  0.2132  0.3152 -1.2176
  924MPD2    H313527   1.964   1.390  15.286 -0.4866 -1.5864 -0.1058
  924MPD2     N13528   1.729   1.562  15.640  0.7122 -0.2986  0.0080
  924MPD2    H513529   1.678   1.530  15.722  0.1709  0.1168 -0.1571
  924MPD2    N113530   1.868   1.111  15.621  0.8145  0.7041 -0.2874
  924MPD2    H713531   1.877   1.027  15.564 -0.2736  0.0129  0.5674
  925MPD2     C13532   0.515   3.464  14.574 -0.4124  0.3831  1.2376
  925MPD2    C113533   0.386   3.430  14.548 -0.1348  0.3852  0.7527
  925MPD2    C213534   0.315   3.356  14.640 -0.3991  0.1638 -0.3231
  925MPD2    C313535   0.384   3.312  14.753  0.1682 -0.3462 -0.2316
  925MPD2    C413536   0.514   3.348  14.780  0.3246  0.2685  0.2296
  925MPD2    C513537   0.583   3.416  14.681  1.1223  0.2225  0.7601
  925MPD2     H13538   0.215   3.323  14.614 -1.4277  0.6070  3.0283
  925MPD2    H113539   0.565   3.309  14.867  0.1051  0.3650  0.4013
  925MPD2    H213540   0.570   3.529  14.507  0.2754 -1.0769  0.3696
  925MPD2    H313541   0.686   3.450  14.692  1.6807 -1.3645  0.3856
  925MPD2     N13542   0.331   3.223  14.846  0.0274 -0.1212  0.3717
  925MPD2    H513543   0.389   3.191  14.924  0.7841 -1.8674 -0.9090
  925MPD2    N113544   0.324   3.455  14.424 -0.2017 -0.3449 -0.1969
  925MPD2    H713545   0.225   3.436  14.415 -0.8814  3.4016 -0.3081
  926MPD2     C13546   3.578   2.446  13.578  1.6432 -0.9494 -0.2495
  926MPD2    C113547   3.444   2.426  13.573 -0.6217 -0.1701  0.2096
  926MPD2    C213548   3.381   2.419  13.445  1.1962 -0.4572  0.0271
  926MPD2    C313549   3.461   2.409  13.331 -0.0408 -0.1449 -0.1856
  926MPD2    C413550   3.597   2.421  13.344  0.1428 -0.1159  0.0264
  926MPD2    C513551   3.656   2.435  13.472 -0.2348  0.0793  0.4010
  926MPD2     H13552   3.273   2.418  13.435  1.2564  0.6976 -0.7803
  926MPD2    H113553   3.665   2.428  13.261 -2.1419 -0.6553 -1.8895
  926MPD2    H213554   3.626   2.454  13.675  1.8425 -0.7938 -0.3633
  926MPD2    H313555   3.764   2.445  13.476 -0.3161  0.1867  2.2763
  926MPD2     N13556   3.410   2.427  13.199 -0.3591  0.2383  0.1245
  926MPD2    H513557   3.482   2.455  13.134  0.8500 -0.6678  1.0761
  926MPD2    N113558   3.352   2.427  13.683 -0.3336 -0.0923  0.1995
  926MPD2    H713559   3.254   2.409  13.666  0.0166 -1.3304 -0.5706
  927MPD2     C13560   3.302   4.639   0.366  0.3754  0.9764 -0.7137
  927MPD2    C113561   3.416   4.594   0.436  0.0103 -0.4298 -0.0757
  927MPD2    C213562   3.515   4.529   0.363  1.0206  0.0410 -0.0748
  927MPD2    C313563   3.521   4.530   0.227 -0.0956  0.5895  0.5635
  927MPD2    C413564   3.418   4.582   0.159  0.1052 -0.3579  0.1161
  927MPD2    C513565   3.306   4.633   0.225  0.5193 -0.1319  0.7211
  927MPD2     H13566   3.603   4.497   0.418 -0.4078 -2.1761  0.9055
  927MPD2    H113567   3.416   4.578   0.050 -2.3372 -1.9168  0.2291
  927MPD2    H213568   3.218   4.683   0.417  0.4824 -1.4814  1.5849
  927MPD2    H313569   3.225   4.677   0.169 -0.6171 -0.7433  1.8695
  927MPD2     N13570   3.619   4.450   0.167  0.2281 -0.2452  0.4163
  927MPD2    H513571   3.676   4.398   0.233 -0.8637 -1.6800  0.2329
  927MPD2    N113572   3.425   4.607   0.574 -0.3866 -0.0302  0.4920
  927MPD2    H713573   3.348   4.661   0.612  0.5315  1.0974  0.7604
  928MPD2     C13574   1.607   2.079   0.678  0.0231  0.0722 -0.3735
  928MPD2    C113575   1.597   2.215   0.676  0.2694  0.2123 -0.1846
  928MPD2    C213576   1.682   2.298   0.600  0.7415 -1.3081  0.1696
  928MPD2    C313577   1.782   2.237   0.526 -0.6131 -0.0440 -0.4444
  928MPD2    C413578   1.792   2.103   0.536  0.5104  0.0641 -0.6572
  928MPD2    C513579   1.704   2.021   0.604 -0.1224  0.2499  0.0531
  928MPD2     H13580   1.665   2.405   0.600  1.6965 -1.1543 -0.3250
  928MPD2    H113581   1.865   2.056   0.471 -0.0742 -0.3084 -1.0455
  928MPD2    H213582   1.537   2.013   0.728  1.0668 -2.6086 -2.4492
  928MPD2    H313583   1.715   1.913   0.613  0.2998  0.3271  0.4629
  928MPD2     N13584   1.878   2.310   0.452  0.4061  0.6118  0.1922
  928MPD2    H513585   1.950   2.254   0.406 -0.4212  1.0416 -1.6240
  928MPD2    N113586   1.500   2.267   0.766 -0.2730  0.5569 -0.7619
  928MPD2    H713587   1.450   2.206   0.830 -0.0932  0.6715 -0.5101
  929MPD2     C13588   1.700   2.835  10.328 -0.2558 -0.2833 -0.1977
  929MPD2    C113589   1.610   2.737  10.322  0.4771  0.3656  0.6629
  929MPD2    C213590   1.521   2.732  10.207  0.0329  0.4093  0.6325
  929MPD2    C313591   1.530   2.822  10.102 -0.8551  0.2005 -0.1784
  929MPD2    C413592   1.636   2.914  10.109 -0.4582 -0.0641  0.0762
  929MPD2    C513593   1.721   2.915  10.221  0.3805 -0.3683  0.6102
  929MPD2     H13594   1.424   2.685  10.221 -0.8925  2.5967  1.5956
  929MPD2    H113595   1.654   2.990  10.034  1.6186 -0.4108  0.2502
  929MPD2    H213596   1.771   2.850  10.408 -3.9160 -0.9319  3.1630
  929MPD2    H313597   1.799   2.989  10.233  0.3575  0.0079 -1.6841
  929MPD2     N13598   1.448   2.834   9.984 -0.3645  0.0775 -0.1212
  929MPD2    H513599   1.481   2.903   9.918  1.0988 -1.3972 -0.9257
  929MPD2    N113600   1.594   2.652  10.433  0.4757 -0.6677  0.1113
  929MPD2    H713601   1.640   2.665  10.523 -1.1008  0.5676  0.7409
  930MPD2     C13602   3.262   0.021  14.272 -0.4009 -0.1124  0.5365
  930MPD2    C113603   3.364   0.049  14.190  0.1158  0.4141  0.1447
  930MPD2    C213604   3.355   0.020  14.058 -0.0046 -0.0168 -0.1098
  930MPD2    C313605   3.246   4.676  14.003 -0.7282 -0.2347  0.0159
  930MPD2    C413606   3.143   4.649  14.089 -0.3433 -0.2080 -0.1318
  930MPD2    C513607   3.153   4.674  14.223  0.1942 -0.3653  0.3822
  930MPD2     H13608   3.434   0.057  13.994 -0.9151  3.2842  0.6697
  930MPD2    H113609   3.051   4.610  14.048  0.4594 -1.7610 -0.4480
  930MPD2    H213610   3.249   0.029  14.380 -0.6801  2.5992  0.3180
  930MPD2    H313611   3.074   4.649  14.292 -0.5653  0.2314 -0.2613
  930MPD2     N13612   3.222   4.645  13.868  0.4861  0.2951  0.2566
  930MPD2    H513613   3.128   4.619  13.840  0.7803  0.1983 -0.6483
  930MPD2    N113614   3.479   0.118  14.226  0.1167  0.4937  0.0915
  930MPD2    H713615   3.551   0.134  14.156  1.1847 -0.2819  1.0159
  931MPD2     C13616   3.905   4.304   1.118 -0.1933 -0.2338 -0.6012
  931MPD2    C113617   3.775   4.325   1.161  0.1981  0.0893 -0.2540
  931MPD2    C213618   3.716   4.242   1.255  0.4362  0.2808 -0.4374
  931MPD2    C313619   3.788   4.133   1.301  0.2384  0.1759 -0.2248
  931MPD2    C413620   3.923   4.124   1.268  0.3898  0.4327 -0.4544
  931MPD2    C513621   3.974   4.204   1.170 -0.7095 -0.8439  0.2119
  931MPD2     H13622   3.615   4.257   1.291  1.1856 -1.1491  2.3372
  931MPD2    H113623   3.992   4.047   1.301  1.4160  0.6203 -2.1475
  931MPD2    H213624   3.947   4.360   1.035  2.0557 -1.8970 -0.5674
  931MPD2    H313625   4.076   4.188   1.138 -0.5580 -1.5158  1.0451
  931MPD2     N13626   3.741   4.038   1.390 -0.3448 -0.6276  0.0926
  931MPD2    H513627   3.812   3.972   1.421 -1.7975 -3.0110 -1.7245
  931MPD2    N113628   3.714   4.424   1.093 -0.1564 -0.2360 -0.9310
  931MPD2    H713629   3.770   4.470   1.022  2.8445 -2.8466 -0.2514
  932MPD2     C13630   0.475   3.189  11.091 -0.8524 -0.4025  0.3921
  932MPD2    C113631   0.457   3.294  11.184 -0.3880 -0.1899  0.2152
  932MPD2    C213632   0.529   3.290  11.301 -0.3006 -0.2273  0.1525
  932MPD2    C313633   0.620   3.184  11.330  0.5189 -0.9469  0.7010
  932MPD2    C413634   0.637   3.086  11.233  0.1980 -0.5174 -0.7253
  932MPD2    C513635   0.565   3.086  11.119  0.9800 -0.0096 -0.1992
  932MPD2     H13636   0.510   3.370  11.371 -2.1645 -0.5210 -0.0089
  932MPD2    H113637   0.713   3.011  11.254  0.6500  0.5868  1.5947
  932MPD2    H213638   0.416   3.176  11.001 -1.6296  2.5592  0.4803
  932MPD2    H313639   0.582   3.006  11.048  1.0774 -0.5051  0.3800
  932MPD2     N13640   0.695   3.171  11.448  0.0165 -0.0934 -0.0940
  932MPD2    H513641   0.768   3.101  11.453 -0.5166 -0.6900 -0.6083
  932MPD2    N113642   0.360   3.394  11.160  0.2931 -0.0127  0.4167
  932MPD2    H713643   0.340   3.463  11.231 -0.2402  1.6157 -1.3062
  933MPD2     C13644   1.026   2.869   1.266  0.0692 -0.6011  0.1501
  933MPD2    C113645   1.091   2.876   1.146  0.2931 -0.5847  0.3797
  933MPD2    C213646   1.069   2.972   1.049  0.0705 -0.0972  0.2518
  933MPD2    C313647   0.980   3.075   1.072 -0.2465  0.2405 -0.1928
  933MPD2    C413648   0.905   3.068   1.185  0.2214  0.1070 -0.9573
  933MPD2    C513649   0.919   2.960   1.273  0.1494 -1.1500  0.0012
  933MPD2     H13650   1.127   2.964   0.958 -1.3593  1.2500 -0.7736
  933MPD2    H113651   0.828   3.136   1.222  1.8632  0.5752  1.6405
  933MPD2    H213652   1.034   2.794   1.343 -0.7142 -0.5404  0.2962
  933MPD2    H313653   0.872   2.964   1.370  2.1841 -2.6437  1.0298
  933MPD2     N13654   0.970   3.177   0.976 -0.2975  0.3195 -0.4452
  933MPD2    H513655   1.045   3.173   0.908  1.1525  0.7081  1.1392
  933MPD2    N113656   1.173   2.764   1.122 -0.3538 -0.2212 -0.5038
  933MPD2    H713657   1.173   2.691   1.193 -1.4511  1.3968  1.1461
  934MPD2     C13658   2.667   0.770   1.096  0.2266 -0.6297  0.6240
  934MPD2    C113659   2.555   0.813   1.165 -0.6603 -0.0065 -0.0037
  934MPD2    C213660   2.434   0.745   1.144  0.4993  0.4371 -0.0883
  934MPD2    C313661   2.428   0.627   1.070  0.6046  0.0531 -0.5326
  934MPD2    C413662   2.540   0.593   0.996 -0.1029 -0.7927 -0.2579
  934MPD2    C513663   2.654   0.667   1.008 -0.7852  0.0962  0.3141
  934MPD2     H13664   2.346   0.789   1.191  1.7239  2.2305  0.5101
  934MPD2    H113665   2.527   0.512   0.925  0.9651 -1.7110  0.6073
  934MPD2    H213666   2.762   0.822   1.100 -0.1559 -0.0750  2.7002
  934MPD2    H313667   2.742   0.635   0.953 -0.4025 -2.0515  2.1959
  934MPD2     N13668   2.308   0.549   1.044 -0.4244 -0.6508 -0.1059
  934MPD2    H513669   2.316   0.477   0.973 -0.1073 -2.8296  2.1841
  934MPD2    N113670   2.558   0.928   1.254 -0.0732 -0.0554  0.4008
  934MPD2    H713671   2.471   0.938   1.305 -0.0161 -0.7343  0.6354
  935MPD2     C13672   2.560   4.538   0.911  0.1901  0.0328  0.2311
  935MPD2    C113673   2.430   4.489   0.923  0.0021 -0.3825  0.2151
  935MPD2    C213674   2.326   4.580   0.932 -0.2680  0.1300 -0.2920
  935MPD2    C313675   2.357   4.718   0.928 -0.0324  0.2273 -0.1296
  935MPD2    C413676   2.483   0.040   0.914  0.3184  0.4537  0.8414
  935MPD2    C513677   2.588   4.667   0.897 -0.8399 -0.5078 -0.0279
  935MPD2     H13678   2.223   4.545   0.938  0.0058 -0.5697  0.4608
  935MPD2    H113679   2.510   0.145   0.911  0.6225  0.3201 -1.2927
  935MPD2    H213680   2.643   4.469   0.904 -0.1814 -0.3317 -0.6681
  935MPD2    H313681   2.685   4.715   0.892 -0.6010 -0.8241  1.5507
  935MPD2     N13682   2.259   0.103   0.931 -0.3348 -0.2025 -0.0200
  935MPD2    H513683   2.298   0.195   0.914  1.8702 -0.7441  2.1612
  935MPD2    N113684   2.408   4.353   0.925 -0.1330  0.5822  0.2235
  935MPD2    H713685   2.312   4.322   0.917 -0.6163  2.5367 -1.4484
  936MPD2     C13686   0.226   1.772  12.268 -0.6738 -0.4373  0.4059
  936MPD2    C113687   0.279   1.766  12.396 -1.1654 -0.1360 -0.9392
  936MPD2    C213688   0.410   1.805  12.411  0.2685  0.3134 -0.8018
  936MPD2    C313689   0.490   1.862  12.320  0.6361 -0.0286 -0.1028
  936MPD2    C413690   0.430   1.883  12.191  0.3532 -0.4526 -0.4683
  936MPD2    C513691   0.303   1.834  12.177 -0.3285  0.6201 -0.9918
  936MPD2     H13692   0.453   1.799  12.511  0.9605  0.8128 -1.0664
  936MPD2    H113693   0.478   1.938  12.110 -0.3877  0.3977 -0.3331
  936MPD2    H213694   0.132   1.729  12.235 -0.1589 -1.0973 -0.2020
  936MPD2    H313695   0.256   1.854  12.081 -0.6968  1.3796 -0.6481
  936MPD2     N13696   0.626   1.900  12.342 -0.5980 -0.2103 -0.6696
  936MPD2    H513697   0.674   1.954  12.271 -1.4979  0.9146 -0.4093
  936MPD2    N113698   0.217   1.710  12.510 -0.0517 -0.1541 -0.3053
  936MPD2    H713699   0.263   1.743  12.594 -1.1063  1.6214 -0.4200
  937MPD2     C13700   2.877   3.188  11.982  0.3676 -0.0807 -0.3180
  937MPD2    C113701   2.972   3.274  11.932  0.0168  0.4856  0.2165
  937MPD2    C213702   3.041   3.244  11.815  0.5721 -0.0937 -0.4163
  937MPD2    C313703   3.019   3.118  11.752 -0.5086 -0.4396  0.0004
  937MPD2    C413704   2.946   3.026  11.814  0.3647  0.1730 -0.2464
  937MPD2    C513705   2.877   3.061  11.930 -0.0816  0.4629  0.8874
  937MPD2     H13706   3.096   3.321  11.763  0.5676 -1.2385 -2.1018
  937MPD2    H113707   2.928   2.938  11.754 -0.8210  0.7424 -0.7320
  937MPD2    H213708   2.817   3.210  12.070  1.1311 -1.2692  0.5046
  937MPD2    H313709   2.802   2.988  11.959 -3.1745  3.7065  1.1142
  937MPD2     N13710   3.076   3.083  11.626 -0.0304 -0.2129 -0.2992
  937MPD2    H513711   3.054   2.995  11.580  0.5814  1.0783 -3.0448
  937MPD2    N113712   2.980   3.410  11.967 -0.4095 -0.1188 -0.4323
  937MPD2    H713713   3.051   3.462  11.917  1.1679  0.5265  2.4799
  938MPD2     C13714   1.790   4.396   0.663 -0.1820 -0.0790  0.5182
  938MPD2    C113715   1.705   4.466   0.743  0.0643  0.1660  0.3839
  938MPD2    C213716   1.631   4.393   0.836  0.4773  0.5547 -0.0537
  938MPD2    C313717   1.646   4.253   0.848  0.2049 -0.0763  0.0533
  938MPD2    C413718   1.727   4.185   0.760  0.1434  0.1365 -0.3926
  938MPD2    C513719   1.812   4.259   0.680 -0.3373  0.0357 -0.0337
  938MPD2     H13720   1.551   4.445   0.889 -0.3407 -0.8425  0.0841
  938MPD2    H113721   1.731   4.077   0.756  0.0191  0.1208 -0.0993
  938MPD2    H213722   1.851   4.451   0.592  0.0538 -3.7018 -2.0712
  938MPD2    H313723   1.878   4.209   0.609 -0.8977  0.6254 -0.9726
  938MPD2     N13724   1.581   4.167   0.944 -0.3452  0.1562 -0.1583
  938MPD2    H513725   1.605   4.069   0.947  0.7635  0.4788  1.6464
  938MPD2    N113726   1.676   4.606   0.738  0.6535 -0.0090 -0.0802
  938MPD2    H713727   1.590   4.632   0.787  0.0155 -0.3055 -1.0508
  939MPD2     C13728   2.639   1.152   0.147 -0.2985  0.2753  0.1104
  939MPD2    C113729   2.702   1.270   0.177  0.2379  0.3402  0.0064
  939MPD2    C213730   2.776   1.318   0.069 -0.4396 -0.5003 -0.0227
  939MPD2    C313731   2.800   1.253  17.630 -0.0282  0.4776  0.3156
  939MPD2    C413732   2.757   1.128  17.621 -0.0665  0.2611 -0.0445
  939MPD2    C513733   2.664   1.090   0.031  0.1368  0.3140 -0.4545
  939MPD2     H13734   2.821   1.417   0.080  3.3282 -2.5632  3.2419
  939MPD2    H113735   2.765   1.070  17.530 -0.2430  0.5599 -0.2499
  939MPD2    H213736   2.554   1.128   0.208 -1.3523 -0.0682 -1.4840
  939MPD2    H313737   2.616   0.994   0.017 -0.7889  0.8031 -0.5893
  939MPD2     N13738   2.884   1.309  17.530  0.5765 -0.2563  0.1667
  939MPD2    H513739   2.904   1.407  17.549  1.5958 -0.0214 -2.1137
  939MPD2    N113740   2.673   1.345   0.287 -0.3002 -0.1317  0.5936
  939MPD2    H713741   2.626   1.288   0.357  1.4307 -1.1383  0.9293
  940MPD2     C13742   1.174   2.323  13.226 -0.1423  0.3875 -0.1578
  940MPD2    C113743   1.304   2.348  13.252 -0.0363 -0.6548  0.5928
  940MPD2    C213744   1.392   2.373  13.147 -0.6928 -0.0668 -0.4677
  940MPD2    C313745   1.352   2.362  13.016 -0.4403  0.1869 -0.6864
  940MPD2    C413746   1.218   2.342  12.991  0.2541  0.3129  1.2829
  940MPD2    C513747   1.134   2.311  13.094 -0.1149 -0.2538 -0.0380
  940MPD2     H13748   1.488   2.416  13.172 -0.7180 -0.8216  0.8904
  940MPD2    H113749   1.175   2.331  12.892  0.3199  2.5882  0.9953
  940MPD2    H213750   1.094   2.302  13.296  1.2776 -1.9021  0.8078
  940MPD2    H313751   1.028   2.294  13.080 -0.4123  1.2081  0.3750
  940MPD2     N13752   1.440   2.376  12.901  0.2466 -0.3925  0.0590
  940MPD2    H513753   1.400   2.358  12.809  0.9392  0.3724 -0.3968
  940MPD2    N113754   1.347   2.374  13.382  0.3542 -0.8027  0.4124
  940MPD2    H713755   1.448   2.381  13.393  0.5116 -2.2361 -0.1147
  941MPD2     C13756   0.551   1.247   9.613  0.4913  0.3631 -0.2026
  941MPD2    C113757   0.650   1.161   9.647 -0.2729  0.3731  0.9619
  941MPD2    C213758   0.631   1.034   9.681  0.1560 -0.2649 -0.0991
  941MPD2    C313759   0.499   0.978   9.682 -0.1729  0.2132 -0.1977
  941MPD2    C413760   0.398   1.059   9.633  0.3913 -0.3840  0.4398
  941MPD2    C513761   0.419   1.194   9.612 -0.6718  0.6183 -0.5119
  941MPD2     H13762   0.716   0.973   9.711  0.2167 -1.2560 -2.3141
  941MPD2    H113763   0.296   1.021   9.634  0.7365 -1.3829 -1.4029
  941MPD2    H213764   0.572   1.351   9.590 -2.2491  0.6893 -1.2249
  941MPD2    H313765   0.333   1.258   9.593 -0.1175  2.6642  3.8821
  941MPD2     N13766   0.463   0.843   9.705 -0.2212 -0.1309 -0.1447
  941MPD2    H513767   0.364   0.824   9.709 -0.7872  2.1153 -3.3858
  941MPD2    N113768   0.787   1.203   9.651  0.2955 -0.0544  1.0820
  941MPD2    H713769   0.845   1.123   9.671  0.6706 -0.3696 -1.2515
  942MPD2     C13770   0.516   3.466   9.142 -0.5513 -0.7269 -0.2127
  942MPD2    C113771   0.465   3.358   9.215  0.0369  0.0372  0.3886
  942MPD2    C213772   0.528   3.234   9.194 -0.3958 -0.6096  0.3705
  942MPD2    C313773   0.653   3.228   9.131  0.2778  0.3285  0.2564
  942MPD2    C413774   0.698   3.342   9.074 -0.2200  0.4161 -0.0555
  942MPD2    C513775   0.626   3.449   9.065  0.4224 -0.1635 -0.7549
  942MPD2     H13776   0.484   3.149   9.245  1.0557 -0.3108  2.1169
  942MPD2    H113777   0.797   3.348   9.031 -1.4228  0.9251 -2.8038
  942MPD2    H213778   0.465   3.560   9.128 -1.8563 -1.0541  2.4086
  942MPD2    H313779   0.664   3.536   9.013 -1.1674  0.7223 -0.4076
  942MPD2     N13780   0.735   3.112   9.139  0.0969 -0.7814 -0.0287
  942MPD2    H513781   0.831   3.125   9.109  0.5358 -2.2768  0.7641
  942MPD2    N113782   0.354   3.364   9.305 -0.3714 -0.3289  0.9448
  942MPD2    H713783   0.340   3.283   9.364 -2.1500  0.5152  1.6710
  943MPD2     C13784   4.025   1.445  10.466  0.1509 -0.7343  0.4307
  943MPD2    C113785   3.967   1.321  10.490  0.3169  0.2274  0.4963
  943MPD2    C213786   3.879   1.320  10.597 -0.1955 -0.1676 -0.2208
  943MPD2    C313787   3.856   1.434  10.672 -0.5990  0.0897  0.2602
  943MPD2    C413788   3.916   1.554  10.641 -0.3767 -0.3097 -0.4553
  943MPD2    C513789   4.001   1.558  10.535 -0.0446 -0.6356 -0.6103
  943MPD2     H13790   3.821   1.231  10.617  0.1967 -0.4821 -0.4608
  943MPD2    H113791   3.905   1.642  10.704  1.7373 -1.1544  1.1121
  943MPD2    H213792   4.099   1.459  10.388 -1.1848 -2.1546 -1.1141
  943MPD2    H313793   4.060   1.645  10.506 -0.4151 -0.0626  0.3385
  943MPD2     N13794   3.779   1.433  10.796 -0.0026 -0.5103  0.5611
  943MPD2    H513795   3.751   1.517  10.846 -2.6036 -0.2265 -1.3100
  943MPD2    N113796   3.994   1.215  10.402  0.0065  0.7032 -0.2388
  943MPD2    H713797   4.055   1.237  10.324 -0.1131 -1.8080 -1.0354
  944MPD2     C13798   4.277   0.340  10.944 -0.1151  0.2041 -0.0584
  944MPD2    C113799   4.160   0.300  10.889  0.2901 -0.4439 -0.9204
  944MPD2    C213800   4.060   0.288  10.977  0.4031 -0.3985  0.6908
  944MPD2    C313801   4.063   0.317  11.113 -0.1499  0.1266 -0.5605
  944MPD2    C413802   4.183   0.363  11.159  0.1135 -0.5319 -0.5880
  944MPD2    C513803   4.294   0.354  11.081 -0.4955 -0.5894 -0.0056
  944MPD2     H13804   3.962   0.262  10.938  0.4103 -0.0990  0.4695
  944MPD2    H113805   4.202   0.403  11.258 -0.4343  1.1931 -1.1867
  944MPD2    H213806   4.373   0.340  10.894 -0.9096  3.0989 -1.5964
  944MPD2    H313807   4.394   0.380  11.115 -0.8321  0.7626 -0.0395
  944MPD2     N13808   3.953   0.295  11.195 -0.0024  0.2518 -0.0477
  944MPD2    H513809   3.873   0.259  11.145 -1.0347  0.7905  1.2365
  944MPD2    N113810   4.141   0.282  10.750  0.2390 -0.1369  0.3009
  944MPD2    H713811   4.213   0.322  10.691 -0.0860 -2.0309 -1.3968
    1TCq1    O113812   1.593   0.940  13.896 -0.4251 -0.1467 -0.2709
    1TCq1    C113813   1.724   0.964  13.924 -0.4241  0.0266 -0.0524
    1TCq1    O213814   1.802   0.886  13.974  0.4604  0.9134 -0.0891
    1TCq1    C213815   1.724   1.101  13.973 -0.2729 -0.8595  0.7175
    1TCq1    C313816   1.626   1.189  13.937 -0.1665  0.5168  0.1115
    1TCq1    C413817   1.613   1.306  14.010 -0.5886  0.2020 -0.1725
    1TCq1    C513818   1.700   1.331  14.117  0.9519  0.5781 -0.4552
    1TCq1    C613819   1.795   1.241  14.148  0.0509 -0.1402  0.1223
    1TCq1    C713820   1.809   1.123  14.075  0.5884  0.6133 -0.0162
    1TCq1    C813821   1.911   1.285  14.229 -0.1014 -0.4642 -0.2769
    1TCq1    O413822   1.984   1.190  14.254  0.5946 -0.0141  0.5597
    1TCq1    C913823   1.506   1.395  13.970  0.0212  0.0388 -0.0810
    1TCq1    O513824   1.419   1.349  13.892 -0.0452  0.2530  0.1253
    1TCq1    O613825   1.515   1.513  14.003  0.0524 -0.4172 -0.6407
    1TCq1    H113826   1.550   1.009  13.841  0.8322  0.1074 -0.9427
    1TCq1    H213827   1.573   1.179  13.843 -2.0678  0.1609  1.2009
    1TCq1    H313828   1.680   1.421  14.175 -0.2909 -0.9785  1.5169
    1TCq1    H413829   1.884   1.052  14.109  0.6361 -0.5933 -2.6191
    2MPD2     C13830   2.189   1.679  14.420 -0.0810  0.5338 -0.0138
    2MPD2    C113831   2.080   1.728  14.357  0.3680 -0.5407 -0.2044
    2MPD2    C213832   1.998   1.639  14.295 -0.4056 -1.0895 -0.3030
    2MPD2    C313833   2.014   1.503  14.304 -0.6723  0.0798  0.0687
    2MPD2    C413834   2.126   1.455  14.376  0.3478  0.1526 -0.2452
    2MPD2    C513835   2.204   1.543  14.434 -0.3931  0.7656  0.1682
    2MPD2     H13836   1.918   1.676  14.232 -0.3877 -2.1777 -0.9535
    2MPD2    H113837   2.138   1.348  14.389 -2.1217  0.0514  1.3048
    2MPD2    H213838   2.265   1.741  14.466  1.1453 -1.0863  0.1451
    2MPD2    H313839   2.286   1.508  14.496 -0.1220  2.8152  0.9839
    2MPD2     N13840   1.916   1.421  14.242 -0.0880  0.2949 -0.1131
    2MPD2    H513841   1.834   1.467  14.204 -0.6835 -0.8882 -0.2619
    2MPD2    N113842   2.061   1.872  14.358 -0.9153  0.0423  0.1026
    2MPD2    H713843   2.133   1.928  14.402 -0.6164  0.4849 -0.9539
    3TMC2    C113844   1.944   2.080  14.315 -0.3980  0.2579  0.0006
    3TMC2    C213845   1.827   2.139  14.286 -0.7259 -0.4595 -0.1191
    3TMC2    C313846   1.834   2.258  14.219 -0.3043 -0.6846  0.0245
    3TMC2    C413847   2.065   2.129  14.268 -0.1806  0.0527  0.0468
    3TMC2    C513848   2.073   2.248  14.207  0.2268 -1.0892  0.3001
    3TMC2    C613849   1.951   2.310  14.172  0.0607  0.2348 -0.0114
    3TMC2     C13850   1.941   1.932  14.320 -0.5311 -0.3366 -1.0674
    3TMC2     O13851   1.834   1.885  14.284  0.1506 -0.0448  0.1402
    3TMC2     H13852   1.733   2.096  14.319 -0.1846 -2.3450 -1.0531
    3TMC2    H113853   2.159   2.076  14.274 -0.3048  0.1166  2.5060
    3TMC2    H213854   1.942   2.401  14.113 -1.1923 -0.3844 -0.7722
    3TMC2    C713855   2.199   2.283  14.149  0.3855  0.9517 -0.0385
    3TMC2    C813856   1.705   2.311  14.164  0.1600  0.3435  0.5623
    3TMC2    O113857   2.297   2.237  14.198  0.0275 -0.1791 -0.4871
    3TMC2    O213858   1.705   2.389  14.069 -0.1195  0.2891 -0.0687
    3TMC2    O513859   1.607   2.306  14.253  0.1478  0.1706  0.3489
    3TMC2    H513860   1.640   2.241  14.319 -0.1550 -2.1204 -1.7745
    4MPD2     C13861   1.328   2.749  13.261  0.1219 -0.3854 -0.0157
    4MPD2    C113862   1.406   2.753  13.145 -0.2701 -0.6976 -0.5952
    4MPD2    C213863   1.539   2.797  13.158 -0.0957  0.0792 -0.3707
    4MPD2    C313864   1.595   2.822  13.282 -0.0183  0.3919 -0.0819
    4MPD2    C413865   1.517   2.809  13.394  0.7464  0.6461 -0.4158
    4MPD2    C513866   1.390   2.774  13.380 -0.2811  0.0529  0.1350
    4MPD2     H13867   1.596   2.795  13.066  0.3512 -0.1756 -0.0935
    4MPD2    H113868   1.548   2.832  13.495 -0.6830 -0.9971  0.3876
    4MPD2    H213869   1.225   2.715  13.267  0.4793 -1.8007 -1.6161
    4MPD2    H313870   1.320   2.771  13.463  1.4716 -0.5821  1.6006
    4MPD2     N13871   1.733   2.840  13.291  0.0975 -0.3504 -0.3768
    4MPD2    H513872   1.792   2.806  13.216  0.3410 -2.2323  0.6871
    4MPD2    N113873   1.340   2.716  13.021  0.4128 -0.3599  0.1988
    4MPD2    H713874   1.246   2.681  13.037  0.1881  0.3390  0.3841
    5TCq2    C113875   1.805   2.874  13.402  0.2530  0.9083  0.2702
    5TCq2    O213876   1.761   2.918  13.508 -0.1677 -0.5439  0.0406
    5TCq2    C213877   1.948   2.842  13.391 -0.2472 -0.6460 -0.4075
    5TCq2    C313878   2.018   2.820  13.275  0.2191  0.3135  0.3262
    5TCq2    C413879   2.147   2.763  13.284  0.3902 -0.3932 -0.5135
    5TCq2    C513880   2.208   2.765  13.404  0.5977  0.7170 -0.1550
    5TCq2    C613881   2.137   2.797  13.519 -0.4569  0.0537 -0.1073
    5TCq2    C713882   2.008   2.829  13.512  0.1555  0.5481 -0.5008
    5TCq2    C813883   2.158   2.712  13.635  0.1520  0.4003 -0.1392
    5TCq2    O413884   2.049   2.685  13.686  0.6733  0.5669 -0.3066
    5TCq2    C913885   2.204   2.692  13.170 -0.0678 -0.8161  0.5652
    5TCq2    O513886   2.129   2.640  13.084 -0.1765  0.1821  0.5211
    5TCq2    O613887   2.332   2.680  13.166 -0.7852 -0.1001  0.1677
    5TCq2    H213888   1.982   2.839  13.175  1.0190  1.3236  0.2295
    5TCq2    H313889   2.303   2.713  13.406 -0.5469 -1.3987 -0.1859
    5TCq2    H413890   1.956   2.876  13.595  0.5396 -0.2130  0.1729
    6MPD1     C13891   4.567   3.649  12.979  0.4645  0.9095  0.3910
    6MPD1    C113892   4.686   3.653  13.053 -0.1492 -0.4924  0.5400
    6MPD1    C213893   0.068   3.560  13.018  0.5043  0.7096 -0.1666
    6MPD1    C313894   0.059   3.461  12.922  1.0201  0.2126  0.6103
    6MPD1    C413895   4.658   3.456  12.859 -0.3938 -0.0847  0.3618
    6MPD1    C513896   4.558   3.552  12.887  0.3788 -0.4948 -0.1019
    6MPD1     H13897   0.151   3.558  13.088  0.7929 -2.9232 -0.5953
    6MPD1    H113898   4.639   3.380  12.784 -0.8860  1.7233 -1.3427
    6MPD1    H213899   4.485   3.719  12.992  0.1174  0.2638  1.7171
    6MPD1    H313900   4.466   3.535  12.832 -0.2605 -0.1859  0.8684
    6MPD1     N13901   0.153   3.358  12.894  0.1002  0.2354  0.2991
    6MPD1    H513902   0.122   3.280  12.836  1.4035 -0.5667  0.6774
    6MPD1    N113903   4.718   3.762  13.132  0.4534 -0.5491  0.3122
    6MPD1    H613904   4.638   3.819  13.161 -1.8799 -3.8869  0.4473
    6MPD1    H713905   0.062   3.738  13.208 -1.4068  2.4943  2.8313
    7MPD2     C13906   0.446   2.671  12.649  0.6987 -0.1819  1.1358
    7MPD2    C113907   0.536   2.753  12.709 -0.6148 -0.3201  0.1416
    7MPD2    C213908   0.664   2.709  12.738  0.5582 -0.0657 -1.0690
    7MPD2    C313909   0.711   2.588  12.682 -0.0541 -0.2805 -0.2959
    7MPD2    C413910   0.625   2.522  12.600 -0.2043 -0.2721 -0.1799
    7MPD2    C513911   0.488   2.553  12.592  0.3140  0.0475  0.0173
    7MPD2     H13912   0.729   2.778  12.791  0.3986 -0.7974  0.0643
    7MPD2    H113913   0.667   2.446  12.536 -0.7085  1.0217 -2.0709
    7MPD2    H213914   0.340   2.688  12.636  0.6102 -0.2510  1.8121
    7MPD2    H313915   0.423   2.495  12.527  2.3424 -1.0089 -1.0566
    7MPD2     N13916   0.845   2.549  12.691 -0.5356 -0.0164 -0.4673
    7MPD2    H513917   0.876   2.487  12.617  1.7607 -0.2756  0.6954
    7MPD2    N113918   0.511   2.882  12.758 -0.4716  0.4283 -0.0559
    7MPD2    H713919   0.588   2.940  12.790  0.8806 -1.4491  0.1147
    8TMC3    C113920   1.075   2.600  12.719 -0.2608 -0.4001  0.0231
    8TMC3    C213921   1.174   2.619  12.814 -0.0502  0.3961  0.2825
    8TMC3    C313922   1.277   2.703  12.791  0.1242 -0.1544 -0.2692
    8TMC3    C413923   1.086   2.670  12.604  0.3647 -0.8484 -0.1774
    8TMC3    C513924   1.185   2.764  12.583 -0.3203  0.3773 -0.0020
    8TMC3    C613925   1.283   2.769  12.674 -0.4832 -0.2822 -0.9125
    8TMC3     C13926   0.935   2.606  12.777  0.4437 -0.0935  0.0594
    8TMC3     O13927   0.921   2.675  12.878 -0.2633  0.8570  0.0542
    8TMC3     H13928   1.158   2.582  12.915  1.0882 -0.0404  0.3061
    8TMC3    H113929   1.004   2.688  12.536 -1.5106  1.0711  2.5941
    8TMC3    H213930   1.367   2.828  12.641  0.2753 -1.1367 -0.4945
    8TMC3    C713931   1.112   2.892  12.567  0.2222  0.0549 -0.4903
    8TMC3    C813932   1.375   2.741  12.892  0.0061  0.6154 -1.0409
    8TMC3    O113933   1.062   2.932  12.673  0.4434  0.3542 -0.0730
    8TMC3    O213934   1.480   2.794  12.851  0.4078  0.1738 -0.2682
    9TMC3    C113935   0.363   3.300  12.813 -0.4825 -0.6432 -0.1697
    9TMC3    C213936   0.467   3.354  12.742  0.4378  0.3045 -0.2925
    9TMC3    C313937   0.546   3.269  12.676  0.5109 -0.4204 -0.4749
    9TMC3    C413938   0.330   3.169  12.820 -0.6908 -0.2295 -1.1222
    9TMC3    C513939   0.412   3.086  12.750  0.0432  0.3329  0.6313
    9TMC3    C613940   0.516   3.135  12.681  0.2829 -0.3023  0.3038
    9TMC3     C13941   0.288   3.384  12.900 -0.3554 -0.4231  0.4784
    9TMC3     O13942   0.333   3.492  12.935  0.0648 -0.7411  0.5886
    9TMC3     H13943   0.461   3.461  12.726  0.8735  0.7608  2.6411
    9TMC3    H113944   0.245   3.139  12.880  0.5871 -0.5983  0.5189
    9TMC3    H213945   0.558   3.066  12.609  1.5315  1.8688 -1.0611
    9TMC3    C713946   0.391   2.945  12.743  0.1323 -0.0209  0.1864
    9TMC3    C813947   0.651   3.320  12.586 -0.3901  0.4796  0.8528
    9TMC3    O113948   0.278   2.906  12.712 -0.0765  0.6145 -0.0910
    9TMC3    O213949   0.649   3.435  12.545 -0.2901 -0.0908 -0.3927
   10MPD2     C13950   1.060   3.156  12.315 -0.7266  0.2218 -0.0112
   10MPD2    C113951   1.036   3.076  12.422  0.2224  0.5649 -0.1614
   10MPD2    C213952   0.938   3.116  12.510  0.0072  0.2047  0.3540
   10MPD2    C313953   0.859   3.227  12.485  0.3192  0.5377  0.2321
   10MPD2    C413954   0.886   3.315  12.383 -0.4633 -0.0041  0.3399
   10MPD2    C513955   0.996   3.280  12.303 -0.7378 -0.2317  0.0410
   10MPD2     H13956   0.904   3.045  12.584 -2.0117  0.7323 -0.0721
   10MPD2    H113957   0.820   3.398  12.361  1.2309  1.5608  1.1538
   10MPD2    H213958   1.131   3.123  12.240  1.8736  0.8316  2.1634
   10MPD2    H313959   1.026   3.339  12.217 -0.8381 -1.4004 -0.7975
   10MPD2     N13960   0.752   3.226  12.573 -0.0342 -0.0223 -0.0126
   10MPD2    H513961   0.739   3.140  12.624 -0.3598 -0.0958 -0.2176
   10MPD2    N113962   1.112   2.957  12.441 -0.3615  1.1999 -0.0878
   10MPD2    H713963   1.158   2.914  12.361  1.0463  0.4321  1.1261
   11MPD2     C13964   2.406   2.410  13.984 -0.1397 -0.0514 -0.1933
   11MPD2    C113965   2.274   2.429  13.954  0.0773 -0.6764 -0.4130
   11MPD2    C213966   2.230   2.515  13.848  0.0292 -0.1305 -0.0744
   11MPD2    C313967   2.321   2.582  13.775 -0.6604  0.6091  0.5745
   11MPD2    C413968   2.456   2.563  13.808 -0.0904  0.0484 -0.5509
   11MPD2    C513969   2.496   2.488  13.917 -0.5312 -0.0270  0.9078
   11MPD2     H13970   2.124   2.536  13.845 -0.1019 -0.9779 -1.4461
   11MPD2    H113971   2.532   2.605  13.744 -0.8057  2.4758  0.1827
   11MPD2    H213972   2.444   2.343  14.060 -1.8363  2.8982  3.2401
   11MPD2    H313973   2.604   2.485  13.922 -0.5504 -0.9901  0.6773
   11MPD2     N13974   2.286   2.671  13.665 -0.1058 -0.3262 -0.1689
   11MPD2    H513975   2.359   2.704  13.603 -0.5192 -2.9593 -2.0910
   11MPD2    N113976   2.175   2.361  14.037 -0.0257 -0.0978  0.7337
   11MPD2    H713977   2.077   2.366  14.014  0.0035  0.3554  0.7012
    1MPD1     C13978   4.201   2.741  17.376 -0.3639  0.6832  0.5104
    1MPD1    C113979   4.253   2.684  17.261  0.5635 -0.4453  0.1365
    1MPD1    C213980   4.346   2.767  17.199  0.2659 -0.2250  0.3241
    1MPD1    C313981   4.386   2.894  17.250  0.3533  0.1243 -0.2184
    1MPD1    C413982   4.332   2.937  17.363  0.3951  0.0199  0.7993
    1MPD1    C513983   4.242   2.859  17.425 -0.1484 -0.7650  0.3036
    1MPD1     H13984   4.392   2.727  17.109 -2.9354 -2.4771 -0.3148
    1MPD1    H113985   4.347   3.040  17.393 -0.4037  1.3679 -3.4377
    1MPD1    H213986   4.134   2.692  17.445 -0.5039  1.3050  0.8181
    1MPD1    H313987   4.209   2.894  17.522 -0.2270 -0.2070  0.0771
    1MPD1     N13988   4.483   2.982  17.184  0.6610  0.6476  0.0647
    1MPD1    H513989   4.498   3.072  17.229 -2.3122  0.9653  0.4789
    1MPD1    N113990   4.197   2.575  17.202 -0.3959  0.4479  0.1637
    1MPD1    H613991   4.261   2.513  17.152  0.4974  1.5491 -0.0840
    1MPD1    H713992   4.151   2.526  17.279 -0.0696 -2.7648 -1.6907
    2MPD1     C13993   4.303   3.796  16.952  0.9033  0.5935 -0.1730
    2MPD1    C113994   4.270   3.677  16.893 -0.0615 -0.5782 -0.0983
    2MPD1    C213995   4.349   3.566  16.906  0.0452  0.5046  0.1328
    2MPD1    C313996   4.464   3.558  16.981  0.4393 -0.3820 -0.0985
    2MPD1    C413997   4.501   3.685  17.035 -0.0820  0.0493  0.7082
    2MPD1    C513998   4.417   3.798  17.024 -0.2069  0.7581  0.1409
    2MPD1     H13999   4.314   3.472  16.865 -3.7859  1.7150  0.5740
    2MPD1    H114000   4.591   3.709  17.091  0.9182 -1.0467 -0.4240
    2MPD1    H214001   4.245   3.885  16.935  0.2984  0.0056 -1.1955
    2MPD1    H314002   4.458   3.892  17.059 -0.0311  0.2503  1.2931
    2MPD1     N14003   4.542   3.443  16.994 -0.1116 -0.3203  0.2060
    2MPD1    H514004   4.521   3.368  16.929 -0.4619 -0.2891  0.2867
    2MPD1    N114005   4.172   3.682  16.793 -0.1091  0.4822 -0.5013
    2MPD1    H614006   4.134   3.590  16.771 -0.1576  0.2901  0.4001
    2MPD1    H714007   4.097   3.738  16.833  0.8072  0.5548  1.1356
    3TMC3    C114008   4.705   3.291  17.055  0.2912  1.2303 -0.3550
    3TMC3    C214009   0.114   3.271  17.015  0.9209  0.1907  0.4549
    3TMC3    C314010   0.142   3.139  16.989 -0.1096  0.1949 -0.0980
    3TMC3    C414011   4.609   3.194  17.066  0.7432  0.2870 -0.8289
    3TMC3    C514012   4.644   3.067  17.038 -0.3195 -0.4027  0.3657
    3TMC3    C614013   0.049   3.041  17.001  0.4727 -0.9267 -0.5444
    3TMC3     C14014   4.655   3.426  17.066 -0.7279  0.2291 -0.3929
    3TMC3     O14015   4.700   3.497  17.152 -0.3079  0.1525  0.0581
    3TMC3     H14016   0.176   3.355  16.986 -2.8168  2.4140 -1.0616
    3TMC3    H114017   4.505   3.207  17.090  1.0126  2.9487 -1.1237
    3TMC3    H214018   0.073   2.936  17.016  0.4390 -0.9980 -0.9997
    3TMC3    C714019   4.558   2.956  17.072 -0.2009 -0.4582  0.1163
    3TMC3    C814020   0.263   3.108  16.916  0.6941  0.8669  0.2051
    3TMC3    O114021   4.551   2.856  17.007 -0.0326  0.6702  0.1940
    3TMC3    O214022   0.266   3.003  16.858  0.3999  0.2895  0.7481
    4MPD1     C14023   0.733   3.152  16.734  0.5983  0.5658 -0.1714
    4MPD1    C114024   0.717   3.246  16.836 -0.2007  0.5925  0.1827
    4MPD1    C214025   0.594   3.259  16.899  0.2380 -0.1205 -0.7537
    4MPD1    C314026   0.488   3.176  16.861  0.5711  0.0648 -0.1684
    4MPD1    C414027   0.504   3.092  16.751 -0.3481  0.1736  0.3180
    4MPD1    C514028   0.629   3.077  16.694 -0.1452  0.0780  0.8416
    4MPD1     H14029   0.572   3.335  16.973  0.6486 -0.0906 -0.6630
    4MPD1    H114030   0.424   3.031  16.710 -0.1116  1.3172 -1.8502
    4MPD1    H214031   0.822   3.146  16.672  1.2851 -0.4169  0.8988
    4MPD1    H314032   0.636   3.013  16.607 -0.9962  1.5430 -0.2967
    4MPD1     N14033   0.363   3.195  16.927  0.1991 -0.0746 -0.3443
    4MPD1    H514034   0.364   3.258  17.006  1.3698 -0.0897 -0.3485
    4MPD1    N114035   0.820   3.338  16.862 -0.0975 -0.5514  0.5687
    4MPD1    H614036   0.901   3.287  16.896  0.6929  1.5813  1.9362
    4MPD1    H714037   0.796   3.396  16.943  0.2728  0.4857 -0.0665
    1TCq1    O114038   0.468   3.939  11.524 -0.3258 -0.2805  0.3043
    1TCq1    C114039   0.457   3.849  11.623 -0.1741  0.5633  0.1694
    1TCq1    O214040   0.532   3.751  11.625  0.0327 -0.2629  0.7726
    1TCq1    C214041   0.412   3.920  11.749 -0.5252 -0.3344 -0.4561
    1TCq1    C314042   0.356   3.847  11.850 -0.1133  0.1887 -0.9504
    1TCq1    C414043   0.338   3.909  11.967 -1.2654  0.0193  0.1119
    1TCq1    C514044   0.395   4.030  11.992 -0.3613 -0.3161 -0.3551
    1TCq1    C614045   0.446   4.106  11.893 -0.1977  0.8981  0.3566
    1TCq1    C714046   0.460   4.047  11.772 -0.1496  0.1212  0.2012
    1TCq1    C814047   0.492   4.246  11.907  0.3178  0.3901  0.9271
    1TCq1    O414048   0.493   4.318  11.807  0.1563  0.3669  1.0919
    1TCq1    C914049   0.325   3.829  12.084 -0.7013 -0.4388  0.2422
    1TCq1    O514050   0.358   3.869  12.198 -0.5138 -0.3650  0.7983
    1TCq1    O614051   0.254   3.724  12.064 -0.2246  0.2077 -0.1959
    1TCq1    H114052   0.399   4.008  11.538  1.4944  1.2354  1.8646
    1TCq1    H214053   0.346   3.740  11.851  0.9846  0.0992  1.6191
    1TCq1    H314054   0.387   4.068  12.094  0.9477  0.4765 -0.5561
    1TCq1    H414055   0.512   4.098  11.692 -1.0497  2.0334  0.8310
    2MPD1     C14056   0.572   4.642  12.213 -0.4790  0.0766  0.4053
    2MPD1    C114057   0.594   4.530  12.282  0.1158  0.3927 -0.0732
    2MPD1    C214058   0.594   4.405  12.219  0.4849 -0.3563 -0.9095
    2MPD1    C314059   0.556   4.397  12.088  0.2089  0.0214 -0.5175
    2MPD1    C414060   0.537   4.518  12.022 -0.2875 -0.1403  0.3613
    2MPD1    C514061   0.536   4.638  12.083  0.5177  0.2177  0.2789
    2MPD1     H14062   0.615   4.309  12.264 -1.4414  0.2265  1.1978
    2MPD1    H114063   0.512   4.508  11.917  0.2450 -0.5741  0.2739
    2MPD1    H214064   0.588   0.025  12.245 -0.4064 -1.0277  3.9030
    2MPD1    H314065   0.533   0.016  12.034 -0.1294  0.6352  1.1392
    2MPD1     N14066   0.526   4.266  12.038 -0.4112  0.2951 -0.8577
    2MPD1    H514067   0.551   4.192  12.103  0.3314  0.1200 -1.3572
    2MPD1    N114068   0.649   4.540  12.413  0.0551  0.4154  0.0563
    2MPD1    H614069   0.592   4.588  12.483 -0.5580  1.7181 -1.3501
    2MPD1    H714070   0.660   4.446  12.451  0.5060  0.2827 -0.3939
    1TCq1    O114071   0.071   3.529   8.921  0.0440 -0.2804  0.2784
    1TCq1    C114072   0.143   3.440   8.987 -0.5714 -0.4859  0.5403
    1TCq1    O214073   0.108   3.353   9.064 -0.0950  0.0201 -0.1281
    1TCq1    C214074   0.250   3.411   8.897 -0.1507 -0.1169  0.4006
    1TCq1    C314075   0.311   3.520   8.841 -0.4842  0.0294  0.6539
    1TCq1    C414076   0.429   3.500   8.760 -0.0505  0.6116 -0.2799
    1TCq1    C514077   0.486   3.375   8.758  0.2887  0.0189  0.1009
    1TCq1    C614078   0.417   3.269   8.821  0.3675  0.6180 -0.6077
    1TCq1    C714079   0.298   3.283   8.892  0.0477 -0.4623 -0.2722
    1TCq1    C814080   0.476   3.136   8.822 -0.3629  0.2077 -0.7200
    1TCq1    O414081   0.405   3.045   8.864  0.5866  0.2829  0.1399
    1TCq1    C914082   0.502   3.615   8.698  0.0402 -0.2489  0.5971
    1TCq1    O514083   0.463   3.729   8.733  0.3105  0.5260 -0.0746
    1TCq1    O614084   0.612   3.594   8.651  0.0006  0.1336 -0.3382
    1TCq1    H114085   0.098   3.546   8.829 -0.0516 -2.9843 -0.2619
    1TCq1    H214086   0.282   3.621   8.869 -0.2670  0.4609 -0.6800
    1TCq1    H314087   0.582   3.364   8.710 -0.5958 -2.5641 -1.0859
    1TCq1    H414088   0.240   3.202   8.934  1.8364 -1.8889 -0.5310
    2MPD1     C14089   0.877   2.826   8.729  0.6712 -0.5643  0.4112
    2MPD1    C114090   0.908   2.955   8.697 -0.1705 -0.1694  0.3512
    2MPD1    C214091   0.826   3.061   8.746  0.5015 -0.3460  0.0405
    2MPD1    C314092   0.698   3.028   8.784  0.0415 -0.1351 -0.0253
    2MPD1    C414093   0.661   2.896   8.806  0.1467  0.1260 -0.3062
    2MPD1    C514094   0.752   2.795   8.782 -0.2908  0.3884 -0.1372
    2MPD1     H14095   0.856   3.165   8.741  1.0333 -0.3366  3.7155
    2MPD1    H114096   0.568   2.869   8.854 -0.1738 -0.1084 -1.0652
    2MPD1    H214097   0.961   2.758   8.726  1.6362  0.6951 -0.9556
    2MPD1    H314098   0.728   2.695   8.816  1.9307 -0.8002 -2.0228
    2MPD1     N14099   0.606   3.132   8.789 -0.7723 -0.2491 -0.0423
    2MPD1    H514100   0.648   3.220   8.759  0.7319  0.2753  3.5113
    2MPD1    N114101   1.036   2.969   8.644 -0.2674 -0.5968 -1.0082
    2MPD1    H614102   1.071   2.890   8.591  0.8627  0.4316 -1.8147
    2MPD1    H714103   1.038   3.043   8.575  1.9139 -0.5289 -0.8727
    1MPD1     C14104   1.679   3.603  11.801  0.6199  0.4417  1.3465
    1MPD1    C114105   1.703   3.633  11.930  0.1035 -0.0882 -0.6738
    1MPD1    C214106   1.836   3.650  11.962 -0.4002 -0.6122  0.3684
    1MPD1    C314107   1.935   3.640  11.867  0.5823 -0.0256  1.0703
    1MPD1    C414108   1.905   3.621  11.739 -0.1413  0.0650 -0.1475
    1MPD1    C514109   1.778   3.605  11.706  0.0990  0.4543  0.3897
    1MPD1     H14110   1.864   3.661  12.067  1.6918 -2.4978 -0.0068
    1MPD1    H114111   1.979   3.621  11.660 -0.5202 -0.6605 -0.5048
    1MPD1    H214112   1.582   3.585  11.756  1.5900  2.0856 -1.3295
    1MPD1    H314113   1.756   3.566  11.607  1.3378  0.3883  0.1371
    1MPD1     N14114   2.066   3.651  11.909 -0.3035 -0.3155  0.7998
    1MPD1    H514115   2.084   3.687  12.002  0.3430 -1.1768  1.0109
    1MPD1    N114116   1.602   3.628  12.027  0.0902  0.0697 -0.5395
    1MPD1    H614117   1.508   3.623  11.988  0.7338 -1.0979 -1.9312
    1MPD1    H714118   1.601   3.678  12.116  1.3347  2.4547 -1.8532
    2MPD1     C14119   2.151   4.297  10.308 -0.0802 -0.3157  0.2990
    2MPD1    C114120   2.280   4.251  10.320 -0.3144  0.5834 -0.0977
    2MPD1    C214121   2.309   4.159  10.418 -0.0854 -0.2905  0.5525
    2MPD1    C314122   2.211   4.110  10.508 -0.0054  0.3694  0.3971
    2MPD1    C414123   2.078   4.146  10.482 -0.3847  0.6264 -0.4499
    2MPD1    C514124   2.051   4.247  10.390  0.1138  0.0164 -0.4772
    2MPD1     H14125   2.412   4.125  10.424  0.3832  1.6130  3.1930
    2MPD1    H114126   1.995   4.114  10.545 -0.6004  2.7200  0.3717
    2MPD1    H214127   2.119   4.379  10.245  2.1869 -1.0442 -1.8052
    2MPD1    H314128   1.949   4.270  10.361 -0.0055 -0.1232 -0.1639
    2MPD1     N14129   2.242   4.023  10.612 -0.6827  1.0354 -0.2513
    2MPD1    H514130   2.162   3.988  10.663  0.0198  0.1759  0.2537
    2MPD1    N114131   2.378   4.312  10.241  0.0840 -0.1825 -0.5750
    2MPD1    H614132   2.334   4.343  10.155  1.3580  1.1590 -0.7379
    2MPD1    H714133   2.461   4.256  10.222  0.6082 -0.1030  1.4390
    3MPD1     C14134   2.048   3.782  11.463 -0.2030 -0.2996  0.6829
    3MPD1    C114135   2.185   3.782  11.449  0.0163  0.5648  0.2291
    3MPD1    C214136   2.242   3.733  11.333 -0.2051 -0.1275 -1.1551
    3MPD1    C314137   2.163   3.718  11.220 -0.4423  0.1020  0.0435
    3MPD1    C414138   2.028   3.737  11.231 -0.4481 -0.4366 -0.2936
    3MPD1    C514139   1.974   3.761  11.355  0.3331  0.8363  0.1025
    3MPD1     H14140   2.344   3.696  11.329 -0.9786 -2.3029 -1.0328
    3MPD1    H114141   1.963   3.739  11.145 -2.6355 -1.5558  1.3604
    3MPD1    H214142   1.994   3.807  11.553 -0.2593  0.7867  0.3511
    3MPD1    H314143   1.868   3.781  11.358  0.5172  2.0142 -1.3660
    3MPD1     N14144   2.231   3.684  11.099 -0.9276 -0.0315 -0.7980
    3MPD1    H514145   2.328   3.660  11.119 -0.8897  2.4857  2.0189
    3MPD1    N114146   2.253   3.795  11.568 -0.4653  0.3751  0.4275
    3MPD1    H614147   2.348   3.831  11.565  0.8141 -2.9045  1.4425
    3MPD1    H714148   2.214   3.864  11.632 -0.7117 -0.5416  1.2557
    4MPD2     C14149   2.616   4.140  11.838  0.1017 -0.7356  0.3329
    4MPD2    C114150   2.665   4.013  11.867 -0.0010  0.1133  0.1151
    4MPD2    C214151   2.796   3.981  11.833  0.1691  0.9799 -0.0423
    4MPD2    C314152   2.869   4.075  11.762 -0.1397  0.4685  0.0763
    4MPD2    C414153   2.812   4.193  11.727 -0.4372  0.0959  0.1791
    4MPD2    C514154   2.684   4.227  11.760  0.0195 -0.2382  0.0991
    4MPD2     H14155   2.836   3.884  11.861  0.5978  0.7923 -1.3194
    4MPD2    H114156   2.866   4.271  11.675  0.9766 -1.4030 -0.6393
    4MPD2    H214157   2.513   4.168  11.856  0.1671 -0.3529  0.1092
    4MPD2    H314158   2.647   4.320  11.719  1.5573 -0.1093 -0.9866
    4MPD2     N14159   2.997   4.034  11.722  0.2763 -0.1160  0.2442
    4MPD2    H514160   3.010   3.934  11.730 -0.5477 -0.2587 -0.1517
    4MPD2    N114161   2.595   3.910  11.935 -0.4696 -0.4899 -0.1428
    4MPD2    H714162   2.654   3.830  11.957 -0.9517 -0.6265  0.6383
    5TMC3    C114163   2.420   3.805  12.040  0.0805  0.3364  0.0137
    5TMC3    C214164   2.306   3.761  11.976 -0.4444  0.7482  0.1910
    5TMC3    C314165   2.299   3.640  11.920 -0.3932 -0.0335  0.2143
    5TMC3    C414166   2.519   3.709  12.047  0.1470 -0.3830 -0.0305
    5TMC3    C514167   2.509   3.592  11.977  0.3308  0.3498 -0.3079
    5TMC3    C614168   2.398   3.552  11.908  0.2846 -0.0485  0.1196
    5TMC3     C14169   2.464   3.923  11.968 -0.1886 -0.4055 -0.5878
    5TMC3     O14170   2.380   4.010  11.963 -0.0308 -0.4210 -0.3593
    5TMC3     H14171   2.231   3.839  11.962  0.9487  2.3830  1.8807
    5TMC3    H114172   2.609   3.731  12.103 -1.1436 -0.7843  2.2330
    5TMC3    H214173   2.391   3.459  11.853 -1.8346 -0.0538  0.3909
    5TMC3    C714174   2.637   3.568  11.904  0.1943 -0.2319 -0.5280
    5TMC3    C814175   2.182   3.609  11.839 -0.3388  0.5606  0.2668
    5TMC3    O114176   2.717   3.659  11.922  0.4601  0.2358 -0.2453
    5TMC3    O214177   2.199   3.530  11.743  0.0423 -0.4248  0.3769
    6TMC3    C114178   2.378   3.873  10.749  0.2359 -0.1376 -0.2434
    6TMC3    C214179   2.269   3.794  10.774 -0.8086 -0.8605 -0.0532
    6TMC3    C314180   2.291   3.703  10.879 -0.7138 -0.8380  0.0308
    6TMC3    C414181   2.506   3.844  10.782 -0.3242 -0.6249  0.0908
    6TMC3    C514182   2.526   3.745  10.878  0.1278 -0.3444  0.3452
    6TMC3    C614183   2.421   3.688  10.939 -0.7320  0.2411 -0.6524
    6TMC3     C14184   2.367   3.980  10.643 -0.1035  0.0821 -0.8006
    6TMC3     O14185   2.471   4.028  10.602  0.0124  0.1267 -0.4203
    6TMC3     H14186   2.167   3.810  10.741  0.0012  0.2763 -1.9909
    6TMC3    H114187   2.589   3.904  10.745  1.0139 -1.3837  1.8328
    6TMC3    H214188   2.447   3.610  11.010  0.5480  1.9139  0.7406
    6TMC3    C714189   2.654   3.723  10.938 -0.1055  0.2823 -0.0935
    6TMC3    C814190   2.183   3.689  10.968  0.3950  0.0226 -0.4402
    6TMC3    O114191   2.665   3.673  11.050 -0.1911 -0.2902  0.4280
    6TMC3    O214192   2.076   3.734  10.932  0.8397 -0.7974  0.1178
    7MPD2     C14193   2.904   3.413  11.500  0.2842  0.1519  0.1197
    7MPD2    C114194   2.935   3.514  11.597  0.4929  0.5123 -0.8789
    7MPD2    C214195   2.849   3.518  11.705 -0.3042  0.0018  0.0409
    7MPD2    C314196   2.729   3.449  11.712 -0.5001  0.1561  0.6711
    7MPD2    C414197   2.703   3.358  11.616 -0.3911 -0.3740 -0.1160
    7MPD2    C514198   2.783   3.347  11.506 -0.8890  0.1553  0.3445
    7MPD2     H14199   2.881   3.569  11.795  1.8888  0.3030 -0.9083
    7MPD2    H114200   2.606   3.309  11.614 -1.4205  1.6203  0.7691
    7MPD2    H214201   2.965   3.394  11.412  0.5887  0.5687  0.2369
    7MPD2    H314202   2.761   3.266  11.437  0.5335 -2.2213  2.6891
    7MPD2     N14203   2.634   3.468  11.807 -0.2549  0.1972 -0.1841
    7MPD2    H514204   2.550   3.411  11.801 -0.5381  0.4099  1.8454
    7MPD2    N114205   3.062   3.580  11.594  0.3901  0.5987 -0.6174
    7MPD2    H714206   3.129   3.552  11.523  0.5672 -0.5785  0.0122
    8TMC3    C114207   3.193   3.780  11.601  0.0268  0.5987 -0.3115
    8TMC3    C214208   3.199   3.774  11.464  0.3053  0.3781 -0.2754
    8TMC3    C314209   3.198   3.897  11.406 -0.4703  0.1157  0.0203
    8TMC3    C414210   3.203   3.899  11.676 -0.5257 -0.3521 -0.5380
    8TMC3    C514211   3.199   4.015  11.605 -0.0650 -0.6634 -0.1181
    8TMC3    C614212   3.199   4.019  11.471  0.3449 -0.2264  0.3807
    8TMC3     C14213   3.097   3.693  11.669 -0.0824 -0.3241  0.6705
    8TMC3     O14214   3.037   3.754  11.759  0.1102  1.0003 -0.0347
    8TMC3     H14215   3.183   3.685  11.405  0.7750 -0.5772  1.0478
    8TMC3    H114216   3.202   3.904  11.784  0.9111  0.6619 -0.5560
    8TMC3    H214217   3.209   4.118  11.428 -1.6382  0.4237  1.4300
    8TMC3    C714218   3.089   4.101  11.639  0.7053 -0.2518 -0.4885
    8TMC3    C814219   3.191   3.913  11.263  0.3734 -0.4978 -0.0931
    8TMC3    O114220   3.078   4.213  11.589 -0.1001  0.3426 -0.5145
    8TMC3    O214221   3.277   3.986  11.213  0.0311  0.7868  0.4196
    9MPD2     C14222   3.143   3.871  10.973 -0.1068  0.3499 -0.1496
    9MPD2    C114223   3.056   3.827  11.077 -0.2385 -0.1125 -0.1294
    9MPD2    C214224   2.925   3.785  11.039 -0.1682 -0.8174 -0.0729
    9MPD2    C314225   2.890   3.790  10.907  0.5196  0.2563  0.1263
    9MPD2    C414226   2.979   3.822  10.809 -0.0668 -0.7217 -0.2121
    9MPD2    C514227   3.109   3.844  10.842  0.5610  1.0557 -0.8686
    9MPD2     H14228   2.857   3.753  11.118  0.0660  0.8021  0.7746
    9MPD2    H114229   2.949   3.787  10.710  0.9582 -1.8878 -0.1107
    9MPD2    H214230   3.242   3.911  10.994  0.4401 -1.3388  0.4514
    9MPD2    H314231   3.164   3.879  10.756  2.9054 -0.3028  0.0468
    9MPD2     N14232   2.760   3.757  10.857  0.5829 -0.1129 -0.0785
    9MPD2    H514233   2.745   3.782  10.759 -1.6828  0.6424  0.4570
    9MPD2    N114234   3.089   3.837  11.208  0.2154 -0.1394  0.7247
    9MPD2    H714235   3.025   3.794  11.275  1.1801 -0.2984  1.5335
    1MPD1     C14236   2.832   2.650  16.431  0.2926 -0.7585  0.7040
    1MPD1    C114237   2.729   2.698  16.348 -0.2780  0.1451 -0.5215
    1MPD1    C214238   2.627   2.611  16.339 -0.7002 -0.2306  0.9807
    1MPD1    C314239   2.613   2.498  16.425 -0.0183 -0.3646  0.4085
    1MPD1    C414240   2.709   2.467  16.517  0.0303  0.4184  0.2056
    1MPD1    C514241   2.819   2.548  16.510 -0.8217  0.6570 -0.4005
    1MPD1     H14242   2.547   2.626  16.267  0.2660 -1.8913 -0.4379
    1MPD1    H114243   2.696   2.394  16.595 -0.3563 -0.0146 -0.2631
    1MPD1    H214244   2.919   2.714  16.441 -1.5149  1.9389 -0.5358
    1MPD1    H314245   2.906   2.510  16.564 -0.0408  1.2580 -1.2365
    1MPD1     N14246   2.490   2.424  16.407  0.3497  0.3634 -0.0778
    1MPD1    H514247   2.422   2.452  16.337  0.4816 -2.0271 -1.1748
    1MPD1    N114248   2.744   2.800  16.256  0.8611 -0.2119 -0.4142
    1MPD1    H614249   2.810   2.873  16.285 -0.9258  1.5925 -0.8890
    1MPD1    H714250   2.654   2.840  16.232  0.2594 -0.6296  1.1394
    2MPD1     C14251   2.500   1.877  15.772 -0.1497 -0.9946  0.5059
    2MPD1    C114252   2.488   2.013  15.751 -0.0567 -0.1532  0.1305
    2MPD1    C214253   2.420   2.075  15.852  0.4113  0.1436 -0.2704
    2MPD1    C314254   2.354   2.012  15.954  0.2223 -0.0647  0.6268
    2MPD1    C414255   2.361   1.873  15.966  0.8594 -0.2581 -0.0569
    2MPD1    C514256   2.434   1.810  15.875  0.0509 -0.5815 -0.2547
    2MPD1     H14257   2.429   2.183  15.843 -0.9342  0.2988  0.2105
    2MPD1    H114258   2.321   1.825  16.054  1.5429 -3.0079 -1.2561
    2MPD1    H214259   2.554   1.811  15.705  0.9608 -1.2262  1.6241
    2MPD1    H314260   2.450   1.703  15.879 -1.4000 -0.7283  1.5611
    2MPD1     N14261   2.286   2.094  16.047  0.3460 -0.3337  0.1971
    2MPD1    H514262   2.294   2.195  16.038  0.9410 -0.3796  0.2325
    2MPD1    N114263   2.569   2.075  15.657  0.6020 -0.3753 -0.1494
    2MPD1    H614264   2.576   2.015  15.576  1.4004  1.8315 -1.7227
    2MPD1    H714265   2.549   2.171  15.629 -1.1185 -0.7256 -0.1268
    3TCq2    C114266   2.214   2.051  16.153 -0.3709  0.6209  0.5429
    3TCq2    O214267   2.182   1.936  16.180  0.1994  0.2251  0.1326
    3TCq2    C214268   2.199   2.153  16.262 -0.1881 -0.5736  0.1346
    3TCq2    C314269   2.109   2.116  16.359  0.5200  0.0570  0.1929
    3TCq2    C414270   2.119   2.171  16.480 -1.1288  0.1877  0.5672
    3TCq2    C514271   2.233   2.238  16.518  0.3067  0.3138 -0.0819
    3TCq2    C614272   2.325   2.255  16.427 -0.1540  0.4726 -0.6998
    3TCq2    C714273   2.307   2.230  16.292  0.1975 -0.1804 -0.5786
    3TCq2    C814274   2.448   2.309  16.474  0.3150  0.7263 -0.4588
    3TCq2    O414275   2.500   2.249  16.569  0.1353  0.4535  0.1150
    3TCq2    C914276   2.013   2.155  16.574 -0.1515  0.2754 -0.3849
    3TCq2    O514277   1.907   2.099  16.529  0.3906  0.8219 -0.7584
    3TCq2    O614278   2.026   2.212  16.687  0.3387  0.9594 -0.2590
    3TCq2    H214279   2.015   2.070  16.333  0.1318  2.1863 -2.1295
    3TCq2    H314280   2.233   2.286  16.616  2.1819 -2.8900  1.4837
    3TCq2    H414281   2.380   2.245  16.213  0.6008  2.0295  0.2194
    1TCq1    O114282   4.390   1.071  12.149 -0.0062 -0.4511 -0.7705
    1TCq1    C114283   4.316   1.146  12.240  0.6519 -0.5036 -0.2262
    1TCq1    O214284   4.195   1.164  12.226  0.5757 -0.0181  0.6022
    1TCq1    C214285   4.377   1.118  12.369  0.7781 -0.6210  0.5423
    1TCq1    C314286   4.301   1.060  12.467  0.2058 -0.1271 -0.6074
    1TCq1    C414287   4.357   1.044  12.588 -0.4134 -0.0944  0.1062
    1TCq1    C514288   4.487   1.089  12.612 -0.0658 -0.7669 -0.0753
    1TCq1    C614289   4.559   1.146  12.509  0.5759 -0.4658 -0.2095
    1TCq1    C714290   4.505   1.155  12.382  0.4495 -0.2036  0.4643
    1TCq1    C814291   4.694   1.196  12.527 -0.4672 -1.3090 -0.0269
    1TCq1    O414292   0.039   1.215  12.427 -0.4156 -0.0838  0.0935
    1TCq1    C914293   4.275   0.981  12.695  0.0513  0.3306  0.0391
    1TCq1    O514294   4.343   0.934  12.786 -0.4292  0.0666  0.7092
    1TCq1    O614295   4.151   0.983  12.677 -0.4943 -0.3990 -0.3945
    1TCq1    H114296   4.476   1.044  12.188 -1.3211 -0.7626  1.8985
    1TCq1    H214297   4.196   1.037  12.457  0.2194 -0.8652  0.8726
    1TCq1    H314298   4.529   1.081  12.712 -1.1718  2.8680  0.6730
    1TCq1    H414299   4.559   1.196  12.298 -1.3528  0.8757 -0.1612
    2MPD2     C14300   0.250   1.256  12.635  0.1912 -0.1942  0.6732
    2MPD2    C114301   0.135   1.237  12.713  0.0081  0.5330 -0.7309
    2MPD2    C214302   0.164   1.255  12.845  1.1557 -0.0309  0.1943
    2MPD2    C314303   0.293   1.253  12.903  0.0733 -0.9005  0.6246
    2MPD2    C414304   0.395   1.269  12.816 -0.3963  0.4733  0.0332
    2MPD2    C514305   0.372   1.274  12.685 -0.1305 -0.1795  0.1493
    2MPD2     H14306   0.079   1.254  12.913  0.2664  1.0022 -0.9016
    2MPD2    H114307   0.496   1.281  12.854 -0.3112 -0.1569  0.0156
    2MPD2    H214308   0.230   1.250  12.529 -0.6456 -1.2216  0.8821
    2MPD2    H314309   0.458   1.271  12.619 -1.1653 -3.6988 -1.0385
    2MPD2     N14310   0.314   1.235  13.042 -0.0228 -0.1312 -0.2599
    2MPD2    H514311   0.234   1.238  13.104  2.3341 -1.5003  2.8574
    2MPD2    N114312   0.008   1.213  12.661 -0.3344 -0.6010  0.3749
    2MPD2    H714313   4.647   1.219  12.723  0.1874 -1.9282  1.1787
    3TCq1    O114314   0.796   1.336  13.519  0.3992  0.1071  0.4131
    3TCq1    C114315   0.732   1.232  13.469  0.1202 -0.4136  0.5639
    3TCq1    O214316   0.783   1.121  13.448  0.0845  0.4352 -0.0626
    3TCq1    C214317   0.603   1.264  13.420  0.1685 -0.2191 -0.1661
    3TCq1    C314318   0.515   1.340  13.493  0.2655  0.0056  0.2335
    3TCq1    C414319   0.394   1.366  13.439  0.3968 -0.2837 -0.6772
    3TCq1    C514320   0.354   1.319  13.310  0.1385  0.6276 -0.0458
    3TCq1    C614321   0.446   1.239  13.251 -0.3912  0.4075 -0.7663
    3TCq1    C714322   0.571   1.208  13.302 -0.4628 -0.0896  0.5614
    3TCq1    C814323   0.437   1.212  13.107  0.3535  0.2722  0.5146
    3TCq1    O414324   0.550   1.205  13.054  0.0697  0.2211  0.0217
    3TCq1    C914325   0.306   1.465  13.503 -0.2049  0.2565  0.0190
    3TCq1    O514326   0.336   1.488  13.626  0.6074  0.0486 -0.4918
    3TCq1    O614327   0.206   1.498  13.438 -0.3492 -0.1515  0.4558
    3TCq1    H114328   0.736   1.411  13.539  1.0355  0.7758 -0.1944
    3TCq1    H214329   0.545   1.373  13.592  0.7185 -2.2850  0.8493
    3TCq1    H314330   0.265   1.355  13.261 -1.8947 -0.9954  2.4806
    3TCq1    H414331   0.643   1.155  13.241 -1.2947 -0.6336  0.0585
    1MPD2     C14332   0.070   2.358  14.886 -0.5032  0.0417 -0.2958
    1MPD2    C114333   4.714   2.252  14.841 -0.2278 -0.1120  0.0465
    1MPD2    C214334   0.041   2.123  14.863  0.3024  0.3558 -0.1907
    1MPD2    C314335   0.137   2.093  14.954 -0.0620  0.0064 -0.1365
    1MPD2    C414336   0.209   2.194  15.010  0.3780  0.4286 -0.0422
    1MPD2    C514337   0.174   2.323  14.974 -0.2782  0.2235  0.0785
    1MPD2     H14338   4.711   2.033  14.827 -0.3947  0.0988  1.3824
    1MPD2    H114339   0.285   2.180  15.086  2.8494 -1.1508 -2.8308
    1MPD2    H214340   0.048   2.463  14.873 -1.3824 -0.2736 -1.4227
    1MPD2    H314341   0.223   2.406  15.023 -0.4419  1.4337 -1.8404
    1MPD2     N14342   0.160   1.958  14.981  1.0449  0.7783  0.8542
    1MPD2    H514343   0.092   1.895  14.940 -0.1936  1.3693  2.0048
    1MPD2    N114344   4.614   2.292  14.754 -0.2228 -0.0198  0.6534
    1MPD2    H714345   4.617   2.389  14.724  0.9110 -1.2519 -3.1618
    2TMC3    C114346   4.458   2.241  14.581  0.6398 -0.1830 -0.0240
    2TMC3    C214347   4.391   2.135  14.527 -0.2808  0.5644 -0.2473
    2TMC3    C314348   4.389   2.115  14.393 -0.3573 -0.2137  0.5408
    2TMC3    C414349   4.518   2.331  14.499 -0.1066 -0.8689 -0.2629
    2TMC3    C514350   4.497   2.322  14.361  0.1744  0.5639  0.3811
    2TMC3    C614351   4.438   2.214  14.310 -0.3246 -0.2915 -0.3552
    2TMC3     C14352   4.525   2.203  14.703  0.2293 -0.9643  0.0891
    2TMC3     O14353   4.504   2.091  14.755  0.0284  0.0961  0.0834
    2TMC3     H14354   4.351   2.059  14.594 -1.6991 -1.4031 -3.3399
    2TMC3    H114355   4.563   2.420  14.542  1.4754 -0.7946 -2.0865
    2TMC3    H214356   4.431   2.211  14.202 -0.5345  0.2435 -0.3580
    2TMC3    C714357   4.507   2.442  14.278  0.0559 -0.0098  0.3268
    2TMC3    C814358   4.456   1.992  14.350  0.6393 -0.8224 -0.2321
    2TMC3    O114359   4.433   2.454  14.182 -0.1289  0.1450 -0.3437
    2TMC3    O214360   4.491   1.971  14.234  0.0736 -0.2211 -0.3085
    3TCq1    O114361   0.750   3.268  14.370  0.4623 -0.3270 -0.0003
    3TCq1    C114362   0.643   3.243  14.282  0.2240 -0.9644  0.4355
    3TCq1    O214363   0.629   3.281  14.166 -0.6568 -0.9694 -0.0548
    3TCq1    C214364   0.543   3.162  14.345 -0.4637 -0.6800 -0.6652
    3TCq1    C314365   0.573   3.089  14.459 -0.1684  0.2389 -0.5357
    3TCq1    C414366   0.479   3.022  14.530  0.6819  0.8595 -0.3258
    3TCq1    C514367   0.356   3.000  14.477 -0.5222  0.0970 -0.1128
    3TCq1    C614368   0.317   3.076  14.364  0.1379  0.2000 -0.1169
    3TCq1    C714369   0.414   3.158  14.295  0.1588  0.1841 -0.3521
    3TCq1    C814370   0.196   3.047  14.298  0.2752 -1.4173  0.3522
    3TCq1    O414371   0.159   3.132  14.218 -0.1020  0.1127 -0.1665
    3TCq1    C914372   0.518   2.942  14.644  0.2580  0.4875  0.0566
    3TCq1    O514373   0.626   2.967  14.700 -0.1224 -0.1768 -0.3561
    3TCq1    O614374   0.458   2.838  14.668  0.5400 -0.1779 -0.9894
    3TCq1    H114375   0.739   3.233  14.461 -2.1818  0.8392  0.1582
    3TCq1    H214376   0.673   3.083  14.500 -0.6929 -1.8853  0.4476
    3TCq1    H314377   0.282   2.947  14.535  0.6424  0.1240  1.4252
    3TCq1    H414378   0.386   3.216  14.208 -3.6369 -2.1861 -0.6781
    4MPD2     C14379   4.691   2.907  14.195 -0.8077 -0.1112  0.8179
    4MPD2    C114380   0.053   2.848  14.285  0.0452  0.1185 -0.0421
    4MPD2    C214381   0.016   2.723  14.331  0.4402 -0.2989  0.0442
    4MPD2    C314382   4.621   2.658  14.283 -0.0502  0.0676  0.2879
    4MPD2    C414383   4.536   2.724  14.197 -0.1167 -0.1384 -0.4641
    4MPD2    C514384   4.572   2.850  14.150 -0.1595 -0.7687  0.2610
    4MPD2     H14385   0.087   2.664  14.387 -1.7848 -1.3286  1.7888
    4MPD2    H114386   4.437   2.690  14.166  0.1171 -0.3913 -0.9287
    4MPD2    H214387   4.716   3.009  14.166  2.0054 -1.2870 -0.8449
    4MPD2    H314388   4.507   2.915  14.092  1.5645  1.2958  0.6067
    4MPD2     N14389   4.599   2.522  14.329  0.3286  0.0896  0.0345
    4MPD2    H514390   4.665   2.480  14.394 -0.9660  0.6335  1.6853
    4MPD2    N114391   0.160   2.918  14.337 -0.0091  0.4939  0.4987
    4MPD2    H714392   0.217   2.869  14.405 -1.4453  1.0390  2.0993
    5TMC2    C114393   0.104   1.611  14.939 -0.4845 -0.8158 -0.2101
    5TMC2    C214394   0.061   1.553  15.053 -0.7541 -0.0468 -0.2632
    5TMC2    C314395   0.095   1.609  15.169 -0.0593  0.7515 -0.2526
    5TMC2    C414396   0.194   1.713  14.945  0.5899 -0.1206  0.2807
    5TMC2    C514397   0.243   1.756  15.065  0.5527 -0.4842 -0.8911
    5TMC2    C614398   0.184   1.711  15.175 -0.6172  0.0910  0.1698
    5TMC2     C14399   4.719   1.663  14.853 -0.1272 -0.0013 -0.2867
    5TMC2     O14400   4.696   1.782  14.864 -0.3524  0.0998  0.2637
    5TMC2     H14401   4.711   1.469  15.051 -1.1223  0.2777 -0.9391
    5TMC2    H114402   0.227   1.766  14.856  0.6114  0.0301  0.3771
    5TMC2    H214403   0.214   1.751  15.271  0.7089  1.4885 -0.8466
    5TMC2    C714404   0.262   1.902  15.062 -0.0012 -0.2791 -0.3629
    5TMC2    C814405   0.051   1.542  15.288  0.0193 -0.8871  0.0952
    5TMC2    O114406   0.358   1.953  15.119 -0.1698  0.4088  0.8659
    5TMC2    O214407   0.036   1.420  15.305 -0.4156  0.2264 -0.1227
    5TMC2    O514408   0.004   1.640  15.368  0.0453 -0.3355 -0.1993
    5TMC2    H514409   4.694   1.721  15.320  1.5829  0.8077  0.7877
    6MPD2     C14410   4.576   1.705  14.370 -0.3701  0.3684 -0.9390
    6MPD2    C114411   4.553   1.795  14.474 -0.6360 -0.2686  0.3229
    6MPD2    C214412   4.589   1.753  14.605 -0.4964  0.4388  0.3777
    6MPD2    C314413   4.638   1.619  14.627 -0.1980 -0.3617  0.2051
    6MPD2    C414414   4.647   1.531  14.523  0.1416 -0.8440 -0.0820
    6MPD2    C514415   4.621   1.582  14.398 -0.1260 -0.3329  0.0186
    6MPD2     H14416   4.576   1.824  14.685 -1.2637  2.6095 -1.6705
    6MPD2    H114417   4.687   1.431  14.539  1.9810 -0.1525 -0.3589
    6MPD2    H214418   4.590   1.743  14.269  1.7048  3.5215  0.5341
    6MPD2    H314419   4.657   1.519  14.318 -0.1862 -1.7407  1.0927
    6MPD2     N14420   4.687   1.577  14.755 -0.2774  0.2713  0.5420
    6MPD2    H514421   0.002   1.482  14.759  3.3558  1.4704 -2.2337
    6MPD2    N114422   4.498   1.925  14.463 -0.7259  0.0541 -0.2788
    6MPD2    H714423   4.481   1.965  14.555  0.1599 -1.5792  0.5948
  945NH3     N114424   4.664   2.570  13.971  0.1738  0.4849 -0.4397
  945NH3     H214425   0.005   2.642  14.011  1.3616 -0.5866 -0.2961
  945NH3     H314426   0.006   2.493  13.947  2.0663  2.2821 -1.5062
  945NH3     H414427   4.600   2.538  14.042 -0.2473 -1.0912 -1.5516
  946SOD     NA14428   4.244   0.641  15.042  0.2711 -0.0719 -0.1651
  947SOD     NA14429   2.421   2.106  14.339  0.1440 -0.0478  0.7824
  948SOD     NA14430   0.060   2.078   8.205  0.2263 -0.2770  0.4699
  949SOD     NA14431   1.238   1.264  13.975  0.0360  0.3920  0.2800
  950SOD     NA14432   4.319   1.277  10.015 -0.0690  0.0799  0.2081
  951SOD     NA14433   2.373   1.506   1.206  0.0902 -0.2702 -0.2630
  952SOD     NA14434   1.892   2.337  16.810 -0.4511 -0.2823  0.2743
  953SOD     NA14435   1.669   4.488  12.737 -0.1743  0.0394  0.5280
  954SOD     NA14436   3.624   0.681  16.357  0.1161 -0.1090 -0.2198
  955SOD     NA14437   1.508   2.241  15.335  0.0319  0.3281 -0.4127
  956SOD     NA14438   4.401   3.618   1.843  0.1789  0.4578  0.4403
  957SOD     NA14439   1.195   3.171   9.298 -0.9186  0.3148 -0.2353
  958SOD     NA14440   2.122   2.368  15.852  0.0437 -0.3516 -0.4621
  959SOD     NA14441   1.756   2.777  13.970  0.4070 -0.3989  0.3349
  960SOD     NA14442   4.070   0.805  12.746 -0.8729  0.5009 -0.3738
  961SOD     NA14443   0.437   3.305  12.171 -0.0674 -0.0310 -0.0463
  962SOD     NA14444   1.460   4.054   8.011 -0.2947  0.1207  0.3993
  963SOD     NA14445   0.235   2.934   8.735 -0.2641 -0.1793 -0.0169
  964SOD     NA14446   3.071   0.516  12.899  0.4083  0.1955 -0.3003
  965SOD     NA14447   4.089   1.265   9.796 -0.0986 -0.2442  0.0926
  966SOD     NA14448   2.920   0.474  11.601 -0.2836  0.2392 -0.2785
  967SOD     NA14449   1.564   3.139  11.865  0.2573 -0.4387  0.3854
  968SOD     NA14450   1.536   2.069   8.488 -0.2227  0.3451 -0.9139
  969SOD     NA14451   1.227   1.898  11.509  0.5728 -0.3162  0.4428
  970SOD     NA14452   0.050   1.153  11.435 -0.0298 -0.5588 -0.6534
  971SOD     NA14453   0.736   2.377  13.576  0.6442  0.5252  0.3863
  972SOD     NA14454   0.488   1.642   9.359 -0.1766  0.3562  0.0315
  973SOD     NA14455   0.858   1.007  12.509  0.2465 -0.3786 -0.0090
  974SOD     NA14456   3.763   0.028  10.830  0.1555  0.4024  0.1523
  975SOD     NA14457   0.627   0.117  17.409 -0.1372 -0.6743  0.3269
  976SOD     NA14458   2.212   1.708  12.575 -0.5727  0.2304  0.0118
  977SOD     NA14459   3.528   4.538   2.254 -0.3106 -0.2217 -0.2173
  978SOD     NA14460   4.663   2.466   1.484  0.3063 -0.0861 -0.1900
  979SOD     NA14461   2.237   2.294  12.462  0.2080  0.3266  0.0619
  980SOD     NA14462   0.880   3.598  14.043 -0.1243  0.4948  0.4742
  981SOD     NA14463   2.920   0.971   9.479  0.3227 -0.6112 -0.3286
  982SOD     NA14464   2.128   0.998   7.916  0.0059 -0.0825  0.0688
  983SOD     NA14465   4.268   4.155  15.850 -0.1437 -0.5264 -0.3950
  984SOD     NA14466   0.463   1.811  10.590 -0.1631  0.0844  0.0210
  985SOD     NA14467   4.297   0.147   1.500 -0.3248 -0.0374 -0.3152
  986SOD     NA14468   4.297   0.960   3.224 -0.0796 -0.3717 -0.2785
  987SOD     NA14469   0.524   0.727  11.938 -0.1334  0.8935 -0.1439
  988SOD     NA14470   0.326   3.766  12.645  0.3319 -0.0721  0.3891
  989SOD     NA14471   1.768   4.339   2.131 -0.3446 -0.2432  0.6379
  990SOD     NA14472   0.553   4.462   0.163 -0.6518  0.1130  0.2511
  991SOD     NA14473   0.749   1.309  11.039  0.2824  0.0818 -0.3595
  992SOD     NA14474   0.631   2.785  14.843 -0.3501 -0.3657 -0.2963
  993SOD     NA14475   3.685   3.272  10.069 -0.4535  0.3876 -0.1891
  994SOD     NA14476   2.690   2.313   1.751  0.5096 -0.2055 -0.0977
  995SOD     NA14477   0.934   2.437  15.076  0.1146  0.1687 -0.2309
  996SOD     NA14478   4.270   0.752   9.818 -0.3957 -0.1866  0.0042
  997SOD     NA14479   3.155   2.699   8.815  0.5797  0.0425 -0.1325
  998SOD     NA14480   1.747   2.851   2.602  0.4549  0.0146  0.5319
  999SOD     NA14481   0.448   1.899   3.733  0.0379 -0.1344  0.0857
 1000SOD     NA14482   1.407   4.596  16.737 -0.0614  0.4465  0.2204
 1001SOD     NA14483   2.787   4.506   1.367 -0.1632 -0.2992 -0.5263
 1002SOD     NA14484   3.593   1.863  11.312 -0.1223 -0.4890 -0.0496
 1003SOD     NA14485   1.130   1.556  11.456 -0.3220  0.0145  0.1457
 1004SOD     NA14486   3.120   1.345  11.264  0.0353 -0.4534 -0.0686
 1005SOD     NA14487   2.279   0.947  14.098 -0.2395  0.5089 -0.0800
 1006SOD     NA14488   4.277   1.035   0.771  0.3270  0.0671 -0.1545
 1007SOD     NA14489   1.227   2.953   0.293  0.4626  0.1207 -0.2325
 1008SOD     NA14490   3.632   0.498  12.857  0.1632 -0.4837 -0.1780
 1009SOD     NA14491   1.391   1.259  13.690  0.1431 -0.1234  0.0824
 1010SOD     NA14492   0.169   1.399  12.057 -0.2882 -0.0292  0.1439
 1011SOD     NA14493   0.217   1.416  11.323  0.3482  0.1923  0.4419
 1012SOL     OW14494   4.616   4.671  10.387 -0.6471  0.1059  0.0877
 1012SOL    HW114495   4.614   4.602  10.453 -2.7368 -2.5120 -2.7292
 1012SOL    HW214496   4.684   0.013  10.415  0.2300 -0.4561 -0.8285
 1013SOL     OW14497   2.069   0.845  14.070 -0.2534  0.1950 -0.3231
 1013SOL    HW114498   2.042   0.780  14.135 -1.2708  1.4228  0.4898
 1013SOL    HW214499   1.987   0.855  14.021 -1.2858 -1.3452  1.0987
 1014SOL     OW14500   2.280   2.957   7.142  0.2078  0.5245 -0.2547
 1014SOL    HW114501   2.339   2.911   7.082 -0.0337  0.1092 -0.1682
 1014SOL    HW214502   2.325   2.955   7.227  0.8019  0.4081 -0.5702
 1015SOL     OW14503   0.496   0.109   5.232  0.2241 -0.1690 -0.0813
 1015SOL    HW114504   0.581   0.132   5.270 -0.9379  2.6918  0.7230
 1015SOL    HW214505   0.501   0.150   5.146  0.6051 -2.7182 -1.2957
 1016SOL     OW14506   0.767   3.778  11.359 -0.5266 -0.0385 -0.2116
 1016SOL    HW114507   0.747   3.869  11.338 -0.4638  0.3782  1.4997
 1016SOL    HW214508   0.856   3.794  11.391 -0.7803  0.9773 -0.0161
 1017SOL     OW14509   2.328   0.060  10.990 -0.1584 -0.2763 -0.2591
 1017SOL    HW114510   2.421   0.043  11.007  0.3203  1.7229 -0.8953
 1017SOL    HW214511   2.342   0.091  10.901 -0.0046  2.0855  0.5869
 1018SOL     OW14512   3.189   2.176   6.511  0.5308 -0.1117  0.2411
 1018SOL    HW114513   3.101   2.208   6.492  1.0735  0.1301 -1.8632
 1018SOL    HW214514   3.181   2.095   6.562  1.3225 -0.2738  0.0990
 1019SOL     OW14515   3.833   0.293   5.133  0.6542  0.0041 -0.0980
 1019SOL    HW114516   3.876   0.376   5.114 -1.6793  1.3472  0.5028
 1019SOL    HW214517   3.790   0.275   5.049 -1.0492 -1.3983  1.0702
 1020SOL     OW14518   4.292   0.559   0.788 -0.6400  0.0818  0.3913
 1020SOL    HW114519   4.202   0.588   0.778 -0.4534  0.8526  0.9312
 1020SOL    HW214520   4.339   0.631   0.746 -0.3820  0.7820  1.8791
 1021SOL     OW14521   1.158   0.662   5.240 -0.0001  0.3906  0.1315
 1021SOL    HW114522   1.159   0.577   5.196 -2.6816  1.2115 -1.4867
 1021SOL    HW214523   1.090   0.711   5.195 -0.8912 -1.1000 -0.1272
 1022SOL     OW14524   1.304   3.206   8.576  0.4051  0.0888  0.1811
 1022SOL    HW114525   1.230   3.258   8.544 -1.9201 -3.1756  0.2675
 1022SOL    HW214526   1.339   3.173   8.494 -1.1725  0.4659 -0.6458
 1023SOL     OW14527   2.946   3.574   2.592 -0.1392 -0.3537 -0.6087
 1023SOL    HW114528   3.035   3.543   2.610 -0.8170 -2.3291 -0.6690
 1023SOL    HW214529   2.912   3.534   2.672 -1.4417  1.2447 -0.3533
 1024SOL     OW14530   4.707   1.760   3.541 -0.0623 -0.4191  0.3761
 1024SOL    HW114531   0.061   1.781   3.483 -1.0295 -1.1983 -1.1425
 1024SOL    HW214532   0.004   1.820   3.614 -0.5891 -0.0737  0.2120
 1025SOL     OW14533   4.081   0.012   6.407 -0.2321  0.6725 -0.2856
 1025SOL    HW114534   4.160   0.044   6.365 -0.0608 -0.1838 -0.6084
 1025SOL    HW214535   4.116   4.698   6.489 -1.2693  1.2167  0.3836
 1026SOL     OW14536   0.945   1.575   2.521 -0.3517  0.2497 -0.3105
 1026SOL    HW114537   0.967   1.483   2.534  0.5105  0.1103 -2.7780
 1026SOL    HW214538   0.943   1.572   2.426 -0.0313 -0.5553 -0.2895
 1027SOL     OW14539   3.557   1.419  15.515 -0.7761  0.0900  0.5458
 1027SOL    HW114540   3.504   1.391  15.442 -1.0542 -0.1364  0.8364
 1027SOL    HW214541   3.638   1.434  15.466 -1.2415 -1.0815 -0.5702
 1028SOL     OW14542   2.928   1.754   1.826 -0.0568  0.2396  0.4493
 1028SOL    HW114543   2.917   1.780   1.735 -0.7195 -1.9877 -0.1012
 1028SOL    HW214544   3.009   1.704   1.813  0.7877  1.2495  1.7768
 1029SOL     OW14545   0.534   1.880   1.302  0.0703 -0.1512 -0.1481
 1029SOL    HW114546   0.612   1.929   1.328 -0.4499 -0.2284  1.5117
 1029SOL    HW214547   0.461   1.913   1.355 -1.2525  0.0534 -2.0774
 1030SOL     OW14548   2.282   2.112   7.129 -0.2114  0.3770  0.3671
 1030SOL    HW114549   2.271   2.024   7.092  0.4550  0.7278 -0.6541
 1030SOL    HW214550   2.376   2.130   7.131 -0.2549  0.5645  0.6684
 1031SOL     OW14551   1.718   2.175   6.595 -0.6122 -0.2176 -0.7431
 1031SOL    HW114552   1.682   2.135   6.674 -0.6192 -0.4918 -0.8862
 1031SOL    HW214553   1.752   2.103   6.543  0.7651 -0.7651  0.9205
 1032SOL     OW14554   2.374   2.758   8.351 -0.0204 -0.0860  0.1474
 1032SOL    HW114555   2.308   2.828   8.349  0.3147  0.1932 -2.0835
 1032SOL    HW214556   2.434   2.794   8.285 -0.8331  0.1684 -0.4583
 1033SOL     OW14557   3.285   2.134  15.987 -0.3534  0.2552 -0.0131
 1033SOL    HW114558   3.298   2.049  15.945  0.5677 -1.6822  4.2265
 1033SOL    HW214559   3.368   2.172  15.961 -1.2600  1.3820 -1.2710
 1034SOL     OW14560   1.927   4.278   5.381 -0.1010  0.4845  0.0144
 1034SOL    HW114561   1.885   4.192   5.377  1.9935 -0.5349 -0.1917
 1034SOL    HW214562   2.016   4.258   5.411  0.0691  1.3197  0.0633
 1035SOL     OW14563   0.421   0.235  10.652 -0.0693 -0.3525 -0.2699
 1035SOL    HW114564   0.477   0.281  10.714 -2.3107  2.0755 -0.0819
 1035SOL    HW214565   0.394   0.315  10.608 -3.6893 -0.8521  1.0453
 1036SOL     OW14566   4.030   3.248   5.811 -0.5519  0.0443 -0.1435
 1036SOL    HW114567   3.998   3.337   5.796 -1.2678  0.1006  1.7214
 1036SOL    HW214568   4.113   3.253   5.764 -1.4856  1.5500 -1.6300
 1037SOL     OW14569   4.341   1.152   5.454  0.6321 -0.4722 -0.7589
 1037SOL    HW114570   4.408   1.169   5.520 -0.0661 -2.3043  0.4084
 1037SOL    HW214571   4.316   1.231   5.406 -0.4339  0.7645  1.8378
 1038SOL     OW14572   1.960   4.683   8.663 -0.1851 -0.1994  0.7019
 1038SOL    HW114573   2.036   4.660   8.608 -0.3490  0.1427  0.3247
 1038SOL    HW214574   1.990   0.019   8.735 -2.9791  0.7733  1.1107
 1039SOL     OW14575   0.676   3.447   6.831 -0.1965  0.4139  0.2270
 1039SOL    HW114576   0.639   3.418   6.915 -1.3201  2.5959  0.4882
 1039SOL    HW214577   0.764   3.409   6.835 -0.2700  0.1562 -0.7997
 1040SOL     OW14578   0.654   4.185  16.887  0.1411 -0.0581 -0.0995
 1040SOL    HW114579   0.571   4.226  16.909  1.0939  0.9277  1.6762
 1040SOL    HW214580   0.660   4.116  16.954  2.0479  0.2241  0.0223
 1041SOL     OW14581   2.202   4.220   9.972 -0.3477  0.8647 -0.1170
 1041SOL    HW114582   2.135   4.188  10.032 -0.2193  1.2380  0.2312
 1041SOL    HW214583   2.197   4.316   9.972 -1.3527  0.8045 -0.5568
 1042SOL     OW14584   0.491   3.290   6.712  0.1593  0.1815  0.2464
 1042SOL    HW114585   0.440   3.288   6.793 -1.4130  2.0694 -0.6956
 1042SOL    HW214586   0.572   3.338   6.732  0.6155 -1.4014  2.2585
 1043SOL     OW14587   4.116   4.186   6.519 -0.1109  0.2581  0.3135
 1043SOL    HW114588   4.205   4.222   6.513 -0.1064  0.3721  1.0433
 1043SOL    HW214589   4.133   4.097   6.548 -1.4675 -0.9015 -2.4344
 1044SOL     OW14590   3.521   3.211   2.776 -0.3248  0.0169  0.3318
 1044SOL    HW114591   3.470   3.233   2.853 -2.4182  0.7780 -1.2727
 1044SOL    HW214592   3.539   3.121   2.801  0.0894  0.1622  0.5544
 1045SOL     OW14593   0.195   0.842   8.733 -0.5324 -0.4508 -0.4606
 1045SOL    HW114594   0.177   0.839   8.827  2.7164 -0.5723  0.1358
 1045SOL    HW214595   0.253   0.918   8.736 -0.2622 -0.6559 -0.4953
 1046SOL     OW14596   0.927   3.488   5.529 -0.1442  0.5361  0.1706
 1046SOL    HW114597   0.926   3.504   5.623 -2.0377  0.4939  0.1541
 1046SOL    HW214598   0.839   3.452   5.516  0.0131  0.0872  0.3217
 1047SOL     OW14599   4.367   2.645  14.559 -0.6886  0.0699  0.3974
 1047SOL    HW114600   4.434   2.701  14.518 -2.3256  2.4369  0.9224
 1047SOL    HW214601   4.297   2.660  14.496 -1.2412 -1.2389  0.6966
 1048SOL     OW14602   4.492   0.933   7.273 -0.4781 -0.0568  0.8452
 1048SOL    HW114603   4.564   0.971   7.223 -0.4377 -0.6949  0.4194
 1048SOL    HW214604   4.524   0.844   7.260 -0.5957 -0.1246  1.0238
 1049SOL     OW14605   1.439   1.147  10.602  0.2193 -0.1138  0.2118
 1049SOL    HW114606   1.417   1.141  10.695 -1.0132 -1.0535 -0.1470
 1049SOL    HW214607   1.349   1.166  10.576  0.1623 -0.1314  0.4001
 1050SOL     OW14608   0.943   3.397  14.196  0.6966 -0.5366 -0.1128
 1050SOL    HW114609   0.942   3.301  14.195 -0.7248 -0.5243  0.8306
 1050SOL    HW214610   0.869   3.408  14.256  0.4114 -0.2618 -0.5160
 1051SOL     OW14611   0.101   2.979   7.012 -0.1126  0.0054  0.0373
 1051SOL    HW114612   0.131   3.011   6.927 -1.4020 -1.0543 -0.8244
 1051SOL    HW214613   0.112   3.058   7.065  0.7405 -1.5392  2.1291
 1052SOL     OW14614   0.090   0.810   6.643  0.0349 -0.1011  0.1288
 1052SOL    HW114615   0.072   0.717   6.656  2.3820 -0.6265 -0.4036
 1052SOL    HW214616   0.010   0.823   6.592  0.0730 -2.5840 -0.5816
 1053SOL     OW14617   2.596   2.509  14.850  0.1503  0.1066 -0.3507
 1053SOL    HW114618   2.566   2.418  14.854  1.1087 -0.1949  0.1566
 1053SOL    HW214619   2.564   2.543  14.767  2.2997  1.0794 -0.7832
 1054SOL     OW14620   2.812   0.638  11.703  0.0407  0.1674 -0.1069
 1054SOL    HW114621   2.748   0.684  11.648 -1.8309 -3.3781 -0.9112
 1054SOL    HW214622   2.754   0.635  11.779 -1.4423 -0.5232 -1.2548
 1055SOL     OW14623   1.477   1.810   0.933 -0.4591 -0.7136 -0.4198
 1055SOL    HW114624   1.466   1.782   1.024 -0.8643  2.3210  0.4612
 1055SOL    HW214625   1.418   1.747   0.892  1.4720 -2.0705 -1.1406
 1056SOL     OW14626   0.387   4.717   0.764 -0.5950  0.2525 -0.2870
 1056SOL    HW114627   0.443   4.672   0.828 -1.5774 -3.4590 -2.0357
 1056SOL    HW214628   0.319   4.650   0.752 -1.4107  0.5239  2.6747
 1057SOL     OW14629   3.894   1.265   5.815  0.7178 -0.1256 -0.0853
 1057SOL    HW114630   3.951   1.195   5.783  1.3846  0.6770 -0.6302
 1057SOL    HW214631   3.895   1.324   5.740 -1.4025 -0.1260 -0.1288
 1058SOL     OW14632   3.186   2.449   6.215  0.2626 -0.0175 -0.4778
 1058SOL    HW114633   3.277   2.421   6.216 -0.0888 -1.1088  2.8381
 1058SOL    HW214634   3.195   2.545   6.216 -0.8129  0.0616  2.6959
 1059SOL     OW14635   3.974   1.152   9.630 -0.0015 -0.1848 -0.2799
 1059SOL    HW114636   3.997   1.061   9.650  3.1943  0.5001 -0.7437
 1059SOL    HW214637   3.974   1.163   9.535  1.1878  2.4987  0.0194
 1060SOL     OW14638   3.942   1.097  12.244  0.2217  0.2601 -0.2866
 1060SOL    HW114639   3.954   1.050  12.327 -0.6854 -0.3061 -0.4709
 1060SOL    HW214640   4.030   1.105  12.207  0.4946  2.2679  0.8308
 1061SOL     OW14641   3.863   1.923   6.905  0.0578  1.1035  0.2781
 1061SOL    HW114642   3.796   1.977   6.946 -0.1302  0.9327  0.2004
 1061SOL    HW214643   3.937   1.953   6.957 -1.7918  2.7142  1.9739
 1062SOL     OW14644   3.928   1.149   8.456 -0.0404 -0.1642  0.0871
 1062SOL    HW114645   4.004   1.109   8.415 -0.0663  0.2637 -0.3760
 1062SOL    HW214646   3.960   1.162   8.546 -1.8785  0.8365  0.6001
 1063SOL     OW14647   2.653   0.054   0.150  0.4401 -0.6082 -0.6797
 1063SOL    HW114648   2.576   0.019   0.104 -1.3717  2.4561  0.0124
 1063SOL    HW214649   2.670   0.132   0.099 -2.2436  0.2822 -0.2292
 1064SOL     OW14650   4.052   4.056   5.324  0.2349  0.6611 -0.4979
 1064SOL    HW114651   4.065   3.978   5.270 -0.7631  0.5380 -0.5572
 1064SOL    HW214652   4.001   4.022   5.397  1.6604 -2.5792 -1.0029
 1065SOL     OW14653   3.485   0.219   7.225  0.7451 -0.2511 -0.2356
 1065SOL    HW114654   3.403   0.171   7.240 -0.1576  0.8721 -1.6713
 1065SOL    HW214655   3.452   0.282   7.162  1.0471  1.2828  1.1589
 1066SOL     OW14656   1.742   4.202   6.501 -0.1288 -0.2256  0.6098
 1066SOL    HW114657   1.648   4.195   6.517 -0.4211  0.8066 -0.6572
 1066SOL    HW214658   1.786   4.145   6.565 -0.3960 -2.8041 -1.4938
 1067SOL     OW14659   2.291   1.615   8.622 -0.2642  0.1164  0.2673
 1067SOL    HW114660   2.290   1.677   8.695  0.0719  0.9319 -0.4231
 1067SOL    HW214661   2.310   1.537   8.675 -1.9364 -1.0197 -0.8031
 1068SOL     OW14662   4.690   4.273   8.530  0.3572 -0.2993  0.5836
 1068SOL    HW114663   0.057   4.297   8.564 -0.0327 -0.2736  1.5506
 1068SOL    HW214664   4.694   4.315   8.444  0.6745 -1.3152  0.1051
 1069SOL     OW14665   0.231   3.120   2.519  0.0812  0.2455 -0.2143
 1069SOL    HW114666   0.225   3.048   2.582 -0.0006  0.2521 -0.2141
 1069SOL    HW214667   0.326   3.122   2.513  0.1496 -2.0908  0.0945
 1070SOL     OW14668   1.882   1.886   6.597 -0.7260  0.7492  0.1952
 1070SOL    HW114669   1.794   1.916   6.575 -1.2708 -2.4058 -1.9826
 1070SOL    HW214670   1.870   1.846   6.684 -0.1482 -0.0050 -0.0673
 1071SOL     OW14671   1.518   1.415   6.887  0.7348  0.3334  0.3641
 1071SOL    HW114672   1.517   1.428   6.792 -0.9432 -0.6542  0.2422
 1071SOL    HW214673   1.429   1.442   6.911  0.2700 -0.9038  0.0420
 1072SOL     OW14674   3.134   3.088   2.100  0.2230 -0.4001  0.2154
 1072SOL    HW114675   3.046   3.093   2.139  0.4374  1.0144  0.5060
 1072SOL    HW214676   3.187   3.162   2.129 -0.1187  0.0645 -0.3380
 1073SOL     OW14677   3.619   3.002   8.836 -0.5658  0.1759 -0.2414
 1073SOL    HW114678   3.569   3.082   8.850 -1.7068 -0.6436  0.3974
 1073SOL    HW214679   3.569   2.946   8.897  0.9299 -1.3853 -0.4384
 1074SOL     OW14680   3.803   4.375  12.172 -0.0569  0.0545 -0.0096
 1074SOL    HW114681   3.742   4.304  12.196 -0.3169 -0.2909 -1.7156
 1074SOL    HW214682   3.879   4.330  12.135 -0.1928 -0.9429  0.9126
 1075SOL     OW14683   0.711   1.084  12.180 -0.4853  0.0503  0.2786
 1075SOL    HW114684   0.793   1.090  12.229 -2.0698  1.7194  2.7517
 1075SOL    HW214685   0.664   1.160  12.214  0.6968  0.2995  1.3380
 1076SOL     OW14686   0.319   0.118   3.958  0.3111  0.0295  0.2285
 1076SOL    HW114687   0.297   0.037   4.004  1.9839 -0.9611 -0.6927
 1076SOL    HW214688   0.365   0.091   3.878  0.2848  0.6303  0.0080
 1077SOL     OW14689   3.974   1.181   8.770  0.5534 -0.2012  0.5017
 1077SOL    HW114690   3.879   1.168   8.769  0.9325 -2.7733 -3.0713
 1077SOL    HW214691   3.975   1.274   8.750 -1.1898 -0.5615 -1.2758
 1078SOL     OW14692   1.267   4.713   5.734  0.2721  0.0851  0.1715
 1078SOL    HW114693   1.349   4.689   5.778  1.0051  2.2200 -0.0334
 1078SOL    HW214694   1.288   4.701   5.641 -1.7842  1.2683 -0.4244
 1079SOL     OW14695   4.397   2.410   1.982 -0.2356  0.2206 -0.3166
 1079SOL    HW114696   4.451   2.453   1.915 -0.2917  0.3712 -0.2647
 1079SOL    HW214697   4.322   2.465   2.006 -1.2725 -1.7467  0.8680
 1080SOL     OW14698   1.804   1.828   5.709  0.5432  0.4697 -0.2695
 1080SOL    HW114699   1.779   1.821   5.801 -2.0971  1.8052 -0.8713
 1080SOL    HW214700   1.899   1.840   5.710  0.7564 -1.2866  0.4914
 1081SOL     OW14701   4.715   0.329  11.659 -0.0483  0.2350 -0.0039
 1081SOL    HW114702   4.629   0.286  11.667  1.2645 -2.1226  1.3553
 1081SOL    HW214703   0.008   0.347  11.566  3.3468  0.7342  0.5429
 1082SOL     OW14704   3.343   3.659   4.103 -0.5435  0.0558 -0.0041
 1082SOL    HW114705   3.286   3.660   4.180  1.2560  0.2816  1.3426
 1082SOL    HW214706   3.331   3.750   4.078  2.2062  0.4894  0.2488
 1083SOL     OW14707   3.154   1.470   5.060 -0.0813 -0.1830 -0.5333
 1083SOL    HW114708   3.153   1.378   5.033  0.2689 -0.1888 -0.5257
 1083SOL    HW214709   3.247   1.486   5.042 -0.1957  0.5425 -0.4955
 1084SOL     OW14710   3.128   1.357  15.462  0.2268 -0.2510  0.7064
 1084SOL    HW114711   3.100   1.447  15.479  0.4836  0.2900 -1.7918
 1084SOL    HW214712   3.161   1.324  15.546  1.1931 -0.4717  0.2340
 1085SOL     OW14713   0.945   4.407  13.675  0.3875 -0.0743  0.0004
 1085SOL    HW114714   0.951   4.405  13.771  0.4445  2.0953  0.0358
 1085SOL    HW214715   0.866   4.455  13.652  0.0536 -0.4382  0.3946
 1086SOL     OW14716   4.079   3.270   9.696 -0.3273 -0.5308  0.4131
 1086SOL    HW114717   4.166   3.309   9.691 -0.9567  0.7973 -0.3531
 1086SOL    HW214718   4.027   3.346   9.724  0.0193  0.2673 -1.1003
 1087SOL     OW14719   4.129   2.806   8.275 -0.2007  0.4081 -0.3475
 1087SOL    HW114720   4.188   2.828   8.347  0.9696 -1.0538 -0.8590
 1087SOL    HW214721   4.068   2.879   8.289 -2.4597 -1.4985 -0.1578
 1088SOL     OW14722   3.296   3.686   4.933 -0.1957 -0.4908 -0.2056
 1088SOL    HW114723   3.373   3.682   4.989  0.4747 -1.8544 -1.2362
 1088SOL    HW214724   3.235   3.680   5.007  1.3887 -1.2345  1.0265
 1089SOL     OW14725   4.050   0.836  16.388  0.2685  0.1103 -0.1663
 1089SOL    HW114726   4.079   0.773  16.454  1.6218  1.9943  1.0611
 1089SOL    HW214727   4.077   0.793  16.307  1.2546  1.9733 -0.8421
 1090SOL     OW14728   0.845   4.216   8.322 -0.0408 -0.0582  0.7389
 1090SOL    HW114729   0.784   4.289   8.334 -0.2886  0.0653 -1.2502
 1090SOL    HW214730   0.877   4.241   8.236 -2.5545  0.8083  0.0626
 1091SOL     OW14731   4.444   2.109   0.834  0.6717 -0.0829  0.5313
 1091SOL    HW114732   4.507   2.043   0.804  1.1049  1.4020 -1.8452
 1091SOL    HW214733   4.477   2.191   0.797  0.1350 -0.3222 -0.4925
 1092SOL     OW14734   1.049   0.695   4.398 -0.1365 -0.1643  0.0776
 1092SOL    HW114735   1.112   0.652   4.340 -0.8609 -0.3269 -0.5854
 1092SOL    HW214736   1.109   0.752   4.446  0.2043 -1.1474  0.8380
 1093SOL     OW14737   2.795   4.686   9.939  0.3790 -0.4964 -0.2516
 1093SOL    HW114738   2.850   0.023   9.993  0.5109 -0.4227 -0.4616
 1093SOL    HW214739   2.835   4.605   9.971  0.2779 -0.8599 -1.0349
 1094SOL     OW14740   0.692   2.755  11.328 -0.7258 -0.1783 -0.3602
 1094SOL    HW114741   0.758   2.813  11.366  0.4393 -2.1194  0.5807
 1094SOL    HW214742   0.618   2.783  11.380 -0.5413  1.1425 -0.8078
 1095SOL     OW14743   0.811   0.814  11.568  0.3555 -0.3280 -0.5904
 1095SOL    HW114744   0.826   0.767  11.486  2.9454  2.5934 -1.8074
 1095SOL    HW214745   0.861   0.895  11.557  2.6351 -1.5910  0.4845
 1096SOL     OW14746   3.303   2.993   3.855  0.1919 -0.0866 -1.0525
 1096SOL    HW114747   3.372   2.941   3.816 -0.8741 -1.1127 -1.5518
 1096SOL    HW214748   3.231   2.930   3.855  1.3835 -1.4374 -1.0047
 1097SOL     OW14749   0.628   0.483   6.009 -0.1918 -0.8733  0.2077
 1097SOL    HW114750   0.699   0.478   6.073 -0.2997  2.1395  0.5879
 1097SOL    HW214751   0.647   0.399   5.969 -1.7223 -2.3251  2.5056
 1098SOL     OW14752   4.295   1.028   5.885  0.3922  0.3078  0.1276
 1098SOL    HW114753   4.270   0.944   5.849  1.4830  0.2674 -0.5372
 1098SOL    HW214754   4.209   1.064   5.907 -0.6575 -1.9933 -0.2289
 1099SOL     OW14755   1.954   3.598  12.894  0.0686 -0.3122 -0.3831
 1099SOL    HW114756   1.944   3.604  12.989  0.9051 -1.0313 -0.2483
 1099SOL    HW214757   1.923   3.510  12.874  1.3811 -0.9437  0.4106
 1100SOL     OW14758   0.190   3.134   1.997 -0.4483  0.1822  0.0174
 1100SOL    HW114759   0.108   3.090   2.020  0.7242 -1.8703  0.3006
 1100SOL    HW214760   0.179   3.214   2.048  2.7933  0.6786 -0.0321
 1101SOL     OW14761   3.896   2.205   4.804  0.2390 -0.0570 -0.1892
 1101SOL    HW114762   3.892   2.152   4.724 -2.4786  0.7277 -0.5763
 1101SOL    HW214763   3.810   2.246   4.795  0.9924  1.4700 -0.3401
 1102SOL     OW14764   0.598   1.012   1.639  0.0961  0.7334 -0.0049
 1102SOL    HW114765   0.520   1.064   1.656 -1.1256 -0.5069 -1.8338
 1102SOL    HW214766   0.607   1.014   1.544 -2.4151  0.2816 -0.2469
 1103SOL     OW14767   2.099   0.954  16.452  0.1199 -0.1015  0.3320
 1103SOL    HW114768   2.086   1.033  16.398 -2.1434 -0.7476 -0.0441
 1103SOL    HW214769   2.070   0.978  16.540 -2.3154 -0.9751 -0.2475
 1104SOL     OW14770   3.883   1.619  13.256 -0.3202  0.5683 -0.2214
 1104SOL    HW114771   3.902   1.638  13.348  2.8435  0.9669 -0.9394
 1104SOL    HW214772   3.841   1.534  13.267  0.5124  0.2308  0.4150
 1105SOL     OW14773   3.870   3.281  14.553 -0.2018 -0.2093 -0.0786
 1105SOL    HW114774   3.851   3.212  14.490 -2.9609 -0.0402  0.5786
 1105SOL    HW214775   3.824   3.351  14.506  0.0966 -0.9345 -1.4788
 1106SOL     OW14776   0.802   4.190   3.455 -0.2523 -0.0558 -0.6126
 1106SOL    HW114777   0.851   4.252   3.402  0.4644  0.5821  0.8019
 1106SOL    HW214778   0.856   4.111   3.445  1.0494  0.6388  0.9842
 1107SOL     OW14779   0.524   1.372   8.983 -0.2058  0.6105 -0.1119
 1107SOL    HW114780   0.559   1.324   8.908 -0.3245 -1.3281  1.0901
 1107SOL    HW214781   0.581   1.346   9.055 -0.2387  2.0887  0.4416
 1108SOL     OW14782   1.310   2.395   5.978 -0.4570  0.9373 -0.0200
 1108SOL    HW114783   1.255   2.470   6.001 -0.4319  1.0955 -0.4757
 1108SOL    HW214784   1.278   2.354   5.898  0.3395 -0.6853  0.4841
 1109SOL     OW14785   0.139   0.432   7.191 -0.1720  0.4489  0.0492
 1109SOL    HW114786   0.122   0.517   7.232 -1.9675 -0.7638  1.8057
 1109SOL    HW214787   0.225   0.411   7.227  0.0648  2.0914  0.4487
 1110SOL     OW14788   0.771   3.526   5.181 -0.1461 -0.0491  0.2049
 1110SOL    HW114789   0.757   3.587   5.109  2.7609  1.0161  0.5743
 1110SOL    HW214790   0.686   3.482   5.187  1.2050 -2.7069 -0.1575
 1111SOL     OW14791   1.380   0.887   4.163 -0.2571 -0.3601  0.2132
 1111SOL    HW114792   1.362   0.972   4.124 -0.4804 -0.2616  0.5234
 1111SOL    HW214793   1.338   0.826   4.103 -2.8566  0.9197  0.7252
 1112SOL     OW14794   1.797   2.375   8.067 -0.1177 -0.6369 -0.5404
 1112SOL    HW114795   1.839   2.442   8.013  0.4513  0.4556  1.2407
 1112SOL    HW214796   1.876   2.339   8.107  0.5083  1.0025 -0.2956
 1113SOL     OW14797   3.901   2.711   7.179  0.0205 -0.0791  0.6320
 1113SOL    HW114798   3.970   2.746   7.236  0.3896 -0.5307  0.4604
 1113SOL    HW214799   3.956   2.654   7.126 -0.3523  0.6225 -0.5004
 1114SOL     OW14800   3.628   4.033   6.555  0.0423  0.0779 -0.0385
 1114SOL    HW114801   3.701   4.030   6.493 -0.3898  1.2417 -0.6036
 1114SOL    HW214802   3.559   3.987   6.508 -1.3018 -0.1113  2.1159
 1115SOL     OW14803   4.706   4.238   4.597 -0.2978  0.4789 -0.2665
 1115SOL    HW114804   4.687   4.328   4.623 -2.6067 -0.1888  0.3756
 1115SOL    HW214805   0.080   4.243   4.578 -0.1290  3.4080  1.4348
 1116SOL     OW14806   2.245   0.103  10.447  0.5964 -0.4486  0.3020
 1116SOL    HW114807   2.207   0.032  10.499  0.5299 -1.1026 -0.6439
 1116SOL    HW214808   2.199   0.109  10.363  1.8415 -0.9271 -0.4249
 1117SOL     OW14809   2.049   1.599   6.767  0.1238  0.4642 -0.7691
 1117SOL    HW114810   2.013   1.596   6.856  1.0220 -1.3021 -0.4719
 1117SOL    HW214811   2.093   1.684   6.769 -0.9032  1.0172 -1.8155
 1118SOL     OW14812   0.715   2.107   2.484 -0.7932 -0.2349 -0.0157
 1118SOL    HW114813   0.772   2.045   2.439  0.1604  0.2761  0.4901
 1118SOL    HW214814   0.636   2.111   2.430 -0.3927 -2.1019 -0.7283
 1119SOL     OW14815   0.753   2.509   4.909 -0.3160 -0.5587 -0.0905
 1119SOL    HW114816   0.780   2.446   4.975 -0.0247  0.7774  1.0669
 1119SOL    HW214817   0.818   2.577   4.926 -0.5046 -0.7088  1.2094
 1120SOL     OW14818   3.386   4.670   8.228  0.0411  0.3958  0.2687
 1120SOL    HW114819   3.464   4.700   8.275  1.6006 -1.0623 -1.4334
 1120SOL    HW214820   3.398   4.576   8.218 -1.5339  0.4477 -2.0872
 1121SOL     OW14821   0.470   2.184   6.553  0.4303 -0.4826  0.0162
 1121SOL    HW114822   0.470   2.161   6.646  5.3189  1.7196  0.5180
 1121SOL    HW214823   0.401   2.250   6.557  1.1213  0.1567  1.0582
 1122SOL     OW14824   2.052   3.925   1.945  0.4038 -0.5441  0.6158
 1122SOL    HW114825   2.078   3.887   2.028 -0.9114 -0.7750  0.9171
 1122SOL    HW214826   1.957   3.933   1.948  0.3210 -0.9199 -0.7899
 1123SOL     OW14827   3.226   3.783   5.555 -0.0780 -0.1943 -0.2067
 1123SOL    HW114828   3.239   3.798   5.649  0.2018 -2.5564  0.1372
 1123SOL    HW214829   3.162   3.851   5.534 -0.4244  0.1633  1.9504
 1124SOL     OW14830   2.863   0.843  16.739  0.7158 -0.3686 -0.0161
 1124SOL    HW114831   2.938   0.788  16.716  2.3470  1.7020  0.3338
 1124SOL    HW214832   2.792   0.806  16.688  0.7063  1.5239 -1.3990
 1125SOL     OW14833   1.958   3.282   3.624 -0.4789  0.0843 -0.0895
 1125SOL    HW114834   1.916   3.359   3.585 -0.8225  0.3862  0.8749
 1125SOL    HW214835   2.013   3.325   3.690  2.6468 -1.6310 -1.5754
 1126SOL     OW14836   3.012   1.690   2.893 -0.2235 -0.6277  0.3480
 1126SOL    HW114837   2.919   1.716   2.885 -0.5089 -1.7591  0.0551
 1126SOL    HW214838   3.019   1.672   2.799 -1.6375  1.3672 -0.1712
 1127SOL     OW14839   3.493   3.865   6.380  0.1474  0.2231 -0.5662
 1127SOL    HW114840   3.407   3.901   6.360  0.2026 -0.2886 -1.7151
 1127SOL    HW214841   3.478   3.771   6.389 -1.8592  0.8732  2.6268
 1128SOL     OW14842   3.894   0.742   3.382  0.3962  0.0339 -0.2636
 1128SOL    HW114843   3.881   0.652   3.413  2.6196 -0.2715 -0.2264
 1128SOL    HW214844   3.925   0.781   3.464 -0.7516 -1.1204  0.7179
 1129SOL     OW14845   3.117   1.160   6.057  0.6026  0.1766  0.0367
 1129SOL    HW114846   3.185   1.218   6.023 -0.7249  0.5423 -2.0144
 1129SOL    HW214847   3.174   1.083   6.062 -1.0138 -1.0094  0.1384
 1130SOL     OW14848   3.662   4.493  15.704 -0.1263 -0.2209  0.3466
 1130SOL    HW114849   3.612   4.535  15.774 -0.5947 -0.3865  0.1091
 1130SOL    HW214850   3.707   4.428  15.758  1.3745  0.6871  0.1976
 1131SOL     OW14851   4.502   2.638   2.802  0.2849 -0.0828 -0.1787
 1131SOL    HW114852   4.485   2.628   2.895 -1.4324  0.6051 -0.4122
 1131SOL    HW214853   4.445   2.565   2.776  0.3235  0.6602 -2.3551
 1132SOL     OW14854   2.520   1.620   6.229 -0.0315 -0.4663 -0.3548
 1132SOL    HW114855   2.457   1.686   6.256  3.1600  1.8552  1.3484
 1132SOL    HW214856   2.471   1.580   6.156 -3.3708  0.8671  1.1537
 1133SOL     OW14857   3.539   0.562   5.744 -0.0650 -0.0157 -0.2271
 1133SOL    HW114858   3.552   0.557   5.650 -0.2094 -1.9540 -0.1458
 1133SOL    HW214859   3.544   0.470   5.768 -1.5764 -0.5340 -1.9812
 1134SOL     OW14860   1.753   1.294  10.070 -0.7207  0.4945  0.3288
 1134SOL    HW114861   1.674   1.348  10.072 -0.7536  0.4065  1.3756
 1134SOL    HW214862   1.727   1.226  10.008 -0.9452  1.0104 -0.1405
 1135SOL     OW14863   3.337   3.842   0.950 -0.2039 -0.0420  0.6283
 1135SOL    HW114864   3.352   3.867   0.859 -0.3279 -1.4747  0.2077
 1135SOL    HW214865   3.278   3.767   0.938 -0.6331  0.6690 -1.7110
 1136SOL     OW14866   2.685   4.126   6.486 -0.1069 -0.2544  0.0437
 1136SOL    HW114867   2.661   4.092   6.400 -1.4306 -1.8244  1.0365
 1136SOL    HW214868   2.755   4.067   6.514  1.1664  0.6796 -1.1952
 1137SOL     OW14869   3.445   4.390   8.159 -0.3381  0.4391  0.1338
 1137SOL    HW114870   3.405   4.364   8.076  0.3988  1.0046 -0.4056
 1137SOL    HW214871   3.539   4.385   8.141 -0.1763  1.2236  0.7086
 1138SOL     OW14872   0.615   0.921  12.522  0.1017 -0.3190  0.4557
 1138SOL    HW114873   0.588   0.866  12.448  0.8134 -0.0698  0.0156
 1138SOL    HW214874   0.534   0.927  12.574  0.4267 -2.7096  1.2804
 1139SOL     OW14875   0.325   0.635   3.214 -0.0820  0.0711  1.0189
 1139SOL    HW114876   0.286   0.611   3.298 -0.7703  1.6026  1.1380
 1139SOL    HW214877   0.367   0.720   3.221 -1.9368  1.2091 -1.5817
 1140SOL     OW14878   3.731   4.257   5.355 -0.2779 -0.1950  0.0959
 1140SOL    HW114879   3.723   4.169   5.318 -2.2249  0.1776 -0.3953
 1140SOL    HW214880   3.816   4.259   5.398 -0.0224 -2.1836 -0.3052
 1141SOL     OW14881   0.218   2.703  17.057  0.0700 -0.4817 -0.2972
 1141SOL    HW114882   0.195   2.619  17.096 -0.7042 -0.7784 -1.3907
 1141SOL    HW214883   0.163   2.707  16.979 -1.2762  0.9548  0.7236
 1142SOL     OW14884   2.762   1.253  17.167 -0.0924  0.3136 -0.1563
 1142SOL    HW114885   2.824   1.308  17.120  2.5294 -1.7751  0.9100
 1142SOL    HW214886   2.801   1.166  17.161 -1.9184 -0.5358  0.0316
 1143SOL     OW14887   4.211   3.842   3.792  0.1268  0.2646 -0.1203
 1143SOL    HW114888   4.231   3.867   3.882  1.2087 -0.3516 -0.1975
 1143SOL    HW214889   4.277   3.893   3.745 -1.1474  2.9132  0.9543
 1144SOL     OW14890   0.435   3.903   4.388 -0.4251 -0.6411 -0.7994
 1144SOL    HW114891   0.424   3.867   4.476 -2.2014 -1.0810 -1.2143
 1144SOL    HW214892   0.465   3.831   4.331 -0.4318 -1.7904  0.6478
 1145SOL     OW14893   0.022   3.616  12.025 -0.5404  0.1469  0.7644
 1145SOL    HW114894   4.690   3.636  12.103 -0.2486  2.3224  0.3908
 1145SOL    HW214895   0.096   3.676  12.023  3.4055 -4.7958 -1.9415
 1146SOL     OW14896   4.146   0.877  13.105  0.2998 -0.3257 -0.2397
 1146SOL    HW114897   4.241   0.869  13.108  0.5441  2.2869 -0.8839
 1146SOL    HW214898   4.127   0.784  13.113  2.3999 -1.0372 -3.5930
 1147SOL     OW14899   3.493   1.269  11.553  0.0856  0.3139  0.0487
 1147SOL    HW114900   3.468   1.361  11.540 -1.7631 -0.0806  0.9409
 1147SOL    HW214901   3.424   1.223  11.600 -0.3299  1.1802  0.3017
 1148SOL     OW14902   0.249   2.294   8.483 -0.0959  0.2012  0.0198
 1148SOL    HW114903   0.161   2.265   8.507 -0.2895  0.6461 -0.1591
 1148SOL    HW214904   0.305   2.269   8.557 -2.1052 -2.0808  0.7886
 1149SOL     OW14905   3.682   2.372   4.819 -0.2909 -0.1533  0.0259
 1149SOL    HW114906   3.609   2.311   4.824 -0.4214 -0.1345 -1.8426
 1149SOL    HW214907   3.675   2.396   4.727 -1.3574  2.3098  0.7793
 1150SOL     OW14908   0.588   3.952   1.847 -0.0469  0.1695  0.1839
 1150SOL    HW114909   0.619   3.888   1.783 -2.2922  0.4922 -1.2074
 1150SOL    HW214910   0.658   4.018   1.850 -1.6947  1.9793 -0.9752
 1151SOL     OW14911   2.640   4.471   4.888 -0.5472 -0.5760 -0.2800
 1151SOL    HW114912   2.590   4.547   4.858  0.6243  0.2462 -0.1122
 1151SOL    HW214913   2.654   4.419   4.809  1.6144 -1.6620  0.8195
 1152SOL     OW14914   1.950   2.560   1.371  1.0730 -0.7325 -0.2790
 1152SOL    HW114915   1.952   2.589   1.279  0.3411 -1.6311 -0.5770
 1152SOL    HW214916   1.894   2.631   1.401  1.1267 -0.4254 -0.9059
 1153SOL     OW14917   2.102   4.466   4.534 -0.0112  0.6477 -0.0221
 1153SOL    HW114918   2.156   4.389   4.511  1.5916  0.5787  3.8509
 1153SOL    HW214919   2.140   4.541   4.488  0.2072  0.6536  0.1665
 1154SOL     OW14920   4.621   1.241   3.716  0.1303  0.0002 -0.5526
 1154SOL    HW114921   4.677   1.307   3.754 -0.6495  1.8305 -2.5657
 1154SOL    HW214922   4.541   1.251   3.769  0.4088 -0.2691 -0.0832
 1155SOL     OW14923   2.320   4.419   2.845 -0.5303 -0.1255 -0.1464
 1155SOL    HW114924   2.260   4.470   2.791  1.0126 -0.2138 -1.9290
 1155SOL    HW214925   2.351   4.488   2.903 -2.4328 -0.3106  1.1026
 1156SOL     OW14926   0.583   3.326  10.831 -0.4996  0.2807 -0.3589
 1156SOL    HW114927   0.493   3.330  10.864 -0.6647  0.6738 -0.8641
 1156SOL    HW214928   0.633   3.396  10.872  3.1326 -0.9849 -2.6644
 1157SOL     OW14929   1.610   0.706   6.244 -0.1454 -0.1294 -0.0214
 1157SOL    HW114930   1.671   0.741   6.309 -0.9286  0.7352  0.2466
 1157SOL    HW214931   1.530   0.709   6.297 -1.1188 -2.0055 -1.4055
 1158SOL     OW14932   1.437   4.449   6.403 -0.5506  0.2000 -0.4273
 1158SOL    HW114933   1.373   4.497   6.455 -1.2845  0.3949 -1.4909
 1158SOL    HW214934   1.447   4.498   6.321 -0.2214 -1.1018 -1.1600
 1159SOL     OW14935   2.173   0.072  13.544  0.4655 -0.5062 -0.0351
 1159SOL    HW114936   2.160   4.709  13.498 -0.8259 -1.1788  1.5278
 1159SOL    HW214937   2.202   0.048  13.632  0.3125  0.9311  0.4228
 1160SOL     OW14938   2.762   1.965   0.197 -0.2890 -0.3239 -0.2061
 1160SOL    HW114939   2.729   1.986   0.110 -0.6340  0.1779  0.0437
 1160SOL    HW214940   2.690   1.914   0.234  0.4619 -1.1472  0.0989
 1161SOL     OW14941   0.829   2.400   2.093  0.3936  0.2945 -0.0400
 1161SOL    HW114942   0.813   2.470   2.029 -0.0960  0.9958  0.8475
 1161SOL    HW214943   0.809   2.446   2.174  0.0115 -0.1666  0.1265
 1162SOL     OW14944   1.760   4.259   1.439 -0.2000  0.1408 -0.1751
 1162SOL    HW114945   1.670   4.254   1.471 -0.2504 -0.1682 -0.3641
 1162SOL    HW214946   1.785   4.350   1.452  0.5625  0.0896 -1.2147
 1163SOL     OW14947   2.411   4.477  13.817  0.5244  0.4780 -0.3410
 1163SOL    HW114948   2.449   4.558  13.782  1.6686  0.6014  1.1764
 1163SOL    HW214949   2.326   4.515  13.841  0.0086 -0.5714 -0.5093
 1164SOL     OW14950   3.680   2.438  15.172  0.4536 -0.2947  0.4375
 1164SOL    HW114951   3.669   2.532  15.184 -0.1993 -0.2495 -0.5386
 1164SOL    HW214952   3.666   2.411  15.263 -1.3045 -0.3103  0.1502
 1165SOL     OW14953   4.061   2.020   4.088 -0.1326 -1.0592  0.5720
 1165SOL    HW114954   4.085   2.066   4.007  0.2645  0.3970  1.5154
 1165SOL    HW214955   3.966   2.024   4.076  0.0458 -3.1939 -1.5486
 1166SOL     OW14956   2.098   2.832   5.656 -0.5208  0.0096 -0.4013
 1166SOL    HW114957   2.189   2.843   5.684 -0.4787  0.2221 -0.6268
 1166SOL    HW214958   2.046   2.822   5.736 -0.4647 -1.2596 -0.5232
 1167SOL     OW14959   0.990   1.127   1.944  1.0004  0.2255  0.1253
 1167SOL    HW114960   0.923   1.060   1.960  1.9708 -1.3675 -2.4863
 1167SOL    HW214961   0.939   1.199   1.983  1.1658 -0.2121  1.1692
 1168SOL     OW14962   4.406   0.572   7.478  0.3669 -0.9185  0.0208
 1168SOL    HW114963   4.485   0.584   7.530 -0.4773  5.0068 -0.1162
 1168SOL    HW214964   4.439   0.627   7.407 -1.4588  2.1606  1.5572
 1169SOL     OW14965   0.905   1.036   4.148 -0.0505 -0.0274  0.3347
 1169SOL    HW114966   0.979   1.076   4.193  1.5214 -1.5559 -0.8649
 1169SOL    HW214967   0.828   1.077   4.186 -0.3097  0.6629 -0.9338
 1170SOL     OW14968   0.111   0.984   7.138  0.1771  0.1728  0.5555
 1170SOL    HW114969   0.097   0.950   7.050  2.0783  0.4541  0.1594
 1170SOL    HW214970   0.045   1.054   7.141 -1.9079 -1.8017  1.3568
 1171SOL     OW14971   3.412   1.545  11.537  0.5195 -0.6983 -0.3838
 1171SOL    HW114972   3.400   1.622  11.592  1.8451 -0.7055 -0.0910
 1171SOL    HW214973   3.454   1.587  11.461  1.7468 -0.2064  0.5614
 1172SOL     OW14974   3.949   1.007  12.503 -0.1983  0.1350 -0.2067
 1172SOL    HW114975   4.026   1.006  12.560  0.8771 -2.9454 -1.7537
 1172SOL    HW214976   3.878   1.038  12.560  1.0086  2.8538 -0.1681
 1173SOL     OW14977   2.208   1.953  13.919 -0.2629 -0.2185 -0.1771
 1173SOL    HW114978   2.237   1.982  14.006  0.4476  1.0838 -0.8544
 1173SOL    HW214979   2.125   2.001  13.916 -0.3010 -0.3389 -1.1645
 1174SOL     OW14980   4.457   3.189  17.678  0.2908 -0.3954 -0.2347
 1174SOL    HW114981   4.455   3.119   0.063  0.5112 -1.2283 -1.1258
 1174SOL    HW214982   4.396   3.148  17.617 -1.3716 -0.7043  1.6382
 1175SOL     OW14983   0.022   0.611   5.928 -0.1692 -0.5061 -0.3633
 1175SOL    HW114984   0.106   0.656   5.938 -1.8770  2.4678  0.4650
 1175SOL    HW214985   4.697   0.692   5.902 -0.1053 -0.5757 -0.6950
 1176SOL     OW14986   0.665   2.617   9.430  0.4737 -0.4153  0.5234
 1176SOL    HW114987   0.736   2.667   9.469  1.6967 -1.8342  0.1287
 1176SOL    HW214988   0.615   2.583   9.504  0.2767 -1.4518 -0.0819
 1177SOL     OW14989   1.661   1.040  11.767 -0.4991  0.5675 -0.4440
 1177SOL    HW114990   1.649   1.130  11.737 -0.3487  1.1087  1.1664
 1177SOL    HW214991   1.655   0.992  11.684 -3.0707 -0.4483  0.3459
 1178SOL     OW14992   1.734   2.177  14.900 -0.5989  0.4505 -0.6059
 1178SOL    HW114993   1.813   2.142  14.941  0.0090  1.1724 -1.1616
 1178SOL    HW214994   1.696   2.216  14.978 -2.1771  0.5354 -1.4162
 1179SOL     OW14995   3.198   4.302   7.696 -0.5131 -0.1827  0.8644
 1179SOL    HW114996   3.274   4.274   7.746  0.0407 -0.3589 -0.0631
 1179SOL    HW214997   3.240   4.326   7.613 -0.7055 -0.4274  0.6930
 1180SOL     OW14998   4.676   3.780   8.538 -0.1756 -0.0425 -0.0676
 1180SOL    HW114999   4.689   3.711   8.603  0.9816 -1.2369 -1.5741
 1180SOL    HW215000   0.033   3.756   8.486 -0.3558  1.5717 -1.0592
 1181SOL     OW15001   1.065   0.946  13.161  0.3547  0.3802 -0.1927
 1181SOL    HW115002   1.107   0.988  13.086  1.2145 -1.3222 -0.6777
 1181SOL    HW215003   1.141   0.905  13.205 -0.1414  1.4775  1.6846
 1182SOL     OW15004   2.588   1.623  16.435 -0.4369  0.2207  0.6814
 1182SOL    HW115005   2.499   1.658  16.441  0.7688  3.2336  1.1248
 1182SOL    HW215006   2.589   1.585  16.348  2.7598  0.7906  0.4670
 1183SOL     OW15007   3.202   4.014   5.747 -0.2510  0.3681 -0.1067
 1183SOL    HW115008   3.160   4.004   5.833 -0.4464 -0.5431 -0.3031
 1183SOL    HW215009   3.159   4.097   5.726 -0.6038  0.1974 -0.0638
 1184SOL     OW15010   2.995   2.465   2.714 -0.7081 -0.7152  0.1813
 1184SOL    HW115011   3.066   2.492   2.655 -2.2930  2.0724 -0.4721
 1184SOL    HW215012   3.044   2.460   2.795 -0.8344  3.8267  0.5582
 1185SOL     OW15013   2.254   2.366   4.611 -0.5968 -0.1434 -0.1394
 1185SOL    HW115014   2.177   2.422   4.622  0.9543  2.0541 -0.6429
 1185SOL    HW215015   2.214   2.291   4.566 -0.9985  0.1914 -0.3414
 1186SOL     OW15016   2.287   3.995   4.190 -0.3800  0.5478 -0.5602
 1186SOL    HW115017   2.228   4.064   4.221  0.6232  0.8640  0.6565
 1186SOL    HW215018   2.331   4.034   4.113 -0.6745 -1.3421 -1.6773
 1187SOL     OW15019   0.006   1.205   8.940  0.6790  0.6708  0.1219
 1187SOL    HW115020   0.082   1.230   8.992  1.3918  0.5293 -0.8656
 1187SOL    HW215021   0.026   1.258   8.863  3.2385  1.3240  1.2391
 1188SOL     OW15022   3.240   0.414   2.672 -0.4242  0.2017 -0.5975
 1188SOL    HW115023   3.210   0.338   2.721 -0.3264 -0.3365 -1.3657
 1188SOL    HW215024   3.270   0.381   2.587  1.7339 -0.9251  0.6248
 1189SOL     OW15025   3.166   0.900   0.591  0.3530 -0.2786  0.0222
 1189SOL    HW115026   3.154   0.910   0.497  1.1192  1.1236  0.0680
 1189SOL    HW215027   3.248   0.853   0.599  0.6556  0.0014 -1.4441
 1190SOL     OW15028   4.161   2.983   5.974  0.4205 -0.9335  0.0552
 1190SOL    HW115029   4.146   2.994   6.067 -2.5476 -0.6391 -0.4774
 1190SOL    HW215030   4.078   2.945   5.946  0.9088 -2.2310  0.3341
 1191SOL     OW15031   3.174   3.436   4.488 -0.0044 -0.2132 -0.0073
 1191SOL    HW115032   3.113   3.506   4.467 -1.9890 -2.2496 -1.1032
 1191SOL    HW215033   3.120   3.393   4.555  1.6138 -0.6740  1.0017
 1192SOL     OW15034   4.535   1.280   6.759  0.6190  0.8469  0.1860
 1192SOL    HW115035   4.500   1.217   6.823 -2.0863  1.5438 -0.6291
 1192SOL    HW215036   4.508   1.233   6.680 -2.1009  1.6988  0.6052
 1193SOL     OW15037   0.137   1.026   5.026  0.3427  0.2525  0.2239
 1193SOL    HW115038   0.140   0.991   5.115 -3.0553  1.8019  0.9381
 1193SOL    HW215039   0.166   1.117   5.030  0.3334  0.3241 -1.3238
 1194SOL     OW15040   1.277   3.563   7.858 -0.1549 -0.3020 -0.3757
 1194SOL    HW115041   1.246   3.624   7.924 -0.6882 -0.8757 -0.1031
 1194SOL    HW215042   1.271   3.617   7.779  0.5748 -0.9801 -0.9050
 1195SOL     OW15043   1.754   3.967   1.751 -0.1800  0.1683  0.7819
 1195SOL    HW115044   1.779   3.904   1.683 -0.7361  1.3094 -0.4799
 1195SOL    HW215045   1.688   4.019   1.705 -0.3969  0.2518  1.1916
 1196SOL     OW15046   2.211   4.491   9.530 -0.5179 -0.4777  0.2026
 1196SOL    HW115047   2.223   4.518   9.621 -2.6332 -0.7572  0.5597
 1196SOL    HW215048   2.120   4.505   9.502 -1.0849 -0.1521  2.1961
 1197SOL     OW15049   4.696   2.172   2.315  0.8709 -0.3860 -0.4928
 1197SOL    HW115050   4.654   2.088   2.330  2.3431 -1.0959 -0.3165
 1197SOL    HW215051   4.620   2.227   2.299  0.3060 -1.4856 -1.5806
 1198SOL     OW15052   2.538   1.554  16.117  0.5670 -0.3194 -0.3578
 1198SOL    HW115053   2.503   1.523  16.033 -0.3071 -0.3316  0.0120
 1198SOL    HW215054   2.626   1.576  16.086  0.0841  1.3194 -0.5808
 1199SOL     OW15055   1.064   1.971  13.156 -0.2194  0.2591 -0.0776
 1199SOL    HW115056   1.146   2.009  13.124 -0.4732  2.0658  1.4102
 1199SOL    HW215057   1.000   1.998  13.089 -0.3517  0.3162  0.0718
 1200SOL     OW15058   2.946   3.690   0.585  0.3390  0.0251  0.3759
 1200SOL    HW115059   2.960   3.601   0.618 -0.3194 -0.4997 -0.7814
 1200SOL    HW215060   3.034   3.716   0.558 -0.4647  1.6775 -0.6425
 1201SOL     OW15061   1.760   2.671  15.470  0.4348 -0.1135  0.4219
 1201SOL    HW115062   1.837   2.721  15.496 -1.3364  2.8618 -0.0051
 1201SOL    HW215063   1.729   2.741  15.412 -1.6875 -1.3285  0.1027
 1202SOL     OW15064   3.118   2.669   1.150  0.5999 -0.2899  0.0526
 1202SOL    HW115065   3.181   2.714   1.207 -0.5457  0.8497  0.4300
 1202SOL    HW215066   3.106   2.734   1.081  0.3800  0.9540  1.2706
 1203SOL     OW15067   1.603   1.750   4.014 -0.2316  0.3180 -0.3539
 1203SOL    HW115068   1.665   1.722   3.947  0.0300  2.6303 -1.0573
 1203SOL    HW215069   1.524   1.719   3.969 -0.9189  0.5560  0.6738
 1204SOL     OW15070   3.618   3.579   5.734 -0.1187  0.3443 -0.1961
 1204SOL    HW115071   3.556   3.573   5.661  0.5612  1.7530 -0.8907
 1204SOL    HW215072   3.648   3.668   5.716  0.8604 -0.1186 -0.8774
 1205SOL     OW15073   1.132   3.335  11.429  0.0242  0.2945 -0.4976
 1205SOL    HW115074   1.166   3.266  11.372 -2.2621  0.1908 -1.7218
 1205SOL    HW215075   1.154   3.298  11.515 -1.4381 -0.3285 -0.4009
 1206SOL     OW15076   3.582   1.311   8.555  0.7693  0.4784 -0.0556
 1206SOL    HW115077   3.636   1.273   8.625  1.9292  0.6450 -0.8583
 1206SOL    HW215078   3.529   1.367   8.613  0.9984  0.5509  0.0865
 1207SOL     OW15079   2.133   4.053   7.608 -0.3608  0.1571 -0.0230
 1207SOL    HW115080   2.088   3.973   7.635  0.0770 -0.3428 -0.7763
 1207SOL    HW215081   2.168   4.019   7.526  2.0570 -0.9778  1.5155
 1208SOL     OW15082   3.137   3.279   9.747 -0.5910 -0.5592 -0.2805
 1208SOL    HW115083   3.166   3.239   9.829  0.7291  1.8463  0.4284
 1208SOL    HW215084   3.216   3.278   9.693 -0.2604 -2.1734  0.2352
 1209SOL     OW15085   2.989   4.585  12.027 -0.4742  0.0119  0.0927
 1209SOL    HW115086   3.039   4.509  11.997 -0.8612 -0.1239 -0.2272
 1209SOL    HW215087   3.047   4.656  12.000  0.0040  0.5333  2.5647
 1210SOL     OW15088   0.336   1.842  17.121 -0.5296 -0.1857 -0.6913
 1210SOL    HW115089   0.247   1.817  17.096 -1.0387  0.4931  0.4370
 1210SOL    HW215090   0.332   1.931  17.157  1.4227 -1.1268  1.8372
 1211SOL     OW15091   1.512   3.357  11.957 -0.1901 -0.7346 -0.1559
 1211SOL    HW115092   1.420   3.375  11.980  0.2463 -0.6707  1.5556
 1211SOL    HW215093   1.566   3.433  11.977 -1.2550  1.0871 -4.2300
 1212SOL     OW15094   0.203   4.624   5.834  0.0299  0.1880 -0.0237
 1212SOL    HW115095   0.125   4.583   5.795 -0.6976 -0.1421  1.8025
 1212SOL    HW215096   0.167   4.712   5.845  3.3827  1.6262 -0.7630
 1213SOL     OW15097   3.537   1.176   6.845  0.2798  0.1520 -0.1045
 1213SOL    HW115098   3.631   1.189   6.833  0.3501  1.1772  1.5015
 1213SOL    HW215099   3.544   1.177   6.941  1.3138  2.6791 -0.2134
 1214SOL     OW15100   1.580   1.559   9.790 -0.1375  0.1248 -0.0227
 1214SOL    HW115101   1.637   1.574   9.714 -1.6748  0.0809 -1.1782
 1214SOL    HW215102   1.494   1.562   9.749  0.0125  0.2283 -0.3282
 1215SOL     OW15103   3.930   1.086   3.030  0.0444  0.1943  0.0757
 1215SOL    HW115104   3.888   1.158   3.077 -0.4149  0.2993 -0.4933
 1215SOL    HW215105   3.876   1.080   2.951 -1.2897  1.2747  0.9084
 1216SOL     OW15106   0.768   1.436  11.235  0.3510  0.2664  0.4502
 1216SOL    HW115107   0.759   1.530  11.248 -0.1497 -0.3125  4.2171
 1216SOL    HW215108   0.685   1.398  11.265  0.6964  0.1862  1.2955
 1217SOL     OW15109   3.277   3.417  17.358  0.4282 -0.0189  0.4435
 1217SOL    HW115110   3.279   3.322  17.353  2.8403  0.1625 -2.0787
 1217SOL    HW215111   3.337   3.434  17.430 -0.2445  0.4889  0.8932
 1218SOL     OW15112   2.936   0.189   9.469 -0.0125  0.0954  0.0002
 1218SOL    HW115113   2.906   0.150   9.551  3.8442  2.0454  2.2974
 1218SOL    HW215114   2.898   0.123   9.410  2.5939 -1.5401  0.1645
 1219SOL     OW15115   4.449   2.980   8.234  0.4153 -0.1640  0.1647
 1219SOL    HW115116   4.501   2.980   8.314 -0.7854 -1.2772  0.9393
 1219SOL    HW215117   4.396   3.059   8.248  0.4245 -0.0906 -0.2039
 1220SOL     OW15118   3.223   2.587   9.797 -0.8911 -0.0268  0.4750
 1220SOL    HW115119   3.285   2.589   9.869 -0.3880 -0.2536  0.0504
 1220SOL    HW215120   3.281   2.631   9.734 -1.4981  0.0034 -0.0686
 1221SOL     OW15121   1.990   1.564   7.540  0.0519 -0.2025  0.2467
 1221SOL    HW115122   2.071   1.613   7.547 -0.3750  0.7378 -1.4667
 1221SOL    HW215123   2.000   1.529   7.452  0.9377  1.4432 -0.3004
 1222SOL     OW15124   3.455   3.608   1.125 -0.2750  0.0447 -0.0837
 1222SOL    HW115125   3.540   3.636   1.160 -0.6432 -0.7278  1.4446
 1222SOL    HW215126   3.450   3.656   1.042  0.3289  1.1968  0.5413
 1223SOL     OW15127   2.911   3.987  15.612 -0.7739  0.1360 -0.1747
 1223SOL    HW115128   2.923   4.013  15.521  0.7959 -0.0484 -0.0238
 1223SOL    HW215129   2.816   3.987  15.613 -0.7744 -1.3728 -0.5709
 1224SOL     OW15130   3.098   3.334   7.802  0.3639  0.0882  0.4720
 1224SOL    HW115131   3.127   3.328   7.893  0.4023  0.4146  0.4781
 1224SOL    HW215132   3.174   3.289   7.764 -0.9941 -0.0132 -2.1250
 1225SOL     OW15133   3.021   2.311   9.158 -0.0200 -0.2194 -0.3463
 1225SOL    HW115134   2.992   2.233   9.206 -1.4513  1.0571  0.8479
 1225SOL    HW215135   2.942   2.340   9.113  0.4259  0.5075 -0.6632
 1226SOL     OW15136   0.914   2.680   7.731  0.8325  0.2721 -0.0897
 1226SOL    HW115137   0.961   2.608   7.690  0.8599  1.4993 -2.2195
 1226SOL    HW215138   0.951   2.749   7.675  2.6390  0.8047  1.7525
 1227SOL     OW15139   0.757   3.120   7.109  0.1442  0.3703  0.3261
 1227SOL    HW115140   0.768   3.054   7.177 -0.8457  1.4540  1.5552
 1227SOL    HW215141   0.843   3.159   7.095 -0.4974  1.5615 -0.3405
 1228SOL     OW15142   4.624   4.126  14.071 -0.1545  0.2040 -0.2364
 1228SOL    HW115143   4.599   4.104  14.161  0.2701  1.5836  0.2225
 1228SOL    HW215144   4.552   4.079  14.028  0.1950 -2.0530  1.6237
 1229SOL     OW15145   3.427   4.178   7.819 -0.2064  0.2141 -0.3575
 1229SOL    HW115146   3.465   4.120   7.753 -2.8937  0.6607 -2.2721
 1229SOL    HW215147   3.397   4.110   7.880  3.5225  0.4394  1.7734
 1230SOL     OW15148   1.773   0.906  16.214  0.1825 -0.0054 -0.0814
 1230SOL    HW115149   1.779   0.917  16.309 -1.9413  0.8148 -0.0461
 1230SOL    HW215150   1.786   0.813  16.199 -0.7799 -0.1845  0.2034
 1231SOL     OW15151   0.001   3.482  14.454 -0.1676  0.1637  0.2665
 1231SOL    HW115152   4.685   3.480  14.366  2.2658 -2.6232 -0.6376
 1231SOL    HW215153   4.645   3.448  14.502  0.0326  2.1856  2.0532
 1232SOL     OW15154   2.672   3.676  17.029 -0.3838 -0.4800  0.5499
 1232SOL    HW115155   2.647   3.587  17.003  2.6423 -1.2512  0.3214
 1232SOL    HW215156   2.720   3.690  16.947 -2.0925 -0.3813 -0.4448
 1233SOL     OW15157   0.374   1.679   2.501  0.1551  0.5550 -0.0552
 1233SOL    HW115158   0.461   1.659   2.535  0.7192  0.1082 -1.7697
 1233SOL    HW215159   0.331   1.593   2.505  0.4671  0.5230  2.4956
 1234SOL     OW15160   0.736   0.956   1.095 -0.5181  0.0325 -0.2031
 1234SOL    HW115161   0.752   0.952   1.001  0.4121 -1.8325  0.0415
 1234SOL    HW215162   0.780   0.881   1.134 -1.0830 -1.6898 -2.9129
 1235SOL     OW15163   3.370   0.876   8.931  0.0354  0.0823 -0.0714
 1235SOL    HW115164   3.404   0.908   9.015  0.1242  4.1616 -1.6598
 1235SOL    HW215165   3.370   0.955   8.877  0.2066  0.3068  0.2517
 1236SOL     OW15166   2.640   3.150  16.934 -0.1164 -0.3836 -0.4124
 1236SOL    HW115167   2.602   3.065  16.954  0.4872 -0.4306  0.5212
 1236SOL    HW215168   2.727   3.154  16.975 -0.4851 -0.7233  0.3939
 1237SOL     OW15169   2.552   3.613   3.901 -0.3164  0.5913  0.1134
 1237SOL    HW115170   2.549   3.701   3.939 -1.7922 -0.1369  1.6669
 1237SOL    HW215171   2.517   3.562   3.974  0.6318  1.2866  1.0433
 1238SOL     OW15172   2.040   3.375   2.855 -0.0796  0.3515  0.1736
 1238SOL    HW115173   2.133   3.351   2.855 -0.3749 -0.6966  2.6247
 1238SOL    HW215174   2.049   3.450   2.913 -0.9121 -0.0608  0.8235
 1239SOL     OW15175   3.251   1.491   0.624  0.2237 -0.0419  0.4447
 1239SOL    HW115176   3.285   1.563   0.678 -1.6724  0.7096  0.6468
 1239SOL    HW215177   3.199   1.552   0.571  0.6912  0.0760  0.1203
 1240SOL     OW15178   0.181   4.280   2.359  0.0210  0.3335 -0.0198
 1240SOL    HW115179   0.203   4.190   2.334 -0.7813  1.0239 -3.1665
 1240SOL    HW215180   0.086   4.286   2.363 -0.0719  0.8588 -3.4359
 1241SOL     OW15181   3.634   1.813  12.928  0.4310  0.1166  0.4963
 1241SOL    HW115182   3.636   1.907  12.913 -0.0704  0.1794  0.8135
 1241SOL    HW215183   3.546   1.800  12.891  0.1337 -1.1599  1.6236
 1242SOL     OW15184   1.408   2.210   4.922  0.6252  0.5472  0.3912
 1242SOL    HW115185   1.395   2.205   4.827 -1.8339 -1.8754  0.8421
 1242SOL    HW215186   1.319   2.214   4.959  0.4895 -2.2237  0.4187
 1243SOL     OW15187   0.944   3.447   3.367 -0.0234  0.4411  0.2154
 1243SOL    HW115188   0.985   3.361   3.362  1.4717  1.1109  0.7559
 1243SOL    HW215189   0.875   3.448   3.300 -0.4531 -1.8838  0.6292
 1244SOL     OW15190   0.658   2.869   8.348  0.2100  0.7427 -0.3282
 1244SOL    HW115191   0.613   2.787   8.328  0.2697  0.4488  0.7317
 1244SOL    HW215192   0.706   2.880   8.266  1.0543 -1.4259 -0.1316
 1245SOL     OW15193   0.068   0.853   4.726 -0.2563 -0.1531 -0.5718
 1245SOL    HW115194   0.024   0.844   4.810  1.7401  1.9488  0.6949
 1245SOL    HW215195   0.004   0.882   4.661  1.1876  2.6408 -0.7440
 1246SOL     OW15196   2.113   3.200   3.171  0.1479  0.0612  0.2554
 1246SOL    HW115197   2.076   3.287   3.186 -1.1793 -0.4585  0.0341
 1246SOL    HW215198   2.203   3.231   3.172 -0.1571  1.0951 -4.1839
 1247SOL     OW15199   2.546   1.815  17.506 -0.5126 -0.2660  0.0546
 1247SOL    HW115200   2.495   1.847  17.433 -1.3610  2.3782  1.7979
 1247SOL    HW215201   2.541   1.720  17.497 -1.0064 -0.3478  1.1578
 1248SOL     OW15202   3.370   2.334   1.698  0.0892  0.2931 -0.7665
 1248SOL    HW115203   3.443   2.394   1.682  0.7661 -0.0005  1.2206
 1248SOL    HW215204   3.305   2.384   1.649  0.3477  1.2386 -0.1543
 1249SOL     OW15205   4.583   0.835   6.491  1.0027  0.3766  0.7625
 1249SOL    HW115206   4.539   0.764   6.538  0.5234  1.1470  1.4768
 1249SOL    HW215207   4.537   0.914   6.519 -1.5458  0.5242 -3.8163
 1250SOL     OW15208   3.355   4.347   6.113 -0.4556  0.2456  0.0763
 1250SOL    HW115209   3.433   4.291   6.108 -0.9080 -0.4782  1.0433
 1250SOL    HW215210   3.331   4.359   6.022 -0.7398 -0.3669  0.0663
 1251SOL     OW15211   3.848   1.804  11.396  0.2182  0.1264 -0.0096
 1251SOL    HW115212   3.808   1.756  11.323  1.8233 -0.1678 -0.6958
 1251SOL    HW215213   3.938   1.800  11.362 -0.4948  0.8772 -2.0285
 1252SOL     OW15214   0.700   0.834  10.406 -0.5392 -0.0934 -0.6967
 1252SOL    HW115215   0.631   0.884  10.449 -1.9645 -1.5321 -1.3025
 1252SOL    HW215216   0.766   0.903  10.415  1.2209 -1.6044 -2.0562
 1253SOL     OW15217   3.851   2.729   1.938 -0.0393 -0.2483  0.7263
 1253SOL    HW115218   3.931   2.780   1.925 -0.8901  1.0061  0.3543
 1253SOL    HW215219   3.853   2.673   1.861 -0.4630 -0.2203  0.6906
 1254SOL     OW15220   3.006   2.779   6.433  0.2338 -0.0563 -0.2353
 1254SOL    HW115221   2.994   2.717   6.361 -0.1310 -0.6907  0.3662
 1254SOL    HW215222   2.994   2.724   6.511 -0.0507  0.2800 -0.0395
 1255SOL     OW15223   3.051   2.704   1.898 -0.2649 -0.0481 -0.4480
 1255SOL    HW115224   3.054   2.610   1.884  0.9450 -0.1585  0.5870
 1255SOL    HW215225   3.081   2.739   1.814 -1.4543 -0.6538 -1.1246
 1256SOL     OW15226   0.772   1.433   2.965  0.3292  0.1861 -0.0142
 1256SOL    HW115227   0.711   1.481   2.909 -0.0449 -0.4796 -0.1850
 1256SOL    HW215228   0.722   1.442   3.046  1.9836 -0.5929  1.1237
 1257SOL     OW15229   0.451   2.269   3.212 -0.0442 -0.6997  0.1627
 1257SOL    HW115230   0.451   2.207   3.285 -0.3286 -0.7993  0.0756
 1257SOL    HW215231   0.460   2.216   3.132 -0.1004 -1.3390  0.5761
 1258SOL     OW15232   1.595   1.927  17.567 -0.1971  0.5579  0.6089
 1258SOL    HW115233   1.580   1.859  17.501 -1.0432  0.4303  0.9353
 1258SOL    HW215234   1.581   1.886  17.653  0.8445  0.5622  0.7831
 1259SOL     OW15235   0.674   4.578   7.070 -0.0096  0.0952 -0.2459
 1259SOL    HW115236   0.664   4.607   7.161  1.1070 -0.5316  0.0654
 1259SOL    HW215237   0.690   4.485   7.082 -0.3783 -0.0584 -0.9383
 1260SOL     OW15238   0.568   3.262  15.700  0.0126 -0.2008  0.0332
 1260SOL    HW115239   0.614   3.182  15.674  0.8779  0.6215 -0.9537
 1260SOL    HW215240   0.566   3.243  15.794  1.1552 -0.8245 -0.0736
 1261SOL     OW15241   4.609   4.361   6.693 -1.3546 -0.0643 -0.9907
 1261SOL    HW115242   4.616   4.447   6.733  0.5990 -1.7559  2.2890
 1261SOL    HW215243   4.572   4.297   6.754  0.4667 -0.4864 -0.3359
 1262SOL     OW15244   0.953   1.872   0.008 -0.1529 -0.5515 -0.3550
 1262SOL    HW115245   0.992   1.940  17.633 -0.9428  0.2131  0.0294
 1262SOL    HW215246   1.004   1.860   0.089 -0.5579 -0.8135 -0.1395
 1263SOL     OW15247   0.322   3.813   9.632  0.0975 -0.3133  0.5622
 1263SOL    HW115248   0.407   3.772   9.616  0.6285 -0.0618  2.6804
 1263SOL    HW215249   0.338   3.839   9.723 -2.9633  0.5282  0.8598
 1264SOL     OW15250   0.746   0.369   1.257  0.1532 -0.4085 -0.1790
 1264SOL    HW115251   0.726   0.300   1.321  1.0371  0.5471  1.1388
 1264SOL    HW215252   0.842   0.372   1.254  0.1968 -1.1924  0.2440
 1265SOL     OW15253   0.985   2.325  17.283 -0.2846 -0.2386  0.1154
 1265SOL    HW115254   0.946   2.261  17.342  1.4860 -1.1987  0.2231
 1265SOL    HW215255   1.079   2.321  17.299 -0.2328 -0.3721 -0.2147
 1266SOL     OW15256   1.106   3.445  17.263 -0.0231  0.4525 -0.5384
 1266SOL    HW115257   1.015   3.420  17.277  0.1592  0.6148  1.0307
 1266SOL    HW215258   1.113   3.421  17.171 -0.1455  0.8524 -0.6513
 1267SOL     OW15259   0.360   1.599   7.456  0.2347 -0.0962  0.4406
 1267SOL    HW115260   0.434   1.595   7.395  0.9462 -0.6667  1.3476
 1267SOL    HW215261   0.290   1.610   7.391  2.2545  0.6634 -1.6117
 1268SOL     OW15262   1.790   2.405   3.846  0.3866 -0.1064 -0.1415
 1268SOL    HW115263   1.750   2.453   3.920 -0.6329 -0.4604 -0.4675
 1268SOL    HW215264   1.738   2.452   3.781  0.4748  1.6418  1.0483
 1269SOL     OW15265   4.610   2.089   2.043  0.2811  0.6503 -0.4224
 1269SOL    HW115266   4.675   2.144   1.999  0.0200  1.2693 -0.0376
 1269SOL    HW215267   4.531   2.128   2.006 -0.2811  0.6905  0.8114
 1270SOL     OW15268   3.478   3.411  14.898  0.5670 -0.4281 -0.3518
 1270SOL    HW115269   3.566   3.413  14.936 -0.1008  1.3638  1.0815
 1270SOL    HW215270   3.440   3.354  14.965 -2.0023  2.1094  0.3348
 1271SOL     OW15271   3.995   4.421   5.089 -0.5931  0.2535  0.6944
 1271SOL    HW115272   4.046   4.411   5.170 -2.4243  0.2813  1.8524
 1271SOL    HW215273   4.001   4.334   5.050 -2.7774  0.8270 -0.8985
 1272SOL     OW15274   1.777   3.023   8.450  0.0178  0.1416  0.3362
 1272SOL    HW115275   1.696   3.016   8.500 -0.0311  0.6356  0.3311
 1272SOL    HW215276   1.818   2.937   8.463  0.8731  0.6397  0.9748
 1273SOL     OW15277   2.342   1.676   7.993  0.2961  0.0045  0.1415
 1273SOL    HW115278   2.362   1.720   8.076  2.7419  2.0761 -1.5774
 1273SOL    HW215279   2.274   1.730   7.953 -0.2980 -0.1022  1.0006
 1274SOL     OW15280   4.398   2.681  11.493 -0.3260 -0.0440 -0.1016
 1274SOL    HW115281   4.394   2.761  11.440 -0.5244  0.5140  0.7610
 1274SOL    HW215282   4.304   2.675  11.507 -0.0437  0.9990  2.1185
 1275SOL     OW15283   2.757   4.607   5.556 -0.3266 -0.2764  0.1361
 1275SOL    HW115284   2.680   4.599   5.613  2.6955 -0.8603  4.1428
 1275SOL    HW215285   2.766   4.702   5.565 -0.5469 -0.1065 -1.5212
 1276SOL     OW15286   2.282   2.900   5.967  0.5760 -0.7824  0.0814
 1276SOL    HW115287   2.297   2.867   6.056 -1.5084  1.3081  1.2093
 1276SOL    HW215288   2.220   2.836   5.932  1.9001 -2.7973  1.3795
 1277SOL     OW15289   0.280   3.868   8.604  0.1569 -0.0270  0.7594
 1277SOL    HW115290   0.345   3.818   8.654  1.0859  1.8305  1.4009
 1277SOL    HW215291   0.278   3.953   8.647  0.0088  0.4204 -0.1382
 1278SOL     OW15292   0.282   1.471   6.020  0.5263  0.2234 -0.5527
 1278SOL    HW115293   0.311   1.561   6.036 -1.3567  0.9536 -1.2202
 1278SOL    HW215294   0.222   1.487   5.947  0.7928 -0.3260 -0.8982
 1279SOL     OW15295   1.196   4.087   4.294 -0.1461  0.0968 -0.1015
 1279SOL    HW115296   1.153   4.164   4.257 -0.7235 -0.3909 -0.4404
 1279SOL    HW215297   1.288   4.109   4.305  0.0818 -0.7829 -0.2626
 1280SOL     OW15298   2.655   0.759   8.973  0.0572  0.1190  0.4644
 1280SOL    HW115299   2.610   0.677   8.996  1.0713 -0.3308  0.8499
 1280SOL    HW215300   2.743   0.733   9.000  0.6262  1.6517  0.0831
 1281SOL     OW15301   3.744   1.633   9.629  0.3661 -0.3969 -0.0462
 1281SOL    HW115302   3.758   1.541   9.653  2.6348 -0.0285  0.0343
 1281SOL    HW215303   3.688   1.614   9.553  1.3814 -0.1570 -0.8443
 1282SOL     OW15304   2.716   2.297   6.792 -0.6189 -0.0852 -0.1522
 1282SOL    HW115305   2.746   2.387   6.778 -1.5966  0.1798 -0.4841
 1282SOL    HW215306   2.659   2.294   6.716 -0.2512  1.7332 -0.5012
 1283SOL     OW15307   3.226   1.452   6.285  0.2209 -0.1633 -0.0094
 1283SOL    HW115308   3.207   1.542   6.310 -0.1142 -0.2436  0.0308
 1283SOL    HW215309   3.318   1.455   6.261  0.1893  0.3325 -0.0586
 1284SOL     OW15310   1.619   4.167   7.486  0.1674 -0.9633  0.5364
 1284SOL    HW115311   1.606   4.096   7.423 -2.4791 -0.1932  0.2237
 1284SOL    HW215312   1.688   4.217   7.443  0.0040 -2.0460 -0.9779
 1285SOL     OW15313   3.835   3.380   8.076  0.5243  0.2889  0.4492
 1285SOL    HW115314   3.784   3.394   8.156  0.3238 -0.2626  0.4186
 1285SOL    HW215315   3.820   3.468   8.041 -1.4599 -1.1668 -2.4113
 1286SOL     OW15316   4.182   0.146  17.620  0.4059  0.1421  0.1946
 1286SOL    HW115317   4.120   0.207  17.579  0.8233  1.4263  1.4741
 1286SOL    HW215318   4.164   0.066  17.571 -1.0121  1.6274 -1.7333
 1287SOL     OW15319   1.438   2.487  15.953  0.1331 -0.1403 -0.2840
 1287SOL    HW115320   1.408   2.575  15.929  0.2336  0.1099  0.4986
 1287SOL    HW215321   1.373   2.455  16.015 -0.7472  0.7384 -0.7469
 1288SOL     OW15322   0.359   2.287   5.721 -0.0548 -0.1773  0.0588
 1288SOL    HW115323   0.383   2.200   5.690 -0.1517  0.6986 -2.4423
 1288SOL    HW215324   0.272   2.299   5.684 -0.1512 -2.5928 -0.4653
 1289SOL     OW15325   2.818   4.642  16.087  0.6691 -0.0055 -0.2328
 1289SOL    HW115326   2.908   4.648  16.121 -0.1355  1.3682  1.6799
 1289SOL    HW215327   2.786   0.010  16.109  1.3763  0.6520 -1.8149
 1290SOL     OW15328   0.362   3.137   2.226  0.4775  0.8022 -0.6291
 1290SOL    HW115329   0.310   3.149   2.304  0.1968  0.9124 -0.8344
 1290SOL    HW215330   0.300   3.132   2.153  2.5231 -1.6996 -2.2306
 1291SOL     OW15331   3.500   4.366   3.233  0.0125 -0.0679 -0.2340
 1291SOL    HW115332   3.478   4.444   3.284 -1.3836 -0.4975 -0.1736
 1291SOL    HW215333   3.504   4.295   3.297  0.4264 -0.2895 -0.5060
 1292SOL     OW15334   0.670   3.742   4.766  0.2612  0.1971 -0.2259
 1292SOL    HW115335   0.582   3.770   4.741  1.0211  1.0344 -2.0183
 1292SOL    HW215336   0.713   3.734   4.681 -0.5466 -2.3712 -0.3798
 1293SOL     OW15337   4.627   0.810  16.599 -0.0124  0.0160  0.0734
 1293SOL    HW115338   4.640   0.716  16.596  1.2751  0.2176 -0.5394
 1293SOL    HW215339   4.535   0.814  16.572  0.1138  0.9931 -0.2425
 1294SOL     OW15340   0.571   2.306   5.349  0.4058  0.0599 -0.0972
 1294SOL    HW115341   0.557   2.211   5.358  0.3830  0.1590  0.8694
 1294SOL    HW215342   0.495   2.322   5.293  0.0143  0.1740  0.4726
 1295SOL     OW15343   1.284   4.349   2.043 -0.0954  1.2646 -0.2859
 1295SOL    HW115344   1.294   4.438   2.010  0.8987  1.7762  1.4397
 1295SOL    HW215345   1.228   4.317   1.972 -0.0856  2.8564 -1.0020
 1296SOL     OW15346   0.882   2.217   4.815  0.2509 -0.8078 -0.1295
 1296SOL    HW115347   0.932   2.285   4.860 -0.7746 -0.3585  0.3041
 1296SOL    HW215348   0.881   2.158   4.890  0.8976 -0.1567  0.3917
 1297SOL     OW15349   0.850   2.885  11.502  0.0259  0.7124  0.4999
 1297SOL    HW115350   0.835   2.911  11.593  0.1360  0.6435  0.5374
 1297SOL    HW215351   0.944   2.901  11.493 -0.1309  0.6590 -1.3183
 1298SOL     OW15352   0.258   2.720  12.370  0.3072 -0.5043  0.2342
 1298SOL    HW115353   0.257   2.660  12.295  0.4464 -0.2396  0.0207
 1298SOL    HW215354   0.178   2.705  12.420  1.0438 -0.2350  1.5051
 1299SOL     OW15355   4.516   3.034   8.499  0.2625  0.6732  0.7981
 1299SOL    HW115356   4.513   2.939   8.490  1.4272  0.8954 -1.9167
 1299SOL    HW215357   4.439   3.047   8.554 -2.0157 -0.1027 -2.2692
 1300SOL     OW15358   0.247   4.039   2.230 -0.2321  0.2920  0.1860
 1300SOL    HW115359   0.316   4.086   2.185 -0.3003  1.3427  1.1833
 1300SOL    HW215360   0.250   3.954   2.185  0.0280  1.0767 -1.2770
 1301SOL     OW15361   2.664   2.342   2.932 -0.1849  0.3488 -0.3600
 1301SOL    HW115362   2.690   2.340   2.839  0.9873 -0.2526 -0.0220
 1301SOL    HW215363   2.614   2.423   2.945  0.4561  0.4304  1.5039
 1302SOL     OW15364   1.782   2.520  13.229  0.4750  0.0340 -0.6152
 1302SOL    HW115365   1.712   2.499  13.292  1.0480 -2.6528 -0.9052
 1302SOL    HW215366   1.727   2.518  13.151  1.3108 -1.7199 -1.1627
 1303SOL     OW15367   0.981   0.119  13.796 -0.1505  0.5908  0.1869
 1303SOL    HW115368   1.060   0.172  13.799  0.8167 -0.9043  0.9783
 1303SOL    HW215369   0.911   0.185  13.801 -0.7741 -0.0843  0.3679
 1304SOL     OW15370   2.685   4.201   7.418  0.0116 -0.1188  0.2762
 1304SOL    HW115371   2.747   4.260   7.460  0.0420  0.7795 -1.0202
 1304SOL    HW215372   2.621   4.192   7.488 -1.0227 -0.1933 -0.6730
 1305SOL     OW15373   0.196   1.965   8.089  0.0772  0.6167  0.0809
 1305SOL    HW115374   0.208   1.870   8.080  0.8541  0.7591 -0.3642
 1305SOL    HW215375   0.207   1.995   7.999 -0.5217  0.3925 -0.0724
 1306SOL     OW15376   4.049   1.981   7.087  0.1541 -0.4909  0.2046
 1306SOL    HW115377   3.985   2.001   7.155  1.6352 -2.1161  2.0502
 1306SOL    HW215378   4.101   2.059   7.066  0.2119 -0.2050  1.4484
 1307SOL     OW15379   4.504   2.235  10.382  0.6164 -0.5064  0.1200
 1307SOL    HW115380   4.417   2.276  10.373  1.1998  0.2410 -2.1166
 1307SOL    HW215381   4.496   2.151  10.336  1.5175 -0.6171  0.1800
 1308SOL     OW15382   1.252   1.075   1.861 -0.5269 -0.4783  0.2757
 1308SOL    HW115383   1.276   1.161   1.827 -1.7899 -1.3776 -2.9048
 1308SOL    HW215384   1.174   1.093   1.913  0.1206 -2.1303  1.8372
 1309SOL     OW15385   3.673   4.081  11.341 -0.5768 -0.3663  0.5951
 1309SOL    HW115386   3.624   4.022  11.285 -0.8595 -1.8038  2.3700
 1309SOL    HW215387   3.611   4.154  11.339 -2.2817 -1.8330  0.1161
 1310SOL     OW15388   2.952   3.306   0.454 -0.6681  0.2617 -0.1935
 1310SOL    HW115389   2.901   3.305   0.535  1.6784 -0.2198  1.2742
 1310SOL    HW215390   3.041   3.323   0.486  0.0379 -2.1569 -0.8914
 1311SOL     OW15391   0.052   4.008   3.712 -0.6960  0.4864  0.5363
 1311SOL    HW115392   0.003   3.927   3.729 -1.3599  0.3570 -1.8990
 1311SOL    HW215393   0.088   4.036   3.795  0.0998  2.6453 -0.5533
 1312SOL     OW15394   2.949   2.144   2.904 -0.4794  0.2565 -0.0729
 1312SOL    HW115395   2.979   2.115   2.818  1.2774  0.6906  0.3899
 1312SOL    HW215396   2.866   2.096   2.908 -0.5470  0.3623 -0.1804
 1313SOL     OW15397   0.769   4.153   1.914  0.3874 -0.0194 -0.5298
 1313SOL    HW115398   0.851   4.105   1.925  0.5212 -0.0996 -1.8556
 1313SOL    HW215399   0.799   4.243   1.916  0.8006 -0.1508 -0.7772
 1314SOL     OW15400   2.251   3.935   7.386 -0.7158 -0.0280 -0.5309
 1314SOL    HW115401   2.186   3.877   7.347  1.1663 -0.6736 -2.7169
 1314SOL    HW215402   2.322   3.878   7.414 -0.4240  1.2245  1.2320
 1315SOL     OW15403   3.763   2.922   6.176  0.2703  0.2200  0.0645
 1315SOL    HW115404   3.763   2.985   6.105 -2.8026 -0.3860 -0.4812
 1315SOL    HW215405   3.708   2.968   6.240 -0.2290 -2.7338  1.7672
 1316SOL     OW15406   1.381   4.679   0.870 -0.1160  0.4441 -0.2357
 1316SOL    HW115407   1.331   4.680   0.951 -0.0760 -0.6249 -0.1907
 1316SOL    HW215408   1.387   0.052   0.848 -3.1148  0.6646 -0.0806
 1317SOL     OW15409   0.542   3.617   8.183  0.3434  0.0204 -0.5932
 1317SOL    HW115410   0.583   3.651   8.262  0.4965  2.4106 -1.7030
 1317SOL    HW215411   0.451   3.636   8.205  0.6087 -1.1383  1.5409
 1318SOL     OW15412   0.106   4.548  12.991  0.2515  0.2530 -0.2142
 1318SOL    HW115413   0.061   4.569  13.073  2.5815 -2.8199  1.8395
 1318SOL    HW215414   0.038   4.495  12.950  0.7760 -0.9878  0.5459
 1319SOL     OW15415   0.563   0.322   1.963 -0.5356 -0.3968 -0.2004
 1319SOL    HW115416   0.539   0.359   2.047 -0.3316  1.5083 -0.9870
 1319SOL    HW215417   0.636   0.379   1.939 -0.3225 -1.1457 -1.3476
 1320SOL     OW15418   2.620   2.067  14.564  0.3102  0.1549 -0.1779
 1320SOL    HW115419   2.634   2.009  14.639 -2.1513  0.5675  0.6011
 1320SOL    HW215420   2.599   2.003  14.496  2.9884  0.1719 -1.0350
 1321SOL     OW15421   0.290   1.027   0.262 -0.1713  0.0953  0.0977
 1321SOL    HW115422   0.335   1.051   0.181  0.1465 -2.2241 -0.4138
 1321SOL    HW215423   0.353   0.959   0.288 -1.1856 -0.8964 -0.0165
 1322SOL     OW15424   0.175   4.035  15.156  0.0577 -0.8782 -0.4061
 1322SOL    HW115425   0.173   3.951  15.202  1.0703 -0.0137  1.1897
 1322SOL    HW215426   0.245   4.016  15.093  0.4915 -1.6839  0.3187
 1323SOL     OW15427   0.128   4.043  12.198  0.1502 -0.3131 -0.0847
 1323SOL    HW115428   0.149   3.952  12.221  0.8597 -0.5240 -1.5978
 1323SOL    HW215429   0.090   4.046  12.110  3.2893  0.4765 -1.4014
 1324SOL     OW15430   1.410   0.271  13.226 -0.3899 -0.1919  0.3004
 1324SOL    HW115431   1.354   0.344  13.199 -0.5487 -1.0169 -1.6587
 1324SOL    HW215432   1.470   0.257  13.152  0.3064 -1.8206  1.1742
 1325SOL     OW15433   4.331   0.829   8.178  0.2122  0.2457  0.0023
 1325SOL    HW115434   4.343   0.857   8.269 -0.4714 -0.7024  0.3781
 1325SOL    HW215435   4.399   0.763   8.165 -1.1013 -1.2810  0.9007
 1326SOL     OW15436   2.933   0.094   6.452 -0.3664 -0.6273 -0.0122
 1326SOL    HW115437   2.924   0.060   6.362 -0.2416  1.9756 -1.0006
 1326SOL    HW215438   2.994   0.166   6.442  1.4122 -1.8947  1.8922
 1327SOL     OW15439   2.840   1.097  12.961 -0.1559 -0.4130  0.0396
 1327SOL    HW115440   2.802   1.033  12.900 -0.0392 -1.0114  0.6031
 1327SOL    HW215441   2.795   1.176  12.932  0.5582  0.1812  0.5292
 1328SOL     OW15442   2.751   0.183   6.893  0.3327  0.2469 -0.1678
 1328SOL    HW115443   2.718   0.234   6.967  0.7176  3.3982 -2.1771
 1328SOL    HW215444   2.769   0.095   6.926  0.9463 -0.2276 -1.7662
 1329SOL     OW15445   2.559   3.176   6.892 -0.0023  0.1535 -0.1283
 1329SOL    HW115446   2.650   3.164   6.866  0.0447 -1.1966  0.6897
 1329SOL    HW215447   2.523   3.234   6.825 -1.8376  1.2412  1.7816
 1330SOL     OW15448   0.807   2.618  15.113 -0.2694 -0.2700  0.0690
 1330SOL    HW115449   0.789   2.663  15.196  0.2342  0.2415 -0.0983
 1330SOL    HW215450   0.820   2.691  15.054 -2.0865 -0.0750 -0.0836
 1331SOL     OW15451   3.424   2.566   7.295 -0.4755 -0.2034  0.2980
 1331SOL    HW115452   3.361   2.599   7.230  1.0248 -1.2377 -1.6818
 1331SOL    HW215453   3.472   2.647   7.313 -2.2446  1.1293 -0.9074
 1332SOL     OW15454   2.911   3.880   3.522  0.0114 -0.2684  0.2762
 1332SOL    HW115455   3.005   3.864   3.527 -0.1610 -0.5551  2.6411
 1332SOL    HW215456   2.900   3.945   3.591 -1.6736 -0.0607 -0.1828
 1333SOL     OW15457   2.278   2.876  12.132  0.4382 -0.4446  0.1664
 1333SOL    HW115458   2.229   2.830  12.064  1.6675 -1.2785 -0.1744
 1333SOL    HW215459   2.330   2.923  12.067  0.3250  1.6328  1.5890
 1334SOL     OW15460   3.260   3.041   9.896 -0.3676  0.4444  0.0693
 1334SOL    HW115461   3.337   2.985   9.898 -2.9573 -3.1923 -0.7267
 1334SOL    HW215462   3.262   3.075   9.985  1.1359 -0.9313  0.5422
 1335SOL     OW15463   2.719   1.302   7.343 -0.5348 -0.1068  0.0335
 1335SOL    HW115464   2.668   1.269   7.417  0.2681 -1.9175 -0.2207
 1335SOL    HW215465   2.659   1.265   7.279 -2.3694 -1.1141  2.3234
 1336SOL     OW15466   4.055   2.334  17.367  0.3209 -0.0647  0.1334
 1336SOL    HW115467   4.022   2.347  17.456 -0.3834 -2.0849  0.1789
 1336SOL    HW215468   4.132   2.280  17.388 -0.7781 -0.2923  3.5837
 1337SOL     OW15469   4.145   2.651   2.607 -0.4805  0.1486  0.4487
 1337SOL    HW115470   4.052   2.664   2.585 -0.9346 -0.6259  1.8563
 1337SOL    HW215471   4.181   2.738   2.621 -0.2341  0.2486 -0.8294
 1338SOL     OW15472   0.251   1.394   8.101 -0.0075  0.4189 -0.3107
 1338SOL    HW115473   0.173   1.338   8.095 -0.9376  1.5053  1.6669
 1338SOL    HW215474   0.323   1.332   8.115 -0.5490 -0.8176 -2.8451
 1339SOL     OW15475   4.414   1.634   5.325 -0.1006  0.6764  0.0604
 1339SOL    HW115476   4.487   1.578   5.351  1.3046  2.2044 -0.6246
 1339SOL    HW215477   4.434   1.655   5.234 -1.2137  0.5535 -0.2156
 1340SOL     OW15478   1.265   0.126   3.953 -0.4015  0.0109  0.0252
 1340SOL    HW115479   1.217   0.206   3.931 -0.0367  0.7507  1.9176
 1340SOL    HW215480   1.350   0.139   3.912 -0.9567 -0.4929 -1.3099
 1341SOL     OW15481   2.190   4.507   2.627  0.3100  0.5238 -0.1469
 1341SOL    HW115482   2.122   4.520   2.561  0.4192  2.4886  0.1300
 1341SOL    HW215483   2.247   4.455   2.571 -0.2887 -0.6175  0.2962
 1342SOL     OW15484   4.591   0.344   4.026 -0.0094  0.0937 -0.3550
 1342SOL    HW115485   4.563   0.362   4.116  0.2348  1.7077 -0.5946
 1342SOL    HW215486   4.618   0.253   4.032 -1.6615 -0.4350 -0.9196
 1343SOL     OW15487   4.565   0.263   5.087 -0.1697  0.2804 -0.2340
 1343SOL    HW115488   4.642   0.219   5.052 -1.1217 -0.3289 -1.6192
 1343SOL    HW215489   4.509   0.267   5.009 -0.6600 -2.1291 -0.0195
 1344SOL     OW15490   2.313   3.359   4.905 -0.4006  0.1910 -0.1071
 1344SOL    HW115491   2.235   3.310   4.930 -1.6647  1.7929 -0.9016
 1344SOL    HW215492   2.282   3.431   4.849  0.5436 -0.7394 -1.8228
 1345SOL     OW15493   1.266   3.664   2.319 -0.3083 -0.1228  0.3675
 1345SOL    HW115494   1.236   3.754   2.306 -5.0114 -1.2740  3.4657
 1345SOL    HW215495   1.237   3.632   2.233  0.5144  0.8798 -0.2891
 1346SOL     OW15496   1.521   0.024   4.242  0.1443 -0.3083 -0.1819
 1346SOL    HW115497   1.468   0.093   4.283  1.2812  0.7857 -0.5934
 1346SOL    HW215498   1.473   4.670   4.283  0.9308 -0.1457  1.0209
 1347SOL     OW15499   2.970   4.542   6.617  0.1073 -0.9126  0.5208
 1347SOL    HW115500   2.957   4.585   6.533 -2.2679  0.7835  1.7256
 1347SOL    HW215501   2.973   4.615   6.680  1.2837 -0.6091  0.1008
 1348SOL     OW15502   0.263   4.244  12.285  0.1084 -0.3176 -0.2814
 1348SOL    HW115503   0.225   4.162  12.256 -2.5034  0.7911  0.0476
 1348SOL    HW215504   0.342   4.222  12.335  0.1205  0.5726  0.1044
 1349SOL     OW15505   3.847   2.904   9.407 -0.1172  0.1056 -0.0408
 1349SOL    HW115506   3.758   2.932   9.426  0.0732  0.6380  0.0695
 1349SOL    HW215507   3.831   2.812   9.431 -0.0316  0.2778  0.6838
 1350SOL     OW15508   3.071   4.332   2.546  0.2561  0.1181 -0.3450
 1350SOL    HW115509   3.032   4.319   2.632  1.1388 -1.6619 -0.2077
 1350SOL    HW215510   3.157   4.291   2.562 -0.9134 -2.2159 -0.0164
 1351SOL     OW15511   4.598   2.489   4.405 -0.3277 -0.2316  0.1359
 1351SOL    HW115512   4.550   2.448   4.476 -0.5143 -1.5097 -0.7362
 1351SOL    HW215513   4.531   2.488   4.336  0.7125  3.0588 -0.9629
 1352SOL     OW15514   4.028   2.304  12.346  0.1423 -0.3056 -0.1581
 1352SOL    HW115515   4.033   2.347  12.432  0.0690  1.2204 -0.9109
 1352SOL    HW215516   4.080   2.368  12.297 -0.3683  0.0013 -0.3135
 1353SOL     OW15517   4.036   3.240  13.573 -0.3606 -0.6249 -0.5390
 1353SOL    HW115518   4.115   3.249  13.520  0.4460  3.0224  1.3620
 1353SOL    HW215519   4.012   3.150  13.549 -0.7866 -1.0932  1.6764
 1354SOL     OW15520   0.059   0.943   9.553 -0.8207  0.1205 -0.2328
 1354SOL    HW115521   0.093   0.888   9.623  0.0080  0.8960 -0.0196
 1354SOL    HW215522   4.700   0.895   9.528  0.8353 -1.7057 -1.9179
 1355SOL     OW15523   2.547   2.822  13.274  0.3137  0.3117  0.2597
 1355SOL    HW115524   2.599   2.802  13.196  1.0028  0.7665  0.6062
 1355SOL    HW215525   2.459   2.807  13.240  0.3460 -0.1911  0.3971
 1356SOL     OW15526   3.855   2.742   9.079 -0.0751  0.1252  0.4672
 1356SOL    HW115527   3.906   2.816   9.111  0.4752  0.4488 -1.1321
 1356SOL    HW215528   3.874   2.744   8.985  1.4291  0.5625  0.7747
 1357SOL     OW15529   4.333   4.673  10.559 -0.2682 -0.3297  0.2694
 1357SOL    HW115530   4.383   4.592  10.544 -0.9271 -1.2967  3.3952
 1357SOL    HW215531   4.268   4.637  10.619 -0.2375  2.4467  1.9552
 1358SOL     OW15532   3.217   0.275  13.928 -0.2275  0.4315 -0.2162
 1358SOL    HW115533   3.268   0.342  13.973 -1.1381 -0.4782  2.1384
 1358SOL    HW215534   3.252   0.207  13.986  0.0401 -0.3431 -1.2818
 1359SOL     OW15535   4.303   3.869   4.637 -0.6688  0.1382  0.4204
 1359SOL    HW115536   4.243   3.917   4.579 -1.4650 -2.5182 -0.9559
 1359SOL    HW215537   4.373   3.935   4.637  1.7910 -2.4990  1.7702
 1360SOL     OW15538   2.165   0.055   2.762 -0.1549  0.6099  0.3410
 1360SOL    HW115539   2.132   0.089   2.679 -1.6534 -0.4713  0.4897
 1360SOL    HW215540   2.176   4.680   2.748  0.8553  0.9188 -0.9685
 1361SOL     OW15541   4.078   2.041   7.681  0.2834 -1.2885  0.3688
 1361SOL    HW115542   4.171   2.044   7.704  0.5060 -3.5600 -0.2778
 1361SOL    HW215543   4.092   2.011   7.591 -0.2280 -1.3691  0.3184
 1362SOL     OW15544   3.705   2.330   3.066  0.0937  0.2259  0.5466
 1362SOL    HW115545   3.753   2.329   3.148  1.3879 -0.0982 -0.2043
 1362SOL    HW215546   3.683   2.423   3.060  1.2525  0.4964  0.3722
 1363SOL     OW15547   3.053   3.275   2.498 -0.2209  0.3866  0.0855
 1363SOL    HW115548   3.071   3.246   2.587  2.1933  0.8125 -0.2628
 1363SOL    HW215549   2.959   3.260   2.488 -0.5125  1.2880  1.5420
 1364SOL     OW15550   2.620   0.427   4.994  0.3613 -0.1747  0.4446
 1364SOL    HW115551   2.620   0.522   4.985 -1.3986 -0.1170  0.9427
 1364SOL    HW215552   2.559   0.397   4.927  1.3757 -0.1404 -0.4818
 1365SOL     OW15553   0.450   3.926   8.255  0.1459 -0.8440  0.3467
 1365SOL    HW115554   0.403   3.992   8.306 -0.4089 -1.4454  0.6081
 1365SOL    HW215555   0.535   3.944   8.295 -0.3787  0.7359  0.7572
 1366SOL     OW15556   1.596   2.176   4.167  0.5590 -0.1001 -0.6685
 1366SOL    HW115557   1.520   2.183   4.226 -0.0296  0.5572 -1.4947
 1366SOL    HW215558   1.575   2.260   4.126  1.1015  0.7194  0.7326
 1367SOL     OW15559   4.265   1.830   2.939  0.4199  0.1326 -0.1397
 1367SOL    HW115560   4.312   1.908   2.968  0.0595  0.1463  0.4132
 1367SOL    HW215561   4.340   1.791   2.895 -0.2875 -1.9327  0.4727
 1368SOL     OW15562   1.815   2.842   8.714  0.3588 -0.1008  0.4778
 1368SOL    HW115563   1.798   2.770   8.774  1.3931  0.0282  0.9290
 1368SOL    HW215564   1.837   2.917   8.769  2.8760  1.4046 -2.5944
 1369SOL     OW15565   0.562   2.723  10.077 -0.0425 -0.0006 -0.2247
 1369SOL    HW115566   0.542   2.753  10.166 -0.5924 -2.7607  0.5831
 1369SOL    HW215567   0.480   2.712  10.029 -0.5331  4.9873 -0.4324
 1370SOL     OW15568   4.061   3.457  12.364  0.2575  0.3789  0.1788
 1370SOL    HW115569   4.064   3.367  12.333  2.3648  0.5959 -0.2602
 1370SOL    HW215570   4.034   3.434  12.453  1.1917  0.1591  0.4015
 1371SOL     OW15571   0.619   2.004   3.112 -0.0972  0.0526 -0.3691
 1371SOL    HW115572   0.701   2.040   3.079  0.0168  0.7831  0.7302
 1371SOL    HW215573   0.560   2.051   3.053 -1.4332 -0.7724  0.2989
 1372SOL     OW15574   3.156   2.823   1.679 -0.2631 -0.1475 -0.0192
 1372SOL    HW115575   3.086   2.789   1.623  0.1884  2.2393 -2.0279
 1372SOL    HW215576   3.192   2.895   1.628  2.0823 -0.4493  1.2017
 1373SOL     OW15577   2.785   3.791   6.196  0.1473 -0.0048 -0.8969
 1373SOL    HW115578   2.732   3.871   6.193  0.9935  0.5885 -0.1034
 1373SOL    HW215579   2.721   3.722   6.212 -0.2428  0.3480 -0.9138
 1374SOL     OW15580   1.176   1.517   1.895  0.2670 -0.0309 -0.6475
 1374SOL    HW115581   1.210   1.436   1.858  0.1536 -0.1650 -0.4647
 1374SOL    HW215582   1.105   1.547   1.839 -0.8279 -0.0241  0.7321
 1375SOL     OW15583   4.637   0.489   8.844 -0.1245 -0.0774  0.2995
 1375SOL    HW115584   4.604   0.561   8.898  3.1958  1.3372  0.4593
 1375SOL    HW215585   4.574   0.421   8.868 -1.0338  0.4505 -0.5835
 1376SOL     OW15586   2.594   2.466  16.971 -0.0923  0.3897 -1.0015
 1376SOL    HW115587   2.612   2.554  16.938  1.3028 -0.0078 -1.2989
 1376SOL    HW215588   2.518   2.480  17.027 -0.6283 -0.5233 -1.5133
 1377SOL     OW15589   2.774   1.583   7.253 -0.3931 -0.0650 -0.1307
 1377SOL    HW115590   2.740   1.495   7.268  0.6034 -0.3507  0.4550
 1377SOL    HW215591   2.693   1.624   7.222  0.2972 -1.2932 -3.4708
 1378SOL     OW15592   1.279   3.830  12.431 -0.6789 -0.2958  0.0091
 1378SOL    HW115593   1.341   3.873  12.372  0.9022 -0.9418  1.1881
 1378SOL    HW215594   1.213   3.900  12.430 -2.0577 -1.6042 -0.4676
 1379SOL     OW15595   4.444   1.165   8.985 -0.4094 -0.6669 -0.0011
 1379SOL    HW115596   4.528   1.195   9.019  0.3810  0.1355 -2.6433
 1379SOL    HW215597   4.425   1.223   8.911  0.2402  2.2411  2.0917
 1380SOL     OW15598   3.304   0.902   5.621 -0.0217  0.4635 -0.0447
 1380SOL    HW115599   3.369   0.916   5.689  1.2758 -1.9150 -0.7710
 1380SOL    HW215600   3.273   0.811   5.619  1.8827 -0.1532 -1.7267
 1381SOL     OW15601   0.271   1.511  11.088  0.2210 -0.0295  0.3814
 1381SOL    HW115602   0.284   1.450  11.015 -5.2277 -0.7548  0.0788
 1381SOL    HW215603   0.221   1.578  11.041 -0.2589  1.0552  2.4760
 1382SOL     OW15604   4.584   3.394   5.021 -0.4178 -0.8123  0.1104
 1382SOL    HW115605   4.606   3.385   5.114 -0.5430 -1.2281  0.1005
 1382SOL    HW215606   4.654   3.452   4.992 -1.3037  0.7481  1.0777
 1383SOL     OW15607   1.076   4.133   5.418  0.2162 -0.0956 -0.5328
 1383SOL    HW115608   1.159   4.167   5.452 -0.4680  1.1407 -0.0888
 1383SOL    HW215609   1.097   4.120   5.326 -1.1383 -1.2989 -0.6598
 1384SOL     OW15610   3.304   2.307  10.890 -0.1715 -0.2933  0.4831
 1384SOL    HW115611   3.329   2.252  10.965 -1.2024 -0.5083  0.6708
 1384SOL    HW215612   3.210   2.287  10.886  0.2403 -2.0758 -0.6115
 1385SOL     OW15613   1.456   4.164   4.392 -0.4163  0.1704  0.7882
 1385SOL    HW115614   1.523   4.228   4.414 -0.0384  0.5527 -1.5219
 1385SOL    HW215615   1.378   4.203   4.432  0.0576  1.0461  0.8357
 1386SOL     OW15616   3.073   1.153   4.241  0.1266 -0.6282  0.5179
 1386SOL    HW115617   3.087   1.090   4.312  2.6514 -1.9748 -1.1943
 1386SOL    HW215618   3.098   1.091   4.172  0.6160 -1.3435  1.3281
 1387SOL     OW15619   3.414   2.615   8.332  0.0448 -0.2386  0.5607
 1387SOL    HW115620   3.433   2.521   8.339  0.6676 -0.1996 -0.5494
 1387SOL    HW215621   3.485   2.645   8.276 -0.8785  1.8841  0.5461
 1388SOL     OW15622   0.311   4.173   8.341  0.2719 -0.3424 -0.7257
 1388SOL    HW115623   0.299   4.156   8.248 -0.8026 -0.6176 -0.5287
 1388SOL    HW215624   0.330   4.267   8.345  0.6726 -0.5116  1.3341
 1389SOL     OW15625   3.971   3.382   7.442  0.2021  0.2500  0.0902
 1389SOL    HW115626   3.918   3.456   7.472  0.8548  0.9061 -0.3726
 1389SOL    HW215627   4.006   3.337   7.519 -1.6823  0.8907  1.3286
 1390SOL     OW15628   0.037   4.632  16.985  0.3238 -0.7066  0.0549
 1390SOL    HW115629   0.031   0.002  16.951 -0.0139 -0.7756 -0.0676
 1390SOL    HW215630   0.115   4.640  17.040 -0.7563  1.8942  1.2012
 1391SOL     OW15631   4.418   4.557   6.158  0.1297 -0.1386 -0.0512
 1391SOL    HW115632   4.440   4.528   6.246 -1.9263 -0.2993  0.4078
 1391SOL    HW215633   4.495   4.612   6.139 -1.4963  1.0592 -3.1576
 1392SOL     OW15634   0.603   2.931   6.959  0.2168 -0.4945 -0.1483
 1392SOL    HW115635   0.546   2.879   7.016 -1.5975 -0.7656 -2.2171
 1392SOL    HW215636   0.642   2.995   7.018 -0.1633  0.5185 -0.9927
 1393SOL     OW15637   2.954   0.506   6.394  0.1967 -0.1620 -0.4064
 1393SOL    HW115638   2.973   0.431   6.338 -0.6159  1.2239 -2.5403
 1393SOL    HW215639   3.016   0.495   6.466 -0.6290  0.3118  0.3814
 1394SOL     OW15640   1.025   4.117   5.790 -0.5070 -0.6792 -0.6926
 1394SOL    HW115641   1.033   4.114   5.885  2.1960 -1.2400 -0.9358
 1394SOL    HW215642   1.078   4.195   5.775 -1.5845  0.4120  1.1132
 1395SOL     OW15643   2.542   3.162   6.382 -0.0251  0.2155 -0.6200
 1395SOL    HW115644   2.631   3.184   6.409 -0.9312  1.9092  0.9371
 1395SOL    HW215645   2.551   3.149   6.287  0.2513  0.3847 -0.6142
 1396SOL     OW15646   0.222   3.693   7.329 -0.3129  0.3988 -0.5932
 1396SOL    HW115647   0.195   3.608   7.366  0.5327  0.3084 -0.1638
 1396SOL    HW215648   0.151   3.708   7.267  0.0274 -1.5774 -1.4628
 1397SOL     OW15649   2.158   0.408   1.461  0.0501 -0.1231 -0.1332
 1397SOL    HW115650   2.096   0.337   1.448  1.0936 -1.0670  0.0574
 1397SOL    HW215651   2.202   0.375   1.540  2.5665  0.0114 -1.4634
 1398SOL     OW15652   0.114   3.170   5.372 -0.5540  0.0818 -0.1424
 1398SOL    HW115653   0.149   3.084   5.349 -1.4684 -0.0040 -1.2455
 1398SOL    HW215654   0.176   3.201   5.438  0.8455  0.1035 -1.4556
 1399SOL     OW15655   0.249   2.207   1.601 -0.5018 -0.4932  0.2476
 1399SOL    HW115656   0.177   2.169   1.652 -0.1133  0.4656  1.5121
 1399SOL    HW215657   0.212   2.291   1.572  0.0514 -0.4588 -0.3353
 1400SOL     OW15658   1.685   0.279   9.091 -0.1232  0.1811  0.0914
 1400SOL    HW115659   1.747   0.351   9.105 -1.4882  1.3300  0.1738
 1400SOL    HW215660   1.742   0.215   9.048  0.4563  0.8110 -0.0714
 1401SOL     OW15661   3.530   3.980   8.079 -0.2590  0.4306  0.2002
 1401SOL    HW115662   3.543   3.909   8.142 -0.5703 -2.2491 -2.7290
 1401SOL    HW215663   3.615   4.023   8.070 -0.0588 -0.1575 -0.7229
 1402SOL     OW15664   2.250   2.591   5.806  0.8061 -0.4094  0.4510
 1402SOL    HW115665   2.246   2.550   5.892 -0.3896 -0.4318  0.3841
 1402SOL    HW215666   2.166   2.557   5.776  1.1371 -1.1383  0.3441
 1403SOL     OW15667   2.837   0.907   7.705  0.2694  0.1433 -0.2126
 1403SOL    HW115668   2.881   0.991   7.719  0.7226  0.2483 -2.3591
 1403SOL    HW215669   2.906   0.846   7.678 -1.1427 -0.8886 -1.4369
 1404SOL     OW15670   3.735   0.159   3.117  0.1008  0.0587  0.5846
 1404SOL    HW115671   3.787   0.226   3.073  0.0579 -1.3737 -1.6296
 1404SOL    HW215672   3.801   0.090   3.121 -0.1461 -0.3821 -3.2382
 1405SOL     OW15673   3.419   0.666   7.276  0.2973 -0.0063  0.3482
 1405SOL    HW115674   3.508   0.639   7.298  0.5925  1.8097  1.3745
 1405SOL    HW215675   3.378   0.653   7.362 -0.2583  0.4187  0.1431
 1406SOL     OW15676   0.905   4.429   0.406  0.4001 -0.1298 -0.6518
 1406SOL    HW115677   0.902   4.485   0.328  0.0824  0.1590 -0.4289
 1406SOL    HW215678   0.936   4.345   0.370  1.7096  0.8492 -1.8472
 1407SOL     OW15679   2.318   2.709   6.172 -0.4717 -0.2942  0.0382
 1407SOL    HW115680   2.252   2.645   6.147 -0.8244  0.5469 -1.1585
 1407SOL    HW215681   2.322   2.708   6.268 -0.8780 -0.6287  0.0500
 1408SOL     OW15682   4.527   2.214   5.363  0.6346  0.3125 -0.1806
 1408SOL    HW115683   4.451   2.160   5.384  0.1581  1.2158  0.4000
 1408SOL    HW215684   4.484   2.279   5.307 -0.9219 -0.6289 -0.0786
 1409SOL     OW15685   1.203   0.525  17.079 -0.2914  0.2186  0.2115
 1409SOL    HW115686   1.246   0.467  17.142 -1.7255 -0.8876  0.1805
 1409SOL    HW215687   1.212   0.612  17.118  0.6361  0.6038 -0.8705
 1410SOL     OW15688   1.658   1.685   0.467 -0.4243 -0.4757  0.2637
 1410SOL    HW115689   1.632   1.593   0.466  1.0403 -0.8645 -1.2542
 1410SOL    HW215690   1.634   1.697   0.559 -0.1322  1.6213  0.0772
 1411SOL     OW15691   4.364   0.873  11.877  0.7447 -0.1089  0.1984
 1411SOL    HW115692   4.326   0.949  11.833  3.3851 -0.1030 -2.0406
 1411SOL    HW215693   4.457   0.880  11.858  0.5601  2.5734  0.3210
 1412SOL     OW15694   2.359   0.888  11.031 -0.1976 -0.3169 -0.5942
 1412SOL    HW115695   2.264   0.888  11.024 -0.3430 -0.5018  1.4288
 1412SOL    HW215696   2.372   0.948  11.105 -2.1830  0.8974 -1.2132
 1413SOL     OW15697   2.042   1.573   1.761 -0.2562  0.1550 -0.2964
 1413SOL    HW115698   2.108   1.549   1.826  0.3619  1.4583 -0.4467
 1413SOL    HW215699   1.994   1.646   1.800 -0.3238 -0.1861  0.2696
 1414SOL     OW15700   1.181   0.364   3.917  0.1544 -0.4127 -0.1859
 1414SOL    HW115701   1.085   0.365   3.907  0.6297 -0.1066 -4.8360
 1414SOL    HW215702   1.206   0.401   3.832 -0.0308  3.7139  1.5406
 1415SOL     OW15703   0.789   2.576  11.602  0.3490 -0.2045 -0.1117
 1415SOL    HW115704   0.816   2.668  11.598  2.1620 -0.8474 -2.5266
 1415SOL    HW215705   0.790   2.559  11.696  1.1897  1.5484  0.2083
 1416SOL     OW15706   0.484   2.499   2.536 -1.0374 -0.4440  0.4239
 1416SOL    HW115707   0.568   2.462   2.510 -0.7140 -0.3988  1.4106
 1416SOL    HW215708   0.424   2.435   2.498  0.6755  0.3208 -3.4974
 1417SOL     OW15709   3.974   1.362   4.253  0.8193  0.6085  0.4292
 1417SOL    HW115710   3.974   1.268   4.274 -0.1631  0.7475  1.0397
 1417SOL    HW215711   3.937   1.379   4.167 -0.5977  3.1244  1.5640
 1418SOL     OW15712   0.844   0.443   6.202  0.5768 -0.0676  0.3334
 1418SOL    HW115713   0.868   0.477   6.287  1.2661 -0.4607  0.2977
 1418SOL    HW215714   0.906   0.495   6.151 -0.0457 -0.4468 -0.8282
 1419SOL     OW15715   0.669   3.135   8.433 -0.3387 -0.5394  0.7653
 1419SOL    HW115716   0.746   3.159   8.486 -0.2126  0.1364  0.2722
 1419SOL    HW215717   0.697   3.046   8.410  0.5642 -0.0466 -0.0055
 1420SOL     OW15718   0.918   1.936  17.194  0.6189  0.1612  0.1858
 1420SOL    HW115719   1.011   1.923  17.180  1.0577  1.4462  1.9452
 1420SOL    HW215720   0.890   1.847  17.217 -0.9581  0.6720  0.2511
 1421SOL     OW15721   2.795   4.127  17.362  0.7098  0.4310 -0.1849
 1421SOL    HW115722   2.809   4.037  17.332 -0.7599 -0.3199  1.4068
 1421SOL    HW215723   2.881   4.130  17.404  0.3502 -0.5640  0.6181
 1422SOL     OW15724   3.813   4.375  14.588  0.3992  0.0342 -0.2640
 1422SOL    HW115725   3.889   4.416  14.546  1.1287 -1.0245  0.0218
 1422SOL    HW215726   3.742   4.429  14.551 -0.0343 -0.4317 -0.1168
 1423SOL     OW15727   3.794   1.947   3.730  0.3138 -0.2308  0.3439
 1423SOL    HW115728   3.708   1.936   3.688  0.0158  0.9096  0.6783
 1423SOL    HW215729   3.844   1.924   3.652 -1.8901  2.3550 -1.8108
 1424SOL     OW15730   2.593   0.714   6.609  0.5708  0.2703 -0.8056
 1424SOL    HW115731   2.647   0.649   6.655 -2.7127 -1.3638  0.6926
 1424SOL    HW215732   2.632   0.699   6.523 -0.2952 -2.1085 -0.7919
 1425SOL     OW15733   3.346   1.158   2.675  0.5639 -0.0271 -0.0166
 1425SOL    HW115734   3.293   1.089   2.716 -1.5320  0.5791 -1.7592
 1425SOL    HW215735   3.384   1.111   2.601  2.6105  0.2844  0.8265
 1426SOL     OW15736   2.141   0.148  10.173  0.3632 -0.5055  0.2720
 1426SOL    HW115737   2.055   0.187  10.192  0.2042 -0.6779 -0.0895
 1426SOL    HW215738   2.205   0.219  10.172 -1.2367  0.9803  1.9379
 1427SOL     OW15739   1.550   1.224  12.178 -0.4218 -0.2244  0.1533
 1427SOL    HW115740   1.604   1.154  12.142 -1.0763 -0.4078 -0.4662
 1427SOL    HW215741   1.459   1.196  12.169 -0.5178  0.1784 -0.1398
 1428SOL     OW15742   3.928   2.861   9.778 -0.3452 -0.1352  0.0825
 1428SOL    HW115743   3.978   2.786   9.808  0.3397  1.3742  2.7364
 1428SOL    HW215744   3.984   2.911   9.719  0.5632 -1.0792  0.1524
 1429SOL     OW15745   0.410   3.982  12.701  0.2267 -0.3415  0.3565
 1429SOL    HW115746   0.473   3.986  12.629  2.2937 -0.6026  2.1390
 1429SOL    HW215747   0.374   4.070  12.696  1.9129  0.3103 -0.2965
 1430SOL     OW15748   0.682   2.859   7.274  0.1926 -0.0591 -0.3941
 1430SOL    HW115749   0.587   2.852   7.264  0.4356  0.2854 -2.8916
 1430SOL    HW215750   0.680   2.876   7.368 -1.4804 -0.8595 -0.2706
 1431SOL     OW15751   3.341   1.308   3.997 -0.7494  0.1011 -0.2355
 1431SOL    HW115752   3.413   1.339   3.942 -1.4654 -1.3983 -2.0480
 1431SOL    HW215753   3.347   1.353   4.080  1.0374 -1.3909  0.4515
 1432SOL     OW15754   2.845   3.206  10.358 -0.1460  0.8209  0.2616
 1432SOL    HW115755   2.842   3.111  10.347 -0.3602  0.7806  0.6596
 1432SOL    HW215756   2.753   3.231  10.344 -0.6347 -1.2948 -0.2907
 1433SOL     OW15757   0.638   2.112   7.012  0.6107  0.1937  0.1197
 1433SOL    HW115758   0.695   2.127   6.937 -0.8468 -1.4053 -1.3112
 1433SOL    HW215759   0.569   2.064   6.966 -1.4749  1.6885  1.6633
 1434SOL     OW15760   0.931   4.414   2.249  0.4280 -0.2498 -0.0205
 1434SOL    HW115761   1.019   4.421   2.285  0.9374  0.4013 -1.3712
 1434SOL    HW215762   0.949   4.401   2.156 -1.2846 -1.3909 -0.1973
 1435SOL     OW15763   3.337   4.546   5.468 -0.2832  0.2445 -0.1966
 1435SOL    HW115764   3.398   4.620   5.463 -1.3324  1.0234 -1.8860
 1435SOL    HW215765   3.369   4.503   5.547 -0.2898  1.7085  0.6016
 1436SOL     OW15766   1.832   2.333  11.129 -0.3018 -0.3094  0.0563
 1436SOL    HW115767   1.828   2.238  11.125  2.0100 -0.4593  1.3083
 1436SOL    HW215768   1.774   2.353  11.055 -0.8816  1.8772  1.0803
 1437SOL     OW15769   0.400   3.349  17.573  0.1498  0.0072 -0.5224
 1437SOL    HW115770   0.318   3.310  17.602  0.3861 -1.0263 -1.2589
 1437SOL    HW215771   0.372   3.418  17.513  0.0103 -0.9598 -1.5674
 1438SOL     OW15772   3.583   3.285  11.617  0.5065  0.3585 -0.6472
 1438SOL    HW115773   3.503   3.336  11.613 -1.0281 -2.1345 -1.4536
 1438SOL    HW215774   3.609   3.266  11.527 -0.0329  0.9832 -0.9315
 1439SOL     OW15775   1.851   4.675   8.306  0.4928 -0.6747 -0.2325
 1439SOL    HW115776   1.883   4.646   8.221 -1.1484 -2.1095 -0.3752
 1439SOL    HW215777   1.863   4.599   8.363 -0.8045 -1.3428 -0.8501
 1440SOL     OW15778   1.242   0.530   3.055 -0.2171 -0.2849 -0.4776
 1440SOL    HW115779   1.321   0.477   3.042  1.1428  1.2726  1.4755
 1440SOL    HW215780   1.173   0.465   3.063 -0.5233  0.0805 -0.1496
 1441SOL     OW15781   1.073   0.586   5.748 -0.7206  0.0393 -0.0784
 1441SOL    HW115782   1.042   0.497   5.765 -1.9263  0.0876 -1.9683
 1441SOL    HW215783   1.081   0.579   5.652 -1.6602  2.5320 -0.3331
 1442SOL     OW15784   0.951   3.393   5.030  0.3536  0.4042  0.1043
 1442SOL    HW115785   0.880   3.438   5.076  1.5128  0.9865  1.3185
 1442SOL    HW215786   1.011   3.456   4.991  0.9370 -0.8569 -1.0573
 1443SOL     OW15787   3.271   0.923   5.994  0.2864 -0.2063 -0.6094
 1443SOL    HW115788   3.318   0.958   5.918  2.0313 -0.4069  0.3870
 1443SOL    HW215789   3.230   0.844   5.958 -2.1892  1.5531 -1.6425
 1444SOL     OW15790   0.984   3.952   8.255 -0.0893  0.4121  0.1732
 1444SOL    HW115791   0.991   4.047   8.266  1.5697  0.1185  1.6748
 1444SOL    HW215792   0.908   3.936   8.199 -1.6247 -0.8762  2.6573
 1445SOL     OW15793   0.876   2.847  16.538 -0.1889  0.8905  0.7015
 1445SOL    HW115794   0.873   2.929  16.488 -1.1905 -1.2250 -2.6706
 1445SOL    HW215795   0.967   2.845  16.566  0.1749  0.3882 -0.5199
 1446SOL     OW15796   1.754   4.098  14.197 -1.1973 -0.1326  0.5351
 1446SOL    HW115797   1.808   4.041  14.142  0.5481  1.3179  0.7573
 1446SOL    HW215798   1.812   4.136  14.262 -0.9391  0.1138  0.1589
 1447SOL     OW15799   1.670   2.766   6.408 -0.7359 -0.3270  0.4096
 1447SOL    HW115800   1.728   2.809   6.471 -0.1153 -0.7190  0.1163
 1447SOL    HW215801   1.647   2.835   6.346 -0.1290 -2.5593 -2.3101
 1448SOL     OW15802   2.853   1.941  10.567 -0.3179  0.4055  0.5341
 1448SOL    HW115803   2.906   1.981  10.498  1.0695  2.0086  2.5049
 1448SOL    HW215804   2.822   2.020  10.612 -1.5805  0.3001 -0.1596
 1449SOL     OW15805   2.961   1.368  12.768 -0.3950 -0.1343  0.2675
 1449SOL    HW115806   3.002   1.436  12.716 -0.2590 -0.4094  0.0141
 1449SOL    HW215807   2.869   1.373  12.741 -0.0292 -0.3221 -1.0281
 1450SOL     OW15808   3.620   1.909   4.554 -0.3771 -0.0330 -0.0052
 1450SOL    HW115809   3.629   1.868   4.640 -3.6124  2.2259  1.4624
 1450SOL    HW215810   3.575   1.839   4.507  2.0819 -1.2590 -0.5332
 1451SOL     OW15811   2.284   0.734   9.954  0.1773  0.0753 -0.1427
 1451SOL    HW115812   2.299   0.790  10.030 -1.3823 -0.5027  0.5919
 1451SOL    HW215813   2.272   0.647   9.992 -0.9734  0.1293 -0.3725
 1452SOL     OW15814   2.918   1.782   2.095 -0.0865  0.0305 -0.1925
 1452SOL    HW115815   2.885   1.774   2.005  0.8520  0.9378 -0.6238
 1452SOL    HW215816   2.987   1.716   2.088 -1.1844 -1.0936 -0.4227
 1453SOL     OW15817   2.179   1.735   1.581  0.7380 -0.0362 -0.2012
 1453SOL    HW115818   2.248   1.734   1.647  2.9759  1.6928 -2.5237
 1453SOL    HW215819   2.114   1.677   1.622 -1.8265 -0.0061 -4.1884
 1454SOL     OW15820   0.254   0.324   6.173 -0.3270  0.0405 -0.3280
 1454SOL    HW115821   0.162   0.334   6.199  0.5130  0.3475  2.5366
 1454SOL    HW215822   0.284   0.271   6.247  1.6916 -0.3960 -1.4771
 1455SOL     OW15823   1.735   4.586   2.834  0.0655  0.0406  0.3850
 1455SOL    HW115824   1.654   4.580   2.784  0.7682 -0.8497 -0.6468
 1455SOL    HW215825   1.710   4.531   2.908  1.2756  0.0862  0.8306
 1456SOL     OW15826   2.466   0.153  10.776  0.1698  0.3287 -0.5696
 1456SOL    HW115827   2.546   0.106  10.802 -0.5312  0.1130  1.1981
 1456SOL    HW215828   2.489   0.170  10.685  1.8745 -1.6428 -0.5121
 1457SOL     OW15829   3.874   1.445   8.421 -0.5442  0.2559  0.0139
 1457SOL    HW115830   3.867   1.350   8.418  1.6983  0.0653  1.0136
 1457SOL    HW215831   3.942   1.471   8.359 -0.6510 -4.2631 -2.0013
 1458SOL     OW15832   3.333   1.119  12.052  0.0238  0.3367 -0.6919
 1458SOL    HW115833   3.404   1.154  11.999  1.0968 -1.0889 -0.2130
 1458SOL    HW215834   3.348   1.173  12.130 -0.8128 -1.2213  0.5524
 1459SOL     OW15835   1.893   4.428  10.999 -0.1019  0.1314 -0.2318
 1459SOL    HW115836   1.839   4.497  11.038 -1.5500  0.3355 -2.5765
 1459SOL    HW215837   1.838   4.361  11.039 -1.2975  0.9001 -0.5786
 1460SOL     OW15838   1.834   3.597  13.150 -0.0250  0.6936  0.3923
 1460SOL    HW115839   1.826   3.601  13.246  1.3439  0.7220  0.5161
 1460SOL    HW215840   1.817   3.505  13.132 -0.9673  1.1576 -1.0155
 1461SOL     OW15841   0.855   2.982   9.764  0.3438  0.2133 -0.0034
 1461SOL    HW115842   0.827   3.071   9.740 -2.9588 -0.7087  0.3952
 1461SOL    HW215843   0.850   2.935   9.681  0.7911  0.1202  0.0208
 1462SOL     OW15844   3.972   4.525  11.419 -0.2128 -0.1089  0.2960
 1462SOL    HW115845   3.925   4.556  11.341 -2.1359 -2.0353  0.6928
 1462SOL    HW215846   3.967   4.610  11.463  2.3476 -0.0835  0.5178
 1463SOL     OW15847   2.707   2.434  13.117  0.0920  0.4794  0.0618
 1463SOL    HW115848   2.761   2.512  13.128  0.4926 -0.1688  2.7794
 1463SOL    HW215849   2.641   2.438  13.187  0.5699 -0.8870  0.6006
 1464SOL     OW15850   2.996   2.143   2.644 -0.5710  0.3281 -0.1566
 1464SOL    HW115851   3.090   2.156   2.643 -0.6839  1.2781  1.3205
 1464SOL    HW215852   2.984   2.051   2.621  1.1459 -0.6334  2.8821
 1465SOL     OW15853   4.318   2.473   7.378  0.1260  0.1979 -0.0434
 1465SOL    HW115854   4.396   2.528   7.370  0.5134 -0.3059  0.2295
 1465SOL    HW215855   4.309   2.476   7.473 -2.7121 -1.9550 -0.2556
 1466SOL     OW15856   0.103   1.786   1.090 -0.3422  0.2488 -0.0130
 1466SOL    HW115857   0.073   1.776   1.000 -0.6922 -0.8047  0.2228
 1466SOL    HW215858   0.025   1.791   1.146  0.1902  0.2188  0.7398
 1467SOL     OW15859   3.275   1.231  12.306  0.3369  0.0803  0.0491
 1467SOL    HW115860   3.295   1.168  12.376  0.8465 -0.3893 -0.5261
 1467SOL    HW215861   3.211   1.280  12.358 -0.2554  3.1669 -3.6553
 1468SOL     OW15862   3.379   1.502   4.210  0.5008 -0.1169 -0.0697
 1468SOL    HW115863   3.453   1.518   4.268  0.6112 -1.3920  0.1467
 1468SOL    HW215864   3.309   1.538   4.264 -0.7772 -0.4044 -1.5639
 1469SOL     OW15865   0.485   0.510  16.996  0.0719 -0.0765  0.0930
 1469SOL    HW115866   0.568   0.463  17.002  0.5539  0.6314 -0.9114
 1469SOL    HW215867   0.438   0.461  17.063 -0.6732 -0.5450 -0.7688
 1470SOL     OW15868   4.581   4.713   5.970  0.2752  0.1679 -0.2578
 1470SOL    HW115869   4.531   4.672   5.899  3.5269 -2.4627 -0.9816
 1470SOL    HW215870   4.510   0.045   6.008 -0.2398 -1.2401  0.6736
 1471SOL     OW15871   3.953   2.725  13.628 -0.4924  0.7962 -0.8630
 1471SOL    HW115872   3.964   2.765  13.714 -0.1209 -0.4689 -0.3241
 1471SOL    HW215873   3.862   2.693  13.624  0.0477 -1.1404  2.0465
 1472SOL     OW15874   3.579   0.347   2.469 -0.3523  0.2131 -0.4765
 1472SOL    HW115875   3.628   0.397   2.404 -2.1853  0.6308 -1.5503
 1472SOL    HW215876   3.487   0.342   2.442 -1.5135  2.0792  3.0667
 1473SOL     OW15877   0.029   2.589   8.574 -0.4944  0.5614  0.3895
 1473SOL    HW115878   0.031   2.590   8.670  1.1885 -0.6131  0.3667
 1473SOL    HW215879   0.020   2.496   8.555  0.0384  1.0743 -2.2904
 1474SOL     OW15880   0.433   0.986   8.333  0.8135 -0.5826 -0.0405
 1474SOL    HW115881   0.437   1.065   8.279 -0.4643 -1.2052 -1.0479
 1474SOL    HW215882   0.517   0.997   8.378  0.8371  1.2606 -0.5275
 1475SOL     OW15883   3.074   2.706   3.390 -0.0679  0.1392 -0.5845
 1475SOL    HW115884   3.129   2.664   3.325  2.0216 -1.4306  2.1884
 1475SOL    HW215885   3.005   2.639   3.394 -1.1371  1.1904 -1.7735
 1476SOL     OW15886   2.509   3.945   0.367  0.4839 -0.1913  0.0929
 1476SOL    HW115887   2.531   4.038   0.364  1.4808 -0.4479 -0.5646
 1476SOL    HW215888   2.588   3.900   0.335  1.0864  1.5389 -0.8103
 1477SOL     OW15889   0.829   2.005  14.251  0.0296 -0.1878 -0.3360
 1477SOL    HW115890   0.841   2.042  14.163  0.3888  0.2257 -0.1167
 1477SOL    HW215891   0.737   2.017  14.275  0.2558  0.3349  0.2932
 1478SOL     OW15892   3.019   2.063   3.819  0.1480 -0.0480 -0.3955
 1478SOL    HW115893   2.988   1.973   3.817  0.4266 -0.1531 -0.1020
 1478SOL    HW215894   2.955   2.091   3.754  0.5207 -2.0670 -1.6475
 1479SOL     OW15895   1.421   2.644  14.164  0.1185  0.1482  0.9868
 1479SOL    HW115896   1.349   2.673  14.107  0.5220 -0.5412  0.1286
 1479SOL    HW215897   1.385   2.656  14.252  0.2164 -0.6999  1.1456
 1480SOL     OW15898   4.049   2.250   2.513 -0.0896 -1.2148  0.5496
 1480SOL    HW115899   3.960   2.272   2.489  0.4740  1.1403  0.6189
 1480SOL    HW215900   4.052   2.239   2.608 -0.3748  1.4545  0.8700
 1481SOL     OW15901   0.706   2.216   9.143  0.2015 -0.5880 -0.0238
 1481SOL    HW115902   0.743   2.289   9.093  0.0744 -1.5914 -1.5779
 1481SOL    HW215903   0.615   2.247   9.135  1.1575  1.7037 -2.0648
 1482SOL     OW15904   2.058   4.305   8.239 -0.1081 -0.4335 -0.3720
 1482SOL    HW115905   2.036   4.384   8.190 -1.3211  0.1365  1.1119
 1482SOL    HW215906   2.137   4.279   8.191 -0.5957  0.0312 -1.4198
 1483SOL     OW15907   4.665   1.983   5.083  0.4404  0.7213 -0.0509
 1483SOL    HW115908   4.603   1.938   5.142  1.8585  2.0958  2.4897
 1483SOL    HW215909   4.665   1.920   5.011  0.3681 -0.5023  1.0054
 1484SOL     OW15910   1.181   3.038  10.282 -0.4387 -0.0141 -0.4155
 1484SOL    HW115911   1.103   2.983  10.271 -0.7134  0.4123 -0.5980
 1484SOL    HW215912   1.165   3.061  10.373 -0.2499  2.8267 -1.1082
 1485SOL     OW15913   0.881   3.585  10.427  0.0967  0.4043 -0.2424
 1485SOL    HW115914   0.951   3.557  10.486  0.8255 -0.3877 -1.4771
 1485SOL    HW215915   0.822   3.513  10.449  1.1788 -0.4524 -0.1479
 1486SOL     OW15916   1.940   1.153   4.590 -0.6163 -0.2050 -0.3348
 1486SOL    HW115917   2.025   1.169   4.549 -0.8748 -0.4810 -0.9800
 1486SOL    HW215918   1.886   1.229   4.571 -1.0271 -0.3084  0.4456
 1487SOL     OW15919   0.201   3.581  15.974 -0.4592  0.0864  0.7891
 1487SOL    HW115920   0.230   3.577  16.066  1.5048 -0.3797  0.1478
 1487SOL    HW215921   0.275   3.545  15.925  2.0580  3.3852  2.1885
 1488SOL     OW15922   3.117   4.622   8.976  0.1343  0.3201 -0.2085
 1488SOL    HW115923   3.158   4.538   8.994  0.7254  0.7055  0.2586
 1488SOL    HW215924   3.059   4.596   8.904  1.6718 -1.9739 -0.6341
 1489SOL     OW15925   3.466   1.540   6.865  0.1892 -0.3768  0.5520
 1489SOL    HW115926   3.534   1.552   6.932  0.0363 -0.4152  0.7137
 1489SOL    HW215927   3.508   1.510   6.784 -0.5758  0.1841 -0.0509
 1490SOL     OW15928   0.817   1.744   0.870  0.1395  0.5901 -0.5476
 1490SOL    HW115929   0.779   1.696   0.944  0.1653  1.7600  0.2103
 1490SOL    HW215930   0.900   1.698   0.862 -1.5318 -2.3944 -0.9122
 1491SOL     OW15931   0.162   4.489  13.493  0.1626  0.5620  0.1657
 1491SOL    HW115932   0.122   4.427  13.554 -0.0495 -0.4949 -1.0523
 1491SOL    HW215933   0.147   4.447  13.408 -0.7711  3.0440 -0.8892
 1492SOL     OW15934   0.211   1.421   2.238  0.8508  0.1486 -0.3921
 1492SOL    HW115935   0.297   1.460   2.225  1.0548 -0.0388  0.3715
 1492SOL    HW215936   0.165   1.453   2.161 -0.9280  0.5808  0.8451
 1493SOL     OW15937   0.373   0.812  10.086 -0.0225 -0.0605  0.1613
 1493SOL    HW115938   0.446   0.792  10.144  0.3932  0.0941 -0.3154
 1493SOL    HW215939   0.307   0.827  10.154  1.0541  1.1192  0.9560
 1494SOL     OW15940   2.951   1.786  15.921 -0.3445  0.1881  0.0495
 1494SOL    HW115941   2.895   1.860  15.942 -1.1841 -0.5302  0.3090
 1494SOL    HW215942   2.972   1.805  15.829  1.8819  0.2765  0.5821
 1495SOL     OW15943   3.158   1.771   5.857  0.1253  0.0687 -0.6392
 1495SOL    HW115944   3.118   1.767   5.944 -1.6246  0.9843 -1.3941
 1495SOL    HW215945   3.080   1.746   5.807 -1.2588  1.2467  0.9278
 1496SOL     OW15946   0.973   3.466  16.626  0.0572  0.0749  0.0933
 1496SOL    HW115947   0.911   3.456  16.698 -0.4968 -1.1904 -0.5468
 1496SOL    HW215948   1.059   3.457  16.667 -0.4615  2.9362  1.7838
 1497SOL     OW15949   2.639   2.787   6.225  0.0318 -0.7550 -0.3591
 1497SOL    HW115950   2.682   2.816   6.144 -0.3105  0.1794 -0.2087
 1497SOL    HW215951   2.549   2.780   6.193 -0.3729 -2.6040  1.1422
 1498SOL     OW15952   0.721   0.561   4.110 -0.1372  0.7546  0.5446
 1498SOL    HW115953   0.704   0.653   4.086  1.8464  1.9744  3.8106
 1498SOL    HW215954   0.672   0.513   4.043  1.0100 -1.4518  1.3261
 1499SOL     OW15955   4.249   3.540   8.071 -0.5708 -0.2248 -0.0352
 1499SOL    HW115956   4.271   3.619   8.121 -0.8237 -0.5968  0.6600
 1499SOL    HW215957   4.333   3.495   8.061  0.2245  1.0840  0.7403
 1500SOL     OW15958   1.719   2.779  15.213 -0.0887  0.6748  0.8057
 1500SOL    HW115959   1.808   2.749  15.191 -0.2580  0.9035 -0.2157
 1500SOL    HW215960   1.676   2.785  15.128  0.3119 -0.1022  0.5383
 1501SOL     OW15961   1.402   4.351  15.593 -0.1700  0.0151  0.5633
 1501SOL    HW115962   1.399   4.282  15.526 -2.2476  1.0433 -0.4023
 1501SOL    HW215963   1.367   4.297  15.664 -0.6491 -0.2717  0.1123
 1502SOL     OW15964   1.126   4.615   7.672 -0.0961 -0.3903 -0.3618
 1502SOL    HW115965   1.142   4.521   7.664  1.4212 -0.0886 -0.8540
 1502SOL    HW215966   1.203   4.637   7.725 -0.1213 -1.2546  0.0299
 1503SOL     OW15967   3.542   3.348   5.327  0.6506  0.6791 -0.2632
 1503SOL    HW115968   3.458   3.359   5.283 -0.2843 -2.6438  0.7155
 1503SOL    HW215969   3.583   3.299   5.257 -0.3309 -0.8472  0.2380
 1504SOL     OW15970   3.750   2.184   5.201  0.7343 -0.4581 -0.6290
 1504SOL    HW115971   3.766   2.250   5.268 -0.3417 -1.4913  0.6461
 1504SOL    HW215972   3.671   2.217   5.159 -0.2031 -2.1170 -0.1739
 1505SOL     OW15973   4.133   4.661   4.975  0.2403 -0.3761 -0.1960
 1505SOL    HW115974   4.103   0.006   5.040 -2.1069 -0.9007 -0.7440
 1505SOL    HW215975   4.100   4.584   5.021  0.5503  0.0487  0.7462
 1506SOL     OW15976   3.662   0.547   2.305 -0.1172  0.2979 -0.1777
 1506SOL    HW115977   3.689   0.625   2.256 -0.4516  0.0063 -0.8224
 1506SOL    HW215978   3.652   0.485   2.233  0.0504  1.3557 -1.1168
 1507SOL     OW15979   2.550   0.686  13.067 -0.1155 -0.0773 -0.2215
 1507SOL    HW115980   2.497   0.765  13.083  1.5589  0.9587  0.1470
 1507SOL    HW215981   2.623   0.697  13.127  0.6525 -0.6127 -1.0738
 1508SOL     OW15982   1.207   0.254   7.603  0.3319 -0.2843  0.0423
 1508SOL    HW115983   1.173   0.301   7.680 -0.7644  1.0056 -1.2088
 1508SOL    HW215984   1.262   0.185   7.640 -2.3440 -1.0343  2.6880
 1509SOL     OW15985   3.590   2.666   9.299  0.3680  0.2921 -0.2990
 1509SOL    HW115986   3.557   2.753   9.275  1.6894  0.8263 -0.1831
 1509SOL    HW215987   3.612   2.664   9.392  2.7597 -1.3681 -0.9122
 1510SOL     OW15988   3.617   1.340   4.642 -0.1987  0.0932  0.5369
 1510SOL    HW115989   3.577   1.254   4.633  3.4418 -1.4998 -0.2722
 1510SOL    HW215990   3.613   1.361   4.549  1.2518  1.4024  0.7622
 1511SOL     OW15991   0.237   2.515  12.164 -0.0703 -0.7234  0.1742
 1511SOL    HW115992   0.302   2.473  12.108 -2.9704 -2.3909 -1.9622
 1511SOL    HW215993   0.176   2.442  12.152 -0.7588  0.1284 -1.5857
 1512SOL     OW15994   0.726   3.468  13.943  0.3955 -0.1244 -0.1350
 1512SOL    HW115995   0.639   3.491  13.910 -0.6676 -3.2265  0.4223
 1512SOL    HW215996   0.722   3.385  13.990 -3.2415 -0.6206 -1.3176
 1513SOL     OW15997   1.685   0.763   5.620 -0.4988  0.1199 -0.0270
 1513SOL    HW115998   1.704   0.784   5.528 -3.5033  1.1791 -0.4133
 1513SOL    HW215999   1.624   0.831   5.651  0.4677  2.1584 -2.5362
 1514SOL     OW16000   3.555   3.072   9.723  0.3080 -0.7404  0.4684
 1514SOL    HW116001   3.496   3.093   9.795 -1.6053  1.5020 -1.7516
 1514SOL    HW216002   3.610   3.150   9.725 -0.5067 -0.1968  1.3881
 1515SOL     OW16003   0.179   2.160   3.526  0.0245  0.4095 -0.0825
 1515SOL    HW116004   0.112   2.215   3.566  1.8227  1.2529  1.7920
 1515SOL    HW216005   0.142   2.131   3.443 -2.7277 -2.7361  2.2629
 1516SOL     OW16006   4.014   3.293   7.687 -0.7891  0.3603 -0.3200
 1516SOL    HW116007   4.053   3.340   7.760  2.3049  0.3625 -1.9955
 1516SOL    HW216008   3.940   3.265   7.741  0.3400  2.0574  2.0536
 1517SOL     OW16009   1.000   2.115   4.044  0.2968  0.5112 -0.6502
 1517SOL    HW116010   0.904   2.116   4.044  0.2954  0.1617  1.2890
 1517SOL    HW216011   1.000   2.059   4.122 -1.1106 -0.0381 -1.0347
 1518SOL     OW16012   2.712   2.229  11.919 -0.3563 -0.0508  0.0957
 1518SOL    HW116013   2.726   2.140  11.887  2.6016  0.2128  0.7092
 1518SOL    HW216014   2.633   2.254  11.872  1.3850  1.8450 -1.7792
 1519SOL     OW16015   2.558   2.642  13.465 -0.3359  0.4428  0.1192
 1519SOL    HW116016   2.649   2.646  13.493 -0.9863  0.7419  2.2791
 1519SOL    HW216017   2.553   2.722  13.412 -0.4304 -0.1511 -0.7529
 1520SOL     OW16018   2.659   0.546   2.666 -0.3447  0.1642  0.6314
 1520SOL    HW116019   2.621   0.608   2.605  1.1818 -1.5955 -2.0879
 1520SOL    HW216020   2.732   0.596   2.703 -1.0687  2.3676 -0.9336
 1521SOL     OW16021   3.224   2.480   3.212  0.4483  0.1409 -0.2360
 1521SOL    HW116022   3.277   2.418   3.162  1.4694 -0.2714  1.3781
 1521SOL    HW216023   3.216   2.423   3.288 -0.4345  0.8299  0.1842
 1522SOL     OW16024   4.362   1.462  16.952  0.0612 -0.2300 -0.2701
 1522SOL    HW116025   4.451   1.495  16.945  0.5357 -1.0518  1.8615
 1522SOL    HW216026   4.368   1.379  16.905  1.1970  0.6844 -1.7212
 1523SOL     OW16027   0.694   3.088   6.643 -0.6313  0.1332 -0.2265
 1523SOL    HW116028   0.604   3.121   6.640 -0.2333  1.4192  1.9450
 1523SOL    HW216029   0.750   3.164   6.659 -0.4452  0.2138 -1.2481
 1524SOL     OW16030   1.289   0.840  14.203  0.2603 -0.0392  0.4354
 1524SOL    HW116031   1.226   0.860  14.272 -1.5262 -0.2713 -1.1122
 1524SOL    HW216032   1.267   0.750  14.181 -0.6188  0.5660 -1.1712
 1525SOL     OW16033   0.584   1.450   5.115 -0.2237 -0.3040  0.0447
 1525SOL    HW116034   0.619   1.450   5.204  0.6593  2.2137 -0.3359
 1525SOL    HW216035   0.536   1.368   5.129 -0.0029 -0.3685  0.4117
 1526SOL     OW16036   2.596   3.479  15.837  0.0845 -0.2741 -0.2163
 1526SOL    HW116037   2.623   3.564  15.872  0.2205 -0.9079  1.2151
 1526SOL    HW216038   2.503   3.501  15.830 -0.2420 -1.1361  1.3933
 1527SOL     OW16039   1.394   1.645  15.419 -0.3748 -0.6629  0.0929
 1527SOL    HW116040   1.331   1.627  15.349 -2.1641  1.6502  1.1038
 1527SOL    HW216041   1.453   1.710  15.381  0.8475 -1.2586  0.9769
 1528SOL     OW16042   1.035   0.910   6.329 -0.0987  0.0074  1.0187
 1528SOL    HW116043   1.118   0.888   6.287  0.6905 -0.0211  2.5570
 1528SOL    HW216044   1.036   0.850   6.404  2.4175 -0.5227  0.5601
 1529SOL     OW16045   3.734   1.180   8.058  0.3019  0.2209  0.2071
 1529SOL    HW116046   3.676   1.156   8.130 -0.4648 -0.5001 -0.6476
 1529SOL    HW216047   3.820   1.164   8.098  0.8352 -2.2560 -1.9358
 1530SOL     OW16048   4.277   4.647  14.609  0.0328 -0.2361 -0.6116
 1530SOL    HW116049   4.348   4.624  14.669 -0.8062  1.3487  0.9757
 1530SOL    HW216050   4.313   0.012  14.581  0.7974 -0.9050 -1.6290
 1531SOL     OW16051   3.540   3.765  15.463  0.0471 -0.0693  0.1329
 1531SOL    HW116052   3.632   3.751  15.441 -0.2639  0.4359 -1.5350
 1531SOL    HW216053   3.495   3.689  15.424 -0.6133 -0.0341  0.8214
 1532SOL     OW16054   2.602   0.941   7.868 -0.0931  0.0845  0.1072
 1532SOL    HW116055   2.666   0.947   7.939  1.3401  0.9916 -1.2691
 1532SOL    HW216056   2.670   0.944   7.801 -1.9682  0.2820 -1.7716
 1533SOL     OW16057   1.287   2.960   5.945 -0.3559  0.1674  0.0967
 1533SOL    HW116058   1.351   2.890   5.959 -0.9037  0.2399  3.0680
 1533SOL    HW216059   1.348   3.033   5.956 -2.2854  1.8052  0.0809
 1534SOL     OW16060   0.604   4.500   2.266  0.2359  0.4260  0.0685
 1534SOL    HW116061   0.642   4.574   2.219  1.2780 -1.0305 -1.3756
 1534SOL    HW216062   0.651   4.427   2.226  0.8325  0.9435 -0.1846
 1535SOL     OW16063   1.678   2.483   3.600 -0.6463  0.0860  0.6477
 1535SOL    HW116064   1.661   2.575   3.580  0.6311  0.1700 -0.0600
 1535SOL    HW216065   1.734   2.453   3.528 -0.3861  5.1227 -1.2101
 1536SOL     OW16066   1.141   3.416   8.476  0.5524  0.1167  0.4017
 1536SOL    HW116067   1.135   3.477   8.549  2.2799  0.3750  0.3232
 1536SOL    HW216068   1.196   3.477   8.425 -1.7567 -0.8628 -3.3084
 1537SOL     OW16069   0.053   1.538   7.699 -0.0569  0.1124  0.0084
 1537SOL    HW116070   0.009   1.622   7.684  1.0129  0.6592 -0.1360
 1537SOL    HW216071   4.704   1.472   7.695 -0.8963  0.9504  0.4357
 1538SOL     OW16072   3.208   2.626   2.603 -0.2393 -0.2915  0.3513
 1538SOL    HW116073   3.217   2.720   2.618  0.1165  0.3338 -3.9209
 1538SOL    HW216074   3.231   2.613   2.511  4.4023 -1.4822  1.7065
 1539SOL     OW16075   1.220   2.218  10.060  0.2153  0.1620  0.1957
 1539SOL    HW116076   1.250   2.300  10.099  1.1486  0.6730 -1.5889
 1539SOL    HW216077   1.303   2.170  10.053  1.4201  2.4824 -1.4060
 1540SOL     OW16078   1.884   1.531   8.998 -0.0552  0.4223  0.0926
 1540SOL    HW116079   1.820   1.503   9.063  0.5730 -0.1394  0.4770
 1540SOL    HW216080   1.942   1.574   9.062  0.2318 -1.5192  1.1412
 1541SOL     OW16081   0.181   3.581  12.285  0.2967  0.1180  0.8174
 1541SOL    HW116082   0.151   3.490  12.281  0.0415  0.3219 -1.6946
 1541SOL    HW216083   0.239   3.595  12.211  0.9891 -0.2034  1.3013
 1542SOL     OW16084   4.159   0.070   2.004 -0.1990 -0.0440 -0.3911
 1542SOL    HW116085   4.176   0.126   2.080 -2.6505 -1.0707  0.9276
 1542SOL    HW216086   4.199   4.708   2.034  1.0798  0.3225 -1.1055
 1543SOL     OW16087   4.366   3.085   5.095 -0.2876 -0.0621  0.3017
 1543SOL    HW116088   4.401   3.041   5.172  0.5341 -1.0960 -0.6611
 1543SOL    HW216089   4.293   3.132   5.135  1.1092  2.7123 -0.3678
 1544SOL     OW16090   4.510   1.386   7.123 -0.5757  0.4972  0.3595
 1544SOL    HW116091   4.437   1.436   7.088  0.3033  1.4282 -0.1207
 1544SOL    HW216092   4.586   1.424   7.081 -0.4913 -0.6866 -0.5776
 1545SOL     OW16093   0.339   1.048   4.536 -0.0889  0.6347 -0.0856
 1545SOL    HW116094   0.296   1.074   4.618  0.9100  1.9425  0.0150
 1545SOL    HW216095   0.273   0.989   4.499 -1.4266  1.2178  1.3221
 1546SOL     OW16096   4.470   4.653   9.118 -0.8402 -0.0166 -0.4477
 1546SOL    HW116097   4.498   0.023   9.098  0.0025 -0.4164 -1.0459
 1546SOL    HW216098   4.525   4.592   9.069  1.2143  2.7696 -1.6470
 1547SOL     OW16099   4.128   2.536   4.418 -0.2962  0.1801  0.3591
 1547SOL    HW116100   4.127   2.585   4.336 -3.1170 -0.5528 -0.0689
 1547SOL    HW216101   4.194   2.580   4.472  1.2950 -0.6144 -0.9762
 1548SOL     OW16102   4.533   1.257  11.999 -0.5969  0.1557 -0.2142
 1548SOL    HW116103   4.527   1.351  12.018  1.1801  0.4762 -1.1711
 1548SOL    HW216104   4.445   1.223  12.012  0.3489 -2.3714 -0.5459
 1549SOL     OW16105   0.053   2.288   5.672  0.5784  0.2392 -0.1994
 1549SOL    HW116106   0.066   2.255   5.583 -1.3671 -0.0879 -0.3532
 1549SOL    HW216107   0.016   2.209   5.710 -1.8806  0.9751 -1.0890
 1550SOL     OW16108   0.680   0.216  17.603  0.0622  0.1371  0.3168
 1550SOL    HW116109   0.675   0.214   0.018 -2.4153 -1.3392  0.1474
 1550SOL    HW216110   0.649   0.307  17.608  2.6653  0.9842  1.1421
 1551SOL     OW16111   0.605   4.643   8.256 -0.0379 -0.7305 -0.2825
 1551SOL    HW116112   0.687   4.676   8.219  1.8699 -2.7259  2.1946
 1551SOL    HW216113   0.557   4.625   8.175  2.8006 -1.0763 -1.9103
 1552SOL     OW16114   3.793   2.006   6.192 -0.1342 -0.1008 -0.0655
 1552SOL    HW116115   3.783   2.079   6.254  0.8617 -0.3027  0.3315
 1552SOL    HW216116   3.862   2.030   6.131  0.1443 -0.9605 -0.0809
 1553SOL     OW16117   2.775   3.672   9.905  1.0493 -0.2555 -0.2930
 1553SOL    HW116118   2.752   3.672   9.813  1.2946  0.2825 -0.3589
 1553SOL    HW216119   2.700   3.718   9.942  0.5382 -0.5962 -0.9207
 1554SOL     OW16120   4.362   4.304   6.531  1.2865  0.2498  0.1386
 1554SOL    HW116121   4.422   4.275   6.599  2.6224 -0.7720 -1.4597
 1554SOL    HW216122   4.415   4.357   6.472  1.2903  0.3726  0.2527
 1555SOL     OW16123   1.430   4.377   1.459 -0.1141 -0.0158  0.0472
 1555SOL    HW116124   1.474   4.418   1.385 -0.9979 -0.3638 -0.6734
 1555SOL    HW216125   1.343   4.415   1.447  0.2888  0.3383 -1.8471
 1556SOL     OW16126   4.462   0.004   2.949 -0.3013  0.0178  1.0215
 1556SOL    HW116127   4.436   4.636   2.919 -0.3391 -0.4744  2.5301
 1556SOL    HW216128   4.541   4.699   2.997 -0.2917 -1.3587  0.3414
 1557SOL     OW16129   4.304   4.046   9.019 -0.2093 -0.6296 -0.0641
 1557SOL    HW116130   4.318   3.970   8.964  1.3158 -1.9704  2.1865
 1557SOL    HW216131   4.390   4.073   9.052 -0.8450  1.5793 -0.1691
 1558SOL     OW16132   2.674   0.695  12.847  0.3289 -0.1113  0.5347
 1558SOL    HW116133   2.614   0.621  12.835  1.2205 -0.0708 -4.1881
 1558SOL    HW216134   2.646   0.733  12.930  0.3133  0.5683  0.2172
 1559SOL     OW16135   0.739   3.170   1.641 -0.0080  0.0704 -0.1561
 1559SOL    HW116136   0.650   3.141   1.620 -0.0674  0.6880 -0.7602
 1559SOL    HW216137   0.712   3.252   1.683 -0.1382  1.3008 -2.6603
 1560SOL     OW16138   2.146   4.146   3.229  0.3577 -0.5305 -0.3150
 1560SOL    HW116139   2.215   4.187   3.281  1.6255 -0.4440 -2.0749
 1560SOL    HW216140   2.163   4.189   3.145  1.5712  0.7253  0.5603
 1561SOL     OW16141   4.647   4.357   3.690 -0.1044 -0.2967  0.3617
 1561SOL    HW116142   4.667   4.284   3.631  0.8251 -0.3802  0.7760
 1561SOL    HW216143   4.558   4.340   3.720 -0.5374  2.5515  0.6535
 1562SOL     OW16144   0.205   2.632   5.197  0.2497  0.0923 -0.0808
 1562SOL    HW116145   0.221   2.724   5.218  3.5707 -0.3339 -0.7356
 1562SOL    HW216146   0.167   2.640   5.109  2.4518 -2.6261 -1.2960
 1563SOL     OW16147   2.893   1.411  11.283  0.6007  0.3991 -0.4055
 1563SOL    HW116148   2.833   1.386  11.354 -0.5950  0.0725 -1.5226
 1563SOL    HW216149   2.885   1.332  11.230 -0.7104 -0.6023  1.2672
 1564SOL     OW16150   2.895   4.416   9.166 -0.0891 -0.0066 -0.3919
 1564SOL    HW116151   2.973   4.377   9.206 -0.5203 -0.5164 -0.0591
 1564SOL    HW216152   2.833   4.399   9.236  0.3860  1.0756  0.3115
 1565SOL     OW16153   0.493   3.358   3.624  0.4990  0.0179  0.2030
 1565SOL    HW116154   0.563   3.356   3.559  1.1984 -1.8325  0.9975
 1565SOL    HW216155   0.520   3.281   3.676  0.7602  1.4479  2.1725
 1566SOL     OW16156   2.062   3.801  12.172  0.2590 -0.1474  0.0967
 1566SOL    HW116157   2.094   3.788  12.261 -2.6783 -0.7401  1.0704
 1566SOL    HW216158   2.074   3.895  12.157 -0.2259 -0.0680  0.1881
 1567SOL     OW16159   4.007   2.303   8.037  0.4815  0.1978  0.5023
 1567SOL    HW116160   3.946   2.366   7.999  0.9017  0.0726 -0.3911
 1567SOL    HW216161   4.090   2.340   8.007  0.7373  0.0077  0.9745
 1568SOL     OW16162   3.514   1.939   6.545 -0.2845  0.1733 -0.2044
 1568SOL    HW116163   3.444   1.948   6.610 -0.5702 -1.1362 -0.3376
 1568SOL    HW216164   3.465   1.916   6.466 -1.2116  0.4682  0.2888
 1569SOL     OW16165   3.770   1.720   9.924  0.1868 -0.1288  0.7881
 1569SOL    HW116166   3.751   1.675   9.842  1.4365  2.0682 -0.7033
 1569SOL    HW216167   3.844   1.663   9.947 -1.3430 -0.8890  3.7524
 1570SOL     OW16168   2.894   3.385   9.676  0.3977 -0.6774  0.2460
 1570SOL    HW116169   2.918   3.475   9.700 -0.2988 -0.1164 -1.1787
 1570SOL    HW216170   2.978   3.344   9.694  0.6498  0.2669  1.2304
 1571SOL     OW16171   0.391   2.542   5.565  0.1635  0.7815  0.4092
 1571SOL    HW116172   0.475   2.504   5.542 -0.8555 -1.9249  1.1390
 1571SOL    HW216173   0.378   2.508   5.653 -1.1422  0.7079  0.1981
 1572SOL     OW16174   0.346   2.141  12.275  0.2150 -0.1264  0.3934
 1572SOL    HW116175   0.339   2.045  12.266 -1.9627 -0.0926  1.8147
 1572SOL    HW216176   0.267   2.171  12.230 -0.1045 -0.5013  0.7120
 1573SOL     OW16177   2.098   3.867   7.963 -0.0063  0.2451  0.0674
 1573SOL    HW116178   2.123   3.958   7.947 -1.2948  0.6455  0.2927
 1573SOL    HW216179   2.007   3.874   7.933  0.3287 -0.3575 -1.0926
 1574SOL     OW16180   4.000   2.444   4.922 -0.5888 -0.1436 -0.1878
 1574SOL    HW116181   3.980   2.357   4.888  1.6944 -0.5738 -0.4175
 1574SOL    HW216182   3.930   2.490   4.875 -1.8389 -0.1515  1.6582
 1575SOL     OW16183   0.262   0.613  10.355  0.0287  0.6296 -0.4898
 1575SOL    HW116184   0.231   0.699  10.325 -0.4229  1.2134  1.6587
 1575SOL    HW216185   0.190   0.562  10.318 -0.4253  0.8659  0.0820
 1576SOL     OW16186   0.983   3.982   9.231 -0.0184  0.4114  0.1153
 1576SOL    HW116187   0.903   3.932   9.249 -0.0078  0.1135 -0.6522
 1576SOL    HW216188   1.016   3.991   9.320  0.6128  1.7707 -0.2536
 1577SOL     OW16189   2.513   4.177  12.759 -0.0420 -0.0559  0.8854
 1577SOL    HW116190   2.531   4.187  12.852  0.7400  1.3010  0.5865
 1577SOL    HW216191   2.559   4.248  12.715 -0.2994 -0.8536 -0.6951
 1578SOL     OW16192   2.053   0.582   2.444  0.0341  0.2662 -0.1404
 1578SOL    HW116193   2.057   0.636   2.522 -0.8281  1.5917 -1.0236
 1578SOL    HW216194   1.964   0.597   2.412 -0.4336  1.1606  1.6101
 1579SOL     OW16195   0.265   0.143   8.659  0.7754 -0.0433 -0.0893
 1579SOL    HW116196   0.230   0.228   8.633  1.2843  0.4388  0.7860
 1579SOL    HW216197   0.311   0.124   8.577 -1.9969  0.0622 -1.6810
 1580SOL     OW16198   0.687   0.339   2.797 -0.4146  0.3419  0.9201
 1580SOL    HW116199   0.717   0.409   2.739  0.3713  0.3350  1.3218
 1580SOL    HW216200   0.767   0.290   2.817 -0.7772 -0.6615 -0.0779
 1581SOL     OW16201   3.404   2.145   6.808 -0.0676  0.0635 -0.0301
 1581SOL    HW116202   3.364   2.202   6.873 -1.1327 -2.5173  1.5707
 1581SOL    HW216203   3.479   2.198   6.780 -0.6206  0.2314 -1.2206
 1582SOL     OW16204   2.273   0.366   9.424 -0.6044  0.4301 -0.5464
 1582SOL    HW116205   2.320   0.283   9.435  1.6496  1.7182 -0.3755
 1582SOL    HW216206   2.345   0.426   9.445 -0.1320  0.2210 -1.5823
 1583SOL     OW16207   3.542   0.193   8.394  0.1963  0.2004  0.3384
 1583SOL    HW116208   3.618   0.135   8.392  0.5964  0.7099  0.7379
 1583SOL    HW216209   3.572   0.252   8.464  1.4679  0.5785 -0.5079
 1584SOL     OW16210   1.862   3.334   0.171  0.5064  0.2278  0.4645
 1584SOL    HW116211   1.811   3.370   0.099 -0.7989 -0.8234  0.8697
 1584SOL    HW216212   1.912   3.261   0.134 -0.5875  1.3049 -3.0831
 1585SOL     OW16213   4.350   1.667   9.060 -0.5705  0.3940 -0.0575
 1585SOL    HW116214   4.390   1.732   9.118  3.3083 -3.2216  1.4134
 1585SOL    HW216215   4.421   1.621   9.014 -0.4194  0.2733  0.2887
 1586SOL     OW16216   2.954   4.231   6.390  0.6068 -0.1836 -0.3668
 1586SOL    HW116217   2.944   4.306   6.332  0.0109  0.1470  0.1648
 1586SOL    HW216218   2.986   4.168   6.326  4.4422  2.5735 -1.1276
 1587SOL     OW16219   1.271   0.946  12.555  0.1581 -0.0578  0.0428
 1587SOL    HW116220   1.342   0.990  12.510  0.1638  0.6209  0.7075
 1587SOL    HW216221   1.203   0.989  12.504 -0.3079 -1.4466 -0.5122
 1588SOL     OW16222   0.771   4.668   6.332  0.3702  0.3457 -0.2879
 1588SOL    HW116223   0.766   0.043   6.316  0.3436  0.6348  1.4066
 1588SOL    HW216224   0.765   4.666   6.428 -1.4743  0.5490 -0.3960
 1589SOL     OW16225   0.809   2.011   2.208 -0.5731 -0.1262  0.4364
 1589SOL    HW116226   0.746   2.060   2.155  1.9962  2.9638  0.2561
 1589SOL    HW216227   0.847   1.959   2.137  1.6229  1.2291  0.6282
 1590SOL     OW16228   4.628   0.627  11.248 -0.2999 -1.0446 -0.3371
 1590SOL    HW116229   4.644   0.660  11.336 -2.9473 -0.6518 -0.0140
 1590SOL    HW216230   4.623   0.708  11.196  0.5314  0.1788  1.4995
 1591SOL     OW16231   4.109   2.965   7.644  0.1638 -0.2558 -0.8750
 1591SOL    HW116232   4.102   3.060   7.630  2.4015  0.4336  2.5266
 1591SOL    HW216233   4.034   2.950   7.700 -1.4407  1.6704 -2.4859
 1592SOL     OW16234   4.341   0.451   9.422 -0.1390 -0.3509  0.5226
 1592SOL    HW116235   4.364   0.378   9.480 -0.9898 -0.3678  0.8416
 1592SOL    HW216236   4.263   0.488   9.463 -1.7683 -1.3747 -1.6306
 1593SOL     OW16237   4.098   4.546  10.699 -0.2477 -0.4226 -0.4748
 1593SOL    HW116238   4.152   4.537  10.778 -0.4300  0.8913 -0.1983
 1593SOL    HW216239   4.006   4.555  10.724 -0.2564  0.0134 -0.6660
 1594SOL     OW16240   4.036   0.127   5.171 -0.6183 -0.5593 -0.5676
 1594SOL    HW116241   3.984   0.207   5.177  1.4003  0.6493  1.1796
 1594SOL    HW216242   4.104   0.145   5.237  0.1262 -1.9636 -0.9555
 1595SOL     OW16243   0.932   4.419   2.981 -0.0379  0.1291 -0.1476
 1595SOL    HW116244   0.945   4.398   3.074 -1.0075  2.1526  0.4590
 1595SOL    HW216245   0.838   4.434   2.977  0.0796  0.6268 -1.0812
 1596SOL     OW16246   0.959   2.489   0.300  0.4777 -0.3792  0.5597
 1596SOL    HW116247   0.878   2.474   0.251 -0.1463  2.5938  0.7021
 1596SOL    HW216248   1.030   2.485   0.237 -0.7579 -2.1480 -0.7315
 1597SOL     OW16249   3.890   4.689   7.876  0.2241 -0.4861 -0.2252
 1597SOL    HW116250   3.799   4.700   7.847  0.0592 -2.5927 -0.4426
 1597SOL    HW216251   3.894   4.600   7.911  1.0884  0.6244  2.5085
 1598SOL     OW16252   2.300   3.239  11.581  0.1120  0.6756  0.1715
 1598SOL    HW116253   2.304   3.334  11.575 -0.0310  0.6535 -0.2604
 1598SOL    HW216254   2.384   3.231  11.535  0.8120  1.3683  1.3325
 1599SOL     OW16255   0.685   4.048  11.300  0.4959  0.4473  0.4096
 1599SOL    HW116256   0.686   4.133  11.344 -0.6759  1.0830 -0.8193
 1599SOL    HW216257   0.596   4.015  11.306  0.1167  1.9085  2.6954
 1600SOL     OW16258   4.080   4.040   9.290  0.6224  0.7087  0.0184
 1600SOL    HW116259   4.072   3.946   9.275 -1.8313  0.8057  0.6578
 1600SOL    HW216260   4.100   4.074   9.203  1.1735 -0.4309 -0.2995
 1601SOL     OW16261   3.959   0.456  12.967  0.2404  0.5583 -0.3572
 1601SOL    HW116262   3.926   0.467  13.056 -2.1690  1.3603 -1.3516
 1601SOL    HW216263   3.908   0.520  12.918  0.7731  2.6476  1.8392
 1602SOL     OW16264   3.953   2.539   3.136  0.2118  0.0660 -0.1955
 1602SOL    HW116265   3.995   2.596   3.200  0.3711  0.2879 -0.4991
 1602SOL    HW216266   3.861   2.553   3.158  0.6224  2.3017  0.0774
 1603SOL     OW16267   2.071   0.700   4.423 -0.0826 -0.6054  0.5813
 1603SOL    HW116268   2.022   0.776   4.453  0.5676  0.8061 -1.9025
 1603SOL    HW216269   2.075   0.653   4.506 -1.0387  0.5967  1.3071
 1604SOL     OW16270   0.767   1.369   4.723  0.1396  0.6225 -0.5565
 1604SOL    HW116271   0.796   1.450   4.764 -0.5903  0.9766 -0.7315
 1604SOL    HW216272   0.702   1.384   4.654  1.2362  2.0767 -1.2645
 1605SOL     OW16273   2.269   1.584   8.364 -0.0108  0.0821  0.2972
 1605SOL    HW116274   2.276   1.613   8.455  0.1286  1.1443 -0.0573
 1605SOL    HW216275   2.334   1.642   8.324  0.2259  1.0302  2.0237
 1606SOL     OW16276   2.899   2.617   2.094  0.0687  0.3077  0.4181
 1606SOL    HW116277   2.945   2.646   2.015  0.9448  1.7809  1.4770
 1606SOL    HW216278   2.940   2.657   2.171 -0.2691 -0.0427  0.7827
 1607SOL     OW16279   2.602   1.258  11.684 -0.2286  0.4296 -0.8181
 1607SOL    HW116280   2.517   1.254  11.641  0.6030 -1.3097 -2.2838
 1607SOL    HW216281   2.651   1.308  11.618 -1.1972 -0.1551 -1.9738
 1608SOL     OW16282   1.903   2.509   2.941 -0.0690  0.1775  0.1226
 1608SOL    HW116283   1.889   2.437   2.879 -0.7702 -0.6402  1.2464
 1608SOL    HW216284   1.998   2.504   2.954 -0.0790  0.6282  0.3563
 1609SOL     OW16285   0.793   2.824   5.595  0.2868 -0.5108 -0.0957
 1609SOL    HW116286   0.871   2.770   5.582 -0.0494 -0.6585 -1.5351
 1609SOL    HW216287   0.769   2.811   5.687  1.6322 -0.7802  0.2142
 1610SOL     OW16288   3.932   3.218   5.169 -0.3282  0.1330  0.0262
 1610SOL    HW116289   3.885   3.135   5.176  0.7711 -0.3782  1.2607
 1610SOL    HW216290   4.021   3.197   5.198 -0.6006 -1.7549 -0.4866
 1611SOL     OW16291   4.410   3.072   7.198 -0.2569  0.0402 -0.2417
 1611SOL    HW116292   4.427   3.111   7.284  1.2194 -0.0788 -0.4865
 1611SOL    HW216293   4.327   3.032   7.224 -0.3361  1.1521  1.2317
 1612SOL     OW16294   2.819   3.462   2.799 -0.2722 -0.2779  0.1619
 1612SOL    HW116295   2.812   3.511   2.881 -0.0584  0.2860 -0.1555
 1612SOL    HW216296   2.810   3.369   2.823  3.0931 -0.3938  0.9937
 1613SOL     OW16297   3.021   2.652   5.460  0.2819 -0.0898  0.3583
 1613SOL    HW116298   2.983   2.730   5.500  1.8589  1.5243 -1.2888
 1613SOL    HW216299   3.110   2.681   5.438  1.1975 -1.3047  2.4289
 1614SOL     OW16300   1.479   3.647   2.486 -0.6398  0.6786 -0.3132
 1614SOL    HW116301   1.410   3.624   2.423  0.9061  0.5164 -1.9403
 1614SOL    HW216302   1.477   3.743   2.476 -3.7802  0.7377  0.6044
 1615SOL     OW16303   4.617   2.195  11.217 -0.0525 -0.4339  0.9425
 1615SOL    HW116304   4.525   2.193  11.192  0.3811  3.3675 -0.9311
 1615SOL    HW216305   4.602   2.257  11.289 -0.3031  0.0816  0.4458
 1616SOL     OW16306   4.675   3.702   3.593 -0.4087  0.5138  0.6361
 1616SOL    HW116307   4.631   3.754   3.660  0.6458  1.1584  0.8364
 1616SOL    HW216308   4.651   3.735   3.506 -1.9284 -1.7671  0.1866
 1617SOL     OW16309   0.281   2.212   8.199 -0.2817 -0.0117 -0.2754
 1617SOL    HW116310   0.361   2.159   8.200 -1.2293 -1.4280  0.9944
 1617SOL    HW216311   0.291   2.263   8.279 -1.5055 -0.4540  0.1465
 1618SOL     OW16312   1.798   4.228   7.728 -0.3731 -0.4517 -0.4115
 1618SOL    HW116313   1.867   4.274   7.679 -0.6588  1.4786  0.9823
 1618SOL    HW216314   1.739   4.194   7.661 -0.9411  1.6342 -0.9650
 1619SOL     OW16315   3.151   1.608  14.902  0.1130 -0.1308  0.0408
 1619SOL    HW116316   3.226   1.598  14.843 -1.0609 -1.6499 -1.1994
 1619SOL    HW216317   3.175   1.553  14.977 -1.6895  0.4845  1.0601
 1620SOL     OW16318   4.327   3.009   3.912  0.9653 -0.2640  0.0734
 1620SOL    HW116319   4.403   3.066   3.905  0.4320  0.5313  0.8527
 1620SOL    HW216320   4.286   3.047   3.990 -0.3077  3.7346 -2.5757
 1621SOL     OW16321   0.961   1.613   9.012 -0.4883  0.4269 -0.3494
 1621SOL    HW116322   0.908   1.689   8.988 -1.5807 -0.1472  0.2485
 1621SOL    HW216323   0.963   1.608   9.107  0.7561 -0.0853 -0.4059
 1622SOL     OW16324   4.360   0.414   5.845  0.1009  0.1367 -0.1848
 1622SOL    HW116325   4.402   0.444   5.926  1.1001  0.2309 -0.7371
 1622SOL    HW216326   4.436   0.370   5.808  1.1626  2.1301 -0.4109
 1623SOL     OW16327   1.664   2.949  11.769 -0.5758  0.5262 -0.4528
 1623SOL    HW116328   1.640   2.857  11.775 -0.7480  0.5647 -0.5396
 1623SOL    HW216329   1.700   2.954  11.680 -1.7731 -0.4775 -0.9910
 1624SOL     OW16330   1.167   1.117   4.260 -0.7794 -0.3432 -0.0793
 1624SOL    HW116331   1.183   1.210   4.246 -1.5178  0.0073  1.4491
 1624SOL    HW216332   1.196   1.085   4.174  0.9736  0.7359  0.1216
 1625SOL     OW16333   0.757   0.520  17.364  0.1112 -0.2438  0.4672
 1625SOL    HW116334   0.746   0.573  17.285 -0.3363 -1.4745 -0.2920
 1625SOL    HW216335   0.836   0.556  17.404  1.4117 -1.6135 -0.9368
 1626SOL     OW16336   2.399   0.367   7.200 -0.0404  0.0360 -0.1061
 1626SOL    HW116337   2.311   0.400   7.221  0.2598  2.0918 -2.1490
 1626SOL    HW216338   2.438   0.451   7.177  0.8386 -0.8159 -1.6769
 1627SOL     OW16339   0.487   1.662   7.868 -0.2853  0.7482  0.0066
 1627SOL    HW116340   0.429   1.624   7.801  0.8001 -0.3835 -0.2788
 1627SOL    HW216341   0.511   1.744   7.824  1.6931  0.9552  1.5168
 1628SOL     OW16342   2.351   1.553   2.414  0.3661  0.9707 -0.1140
 1628SOL    HW116343   2.318   1.638   2.383 -0.8857  0.3433 -0.5106
 1628SOL    HW216344   2.281   1.488   2.408  0.1685  1.2906 -1.3839
 1629SOL     OW16345   0.168   4.290  17.554  0.1433  0.3581 -0.1368
 1629SOL    HW116346   0.252   4.319  17.519 -0.7658  1.0837 -1.7155
 1629SOL    HW216347   0.177   4.286  17.650  1.6215 -1.3426 -0.3461
 1630SOL     OW16348   0.385   4.519   8.565  0.0569  0.1114 -0.0598
 1630SOL    HW116349   0.473   4.520   8.603 -0.7640  1.7102  1.8032
 1630SOL    HW216350   0.380   4.605   8.522 -3.7536  0.0881  0.3485
 1631SOL     OW16351   0.809   0.261  17.325  0.1727 -0.0526 -0.3434
 1631SOL    HW116352   0.902   0.255  17.302  0.7715  2.1480  1.6269
 1631SOL    HW216353   0.790   0.354  17.328 -1.1780 -0.3374  0.1971
 1632SOL     OW16354   2.941   3.245   9.174  0.7526 -0.2699  0.1662
 1632SOL    HW116355   2.898   3.245   9.259 -0.2822 -0.2038 -0.3622
 1632SOL    HW216356   2.983   3.331   9.176 -0.4763  0.3185  0.6823
 1633SOL     OW16357   1.105   3.916   1.070 -0.2055  0.0283  0.3722
 1633SOL    HW116358   1.135   3.875   1.152  1.3323  0.3897  0.0026
 1633SOL    HW216359   1.010   3.923   1.080 -0.5747 -3.4358 -0.8137
 1634SOL     OW16360   1.164   2.092  11.376  0.4016 -0.3819  0.3266
 1634SOL    HW116361   1.154   2.166  11.316  1.1928 -1.1569 -0.7434
 1634SOL    HW216362   1.073   2.082  11.405  0.8623 -2.2895  1.1079
 1635SOL     OW16363   4.199   2.510   5.643 -0.4077 -0.8478 -0.1809
 1635SOL    HW116364   4.182   2.424   5.682 -0.0318 -1.4544 -1.3334
 1635SOL    HW216365   4.130   2.565   5.679  0.6929 -1.4369  2.8952
 1636SOL     OW16366   1.061   1.307   2.533 -0.2266 -0.5278  0.2639
 1636SOL    HW116367   1.009   1.227   2.543 -1.1719 -0.0858 -1.1728
 1636SOL    HW216368   1.095   1.277   2.449  2.5344 -0.4465  1.3296
 1637SOL     OW16369   2.650   0.591   3.361 -0.2221 -0.1055  0.1512
 1637SOL    HW116370   2.709   0.522   3.392  0.3551  0.2393 -0.2072
 1637SOL    HW216371   2.666   0.590   3.267 -1.0910 -0.8842  0.0044
 1638SOL     OW16372   4.543   1.061   0.343 -0.3855  0.4326 -0.2185
 1638SOL    HW116373   4.565   1.003   0.270 -0.6486 -0.6616  0.5789
 1638SOL    HW216374   4.627   1.103   0.362 -0.0153 -0.5453  0.2988
 1639SOL     OW16375   1.232   0.818   3.903  0.5221  0.2880 -0.2004
 1639SOL    HW116376   1.317   0.775   3.894  0.1393 -0.3998 -0.5139
 1639SOL    HW216377   1.174   0.743   3.917  0.9612 -0.5897 -3.1029
 1640SOL     OW16378   2.501   3.819   5.086 -0.2196 -0.2436 -0.0758
 1640SOL    HW116379   2.510   3.914   5.076  1.6914 -0.4545 -0.3917
 1640SOL    HW216380   2.486   3.797   4.994  0.5968  1.3143 -0.5768
 1641SOL     OW16381   0.044   1.979   4.161  0.3455 -0.2152 -0.5914
 1641SOL    HW116382   4.689   1.942   4.114 -0.4585  0.9865 -0.2652
 1641SOL    HW216383   0.029   1.954   4.252 -2.4227  2.1391 -0.4106
 1642SOL     OW16384   3.495   2.834   7.210  0.1536  0.0872 -0.1919
 1642SOL    HW116385   3.542   2.794   7.137 -0.5129 -1.1208  0.0410
 1642SOL    HW216386   3.407   2.840   7.173  0.5949  0.5183 -1.1662
 1643SOL     OW16387   0.225   1.965   5.040  0.0713 -0.3774 -0.1259
 1643SOL    HW116388   0.156   2.032   5.035  0.5080  0.1959  1.6294
 1643SOL    HW216389   0.211   1.933   4.951  2.0766 -2.9667  0.4794
 1644SOL     OW16390   1.098   2.551   3.436 -0.1575  0.8833 -0.3673
 1644SOL    HW116391   1.028   2.500   3.475  0.7569 -1.0086 -1.2308
 1644SOL    HW216392   1.081   2.644   3.455 -1.0029  0.5875  0.3310
 1645SOL     OW16393   2.143   4.314  14.517  0.0102 -0.1124  0.0389
 1645SOL    HW116394   2.235   4.342  14.517 -0.6449  2.0808  1.0341
 1645SOL    HW216395   2.111   4.345  14.602 -2.2516  0.3280 -0.9687
 1646SOL     OW16396   4.153   1.385   0.435 -0.2747  0.5113  0.5088
 1646SOL    HW116397   4.210   1.327   0.385 -1.6929  0.1537 -0.6956
 1646SOL    HW216398   4.159   1.471   0.394  1.7189 -0.1598 -0.5914
 1647SOL     OW16399   2.113   0.424   6.914  0.4534  0.1729  0.3307
 1647SOL    HW116400   2.044   0.422   6.848  1.5926  0.8539 -0.9051
 1647SOL    HW216401   2.164   0.497   6.877  0.2376 -0.8817 -2.0384
 1648SOL     OW16402   0.819   2.898   1.704 -0.3515 -0.3641 -0.0000
 1648SOL    HW116403   0.903   2.852   1.715  0.2022 -0.4406 -4.7379
 1648SOL    HW216404   0.838   2.990   1.723 -0.0833 -0.0500 -1.7542
 1649SOL     OW16405   0.986   1.735   8.163 -0.3425  0.2263 -0.2091
 1649SOL    HW116406   0.951   1.808   8.112 -0.4555  2.0646  2.4661
 1649SOL    HW216407   0.956   1.655   8.120 -0.9734  0.5504 -0.3623
 1650SOL     OW16408   2.526   1.904   2.382 -0.0203  0.1733  0.5725
 1650SOL    HW116409   2.614   1.919   2.347 -0.0228 -1.2822 -0.0443
 1650SOL    HW216410   2.537   1.943   2.469  0.4832  0.7384  0.2610
 1651SOL     OW16411   2.337   1.257   1.885  0.1437 -0.0074 -0.2887
 1651SOL    HW116412   2.428   1.278   1.861  0.0923  0.2153 -0.2931
 1651SOL    HW216413   2.305   1.338   1.925 -0.5081 -0.3876 -0.0465
 1652SOL     OW16414   3.461   2.717   9.615  0.1877 -0.3333  0.1542
 1652SOL    HW116415   3.412   2.711   9.533 -1.1561 -0.5978  0.9909
 1652SOL    HW216416   3.432   2.802   9.648 -0.3303 -0.0598 -0.9935
 1653SOL     OW16417   2.074   0.525   3.540  0.0520 -0.1124  0.1138
 1653SOL    HW116418   2.079   0.575   3.459 -0.6029  1.2777  0.9196
 1653SOL    HW216419   2.167   0.513   3.554 -0.4843 -2.0945  1.9097
 1654SOL     OW16420   1.852   1.463   0.311  0.0135  0.0311 -0.3386
 1654SOL    HW116421   1.910   1.478   0.385  2.1713  0.0866 -2.0592
 1654SOL    HW216422   1.771   1.435   0.355  0.7017 -0.1755  0.8057
 1655SOL     OW16423   3.512   0.306  15.156  0.1145  0.5336 -0.0591
 1655SOL    HW116424   3.522   0.337  15.066  2.4537 -1.5562 -0.5327
 1655SOL    HW216425   3.507   0.212  15.136  0.2703  0.7351 -1.0348
 1656SOL     OW16426   4.536   4.448   6.380 -0.6622  0.4821  0.1464
 1656SOL    HW116427   4.555   4.522   6.438  2.3957 -2.1922  2.5648
 1656SOL    HW216428   4.624   4.412   6.393 -0.8753 -0.1332 -0.1339
 1657SOL     OW16429   3.072   2.818   9.017 -0.3538 -1.0425 -0.2908
 1657SOL    HW116430   2.984   2.847   9.040  1.0186  2.6693  0.2853
 1657SOL    HW216431   3.127   2.874   9.071 -0.2002  0.5733 -2.1302
 1658SOL     OW16432   1.522   1.787  13.919  0.4129  0.3025  0.1791
 1658SOL    HW116433   1.463   1.823  13.853  1.1602  2.1356  0.5274
 1658SOL    HW216434   1.516   1.691  13.914  0.0865  0.2797  1.1538
 1659SOL     OW16435   3.462   3.935   5.805  0.1234 -0.2021  0.0673
 1659SOL    HW116436   3.371   3.957   5.785 -0.1349 -1.1118  0.2020
 1659SOL    HW216437   3.499   4.020   5.828  0.6737 -0.1906 -0.8917
 1660SOL     OW16438   1.605   0.759   0.647 -0.7829  0.9371  0.0608
 1660SOL    HW116439   1.570   0.753   0.558 -0.9534  0.7559  0.1415
 1660SOL    HW216440   1.533   0.713   0.691 -0.2942 -0.1701 -0.2903
 1661SOL     OW16441   1.192   1.621  14.788  0.1882 -0.4267  0.1400
 1661SOL    HW116442   1.255   1.658  14.850  2.5005 -0.1010 -2.3980
 1661SOL    HW216443   1.255   1.604  14.717  3.0815 -1.8626  3.0575
 1662SOL     OW16444   4.257   3.316  10.040 -0.2854 -0.4421 -0.0382
 1662SOL    HW116445   4.345   3.323  10.077 -1.0920 -2.0524  2.1990
 1662SOL    HW216446   4.227   3.403  10.014 -0.3092 -0.6625 -0.7585
 1663SOL     OW16447   2.687   1.677   1.597  0.4110 -0.0525  0.0729
 1663SOL    HW116448   2.758   1.626   1.556 -0.5339  0.0976 -1.7505
 1663SOL    HW216449   2.618   1.610   1.594  1.5932 -1.3348  1.4620
 1664SOL     OW16450   4.612   0.135   6.932  0.3937  0.2142 -0.8906
 1664SOL    HW116451   4.554   0.151   7.006 -0.5689  1.0599 -1.8170
 1664SOL    HW216452   4.639   0.222   6.903 -0.6734  0.8985  0.1832
 1665SOL     OW16453   0.798   4.659   6.621 -0.0046 -0.0511 -0.2273
 1665SOL    HW116454   0.846   4.585   6.659 -0.0313  0.1685  0.2415
 1665SOL    HW216455   0.758   4.700   6.698 -0.5135 -0.2686 -0.3765
 1666SOL     OW16456   3.331   1.587   7.789  0.2892 -0.6230 -0.2355
 1666SOL    HW116457   3.377   1.505   7.771 -0.7071 -1.2388  0.0354
 1666SOL    HW216458   3.239   1.568   7.768 -0.8212  0.5187  3.5823
 1667SOL     OW16459   4.104   2.508   7.625 -0.0719  0.0433 -0.3422
 1667SOL    HW116460   4.027   2.451   7.624 -1.8083  2.3238  1.4029
 1667SOL    HW216461   4.175   2.454   7.658 -0.4936 -1.5819 -2.1137
 1668SOL     OW16462   1.281   4.081   2.212  0.1771  0.3478 -0.2052
 1668SOL    HW116463   1.251   4.094   2.302  1.8959 -1.0975  0.5847
 1668SOL    HW216464   1.267   4.168   2.176  0.0097  0.5864  0.4281
 1669SOL     OW16465   4.174   4.611   2.704 -0.0884 -0.2907  0.1055
 1669SOL    HW116466   4.199   4.703   2.704 -0.7309 -0.1193  0.7219
 1669SOL    HW216467   4.173   4.598   2.609  0.8039 -0.3768  0.1083
 1670SOL     OW16468   1.296   3.529   4.480 -0.2892 -0.3942  1.1143
 1670SOL    HW116469   1.246   3.457   4.441 -0.9664 -0.0898  1.4272
 1670SOL    HW216470   1.385   3.493   4.487  0.8491  2.3464  0.5777
 1671SOL     OW16471   3.548   0.076   6.164  0.2805  0.0695  0.2053
 1671SOL    HW116472   3.630   0.097   6.118  1.1063 -2.1713  0.6816
 1671SOL    HW216473   3.572   4.706   6.189 -0.4548 -0.5858 -1.3871
 1672SOL     OW16474   1.077   2.248  15.035 -0.3755  0.0908  0.0072
 1672SOL    HW116475   1.169   2.227  15.019 -0.5441 -0.7140  0.0901
 1672SOL    HW216476   1.032   2.176  14.992  1.9448 -0.9414 -0.6742
 1673SOL     OW16477   0.198   1.214   6.723  0.3322 -0.2902  0.1245
 1673SOL    HW116478   0.274   1.234   6.669  2.0531  0.3595  2.7626
 1673SOL    HW216479   0.149   1.296   6.715  1.4757  0.2920 -0.7629
 1674SOL     OW16480   0.430   1.948   2.698 -0.0345  0.0733 -0.5669
 1674SOL    HW116481   0.523   1.950   2.721 -0.2984  1.3677  0.3569
 1674SOL    HW216482   0.439   1.905   2.613  0.5022 -1.5273  0.3002
 1675SOL     OW16483   2.276   0.651   7.370  0.1801 -0.0687  0.1346
 1675SOL    HW116484   2.212   0.606   7.315  0.1008  0.7751 -0.4628
 1675SOL    HW216485   2.331   0.671   7.295 -0.5013 -1.2980 -0.6896
 1676SOL     OW16486   3.620   1.492   6.636 -0.1223 -0.4642 -0.1416
 1676SOL    HW116487   3.696   1.542   6.605 -1.4623  0.5650 -1.7467
 1676SOL    HW216488   3.605   1.440   6.557  1.3974 -0.5782 -0.3660
 1677SOL     OW16489   2.587   1.091   8.405  0.1694 -0.1661 -0.1361
 1677SOL    HW116490   2.602   1.147   8.481 -3.1380  1.0723 -0.4125
 1677SOL    HW216491   2.496   1.113   8.387  0.4958  0.7636 -0.6392
 1678SOL     OW16492   4.104   3.530  12.081  0.5341  0.4593  0.1715
 1678SOL    HW116493   4.129   3.438  12.068 -0.4554  0.5822 -2.6127
 1678SOL    HW216494   4.080   3.525  12.174 -0.3051 -1.5388 -0.1505
 1679SOL     OW16495   2.693   1.470   3.543 -0.2795  0.0561 -0.1012
 1679SOL    HW116496   2.686   1.532   3.616  0.0179 -0.9681  0.7993
 1679SOL    HW216497   2.782   1.489   3.514  0.7738 -0.0789  3.0166
 1680SOL     OW16498   0.553   3.316   0.974 -0.1525 -0.0384  0.0245
 1680SOL    HW116499   0.518   3.318   1.063  1.9461  1.3694  0.8307
 1680SOL    HW216500   0.644   3.335   0.998  0.3311 -1.5279 -0.6206
 1681SOL     OW16501   1.974   0.694   8.947  0.0882  0.2795  0.1477
 1681SOL    HW116502   1.940   0.769   8.899 -1.2741 -1.2186 -1.2399
 1681SOL    HW216503   2.068   0.709   8.950 -0.2017  2.3037 -0.8207
 1682SOL     OW16504   1.754   3.842   2.486  0.5765 -0.4327  0.0787
 1682SOL    HW116505   1.755   3.746   2.487  0.5900 -0.4384 -0.6257
 1682SOL    HW216506   1.717   3.856   2.399 -2.9980  2.1361  2.0044
 1683SOL     OW16507   0.434   2.312   9.859 -0.1406 -0.1651 -0.4888
 1683SOL    HW116508   0.404   2.261   9.784  0.8426 -1.4079 -0.0268
 1683SOL    HW216509   0.477   2.384   9.812 -0.5416  0.7417  0.5285
 1684SOL     OW16510   4.121   4.055   7.847  0.6532 -0.3110  0.1588
 1684SOL    HW116511   4.056   4.056   7.918 -0.5432  1.3511 -0.9644
 1684SOL    HW216512   4.103   4.123   7.783  1.4774 -1.1535 -0.9636
 1685SOL     OW16513   3.203   3.117   7.657  0.2098  0.7289 -0.7744
 1685SOL    HW116514   3.181   3.161   7.575 -0.6812  2.0535  0.1878
 1685SOL    HW216515   3.286   3.070   7.646 -0.7386 -0.5755 -2.4395
 1686SOL     OW16516   1.964   3.609   9.265  0.6632 -0.4121  0.3998
 1686SOL    HW116517   1.901   3.681   9.271 -0.4843 -1.3533 -0.2832
 1686SOL    HW216518   2.036   3.664   9.235  1.0734 -0.5110  1.1921
 1687SOL     OW16519   0.829   1.046   7.048  0.1614  0.1342 -0.1037
 1687SOL    HW116520   0.904   1.069   6.993  1.0097 -0.2796  0.8795
 1687SOL    HW216521   0.789   0.984   6.987 -1.2208  0.7377  0.1917
 1688SOL     OW16522   4.570   0.622   3.506 -0.8237 -0.3955  0.2740
 1688SOL    HW116523   4.602   0.641   3.417  1.2570  1.0097  1.3410
 1688SOL    HW216524   4.478   0.648   3.501 -1.1414 -1.1403  2.3634
 1689SOL     OW16525   0.637   2.531   5.714 -0.7852 -0.4109  0.6197
 1689SOL    HW116526   0.673   2.599   5.772 -0.8261 -0.5011  0.7500
 1689SOL    HW216527   0.598   2.468   5.774 -0.9968 -0.4723  0.4124
 1690SOL     OW16528   1.973   1.303   1.407 -0.1197  0.0898  0.2228
 1690SOL    HW116529   2.037   1.246   1.365 -0.1471  0.4591 -0.3209
 1690SOL    HW216530   2.025   1.337   1.481 -0.9314  0.0396  0.8147
 1691SOL     OW16531   4.375   0.458   4.668  0.0655  0.0885 -0.8664
 1691SOL    HW116532   4.357   0.385   4.726  2.6983  0.6560  0.6492
 1691SOL    HW216533   4.471   0.455   4.666  0.1210  1.9202 -1.4115
 1692SOL     OW16534   1.564   0.668  16.914  0.2281  0.0624  0.2810
 1692SOL    HW116535   1.611   0.751  16.902 -0.7343  0.6155  0.2899
 1692SOL    HW216536   1.481   0.706  16.882  0.5834  1.4602  0.9950
 1693SOL     OW16537   1.503   4.480  13.947  0.4946 -0.0807  0.1973
 1693SOL    HW116538   1.530   4.388  13.957 -0.6656 -0.3352  0.9980
 1693SOL    HW216539   1.432   4.478  13.883  0.7820 -2.2172 -0.0644
 1694SOL     OW16540   0.977   4.578  17.651 -0.4785 -0.0140 -0.3386
 1694SOL    HW116541   1.066   4.545  17.642 -1.0137 -1.6107  0.0483
 1694SOL    HW216542   0.982   4.641   0.043 -1.0776 -3.7396  3.0052
 1695SOL     OW16543   0.015   0.991   0.113  0.2563  0.2998 -0.3095
 1695SOL    HW116544   4.716   1.057   0.047 -2.2935  0.3680  0.4663
 1695SOL    HW216545   0.074   1.032   0.177  0.2902 -0.0400 -0.1226
 1696SOL     OW16546   0.665   4.246  13.888  0.1842  0.8860 -0.1361
 1696SOL    HW116547   0.728   4.198  13.834  0.6098  0.5871  0.6192
 1696SOL    HW216548   0.641   4.187  13.959  0.1637  0.2387 -0.6804
 1697SOL     OW16549   0.857   1.267   6.091  0.1571 -0.0634 -0.0234
 1697SOL    HW116550   0.840   1.215   6.170 -0.2938  0.7610  0.4236
 1697SOL    HW216551   0.829   1.351   6.128  2.1592  0.4028  0.4169
 1698SOL     OW16552   4.104   3.215   9.391 -0.1379  0.1307 -0.2399
 1698SOL    HW116553   4.096   3.166   9.473  0.4952 -1.5906 -1.1967
 1698SOL    HW216554   4.199   3.210   9.388 -0.1304  0.6235 -0.7954
 1699SOL     OW16555   1.846   2.692  14.391  0.8780 -0.7393  0.1109
 1699SOL    HW116556   1.791   2.642  14.452  0.4167 -0.7412 -0.3109
 1699SOL    HW216557   1.774   2.710  14.331  2.7238 -0.8112 -2.0772
 1700SOL     OW16558   0.033   0.164   5.852 -0.3711 -0.1417 -0.0285
 1700SOL    HW116559   0.009   0.251   5.882 -2.7114 -1.2240  1.2562
 1700SOL    HW216560   4.688   0.110   5.899  0.9976 -0.9970  0.8745
 1701SOL     OW16561   0.675   2.613   3.474  0.5696 -0.1500  0.1589
 1701SOL    HW116562   0.753   2.599   3.529  0.4745  0.8482  0.5468
 1701SOL    HW216563   0.702   2.559   3.400  1.5452 -1.3071  1.3325
 1702SOL     OW16564   1.687   2.674   2.728 -0.4208 -0.3309  0.1580
 1702SOL    HW116565   1.655   2.646   2.813 -0.7406  1.9754  0.8001
 1702SOL    HW216566   1.731   2.593   2.701 -0.5293 -0.2865 -0.1564
 1703SOL     OW16567   2.718   1.370   3.004 -0.3089  0.1984  0.3771
 1703SOL    HW116568   2.666   1.317   2.943  1.4792  0.5205 -1.4007
 1703SOL    HW216569   2.804   1.365   2.963 -0.3508  0.3967  0.2661
 1704SOL     OW16570   1.757   1.229   5.917  0.9007 -0.1850  0.1918
 1704SOL    HW116571   1.665   1.252   5.905  0.5646 -2.3367 -1.3951
 1704SOL    HW216572   1.779   1.264   6.003  1.9535 -0.5089  0.0546
 1705SOL     OW16573   1.956   4.606   5.462 -0.2093  0.0736 -0.3923
 1705SOL    HW116574   2.013   4.557   5.403  0.8870 -0.5388  1.1759
 1705SOL    HW216575   1.990   4.695   5.446  1.0754 -0.5093 -0.9223
 1706SOL     OW16576   1.895   0.862   3.076 -0.6417  0.2297  0.4760
 1706SOL    HW116577   1.925   0.949   3.049 -0.9342  0.4402  0.8332
 1706SOL    HW216578   1.922   0.807   3.003 -2.8441  0.2433 -0.3600
 1707SOL     OW16579   2.977   4.404   0.431  0.2038  0.1113  0.5208
 1707SOL    HW116580   2.933   4.432   0.512 -1.6354 -1.3586  0.0427
 1707SOL    HW216581   2.999   4.486   0.389 -0.0210 -0.4787 -0.7454
 1708SOL     OW16582   3.586   1.669   8.852 -0.5400 -0.0276  0.0932
 1708SOL    HW116583   3.599   1.758   8.821  1.1816 -0.5449 -0.6496
 1708SOL    HW216584   3.649   1.653   8.922  0.6222  1.4237 -0.6316
 1709SOL     OW16585   1.830   4.183   1.897 -0.0503 -0.4276 -0.2204
 1709SOL    HW116586   1.779   4.244   1.844 -0.4625 -0.1765  0.4528
 1709SOL    HW216587   1.806   4.096   1.863 -2.7583  0.8878 -1.7061
 1710SOL     OW16588   1.244   3.337  12.036  0.7789 -0.2342 -0.3621
 1710SOL    HW116589   1.207   3.400  11.975 -0.1051  1.3748  1.8116
 1710SOL    HW216590   1.211   3.256  12.000  0.3825 -0.3500  0.2521
 1711SOL     OW16591   1.597   2.331   1.663 -0.2362 -0.3848  0.0846
 1711SOL    HW116592   1.561   2.265   1.723 -0.3521 -1.0173 -0.6887
 1711SOL    HW216593   1.589   2.286   1.579  1.3663 -0.6965  0.1130
 1712SOL     OW16594   0.852   3.575   6.256  0.1169  0.1524 -0.4282
 1712SOL    HW116595   0.916   3.578   6.185 -0.8755 -0.2922 -1.3449
 1712SOL    HW216596   0.818   3.664   6.263 -1.3584 -0.2761 -2.1035
 1713SOL     OW16597   3.948   1.919   5.734 -0.3480 -0.0356 -0.6738
 1713SOL    HW116598   3.952   2.001   5.685 -2.5912  1.3151  1.3720
 1713SOL    HW216599   3.857   1.892   5.724 -0.3871 -0.3014  0.3721
 1714SOL     OW16600   3.249   1.540  12.171 -0.7738  0.3985  0.4792
 1714SOL    HW116601   3.288   1.617  12.129  0.8860 -0.3733  0.6334
 1714SOL    HW216602   3.235   1.494  12.088  0.0044  0.5054  0.2882
 1715SOL     OW16603   1.364   2.525   0.348  0.5250 -0.4003 -0.4096
 1715SOL    HW116604   1.400   2.594   0.403 -1.8103  0.4494  0.0498
 1715SOL    HW216605   1.354   2.446   0.401  1.1115  0.8777  1.6056
 1716SOL     OW16606   3.601   1.515   3.004  0.5272 -0.4852  0.5421
 1716SOL    HW116607   3.588   1.465   2.923  0.3394 -1.4274  1.1585
 1716SOL    HW216608   3.573   1.601   2.973  0.9900 -1.2254 -1.9691
 1717SOL     OW16609   3.504   2.762   1.792  0.3516  0.4008 -0.3030
 1717SOL    HW116610   3.497   2.685   1.736 -0.0771 -0.2087  0.5731
 1717SOL    HW216611   3.536   2.823   1.726  1.1004 -1.1423 -1.3615
 1718SOL     OW16612   2.941   3.009   8.168 -0.2943  0.0817 -0.1389
 1718SOL    HW116613   2.933   2.932   8.223 -1.0148 -1.4772 -2.4323
 1718SOL    HW216614   3.016   2.992   8.110  0.1854  2.0613 -0.1004
 1719SOL     OW16615   1.272   4.522  13.763 -0.3842 -0.7133  0.1207
 1719SOL    HW116616   1.231   4.578  13.698 -0.5095 -3.5476 -2.2575
 1719SOL    HW216617   1.216   4.539  13.838  0.7827 -1.4470  1.1807
 1720SOL     OW16618   2.909   0.506   5.396  0.1249 -0.5698  0.3248
 1720SOL    HW116619   2.837   0.568   5.397  2.2699  1.9001  1.8424
 1720SOL    HW216620   2.887   0.456   5.318 -1.8104  1.7311 -0.5947
 1721SOL     OW16621   1.730   1.427  17.386  0.2095 -0.4579  0.1411
 1721SOL    HW116622   1.725   1.362  17.457  2.2017 -1.2805 -0.4724
 1721SOL    HW216623   1.793   1.482  17.432  1.1338 -0.5061 -1.0772
 1722SOL     OW16624   2.674   4.358   1.865 -0.3615 -0.1176  0.0104
 1722SOL    HW116625   2.693   4.347   1.958  1.5958 -2.5560 -0.6713
 1722SOL    HW216626   2.650   4.268   1.842  0.7113 -0.1424 -1.0320
 1723SOL     OW16627   1.388   0.371   5.788  0.5944 -0.7619  0.1384
 1723SOL    HW116628   1.356   0.441   5.732 -2.0868 -2.5644 -0.5451
 1723SOL    HW216629   1.312   0.331   5.829  0.2140  1.7171  1.8358
 1724SOL     OW16630   3.736   4.582   3.383 -0.5187 -0.1100 -0.3483
 1724SOL    HW116631   3.643   4.569   3.361 -0.4598  1.3177 -1.4164
 1724SOL    HW216632   3.728   4.671   3.417  0.6248  0.6122 -2.0100
 1725SOL     OW16633   2.965   2.008  13.297  0.0252 -0.2872  0.1156
 1725SOL    HW116634   2.929   1.944  13.359 -2.2573  0.9891  0.1231
 1725SOL    HW216635   3.053   1.972  13.290  0.7249  1.1612  1.2998
 1726SOL     OW16636   1.157   2.177   5.087 -0.3994 -0.5664 -0.2202
 1726SOL    HW116637   1.108   2.220   5.016  0.4271 -2.0890 -1.7241
 1726SOL    HW216638   1.098   2.103   5.099 -1.1343  0.1372  0.4748
 1727SOL     OW16639   2.380   4.627   1.931  0.1855  0.2220  0.6605
 1727SOL    HW116640   2.392   4.563   1.861  1.5732  1.0095  0.1905
 1727SOL    HW216641   2.429   4.586   2.002  1.3645  0.6010  0.0572
 1728SOL     OW16642   1.350   3.102   1.929  0.0242 -0.8568 -0.7387
 1728SOL    HW116643   1.339   3.159   2.004 -3.4222 -2.6687  0.1248
 1728SOL    HW216644   1.349   3.014   1.967 -1.2787 -0.0853  0.9869
 1729SOL     OW16645   2.688   0.979   0.881  0.1969 -0.0883 -0.6304
 1729SOL    HW116646   2.619   0.913   0.868 -0.5722  0.9905 -1.9929
 1729SOL    HW216647   2.769   0.930   0.867 -0.6136 -1.6558  0.1372
 1730SOL     OW16648   0.408   4.120   1.984  0.1694  0.6007 -0.4645
 1730SOL    HW116649   0.468   4.066   1.931  0.2908  0.8470 -0.5776
 1730SOL    HW216650   0.370   4.170   1.912 -2.6738 -1.6275 -0.5080
 1731SOL     OW16651   0.043   2.719  16.853  0.1269  0.5985  0.9325
 1731SOL    HW116652   0.036   2.766  16.770  2.5962  0.3800  0.6053
 1731SOL    HW216653   4.687   2.756  16.899  0.4262 -1.8301  3.4095
 1732SOL     OW16654   4.326   2.226  12.294  0.1778 -0.2233 -0.4032
 1732SOL    HW116655   4.407   2.235  12.344 -0.0601  0.0270 -0.0684
 1732SOL    HW216656   4.296   2.138  12.316  0.5995 -0.4099 -0.5692
 1733SOL     OW16657   3.163   3.554   9.453  0.1440 -0.2196 -0.1634
 1733SOL    HW116658   3.188   3.625   9.513  0.1266  0.8228 -1.3995
 1733SOL    HW216659   3.188   3.478   9.505  1.1566 -0.0559 -0.4262
 1734SOL     OW16660   0.785   0.380  15.546 -0.0156  0.0917 -0.1017
 1734SOL    HW116661   0.735   0.338  15.616 -2.8201  1.7836 -1.0878
 1734SOL    HW216662   0.816   0.456  15.595 -1.9875  1.2157 -0.6057
 1735SOL     OW16663   1.642   3.296   7.748  0.0535 -0.4113  0.0506
 1735SOL    HW116664   1.582   3.281   7.674 -1.5135 -0.4474  1.3329
 1735SOL    HW216665   1.715   3.341   7.706  2.7762 -1.3128  3.7748
 1736SOL     OW16666   1.843   4.712  12.320 -0.3760  0.1477 -0.1779
 1736SOL    HW116667   1.803   0.066  12.369 -0.2226 -0.8645  1.4715
 1736SOL    HW216668   1.770   4.650  12.326 -0.0328 -0.0958  1.4511
 1737SOL     OW16669   3.053   4.589   2.483  0.5382 -0.4018 -0.3054
 1737SOL    HW116670   3.079   4.613   2.572  1.0001 -0.0248 -0.5442
 1737SOL    HW216671   3.026   4.500   2.504 -1.0162  0.2203  0.3775
 1738SOL     OW16672   2.248   1.784  10.516  0.5338  0.3543  0.3089
 1738SOL    HW116673   2.283   1.709  10.468 -2.3215 -1.9556  1.8152
 1738SOL    HW216674   2.274   1.748  10.601  2.9842 -0.3690 -0.7408
 1739SOL     OW16675   0.676   0.884  17.319 -0.3879 -0.0449  0.0203
 1739SOL    HW116676   0.588   0.882  17.282 -1.5787 -1.2947  2.8628
 1739SOL    HW216677   0.685   0.790  17.335  0.9319 -0.2394 -1.8608
 1740SOL     OW16678   0.340   1.086   1.683  0.0528 -0.0781 -0.0788
 1740SOL    HW116679   0.333   1.171   1.639  0.9328  0.1903  0.2978
 1740SOL    HW216680   0.251   1.053   1.672  0.3187  0.1136 -2.9271
 1741SOL     OW16681   1.540   1.346   8.302  0.2909  0.2372  0.0360
 1741SOL    HW116682   1.507   1.310   8.219 -1.3082 -1.6072  1.4909
 1741SOL    HW216683   1.635   1.336   8.300  0.0013 -1.9657 -2.1844
 1742SOL     OW16684   3.094   1.361   0.307  0.4627 -0.1907  0.2144
 1742SOL    HW116685   3.081   1.453   0.286 -0.8396 -0.7576 -1.4180
 1742SOL    HW216686   3.054   1.351   0.394  2.3567 -2.3373  0.8500
 1743SOL     OW16687   2.462   3.010  11.978 -0.4463  0.3923 -0.5413
 1743SOL    HW116688   2.510   2.996  11.897 -0.4381 -1.6490 -0.1811
 1743SOL    HW216689   2.447   3.104  11.968 -0.9769  0.3487 -0.1398
 1744SOL     OW16690   3.935   4.368   8.699 -0.7346  0.4590 -0.9301
 1744SOL    HW116691   4.023   4.331   8.703 -0.7366  0.5731  0.2532
 1744SOL    HW216692   3.961   4.444   8.647  2.4432  0.9055  1.3033
 1745SOL     OW16693   0.278   2.679   4.137  0.4304  0.0554 -0.5121
 1745SOL    HW116694   0.305   2.748   4.198  1.9929 -1.3626  0.4100
 1745SOL    HW216695   0.194   2.665   4.181  0.1392  1.8198 -0.5319
 1746SOL     OW16696   2.319   4.454   9.973 -0.0023 -0.1812  0.0566
 1746SOL    HW116697   2.397   4.469   9.919 -0.2658  1.9330  0.2663
 1746SOL    HW216698   2.269   4.527   9.936  0.3775  0.8376  1.5209
 1747SOL     OW16699   2.695   2.804  11.588 -0.0528  0.0894  0.0892
 1747SOL    HW116700   2.732   2.813  11.500 -0.7146 -1.2144 -0.3224
 1747SOL    HW216701   2.752   2.740  11.630  1.4303  2.5246  1.7799
 1748SOL     OW16702   1.348   1.301   3.806 -1.0314  0.4263  0.3973
 1748SOL    HW116703   1.434   1.294   3.765 -2.0575 -1.2594 -1.4858
 1748SOL    HW216704   1.373   1.327   3.894 -0.6264 -2.0918  1.0027
 1749SOL     OW16705   1.951   0.328   2.401  0.8507  0.4912 -0.3053
 1749SOL    HW116706   1.970   0.345   2.309 -1.9592 -2.3172 -1.3870
 1749SOL    HW216707   1.966   0.418   2.431  0.2338  0.4953  0.0028
 1750SOL     OW16708   0.986   3.122   5.800  0.4569  0.0290  0.0621
 1750SOL    HW116709   0.945   3.085   5.878  0.6656  1.2562  0.7493
 1750SOL    HW216710   0.989   3.215   5.823  0.7652  0.4214 -1.5466
 1751SOL     OW16711   0.897   2.485   4.024  0.0090  0.2303  0.1424
 1751SOL    HW116712   0.852   2.559   3.982  0.6901 -0.0474 -1.0780
 1751SOL    HW216713   0.982   2.527   4.037 -1.1402  2.0957  1.7142
 1752SOL     OW16714   1.111   0.582   9.904  0.5586 -0.2741 -0.0934
 1752SOL    HW116715   1.135   0.674   9.907 -0.4040 -0.0735  1.2929
 1752SOL    HW216716   1.016   0.593   9.912  0.7281  0.1237  1.3536
 1753SOL     OW16717   3.538   3.948   9.357  0.2119  0.3342  0.4436
 1753SOL    HW116718   3.489   3.963   9.438 -0.7355 -3.8299  0.6355
 1753SOL    HW216719   3.561   4.036   9.328  0.0431 -0.4347 -1.9851
 1754SOL     OW16720   0.778   3.886   6.575  0.0342  0.6560  0.0558
 1754SOL    HW116721   0.750   3.799   6.604  1.6106 -0.2761 -1.2387
 1754SOL    HW216722   0.806   3.925   6.659  1.9773  0.5683 -0.5583
 1755SOL     OW16723   2.510   1.993   8.903  0.5806  0.2228 -0.0247
 1755SOL    HW116724   2.586   2.018   8.955  0.6925  1.7351 -0.9315
 1755SOL    HW216725   2.463   2.075   8.887 -1.1539 -1.0748 -1.5564
 1756SOL     OW16726   0.125   0.215   9.496 -0.1777 -0.1823 -0.1550
 1756SOL    HW116727   0.102   0.123   9.510  1.6607 -1.0119 -2.4881
 1756SOL    HW216728   0.146   0.240   9.586  1.6046 -3.2522  0.2583
 1757SOL     OW16729   1.267   2.138   7.805 -0.4171  1.1839 -0.0987
 1757SOL    HW116730   1.255   2.129   7.899  2.8174  0.6275  0.2594
 1757SOL    HW216731   1.187   2.100   7.768  0.1623 -1.0666  0.9510
 1758SOL     OW16732   1.996   1.793  12.574  0.0450 -0.1740 -0.7499
 1758SOL    HW116733   1.967   1.871  12.526  1.6505  0.0481 -1.3650
 1758SOL    HW216734   1.941   1.793  12.652 -0.1071 -0.2434 -0.8579
 1759SOL     OW16735   1.676   2.225   7.101  0.5348 -0.0515 -0.2141
 1759SOL    HW116736   1.641   2.232   7.189 -1.6443 -0.1269 -1.0597
 1759SOL    HW216737   1.610   2.267   7.045 -0.8266 -0.6066  0.9553
 1760SOL     OW16738   0.554   3.379   5.248  0.0058  0.1269  0.2400
 1760SOL    HW116739   0.559   3.395   5.343 -2.1135  1.5972  0.0941
 1760SOL    HW216740   0.468   3.416   5.229  0.8545  1.3744 -1.1037
 1761SOL     OW16741   0.397   1.318   8.639 -0.3403 -0.4086 -0.4940
 1761SOL    HW116742   0.466   1.370   8.680  1.0324 -3.7088  1.3559
 1761SOL    HW216743   0.404   1.350   8.549  0.8760  0.8719  0.0526
 1762SOL     OW16744   1.186   2.867   7.767  0.4967 -0.2562 -0.8321
 1762SOL    HW116745   1.199   2.773   7.785  1.6570  0.3101  1.3237
 1762SOL    HW216746   1.278   2.887   7.786  0.8869 -1.0831 -1.8475
 1763SOL     OW16747   2.545   0.289   9.139  0.1509  0.4860  0.4543
 1763SOL    HW116748   2.568   0.337   9.218 -1.3049  1.6258  0.1854
 1763SOL    HW216749   2.608   0.319   9.073 -1.8283  1.1406 -1.1287
 1764SOL     OW16750   1.485   3.732   5.690 -0.8261  0.0922 -0.4390
 1764SOL    HW116751   1.447   3.718   5.604  0.7232 -2.5643 -0.6739
 1764SOL    HW216752   1.459   3.821   5.714 -0.8218  0.0154 -0.1389
 1765SOL     OW16753   4.207   4.210  13.522  0.6830 -0.3729  0.0442
 1765SOL    HW116754   4.144   4.282  13.525  2.0666  0.8528  0.0806
 1765SOL    HW216755   4.152   4.132  13.516 -0.3768  0.3650  0.2646
 1766SOL     OW16756   0.777   2.358   5.183 -0.4270  0.1929  0.1171
 1766SOL    HW116757   0.704   2.377   5.242 -1.6319 -1.0604 -0.9920
 1766SOL    HW216758   0.736   2.286   5.135  0.5153 -0.3764  0.1757
 1767SOL     OW16759   2.055   1.500   0.008 -0.0396 -0.2194  0.2684
 1767SOL    HW116760   2.147   1.504   0.032 -0.3189  1.1277  1.1124
 1767SOL    HW216761   2.044   1.407  17.670  0.8717 -0.5016  1.2051
 1768SOL     OW16762   2.093   2.346   8.486 -0.1932 -0.3651  0.2372
 1768SOL    HW116763   2.105   2.376   8.396 -0.7878 -0.3337  0.1686
 1768SOL    HW216764   2.075   2.253   8.471  0.7583 -0.7321  1.3395
 1769SOL     OW16765   2.869   0.505   2.329 -0.0849 -0.1467  0.2969
 1769SOL    HW116766   2.928   0.538   2.398  0.0081 -1.5333  0.8723
 1769SOL    HW216767   2.802   0.573   2.322  1.1359  0.9612 -0.5869
 1770SOL     OW16768   0.345   4.501   4.881  0.4037 -0.1451  0.1719
 1770SOL    HW116769   0.411   4.569   4.873 -0.4539  0.5301 -1.2911
 1770SOL    HW216770   0.405   4.427   4.872 -0.8560 -0.9933 -1.2320
 1771SOL     OW16771   0.347   2.202   2.677  0.1818 -0.5102 -0.1161
 1771SOL    HW116772   0.367   2.109   2.681  0.1139 -0.5493 -0.7075
 1771SOL    HW216773   0.275   2.207   2.614  0.7134 -1.4922 -0.7870
 1772SOL     OW16774   0.476   1.549   6.660  0.3236 -0.0066 -0.0483
 1772SOL    HW116775   0.522   1.614   6.607  0.5746 -1.0322 -1.0951
 1772SOL    HW216776   0.545   1.487   6.686  2.0615  1.6636 -0.6319
 1773SOL     OW16777   3.338   2.106   9.345 -0.1889  0.3522  0.1383
 1773SOL    HW116778   3.362   2.076   9.433 -1.0334  0.6979  0.4834
 1773SOL    HW216779   3.280   2.034   9.322 -0.2775  0.7545 -0.8839
 1774SOL     OW16780   1.689   1.408   3.033 -0.3473 -0.2713 -0.1710
 1774SOL    HW116781   1.598   1.413   3.004 -1.5268 -2.4194  3.1383
 1774SOL    HW216782   1.698   1.501   3.052 -0.2140  0.2352 -2.7806
 1775SOL     OW16783   1.431   1.899   7.854 -0.1825 -0.0568  0.2125
 1775SOL    HW116784   1.349   1.859   7.882 -0.0560 -0.7362 -0.4039
 1775SOL    HW216785   1.406   1.972   7.798  1.0707  0.7701  0.7180
 1776SOL     OW16786   1.178   2.601   7.088 -0.3076  0.2708  0.0709
 1776SOL    HW116787   1.137   2.517   7.108 -1.3520  1.0735  1.3180
 1776SOL    HW216788   1.118   2.631   7.020  0.2838 -0.7992 -0.9242
 1777SOL     OW16789   2.677   4.218   9.118 -0.2520 -0.0105  0.4043
 1777SOL    HW116790   2.746   4.152   9.120  0.9293  1.2113 -0.4266
 1777SOL    HW216791   2.607   4.178   9.170  2.1619 -0.4376  3.2829
 1778SOL     OW16792   1.873   1.808   9.402  0.1871  0.1724 -0.4991
 1778SOL    HW116793   1.894   1.714   9.405 -0.8267 -0.0656 -0.8976
 1778SOL    HW216794   1.859   1.824   9.495 -0.1853  0.4109 -0.5969
 1779SOL     OW16795   0.854   3.507   4.315 -0.0579  0.0697 -0.2222
 1779SOL    HW116796   0.775   3.456   4.297 -1.2782  1.3094  1.6804
 1779SOL    HW216797   0.819   3.596   4.312 -1.9431 -0.5647  3.7171
 1780SOL     OW16798   3.723   0.710   6.060  0.6441 -0.6241 -0.5186
 1780SOL    HW116799   3.732   0.616   6.073  3.4887 -0.4653 -1.1546
 1780SOL    HW216800   3.665   0.737   6.130 -0.5772 -0.5868 -1.5443
 1781SOL     OW16801   2.413   2.323   4.847 -0.3883  0.6255 -0.1532
 1781SOL    HW116802   2.487   2.380   4.826  1.3059 -0.4462  2.9433
 1781SOL    HW216803   2.349   2.353   4.782 -0.9100  0.8948  0.4942
 1782SOL     OW16804   2.082   1.001   2.458 -0.0893  0.1485 -0.3007
 1782SOL    HW116805   2.153   1.064   2.469 -2.3547  2.0436  3.2691
 1782SOL    HW216806   2.130   0.919   2.470 -1.2156 -1.0409 -3.7199
 1783SOL     OW16807   0.828   2.368  11.010 -0.3099 -0.6307 -0.2756
 1783SOL    HW116808   0.743   2.398  11.044 -0.1290  0.3070 -0.6401
 1783SOL    HW216809   0.886   2.437  11.044  1.9277 -1.9905 -1.3296
 1784SOL     OW16810   4.511   1.776   6.595 -0.6369 -0.0037  0.0047
 1784SOL    HW116811   4.505   1.777   6.499 -0.5432 -1.1523 -0.0246
 1784SOL    HW216812   4.483   1.689   6.625 -0.5759 -0.3716 -0.9966
 1785SOL     OW16813   4.326   0.875   4.776  0.1058 -0.2677  0.4555
 1785SOL    HW116814   4.330   0.915   4.862 -0.0736  1.1787 -0.2018
 1785SOL    HW216815   4.390   0.930   4.731  0.0376 -0.7777 -0.2814
 1786SOL     OW16816   2.301   1.986   7.417  0.2008 -0.2661 -0.4464
 1786SOL    HW116817   2.240   2.052   7.386 -1.2746  0.1890  3.4294
 1786SOL    HW216818   2.369   2.008   7.353  1.5650 -1.2166  0.6558
 1787SOL     OW16819   3.754   0.293  12.844 -0.0573 -0.0514 -0.1293
 1787SOL    HW116820   3.748   0.199  12.826 -0.5508  0.1066 -0.8191
 1787SOL    HW216821   3.844   0.312  12.821  0.8876 -3.9496  0.3434
 1788SOL     OW16822   2.412   3.923   5.856 -0.6706  0.3844 -0.3732
 1788SOL    HW116823   2.449   3.841   5.824 -1.4479 -0.0907 -0.0375
 1788SOL    HW216824   2.362   3.946   5.777 -1.5952  1.8769  0.6409
 1789SOL     OW16825   2.535   3.134   5.939 -0.7637  0.0483  0.2701
 1789SOL    HW116826   2.613   3.118   5.884 -0.5745  1.5703  0.0798
 1789SOL    HW216827   2.568   3.156   6.026 -0.3857  0.3495  0.0535
 1790SOL     OW16828   2.927   2.552   4.247  0.2985 -0.0547  0.0601
 1790SOL    HW116829   2.875   2.520   4.320 -1.1286 -2.3068 -1.9167
 1790SOL    HW216830   2.868   2.510   4.184  1.2448 -0.6185 -0.4622
 1791SOL     OW16831   0.873   2.976   6.008  0.1909 -0.4586 -0.3109
 1791SOL    HW116832   0.787   2.975   6.050  1.3354 -3.4955  1.9617
 1791SOL    HW216833   0.916   3.011   6.086  1.4749 -1.8090 -0.3967
 1792SOL     OW16834   3.701   0.927  11.362 -0.0130 -0.4422  0.0533
 1792SOL    HW116835   3.705   0.991  11.291  4.3978 -0.8941 -0.1358
 1792SOL    HW216836   3.622   0.959  11.404  0.4282 -0.3888  0.8416
 1793SOL     OW16837   1.677   4.066   7.174 -0.0616 -0.4894  0.1948
 1793SOL    HW116838   1.738   4.025   7.235 -0.1034 -0.9441 -0.0692
 1793SOL    HW216839   1.725   4.110   7.105  1.1368 -0.6000  0.9516
 1794SOL     OW16840   0.026   0.172   3.693 -0.2583  0.0964  0.3917
 1794SOL    HW116841   0.066   0.210   3.771 -0.3487 -0.3566  0.6604
 1794SOL    HW216842   0.051   0.231   3.622 -0.2436 -0.9753 -0.5004
 1795SOL     OW16843   2.261   3.612   9.379  0.2850  0.4160 -0.2336
 1795SOL    HW116844   2.218   3.596   9.294  0.4362  0.7664 -0.3747
 1795SOL    HW216845   2.318   3.686   9.359  3.4993 -1.5913  1.4108
 1796SOL     OW16846   0.697   3.822   8.992 -0.2649  0.2129  0.0955
 1796SOL    HW116847   0.727   3.851   9.078 -2.2845  1.7537  0.2832
 1796SOL    HW216848   0.601   3.819   8.997 -0.2568 -0.8704 -0.3381
 1797SOL     OW16849   0.356   4.056   6.654 -0.5870  0.2522  0.4577
 1797SOL    HW116850   0.290   4.125   6.647  0.5909  1.4995  1.7038
 1797SOL    HW216851   0.315   3.985   6.605 -0.4773 -1.1471  2.3989
 1798SOL     OW16852   0.136   1.140   6.367 -0.1728 -0.6159 -0.1790
 1798SOL    HW116853   0.050   1.154   6.329 -0.0062 -1.3786 -0.8432
 1798SOL    HW216854   0.187   1.217   6.340  1.4934 -1.1137  1.5753
 1799SOL     OW16855   2.647   0.200  15.351  0.0522  0.2169 -0.6719
 1799SOL    HW116856   2.661   0.127  15.411  0.5615  1.7552  1.0839
 1799SOL    HW216857   2.600   0.165  15.276 -0.8976  0.6935 -0.2993
 1800SOL     OW16858   4.252   2.235   7.292 -0.2886 -0.3244  0.2525
 1800SOL    HW116859   4.164   2.259   7.321  0.5718  1.1970  1.6230
 1800SOL    HW216860   4.293   2.317   7.321  0.9427 -0.0798 -2.1793
 1801SOL     OW16861   3.843   3.247   8.527  0.3651  0.0854  0.1019
 1801SOL    HW116862   3.883   3.327   8.491 -0.1503 -0.9631 -2.7353
 1801SOL    HW216863   3.919   3.188   8.528 -0.3013 -0.7701 -0.2090
 1802SOL     OW16864   4.361   1.597  10.279  0.6903  0.5162 -0.2704
 1802SOL    HW116865   4.419   1.669  10.304  0.3058  0.9418 -0.5874
 1802SOL    HW216866   4.280   1.649  10.280  0.2824 -0.0780 -1.5416
 1803SOL     OW16867   2.712   2.892   2.400 -0.0453  0.6746 -0.0923
 1803SOL    HW116868   2.739   2.939   2.321 -0.0991  0.9621  0.0603
 1803SOL    HW216869   2.796   2.886   2.445  0.2226 -0.6655 -0.7805
 1804SOL     OW16870   2.216   0.778   8.005  0.0498  0.1328 -0.1266
 1804SOL    HW116871   2.292   0.737   7.964 -0.1431 -0.2900 -0.0667
 1804SOL    HW216872   2.214   0.731   8.088 -0.9238  1.7878  0.8014
 1805SOL     OW16873   0.029   4.540   2.518  0.5774 -0.2966 -0.2032
 1805SOL    HW116874   0.059   4.629   2.539  0.8400 -0.6334  0.8531
 1805SOL    HW216875   0.101   4.489   2.555 -1.0405 -1.3318  1.4912
 1806SOL     OW16876   4.101   1.932   7.396  0.4614  0.3366  0.4725
 1806SOL    HW116877   4.020   1.980   7.380  0.6353  0.8774  1.2008
 1806SOL    HW216878   4.149   1.967   7.321 -0.7399 -1.7611 -1.2500
 1807SOL     OW16879   4.312   0.150   7.589 -0.0065 -0.1621 -0.2695
 1807SOL    HW116880   4.224   0.115   7.602 -0.9510  2.0318 -0.6781
 1807SOL    HW216881   4.338   0.177   7.677 -1.4481  2.6303 -0.6885
 1808SOL     OW16882   3.919   2.429  10.842  0.5205  0.0032  0.2772
 1808SOL    HW116883   3.860   2.496  10.876 -1.7859 -2.3214  0.9326
 1808SOL    HW216884   3.968   2.395  10.917  0.2489 -0.5093  0.2239
 1809SOL     OW16885   1.029   1.188  14.054 -0.4105  0.0823 -0.2203
 1809SOL    HW116886   1.005   1.105  14.013 -0.3140 -1.3369  2.6003
 1809SOL    HW216887   0.950   1.242  14.047  0.0380  0.8315  0.4430
 1810SOL     OW16888   4.527   1.957  15.019  0.5618 -0.2962 -0.1428
 1810SOL    HW116889   4.578   1.910  14.952 -1.5059 -0.5262 -1.5400
 1810SOL    HW216890   4.501   2.029  14.962 -1.1508  0.1901  1.2638
 1811SOL     OW16891   4.197   4.620   8.066  0.3771  0.0720  0.0809
 1811SOL    HW116892   4.280   4.574   8.051 -0.3918 -0.9007 -1.1991
 1811SOL    HW216893   4.182   4.670   7.986 -0.6393  0.3462  0.4342
 1812SOL     OW16894   0.117   3.027   3.631 -0.4397 -0.5491 -0.8030
 1812SOL    HW116895   0.171   3.102   3.654 -0.8944 -0.1269 -1.1102
 1812SOL    HW216896   0.150   3.008   3.543  2.1863  0.4459 -0.0163
 1813SOL     OW16897   0.829   3.936   1.023 -0.1279 -0.2934 -0.2968
 1813SOL    HW116898   0.834   3.865   1.086 -1.0247 -1.4832 -1.5548
 1813SOL    HW216899   0.803   3.894   0.941 -0.3189 -0.3337 -0.2155
 1814SOL     OW16900   0.424   0.285   8.323  0.0983  0.1127 -0.2674
 1814SOL    HW116901   0.447   0.291   8.231 -2.0764  0.9313 -0.7521
 1814SOL    HW216902   0.492   0.334   8.370  0.2071 -1.5517  1.3275
 1815SOL     OW16903   1.856   3.744   5.314 -0.0060 -0.1882  0.5973
 1815SOL    HW116904   1.945   3.715   5.333  0.1381 -0.9552 -1.2626
 1815SOL    HW216905   1.810   3.705   5.389 -1.3047  0.3462  0.0828
 1816SOL     OW16906   2.408   2.270  13.068 -0.5290 -0.0758  0.9719
 1816SOL    HW116907   2.443   2.353  13.101 -2.2096  1.8866 -2.2241
 1816SOL    HW216908   2.339   2.256  13.133 -0.0410  0.2674  1.5735
 1817SOL     OW16909   3.094   1.459   5.557 -0.2336 -0.0932 -0.3427
 1817SOL    HW116910   3.090   1.433   5.465  1.5683  1.2484 -0.8015
 1817SOL    HW216911   3.150   1.393   5.599  0.5162 -1.1181 -2.9610
 1818SOL     OW16912   1.617   4.396  15.249  0.1897 -0.3528  0.1507
 1818SOL    HW116913   1.641   4.446  15.327 -2.2077  0.9540  0.0264
 1818SOL    HW216914   1.613   4.476  15.196  0.4891  0.8567  1.9524
 1819SOL     OW16915   1.943   4.232   5.060 -0.1618  0.6846 -0.2385
 1819SOL    HW116916   1.901   4.252   5.143  0.4301 -0.2078  0.2739
 1819SOL    HW216917   1.884   4.176   5.010  0.2850  0.6100 -0.6892
 1820SOL     OW16918   0.065   0.097   5.062  0.0189 -0.5382 -0.0747
 1820SOL    HW116919   0.127   0.156   5.103 -2.4050  0.9986  1.3378
 1820SOL    HW216920   0.029   0.042   5.132  2.1725 -1.7936  0.0450
 1821SOL     OW16921   4.126   2.930   9.624  0.1575  0.1215  0.7365
 1821SOL    HW116922   4.198   2.991   9.609 -0.0768  0.1663 -0.2378
 1821SOL    HW216923   4.184   2.854   9.631  0.3223  0.3139  1.4239
 1822SOL     OW16924   2.276   0.734   5.708 -0.5143 -0.5338  0.4140
 1822SOL    HW116925   2.209   0.716   5.642 -2.4886 -1.3214  2.6470
 1822SOL    HW216926   2.254   0.819   5.746  1.6650  0.1551  0.1474
 1823SOL     OW16927   0.715   4.339   7.611 -0.3767  0.1538  0.1248
 1823SOL    HW116928   0.678   4.253   7.627  0.6026 -0.3279 -0.1820
 1823SOL    HW216929   0.654   4.397   7.657  0.8348  0.7107  1.0278
 1824SOL     OW16930   0.597   4.336   8.371 -0.6921  0.0544 -0.7885
 1824SOL    HW116931   0.555   4.378   8.296 -1.9343 -0.1801 -0.2273
 1824SOL    HW216932   0.529   4.271   8.389  0.2242 -1.1298 -1.5402
 1825SOL     OW16933   2.546   4.422  16.736  0.1027  0.0268  0.5267
 1825SOL    HW116934   2.519   4.425  16.644 -0.0144 -0.7636  0.5444
 1825SOL    HW216935   2.639   4.399  16.725  0.4236  1.0850  0.9758
 1826SOL     OW16936   2.255   4.158   6.183 -0.3565  0.8605 -0.2846
 1826SOL    HW116937   2.309   4.081   6.168 -1.7753 -0.3478  0.8179
 1826SOL    HW216938   2.262   4.175   6.277  0.1886  1.6027 -0.4484
 1827SOL     OW16939   0.039   1.550  17.320  0.0005 -0.2668  0.4259
 1827SOL    HW116940   0.008   1.640  17.316 -0.9564 -0.6323 -0.5161
 1827SOL    HW216941   0.088   1.537  17.401  1.3256  2.5884  0.0784
 1828SOL     OW16942   2.939   3.226   7.208 -0.1619 -0.2795  0.0557
 1828SOL    HW116943   2.854   3.266   7.230 -0.4742 -0.1279 -1.3856
 1828SOL    HW216944   2.926   3.211   7.114  2.4170  0.2099 -0.3756
 1829SOL     OW16945   2.913   3.245   2.213 -0.1655 -0.1516  0.2659
 1829SOL    HW116946   2.920   3.262   2.307  0.8159 -1.2751  0.3910
 1829SOL    HW216947   2.915   3.338   2.191 -1.2321 -0.0485  0.6095
 1830SOL     OW16948   3.537   0.042   2.959 -0.1496 -0.0740  0.0134
 1830SOL    HW116949   3.583   0.097   3.023  0.5424 -2.5846  1.6866
 1830SOL    HW216950   3.573   0.072   2.876 -1.2583 -2.9336 -1.4982
 1831SOL     OW16951   4.340   2.623   6.295 -0.1966  0.0898  0.1617
 1831SOL    HW116952   4.419   2.643   6.246  0.3776  1.2603  1.5647
 1831SOL    HW216953   4.349   2.530   6.316 -1.8856  0.2954  1.7273
 1832SOL     OW16954   1.030   0.617  17.431  0.0651  0.4338  0.6506
 1832SOL    HW116955   1.091   0.639  17.362 -1.9833 -0.4928 -1.4586
 1832SOL    HW216956   1.028   0.702  17.476 -2.1801  1.0039 -0.4993
 1833SOL     OW16957   0.173   2.058   7.515 -0.0945  0.3793  0.6672
 1833SOL    HW116958   0.225   2.072   7.435 -0.0871 -2.2509  0.1901
 1833SOL    HW216959   0.222   1.985   7.554 -1.5159 -0.1620  1.4354
 1834SOL     OW16960   3.258   0.722   9.731 -0.6819  0.3157  0.1397
 1834SOL    HW116961   3.248   0.744   9.639  3.1360  1.5371  0.0107
 1834SOL    HW216962   3.306   0.640   9.727  0.3249  0.7827  2.4811
 1835SOL     OW16963   4.592   2.106  17.639  0.3130 -0.3515  0.4160
 1835SOL    HW116964   4.513   2.072   0.002 -1.3650  2.8804 -0.0677
 1835SOL    HW216965   4.633   2.144   0.037  0.7317 -1.1284  0.5738
 1836SOL     OW16966   2.292   3.680  17.275  0.4715  0.2918  0.4211
 1836SOL    HW116967   2.369   3.718  17.317  0.8815 -1.0500  0.8909
 1836SOL    HW216968   2.310   3.692  17.182  0.7102  0.5662  0.5041
 1837SOL     OW16969   0.105   0.955   3.753  0.0916 -0.0913 -0.1175
 1837SOL    HW116970   0.016   0.986   3.770 -0.8899 -2.1885 -1.3406
 1837SOL    HW216971   0.116   0.974   3.659 -0.0817 -1.3460 -0.4017
 1838SOL     OW16972   0.586   0.110   9.829 -0.1029 -0.1813  0.2249
 1838SOL    HW116973   0.490   0.108   9.830 -0.1174  0.4467  1.0487
 1838SOL    HW216974   0.600   0.178   9.896 -0.2283 -0.1259  0.1957
 1839SOL     OW16975   4.674   0.530   4.639  0.9523 -0.1125  0.2225
 1839SOL    HW116976   0.046   0.556   4.625  0.6582  1.0993  0.6033
 1839SOL    HW216977   4.633   0.615   4.630  1.6553  0.1088 -0.9863
 1840SOL     OW16978   3.509   1.863   3.887  0.4020  0.4420 -0.0512
 1840SOL    HW116979   3.516   1.931   3.954 -1.0066 -0.7843  1.3347
 1840SOL    HW216980   3.425   1.821   3.901 -1.4859  3.5453 -2.1989
 1841SOL     OW16981   1.140   1.282   5.266  0.2257  0.3103  0.4380
 1841SOL    HW116982   1.216   1.299   5.321  0.7971 -2.1134  0.4094
 1841SOL    HW216983   1.106   1.200   5.302  3.3072  0.0262  2.7379
 1842SOL     OW16984   1.508   1.990  14.305 -0.2878 -0.0482  0.7291
 1842SOL    HW116985   1.492   2.070  14.355 -3.2546  0.1369 -0.5139
 1842SOL    HW216986   1.482   2.021  14.218  1.5487  1.0239  0.5631
 1843SOL     OW16987   0.908   4.434  13.970 -0.5017 -0.5190 -0.5890
 1843SOL    HW116988   0.929   4.403  14.058 -0.1243 -1.8942 -1.1730
 1843SOL    HW216989   0.827   4.390  13.948 -0.7778  0.1267 -0.8776
 1844SOL     OW16990   4.166   0.629  16.502 -0.2124  0.1250  0.0420
 1844SOL    HW116991   4.182   0.593  16.590 -0.8375  1.8727  0.8733
 1844SOL    HW216992   4.176   0.553  16.445  0.9918  1.0271 -0.9573
 1845SOL     OW16993   0.922   0.940  14.690 -0.0623 -0.2253  0.2763
 1845SOL    HW116994   0.886   0.984  14.767 -0.5658  1.2326 -0.7785
 1845SOL    HW216995   1.014   0.954  14.715 -0.3511 -0.2618  1.3578
 1846SOL     OW16996   2.305   0.072   9.420  0.2999 -0.2420 -0.2981
 1846SOL    HW116997   2.397   0.096   9.410  0.8233 -2.4846 -0.9201
 1846SOL    HW216998   2.313   4.701   9.451 -0.3848  0.1275  0.9495
 1847SOL     OW16999   2.383   3.423  13.768  0.1841  0.4671  0.0938
 1847SOL    HW117000   2.459   3.385  13.813 -0.3005  0.0218  0.5358
 1847SOL    HW217001   2.384   3.366  13.691  0.6508  0.4912  0.0838
 1848SOL     OW17002   4.202   1.008   8.027 -0.2332  0.2182  0.0748
 1848SOL    HW117003   4.256   0.948   8.079 -1.1316  0.8698  1.7413
 1848SOL    HW217004   4.245   0.991   7.943 -3.4441 -1.1826 -1.2914
 1849SOL     OW17005   3.275   3.519  13.652 -0.3037  0.3004  0.3121
 1849SOL    HW117006   3.314   3.606  13.641 -1.0670  0.8280  1.8417
 1849SOL    HW217007   3.265   3.511  13.747 -1.7135  1.4336  0.2688
 1850SOL     OW17008   1.187   4.695   4.845  0.3063  0.1993 -0.1072
 1850SOL    HW117009   1.204   4.601   4.848 -1.4974 -0.1356 -0.4082
 1850SOL    HW217010   1.269   0.015   4.815  0.6080 -0.6927 -0.4540
 1851SOL     OW17011   4.454   3.047   7.933 -0.1420 -0.6376  0.0867
 1851SOL    HW117012   4.379   3.104   7.916 -0.2283 -0.9628 -0.6405
 1851SOL    HW217013   4.427   3.006   8.015  0.9009 -0.6292  0.4264
 1852SOL     OW17014   2.107   4.563  15.740 -0.3224 -0.2913 -0.4982
 1852SOL    HW117015   2.112   4.617  15.818  0.1708  0.3732 -0.9891
 1852SOL    HW217016   2.198   4.569  15.711  0.3172 -1.1133  1.3056
 1853SOL     OW17017   4.010   2.855  12.110 -0.0279 -0.2338  0.9005
 1853SOL    HW117018   4.000   2.854  12.205 -0.2249  3.0579  0.9172
 1853SOL    HW217019   3.923   2.890  12.092 -1.0347 -1.2256  3.7985
 1854SOL     OW17020   0.792   4.047  13.751  0.4854  0.2553 -0.0292
 1854SOL    HW117021   0.725   3.983  13.728 -1.9604  2.5001  0.8171
 1854SOL    HW217022   0.834   4.041  13.665 -1.1310 -1.1229 -0.7288
 1855SOL     OW17023   4.577   0.284   4.303 -0.2420  0.2518  0.1276
 1855SOL    HW117024   4.499   0.253   4.349 -0.2117 -1.1332 -0.7394
 1855SOL    HW217025   4.636   0.232   4.357  1.0436 -1.0830 -2.5226
 1856SOL     OW17026   1.569   1.310  13.566  0.1683 -0.2305  0.3833
 1856SOL    HW117027   1.651   1.261  13.562  0.0967 -0.3589  0.4896
 1856SOL    HW217028   1.583   1.394  13.522 -1.3152 -1.2651 -2.0436
 1857SOL     OW17029   4.673   1.217  17.579  0.1157 -0.1207 -0.9071
 1857SOL    HW117030   4.628   1.181  17.502 -1.2773  0.6996 -0.4678
 1857SOL    HW217031   4.715   1.292  17.539 -0.9906  0.2307 -1.3999
 1858SOL     OW17032   0.820   3.835   6.302  0.1649  0.1487  0.6247
 1858SOL    HW117033   0.909   3.867   6.286 -0.9268  3.9477  2.1300
 1858SOL    HW217034   0.805   3.871   6.390  0.5196 -1.2904  1.2803
 1859SOL     OW17035   3.363   4.580   4.264  0.7637 -0.4236 -0.1753
 1859SOL    HW117036   3.304   4.509   4.238 -1.4858  1.6923 -0.8534
 1859SOL    HW217037   3.412   4.522   4.322  1.3374  0.5778  0.3420
 1860SOL     OW17038   4.437   0.190   3.795  0.3686  0.5306 -0.4061
 1860SOL    HW117039   4.427   0.097   3.815  2.1212  0.1218 -1.4556
 1860SOL    HW217040   4.522   0.206   3.835  0.9983 -0.8131 -1.2077
 1861SOL     OW17041   4.149   4.348   2.782  0.7039  0.2999 -0.0938
 1861SOL    HW117042   4.162   4.297   2.701  2.4588  1.4613 -0.5606
 1861SOL    HW217043   4.150   4.438   2.750 -0.3834  0.4877  0.4243
 1862SOL     OW17044   0.665   4.322   8.659 -0.1417 -0.2359 -0.9292
 1862SOL    HW117045   0.626   4.326   8.572  3.7560 -0.6954 -2.6533
 1862SOL    HW217046   0.740   4.266   8.641  1.6899  1.6446  0.8076
 1863SOL     OW17047   2.195   2.524  11.320  0.0425 -0.2153 -0.3484
 1863SOL    HW117048   2.167   2.473  11.396 -1.0866 -1.2361 -1.4439
 1863SOL    HW217049   2.120   2.509  11.262  0.1225  0.0692 -0.5250
 1864SOL     OW17050   3.426   3.294   5.632 -0.0284  0.6170  0.6153
 1864SOL    HW117051   3.422   3.338   5.547 -0.7203 -1.8642 -0.6440
 1864SOL    HW217052   3.337   3.267   5.657  0.3014 -0.2196  0.8983
 1865SOL     OW17053   1.557   1.254   7.459  0.4094 -0.1841 -0.1812
 1865SOL    HW117054   1.519   1.288   7.378 -0.2909 -0.4303  0.0485
 1865SOL    HW217055   1.575   1.332   7.512 -2.5573  0.4167 -0.0760
 1866SOL     OW17056   2.245   0.789   2.538  0.0653 -0.1343  0.2039
 1866SOL    HW117057   2.312   0.837   2.586 -1.9651  2.4287  0.4868
 1866SOL    HW217058   2.290   0.705   2.526 -1.4247 -0.8976 -0.0690
 1867SOL     OW17059   3.685   3.800   6.935  0.5978 -0.0397 -0.6946
 1867SOL    HW117060   3.725   3.779   6.850  1.4934  2.2445 -0.8562
 1867SOL    HW217061   3.621   3.868   6.913 -0.9567 -0.9403  1.1196
 1868SOL     OW17062   2.485   0.305  15.597  0.2453 -0.5406  0.0194
 1868SOL    HW117063   2.537   0.319  15.518  1.0451  0.1310  0.6666
 1868SOL    HW217064   2.547   0.335  15.663  0.4219  1.4840 -1.0655
 1869SOL     OW17065   0.020   2.765   2.860  1.0674  0.1900 -0.4051
 1869SOL    HW117066   4.666   2.705   2.843  1.7382 -0.6473 -0.3611
 1869SOL    HW217067   0.049   2.723   2.941 -1.4829  0.3258  0.5725
 1870SOL     OW17068   1.613   0.846  12.535 -0.9792  0.0375 -0.3339
 1870SOL    HW117069   1.569   0.923  12.500  1.6048  1.2358 -0.8723
 1870SOL    HW217070   1.543   0.822  12.596 -0.1891 -2.4624 -0.4109
 1871SOL     OW17071   2.691   4.393  12.751  0.1220  0.1111 -0.3904
 1871SOL    HW117072   2.738   4.346  12.681  0.2650  2.5223 -1.8948
 1871SOL    HW217073   2.751   4.357  12.817 -0.2978  0.4491  0.1669
 1872SOL     OW17074   2.358   2.197   1.877  0.4183  0.3133  0.3871
 1872SOL    HW117075   2.392   2.279   1.840 -0.3015 -0.9706 -3.0713
 1872SOL    HW217076   2.441   2.153   1.858 -0.3371 -0.8393 -0.2239
 1873SOL     OW17077   1.817   2.444   2.646  0.0849 -0.0921 -0.0503
 1873SOL    HW117078   1.767   2.372   2.606 -0.1748 -0.1785  0.4349
 1873SOL    HW217079   1.852   2.471   2.561  0.7412 -0.8222 -0.0086
 1874SOL     OW17080   1.798   2.825   6.669  0.0944 -0.2046 -0.3997
 1874SOL    HW117081   1.796   2.798   6.761 -2.2689  0.5191 -0.2361
 1874SOL    HW217082   1.876   2.880   6.665  0.2285 -0.1131  3.3038
 1875SOL     OW17083   4.182   1.032   3.006  0.3170  0.4370 -0.1706
 1875SOL    HW117084   4.223   1.115   2.980  1.8462 -1.2986 -3.3224
 1875SOL    HW217085   4.091   1.060   3.015  0.1215 -0.6687  1.3609
 1876SOL     OW17086   3.621   3.529  16.388 -0.2323  0.0450  0.4742
 1876SOL    HW117087   3.559   3.493  16.325  1.2788  0.5693 -1.3021
 1876SOL    HW217088   3.611   3.623  16.372 -1.6001  0.1074  1.6406
 1877SOL     OW17089   0.614   3.000   6.084  0.3972 -0.3292 -0.4837
 1877SOL    HW117090   0.543   2.937   6.086 -0.5711  0.8344  1.1445
 1877SOL    HW217091   0.564   3.079   6.064 -0.4909 -0.8865 -0.4138
 1878SOL     OW17092   1.013   4.329   7.301  0.1891 -0.0232  0.4305
 1878SOL    HW117093   1.076   4.257   7.289 -0.3340 -0.1490 -1.5360
 1878SOL    HW217094   0.991   4.306   7.391 -2.1591 -0.1640 -0.1980
 1879SOL     OW17095   2.743   1.762  10.747  0.1347 -0.1382  0.0351
 1879SOL    HW117096   2.760   1.814  10.668  0.1199 -1.9490 -1.1702
 1879SOL    HW217097   2.826   1.716  10.755 -0.1539 -0.5184  0.8057
 1880SOL     OW17098   3.199   2.134   5.466 -0.1998 -0.0782  0.6691
 1880SOL    HW117099   3.199   2.069   5.537 -1.9288  0.1714  0.9096
 1880SOL    HW217100   3.248   2.078   5.406 -2.6064  1.8446 -3.1080
 1881SOL     OW17101   3.754   2.894   3.745  0.4570 -0.0367  0.0033
 1881SOL    HW117102   3.844   2.882   3.775  0.6154 -0.8478 -0.7947
 1881SOL    HW217103   3.769   2.947   3.667 -2.6500 -0.2331 -0.7010
 1882SOL     OW17104   0.909   2.135  10.229 -0.3240 -0.2162  0.6476
 1882SOL    HW117105   0.937   2.213  10.276 -1.7061 -0.3940  1.7717
 1882SOL    HW217106   0.839   2.105  10.287 -0.4039 -1.1619  0.0775
 1883SOL     OW17107   2.037   0.890  17.435  0.4185 -0.8277  0.5908
 1883SOL    HW117108   2.053   0.941  17.514  1.1486  0.3951 -0.3432
 1883SOL    HW217109   1.981   0.822  17.472  2.4093 -3.7633 -1.8311
 1884SOL     OW17110   0.544   1.154   6.140 -0.6489 -0.1129  0.3362
 1884SOL    HW117111   0.482   1.092   6.101 -1.0580 -1.8574  3.8401
 1884SOL    HW217112   0.585   1.102   6.208 -2.3380 -1.4619  0.3340
 1885SOL     OW17113   3.201   2.315   7.441  0.0411 -0.1374  0.1588
 1885SOL    HW117114   3.150   2.301   7.361  0.5741 -0.0639 -0.1875
 1885SOL    HW217115   3.188   2.408   7.460  0.6297 -0.1754  0.7428
 1886SOL     OW17116   4.375   3.738   5.891  0.0589 -0.2317  0.3221
 1886SOL    HW117117   4.325   3.723   5.811  0.1985  3.0321 -0.3999
 1886SOL    HW217118   4.442   3.799   5.859 -0.6051  0.1821 -0.2594
 1887SOL     OW17119   3.518   4.455   7.743 -0.4372  0.0053 -0.1010
 1887SOL    HW117120   3.445   4.500   7.785 -1.1691  0.8512 -2.2637
 1887SOL    HW217121   3.500   4.373   7.788 -2.5866 -0.5663 -1.9832
 1888SOL     OW17122   1.426   3.648   6.828  0.3735  0.1756  0.8190
 1888SOL    HW117123   1.439   3.578   6.892  0.3186 -1.1970 -0.6672
 1888SOL    HW217124   1.515   3.668   6.800  1.0135 -3.6143  0.1515
 1889SOL     OW17125   1.832   1.857   2.256  0.4802 -0.0737 -0.7308
 1889SOL    HW117126   1.846   1.949   2.235  2.9076 -0.0400  0.9989
 1889SOL    HW217127   1.879   1.845   2.339 -0.3419 -0.6980 -0.3610
 1890SOL     OW17128   1.388   2.580   8.911 -0.0905 -0.5066  0.1896
 1890SOL    HW117129   1.429   2.498   8.940  1.8927  1.1200  1.9551
 1890SOL    HW217130   1.360   2.620   8.993 -0.5886 -2.5355  1.0274
 1891SOL     OW17131   3.900   2.984   8.849  0.3930  0.4366 -0.1711
 1891SOL    HW117132   3.817   2.986   8.802  0.5761  0.0589 -0.5052
 1891SOL    HW217133   3.885   3.019   8.937 -1.6607  0.3497 -0.4855
 1892SOL     OW17134   2.439   1.983   2.764  0.1334 -0.0989 -0.0040
 1892SOL    HW117135   2.353   1.965   2.727 -0.0809  0.0288  0.4248
 1892SOL    HW217136   2.476   2.031   2.691  2.8809  1.6728  2.5429
 1893SOL     OW17137   1.737   2.375   1.917 -0.2238  0.0510  0.1173
 1893SOL    HW117138   1.715   2.398   1.827  1.1314 -0.1361 -0.2552
 1893SOL    HW217139   1.755   2.282   1.904  1.3082 -0.0047  2.6450
 1894SOL     OW17140   2.606   1.510   1.236 -0.2342  0.4827 -0.7553
 1894SOL    HW117141   2.683   1.497   1.291 -2.2783 -1.1129  1.7002
 1894SOL    HW217142   2.629   1.457   1.160  2.3562  0.4935  0.0300
 1895SOL     OW17143   3.702   3.128   9.107 -0.2582 -0.1680  0.4104
 1895SOL    HW117144   3.784   3.107   9.152 -0.2023  0.5078  0.6230
 1895SOL    HW217145   3.730   3.191   9.041  1.3661 -1.5326 -0.2042
 1896SOL     OW17146   0.316   4.689   3.528  0.4633 -0.4139  0.0495
 1896SOL    HW117147   0.404   0.007   3.530  0.5160 -0.5670  0.7865
 1896SOL    HW217148   0.296   4.667   3.619 -0.3832  3.9765  0.9546
 1897SOL     OW17149   2.973   0.317   8.667  0.3443  0.5757 -0.2553
 1897SOL    HW117150   2.912   0.276   8.728  0.5154 -1.2193 -1.2992
 1897SOL    HW217151   3.052   0.264   8.680  0.4304  1.2413  1.8238
 1898SOL     OW17152   0.417   3.658   7.005  0.0371 -0.0547 -0.3231
 1898SOL    HW117153   0.336   3.708   6.994 -1.2266 -2.1254 -0.4762
 1898SOL    HW217154   0.425   3.633   6.913 -0.8181  3.1502 -1.2555
 1899SOL     OW17155   1.861   2.830   1.484  0.0046  0.1484 -0.1106
 1899SOL    HW117156   1.924   2.861   1.550  0.4917  0.5281 -0.7598
 1899SOL    HW217157   1.780   2.830   1.535  0.4417  1.4749  0.5942
 1900SOL     OW17158   4.479   4.078   4.673  0.2838  0.1454 -0.1369
 1900SOL    HW117159   4.536   4.150   4.646  2.0206 -0.5890  1.5689
 1900SOL    HW217160   4.532   4.039   4.742 -0.0303 -1.0406 -0.5765
 1901SOL     OW17161   2.522   4.489   2.135 -0.3922  0.2045  0.4228
 1901SOL    HW117162   2.484   4.402   2.132 -0.2182  0.1698 -0.9292
 1901SOL    HW217163   2.495   4.520   2.222  0.3544  0.5513  0.5308
 1902SOL     OW17164   0.758   3.377   2.762 -0.3405 -0.1440  0.4614
 1902SOL    HW117165   0.846   3.345   2.785 -0.3285  0.4689  1.2720
 1902SOL    HW217166   0.744   3.327   2.681 -0.1881 -0.7980  0.8329
 1903SOL     OW17167   1.973   4.561   9.414 -0.2539 -0.0021  0.6308
 1903SOL    HW117168   1.887   4.572   9.454 -0.9681  0.4715 -1.0477
 1903SOL    HW217169   1.991   4.651   9.387 -1.6541 -0.1765 -0.8744
 1904SOL     OW17170   0.059   3.253   1.418  0.2249 -0.6293  0.6560
 1904SOL    HW117171   0.077   3.175   1.470 -1.6530 -1.3142  0.2787
 1904SOL    HW217172   4.688   3.276   1.440  0.7272  1.8824  0.0833
 1905SOL     OW17173   0.040   3.758  15.786  0.1565 -0.5287 -0.4393
 1905SOL    HW117174   4.718   3.832  15.830 -0.5267 -1.3392  0.2870
 1905SOL    HW217175   0.090   3.722  15.859  0.9089 -0.8653 -1.1248
 1906SOL     OW17176   1.219   1.081   3.230  0.0865 -0.3812 -0.3604
 1906SOL    HW117177   1.293   1.130   3.195  0.2244 -1.1553 -1.1315
 1906SOL    HW217178   1.230   0.999   3.182  1.0639  0.8118 -2.1669
 1907SOL     OW17179   3.971   1.566  15.795 -0.0719 -0.2329  0.4838
 1907SOL    HW117180   4.044   1.504  15.794  0.9115  0.8979  2.0151
 1907SOL    HW217181   3.953   1.562  15.701  1.7356 -1.8530  0.2052
 1908SOL     OW17182   2.570   0.124   9.448  0.5609  0.1931  0.1573
 1908SOL    HW117183   2.636   0.115   9.379 -1.3237 -1.6427 -1.4118
 1908SOL    HW217184   2.591   0.074   9.528 -0.5134 -1.6114 -0.6879
 1909SOL     OW17185   1.484   4.542   6.157  0.4072  0.2676  0.5498
 1909SOL    HW117186   1.542   4.548   6.081 -0.6094 -0.3241 -0.2780
 1909SOL    HW217187   1.400   4.577   6.126 -0.3740  0.3732  2.8453
 1910SOL     OW17188   4.090   0.073   8.229  0.6823 -0.1317 -0.0032
 1910SOL    HW117189   4.109   0.002   8.167  1.1245  0.9923 -1.1500
 1910SOL    HW217190   4.175   0.117   8.228  0.6729 -0.0588  2.0102
 1911SOL     OW17191   1.589   3.948   8.197  0.1272  0.8138  0.0283
 1911SOL    HW117192   1.682   3.931   8.185 -0.8198 -4.8574  0.8143
 1911SOL    HW217193   1.552   3.875   8.148 -0.8543 -1.2341  3.8609
 1912SOL     OW17194   1.779   0.940   4.280  0.3111  0.0785  0.3640
 1912SOL    HW117195   1.712   0.872   4.292  1.4571 -1.2148 -0.4594
 1912SOL    HW217196   1.836   0.931   4.356  0.5496  0.9379  0.2861
 1913SOL     OW17197   3.390   1.436   3.505 -0.2545  0.3418 -0.2731
 1913SOL    HW117198   3.354   1.433   3.594 -2.7472  1.7024 -1.2433
 1913SOL    HW217199   3.343   1.513   3.474 -2.8491 -0.4978  1.5971
 1914SOL     OW17200   0.596   4.282   4.600 -0.4146  0.4410 -0.2476
 1914SOL    HW117201   0.622   4.196   4.566 -4.9778 -0.5740 -1.2843
 1914SOL    HW217202   0.610   4.340   4.526  1.7148  1.2104  0.7702
 1915SOL     OW17203   3.975   2.967  16.210 -0.1292  0.5704  0.4284
 1915SOL    HW117204   4.013   2.924  16.287  0.2362  0.3854  0.1415
 1915SOL    HW217205   3.901   2.907  16.203  1.2407 -1.0310 -0.3914
 1916SOL     OW17206   2.000   2.283  16.034  0.8084 -0.6246 -0.2791
 1916SOL    HW117207   1.930   2.340  16.064  0.0075 -0.9579 -1.5529
 1916SOL    HW217208   1.962   2.195  16.035 -1.5771  0.3964 -3.7877
 1917SOL     OW17209   1.207   4.478   1.323 -0.3681 -0.5081  0.3695
 1917SOL    HW117210   1.162   4.418   1.263 -0.4069 -1.2542  1.1409
 1917SOL    HW217211   1.226   4.550   1.262 -1.8496  0.0941  0.6143
 1918SOL     OW17212   3.708   0.267   8.602  0.0725 -0.5550  0.1019
 1918SOL    HW117213   3.791   0.280   8.647 -0.4309 -1.1875  1.2313
 1918SOL    HW217214   3.659   0.223   8.672 -0.9376 -1.7119 -1.3351
 1919SOL     OW17215   2.601   3.762   1.992 -0.2637  0.0234 -1.0548
 1919SOL    HW117216   2.678   3.818   2.001  0.3174 -1.6046  4.0822
 1919SOL    HW217217   2.646   3.680   2.008 -1.0905 -0.5004 -1.4030
 1920SOL     OW17218   2.875   3.866  17.360 -0.0484 -0.4480  0.0492
 1920SOL    HW117219   2.829   3.782  17.351  2.5000 -1.6857 -1.4548
 1920SOL    HW217220   2.950   3.842  17.416 -0.1385 -0.6381  0.0876
 1921SOL     OW17221   2.098   4.528  13.535  0.2108  0.2263 -0.6396
 1921SOL    HW117222   2.100   4.435  13.556  0.3793  0.3551 -0.0782
 1921SOL    HW217223   2.023   4.525  13.476  0.6319  1.2551 -1.2341
 1922SOL     OW17224   3.013   2.050   5.132  0.3086  0.5371 -0.1563
 1922SOL    HW117225   3.030   2.139   5.164  0.3717  0.3354  0.3704
 1922SOL    HW217226   3.057   2.055   5.047 -0.7345 -0.2403 -0.7398
 1923SOL     OW17227   0.883   1.256  11.420 -0.3293 -0.4550 -0.0095
 1923SOL    HW117228   0.866   1.349  11.438  1.9175 -0.1885  0.7084
 1923SOL    HW217229   0.939   1.262  11.342 -0.1503  0.4058  0.1783
 1924SOL     OW17230   0.247   2.584   6.003  0.1056 -0.4583  0.1872
 1924SOL    HW117231   0.190   2.643   5.954  2.2978 -0.0239 -1.8471
 1924SOL    HW217232   0.241   2.612   6.094 -0.2580  2.0149 -0.5903
 1925SOL     OW17233   1.920   0.981   6.241  0.2392  0.0236 -0.5207
 1925SOL    HW117234   1.845   1.039   6.229 -1.1710 -1.7781 -0.5219
 1925SOL    HW217235   1.959   1.001   6.326  0.0769 -0.4341 -0.3383
 1926SOL     OW17236   2.692   3.666   6.890 -0.3346 -0.2458 -0.3395
 1926SOL    HW117237   2.631   3.717   6.943 -1.4091 -1.1274 -0.7258
 1926SOL    HW217238   2.686   3.718   6.810 -0.6391  2.2551  1.3140
 1927SOL     OW17239   3.694   4.431   8.953 -0.1766  0.3851 -0.5491
 1927SOL    HW117240   3.786   4.423   8.979 -0.3631  0.8680  0.2644
 1927SOL    HW217241   3.671   4.514   8.995  0.1288  0.1524  0.0895
 1928SOL     OW17242   1.550   1.642  13.645 -0.0216  0.3907  0.4873
 1928SOL    HW117243   1.494   1.717  13.664 -2.4938 -1.0105 -1.3189
 1928SOL    HW217244   1.481   1.578  13.626  0.0820  0.8146 -1.3469
 1929SOL     OW17245   0.336   4.414   0.526 -0.0853 -0.0509 -0.2883
 1929SOL    HW117246   0.252   4.446   0.558 -0.7515 -2.8446  0.7129
 1929SOL    HW217247   0.373   4.411   0.614  1.9517 -0.2500 -1.1507
 1930SOL     OW17248   3.164   4.573   6.873  0.1981  0.0916  0.1207
 1930SOL    HW117249   3.122   4.512   6.934 -1.8153 -2.2843 -3.6047
 1930SOL    HW217250   3.092   4.625   6.838  0.5796 -2.3341 -4.3498
 1931SOL     OW17251   3.729   1.067   6.539 -0.1195  0.2504  0.4468
 1931SOL    HW117252   3.736   1.090   6.446  2.9965  0.5384  0.7571
 1931SOL    HW217253   3.653   1.010   6.530 -2.7027  3.4562  2.0827
 1932SOL     OW17254   2.714   2.377  14.569  0.0880 -0.1167  0.3742
 1932SOL    HW117255   2.663   2.302  14.538 -0.5738  0.2312  0.6201
 1932SOL    HW217256   2.702   2.360  14.663  0.0441 -1.4229  0.1402
 1933SOL     OW17257   2.556   3.146   2.033 -0.1745 -0.4234 -0.3061
 1933SOL    HW117258   2.580   3.232   2.068 -1.7208 -0.1317  0.0518
 1933SOL    HW217259   2.462   3.163   2.028 -0.0613  1.5743  3.6856
 1934SOL     OW17260   0.532   0.378   8.831  0.0896 -0.4460 -0.1795
 1934SOL    HW117261   0.475   0.422   8.894  0.6906  1.0357 -0.6661
 1934SOL    HW217262   0.610   0.372   8.886  0.8390 -3.1647 -1.5520
 1935SOL     OW17263   3.350   2.663   3.508  0.2197  0.6853  0.0613
 1935SOL    HW117264   3.365   2.733   3.572 -0.0977 -1.4063  2.4341
 1935SOL    HW217265   3.294   2.617   3.570  0.7072 -1.8016 -1.3269
 1936SOL     OW17266   0.422   1.078   6.988 -0.4325 -0.0506 -0.1254
 1936SOL    HW117267   0.422   1.078   6.893 -0.5474 -1.7510 -0.1274
 1936SOL    HW217268   0.352   1.142   7.003  0.0351  0.3000  0.6083
 1937SOL     OW17269   2.811   1.997  11.820  0.0950  0.5891 -0.1915
 1937SOL    HW117270   2.781   1.919  11.867  1.5620 -1.3258 -2.4134
 1937SOL    HW217271   2.840   1.962  11.736 -0.6615 -1.3772  0.3847
 1938SOL     OW17272   0.147   3.058   5.890  0.0472 -0.3337 -0.0349
 1938SOL    HW117273   0.213   3.127   5.897 -0.1541 -0.2201  0.8014
 1938SOL    HW217274   0.078   3.101   5.840 -0.3607 -0.4822  0.4055
 1939SOL     OW17275   3.164   3.394   0.879  0.3117 -0.4212 -0.0750
 1939SOL    HW117276   3.137   3.317   0.829  2.3087 -0.7060 -0.7018
 1939SOL    HW217277   3.118   3.381   0.962 -0.9588 -1.1272 -0.8965
 1940SOL     OW17278   4.027   1.170  12.807  0.3672  0.3749  0.1137
 1940SOL    HW117279   4.067   1.107  12.746  0.0272  1.3438 -1.1013
 1940SOL    HW217280   3.962   1.115  12.851  0.5632 -0.7407 -0.9845
 1941SOL     OW17281   4.074   1.464   8.830 -0.1169  0.3198  0.0067
 1941SOL    HW117282   4.119   1.539   8.868  0.8437  0.0211 -0.5301
 1941SOL    HW217283   3.983   1.479   8.854 -0.7178 -1.0537 -1.3943
 1942SOL     OW17284   1.041   3.180   3.344  0.0084 -0.5703  0.4440
 1942SOL    HW117285   1.130   3.193   3.312 -0.1213  1.5841  1.0231
 1942SOL    HW217286   1.025   3.107   3.284 -0.4542  0.7077 -0.9904
 1943SOL     OW17287   0.729   0.913   6.578 -0.2191  0.2423 -0.7656
 1943SOL    HW117288   0.686   0.997   6.559 -0.4868  0.0599 -0.9677
 1943SOL    HW217289   0.721   0.864   6.496 -2.2525  0.5847 -0.7756
 1944SOL     OW17290   1.334   1.086   2.888 -0.2497  0.0100  0.2416
 1944SOL    HW117291   1.251   1.122   2.855  0.0304  1.6415  1.2826
 1944SOL    HW217292   1.395   1.077   2.814  0.9623  3.6012  0.7681
 1945SOL     OW17293   1.550   1.960   7.039  0.2091 -0.3126  0.3082
 1945SOL    HW117294   1.552   2.013   7.118  1.2967  1.4083 -0.8591
 1945SOL    HW217295   1.575   1.873   7.069 -1.1753 -1.0248 -0.6420
 1946SOL     OW17296   0.817   0.839   2.912  0.3219 -0.1759  0.1869
 1946SOL    HW117297   0.796   0.756   2.868 -0.0004  0.0880 -0.1590
 1946SOL    HW217298   0.901   0.856   2.869 -0.0870 -0.5434 -0.7558
 1947SOL     OW17299   4.305   1.444   3.744 -0.7221  0.1102 -0.0629
 1947SOL    HW117300   4.347   1.528   3.765  0.3112 -0.3534 -0.2313
 1947SOL    HW217301   4.336   1.401   3.823 -1.2840  0.9504  0.6026
 1948SOL     OW17302   3.747   0.386   8.317  0.0960 -0.0316  0.0320
 1948SOL    HW117303   3.709   0.472   8.301  1.5749  1.0984  2.6970
 1948SOL    HW217304   3.749   0.380   8.412  1.0218  1.0349  0.0824
 1949SOL     OW17305   0.510   0.039   1.856 -0.1482  0.1776  0.2472
 1949SOL    HW117306   0.488   0.118   1.906 -0.2958 -0.4475  1.1599
 1949SOL    HW217307   0.592   0.078   1.824 -1.1154  1.7494 -0.3315
 1950SOL     OW17308   2.446   0.894   9.779  0.3896  0.1256 -0.6238
 1950SOL    HW117309   2.374   0.859   9.727 -0.0795 -1.1347  0.8893
 1950SOL    HW217310   2.451   0.837   9.856  0.2320 -1.0905 -1.5207
 1951SOL     OW17311   1.805   2.886   3.364  0.4251 -0.3123  0.4398
 1951SOL    HW117312   1.749   2.918   3.293 -1.4830  0.6587  2.3688
 1951SOL    HW217313   1.874   2.837   3.320 -1.1101  1.3362 -3.8176
 1952SOL     OW17314   3.145   2.335   7.140  0.6147  0.0491  0.4781
 1952SOL    HW117315   3.086   2.303   7.072  2.9406 -0.7778 -1.1886
 1952SOL    HW217316   3.146   2.428   7.120  0.6175  0.0658  0.5597
 1953SOL     OW17317   3.660   2.109   7.059  0.2917  0.2476 -0.3093
 1953SOL    HW117318   3.717   2.184   7.073  0.8182 -0.4804  1.3766
 1953SOL    HW217319   3.570   2.138   7.078 -0.2325 -1.3464 -0.4051
 1954SOL     OW17320   1.724   2.861  16.788 -0.3866  0.1297  0.1373
 1954SOL    HW117321   1.778   2.853  16.867 -1.7349 -2.3421  0.8062
 1954SOL    HW217322   1.794   2.886  16.727 -1.6433 -1.2873 -1.8985
 1955SOL     OW17323   3.182   4.408   5.838  0.5952 -0.3129  0.2708
 1955SOL    HW117324   3.143   4.323   5.820 -0.6500  0.5335 -1.0167
 1955SOL    HW217325   3.099   4.453   5.852  0.2255 -1.9341  3.4211
 1956SOL     OW17326   0.133   3.272  16.150 -0.0446  0.0904  0.2399
 1956SOL    HW117327   0.075   3.337  16.110 -0.4882 -1.4627 -1.6199
 1956SOL    HW217328   0.213   3.282  16.098 -1.1126 -1.5008 -1.6860
 1957SOL     OW17329   3.894   2.909   7.799 -0.7865 -0.0863 -0.6505
 1957SOL    HW117330   3.813   2.863   7.779 -0.3225 -1.4636  0.6185
 1957SOL    HW217331   3.869   2.998   7.822  0.6661  0.9117 -2.9012
 1958SOL     OW17332   1.525   0.422  15.105  0.3162  0.4932  0.6063
 1958SOL    HW117333   1.613   0.460  15.101  0.5329 -0.0401  0.2794
 1958SOL    HW217334   1.466   0.488  15.068 -0.4267 -0.7541 -0.4286
 1959SOL     OW17335   3.621   4.220   8.787 -0.5125  0.2927 -0.2341
 1959SOL    HW117336   3.628   4.280   8.713  0.3093  0.3123 -0.1324
 1959SOL    HW217337   3.666   4.272   8.853 -0.7115 -0.4853  0.5180
 1960SOL     OW17338   3.521   3.113   2.089 -0.0456  0.0401 -0.1138
 1960SOL    HW117339   3.539   3.021   2.068 -1.0042 -1.1262  4.0973
 1960SOL    HW217340   3.436   3.116   2.046  0.3248 -0.1202 -0.8647
 1961SOL     OW17341   1.874   1.154   2.436 -0.0668  0.1016 -0.1025
 1961SOL    HW117342   1.800   1.189   2.484  0.2790 -0.2966  0.7170
 1961SOL    HW217343   1.924   1.101   2.498 -1.3342 -0.4524  0.4326
 1962SOL     OW17344   1.704   0.820   5.928 -0.2487 -0.0164  0.4718
 1962SOL    HW117345   1.720   0.854   6.016  3.4860 -0.3923 -0.0757
 1962SOL    HW217346   1.694   0.726   5.943  0.2984 -0.1828 -0.2102
 1963SOL     OW17347   0.492   3.687   2.270  0.6057  0.5513 -0.8284
 1963SOL    HW117348   0.397   3.695   2.257  0.4207  2.1442  1.4257
 1963SOL    HW217349   0.500   3.592   2.261  0.4613  0.1793  2.8720
 1964SOL     OW17350   4.265   2.483   4.953  0.0683  0.5292  0.0176
 1964SOL    HW117351   4.170   2.472   4.944  0.1485 -1.2536  1.4045
 1964SOL    HW217352   4.262   2.578   4.942  0.0750  0.6441  0.9962
 1965SOL     OW17353   1.968   3.469   8.231 -0.5513 -0.4076  0.1857
 1965SOL    HW117354   1.904   3.530   8.195  1.0197  2.1387  1.6573
 1965SOL    HW217355   1.919   3.452   8.312  1.5846  0.1727  1.6007
 1966SOL     OW17356   3.034   2.025   4.470 -0.7937 -0.6250 -0.3395
 1966SOL    HW117357   3.016   1.938   4.434 -1.1518 -0.1201 -1.3735
 1966SOL    HW217358   2.951   2.053   4.509  0.0306  2.0078 -0.4695
 1967SOL     OW17359   0.478   0.055   6.425 -0.7275  0.9491 -0.0616
 1967SOL    HW117360   0.461   4.686   6.456 -0.8640  1.2708  0.7975
 1967SOL    HW217361   0.504   0.034   6.336  2.7182  3.0454  0.4277
 1968SOL     OW17362   3.078   0.768  16.117  0.6350  0.2159 -0.3468
 1968SOL    HW117363   3.043   0.718  16.191 -0.3770  0.1730 -0.8486
 1968SOL    HW217364   3.140   0.703  16.083 -1.3493 -1.8852  0.0409
 1969SOL     OW17365   4.468   0.707  12.853 -0.5883 -0.0154 -0.0731
 1969SOL    HW117366   4.543   0.721  12.796  0.2319  0.6652  1.1677
 1969SOL    HW217367   4.424   0.788  12.827 -2.3695 -1.0247 -0.2399
 1970SOL     OW17368   3.244   2.913   1.268 -0.1266  0.8571 -0.5104
 1970SOL    HW117369   3.230   2.969   1.344 -1.3859 -0.6420  0.3708
 1970SOL    HW217370   3.262   2.974   1.196  0.5579  0.7109 -0.4665
 1971SOL     OW17371   2.216   0.057   7.767 -0.0321 -0.0955 -0.6383
 1971SOL    HW117372   2.251   4.709   7.708  0.0390 -1.1038  0.5389
 1971SOL    HW217373   2.187   0.123   7.704  1.9573  0.7546 -0.6468
 1972SOL     OW17374   2.832   3.265   8.715  0.9238  0.1584 -0.0708
 1972SOL    HW117375   2.809   3.182   8.672  1.1064  0.9386 -1.7018
 1972SOL    HW217376   2.849   3.333   8.650  1.2895  0.6309  0.5294
 1973SOL     OW17377   1.210   2.728  11.856 -0.7443  0.4572 -0.1937
 1973SOL    HW117378   1.296   2.691  11.836  0.3321  2.4853  0.6359
 1973SOL    HW217379   1.201   2.793  11.787  3.2208 -1.2923 -2.3071
 1974SOL     OW17380   4.201   2.888  13.065  0.3104  0.2305 -0.0707
 1974SOL    HW117381   4.120   2.841  13.043 -0.4355  0.5227  1.9656
 1974SOL    HW217382   4.244   2.829  13.127 -0.3507  1.5830  1.6829
 1975SOL     OW17383   2.013   2.385   5.357  0.1645 -0.1652  0.1599
 1975SOL    HW117384   2.047   2.474   5.342 -0.3259 -0.0012  0.0273
 1975SOL    HW217385   2.088   2.334   5.326 -1.7425 -2.4713 -0.6522
 1976SOL     OW17386   1.871   0.330  15.125 -0.0911 -0.3670  0.5200
 1976SOL    HW117387   1.868   0.326  15.221  1.7053 -1.0874  0.5503
 1976SOL    HW217388   1.952   0.282  15.106  1.4104  2.5222 -0.4193
 1977SOL     OW17389   3.525   2.606   5.942  0.3916  0.1732 -0.1132
 1977SOL    HW117390   3.480   2.683   5.976  1.0910  1.1865 -1.5138
 1977SOL    HW217391   3.562   2.580   6.027 -0.9238 -0.5034  0.2553
 1978SOL     OW17392   4.635   0.506   3.022  0.1036  0.0880 -0.0738
 1978SOL    HW117393   4.689   0.584   3.034 -0.9318  1.0010 -1.3027
 1978SOL    HW217394   4.551   0.542   2.995 -0.7304 -1.1535  0.8580
 1979SOL     OW17395   3.527   2.419   7.980  0.2061  0.5453 -0.3297
 1979SOL    HW117396   3.518   2.330   8.016  0.0998  1.2051  1.2673
 1979SOL    HW217397   3.573   2.397   7.899 -1.9311 -0.0916 -1.3601
 1980SOL     OW17398   1.668   3.422   1.048 -0.1096  0.0411 -0.1083
 1980SOL    HW117399   1.637   3.355   0.988  1.7794 -0.6867 -0.2535
 1980SOL    HW217400   1.763   3.421   1.035  0.1509  1.8900  1.6565
 1981SOL     OW17401   2.632   3.004   5.607  0.0171 -0.2440 -0.5092
 1981SOL    HW117402   2.620   3.044   5.521 -3.0610  0.2616  0.1407
 1981SOL    HW217403   2.673   3.067   5.665  0.9298 -0.3579 -1.0320
 1982SOL     OW17404   3.498   2.444  17.439 -0.1326 -0.2060 -0.0951
 1982SOL    HW117405   3.421   2.391  17.461  0.2309 -0.1072  1.4091
 1982SOL    HW217406   3.535   2.433  17.526 -3.5785  0.3641  1.4388
 1983SOL     OW17407   4.240   3.683   6.919  0.0895  0.0216 -0.0104
 1983SOL    HW117408   4.194   3.615   6.968  0.1050  0.3720  0.4997
 1983SOL    HW217409   4.261   3.743   6.991  0.3464 -1.2050  0.9362
 1984SOL     OW17410   0.523   3.461  12.299  0.0929  0.6242  0.3495
 1984SOL    HW117411   0.556   3.463  12.389  0.0877 -0.1187  0.3701
 1984SOL    HW217412   0.538   3.552  12.277 -0.6005  0.3481 -1.2811
 1985SOL     OW17413   4.327   3.502  11.872  0.3246 -0.7671  0.3823
 1985SOL    HW117414   4.370   3.552  11.942 -0.4626  0.2496  0.1391
 1985SOL    HW217415   4.237   3.517  11.899  0.4610  0.2959  0.2706
 1986SOL     OW17416   3.054   1.540   2.060  0.4164  0.1848 -0.6168
 1986SOL    HW117417   3.008   1.456   2.052  1.9390 -0.6438 -0.5454
 1986SOL    HW217418   3.080   1.551   1.968  0.1216  1.8430 -0.5070
 1987SOL     OW17419   3.757   3.346   7.199 -0.2586 -0.1459 -0.3437
 1987SOL    HW117420   3.800   3.365   7.116 -1.1740 -1.7958 -1.1933
 1987SOL    HW217421   3.838   3.325   7.244 -0.6294  0.9815  0.8589
 1988SOL     OW17422   1.708   4.668   6.991  0.2411  0.0748  0.1490
 1988SOL    HW117423   1.789   4.619   6.977 -0.4033 -1.1813  0.8229
 1988SOL    HW217424   1.711   0.021   6.928  0.1248 -0.4960 -0.4979
 1989SOL     OW17425   1.304   3.969   7.788  0.6569  0.2466  0.4167
 1989SOL    HW117426   1.238   3.988   7.855  0.4517 -0.5337  0.4382
 1989SOL    HW217427   1.270   4.031   7.724 -1.1624 -2.0569 -0.8448
 1990SOL     OW17428   3.203   4.398   9.807 -0.2526 -0.7138 -0.3783
 1990SOL    HW117429   3.233   4.324   9.754  0.1781 -2.0693  1.7817
 1990SOL    HW217430   3.108   4.388   9.809 -0.2977 -0.0173  0.9044
 1991SOL     OW17431   1.879   4.567   7.519 -0.0354  0.0263  0.4649
 1991SOL    HW117432   1.824   4.593   7.593  1.4848 -0.3077  1.7057
 1991SOL    HW217433   1.898   4.475   7.537  0.8884  0.1549  0.1710
 1992SOL     OW17434   0.578   3.859  13.728  0.3003 -0.5806  0.5701
 1992SOL    HW117435   0.557   3.772  13.761  0.6066 -0.6563  0.5695
 1992SOL    HW217436   0.497   3.908  13.741  1.5858  0.9420  2.9206
 1993SOL     OW17437   4.455   3.361   9.368  0.6994 -0.0261  0.4651
 1993SOL    HW117438   4.426   3.451   9.384 -0.5586 -0.3119 -0.2334
 1993SOL    HW217439   4.464   3.322   9.455  4.2791 -1.8934 -0.7277
 1994SOL     OW17440   4.537   0.935   2.066  0.5122 -0.2552  0.2395
 1994SOL    HW117441   4.619   0.918   2.020  0.2210  0.6356 -0.6098
 1994SOL    HW217442   4.561   0.954   2.157 -0.3957 -3.8184  1.2117
 1995SOL     OW17443   3.202   3.411   4.840 -0.6045  0.2176  0.4493
 1995SOL    HW117444   3.144   3.410   4.916  0.6818  2.4694  1.4460
 1995SOL    HW217445   3.217   3.504   4.825  0.7279  0.1446  1.2954
 1996SOL     OW17446   4.175   2.297   5.839  0.0581  0.4742  0.4660
 1996SOL    HW117447   4.090   2.331   5.867 -0.5725 -0.2974 -0.5067
 1996SOL    HW217448   4.234   2.342   5.899  0.4138 -1.4839  1.5743
 1997SOL     OW17449   2.527   4.194   2.755  0.4347  0.3988 -0.2289
 1997SOL    HW117450   2.444   4.237   2.733  0.1015  1.0202  2.1608
 1997SOL    HW217451   2.589   4.267   2.759 -0.3924  0.9913  1.9000
 1998SOL     OW17452   1.088   4.647   8.114  0.2721 -0.4575 -0.0564
 1998SOL    HW117453   1.162   4.644   8.174  1.0542  0.7670 -0.9780
 1998SOL    HW217454   1.112   4.716   8.052 -0.2089  1.5474  2.0106
 1999SOL     OW17455   3.219   2.533   8.648  0.7048  0.4198  0.1503
 1999SOL    HW117456   3.170   2.458   8.615 -1.6277  0.3271  3.8395
 1999SOL    HW217457   3.302   2.490   8.667  1.0842  0.2583 -1.7955
 2000SOL     OW17458   2.484   3.349  14.877 -0.0753 -0.0472  0.1469
 2000SOL    HW117459   2.392   3.328  14.895  0.5086 -1.0288  1.9422
 2000SOL    HW217460   2.513   3.266  14.839  1.2284  0.5433 -0.1388
 2001SOL     OW17461   1.237   2.686   0.579  0.1345  0.0285  0.2135
 2001SOL    HW117462   1.160   2.743   0.582  0.8346  0.9070  1.9600
 2001SOL    HW217463   1.190   2.602   0.583  1.8489 -0.8752  1.7886
 2002SOL     OW17464   1.479   1.123   3.468 -0.2160  0.9740  0.1889
 2002SOL    HW117465   1.441   1.112   3.380  0.8114 -1.6122  0.0525
 2002SOL    HW217466   1.432   1.198   3.502  2.0078  1.8785  1.2491
 2003SOL     OW17467   0.782   4.225   5.705  0.9541  0.0719 -0.2464
 2003SOL    HW117468   0.763   4.258   5.793  2.4242  2.2945 -0.7492
 2003SOL    HW217469   0.856   4.167   5.721  1.2806 -0.2352 -2.7828
 2004SOL     OW17470   3.939   4.400   6.562  0.1284  0.0592 -0.0045
 2004SOL    HW117471   4.007   4.332   6.562 -2.1267 -2.1681 -1.5300
 2004SOL    HW217472   3.860   4.349   6.576 -0.4689  1.2460  0.9419
 2005SOL     OW17473   1.925   4.529   6.973  0.3041  0.3361 -0.3156
 2005SOL    HW117474   1.957   4.501   6.887 -1.6320  1.8841 -1.5483
 2005SOL    HW217475   2.011   4.551   7.008  0.4133 -0.5181 -0.0431
 2006SOL     OW17476   1.501   0.328   1.565  0.5684 -0.4525 -0.1985
 2006SOL    HW117477   1.532   0.237   1.570  0.9319 -0.1777  2.6407
 2006SOL    HW217478   1.576   0.362   1.516 -1.2918  0.3055 -2.5097
 2007SOL     OW17479   3.571   3.082   5.970 -0.0315  0.0585 -0.2894
 2007SOL    HW117480   3.609   3.059   5.885 -1.2126  0.0084 -0.8061
 2007SOL    HW217481   3.579   3.178   5.964  1.1834  0.0305  0.7018
 2008SOL     OW17482   1.200   2.504  17.453 -0.4533  0.7268  0.1981
 2008SOL    HW117483   1.218   2.418  17.417 -0.3011  1.2690 -1.0060
 2008SOL    HW217484   1.190   2.550  17.370  0.7659  1.5049  0.4789
 2009SOL     OW17485   1.080   0.834   7.088  0.6380  0.0584  0.4256
 2009SOL    HW117486   1.089   0.768   7.156  0.6157  1.1490  1.4805
 2009SOL    HW217487   0.994   0.873   7.103  0.1152 -1.3937  1.1641
 2010SOL     OW17488   1.568   1.741   6.744  0.2524  0.1237  0.3893
 2010SOL    HW117489   1.473   1.730   6.745  0.3562 -0.8113  1.5050
 2010SOL    HW217490   1.577   1.776   6.656 -1.3170 -1.2923 -0.3552
 2011SOL     OW17491   4.427   4.514   3.252  0.0089  0.1422 -0.4009
 2011SOL    HW117492   4.482   4.553   3.184  0.5452  0.1308  0.0323
 2011SOL    HW217493   4.470   4.431   3.272  0.2085  0.9665  2.6005
 2012SOL     OW17494   0.162   2.377  14.182 -0.2020 -0.1232 -0.0989
 2012SOL    HW117495   0.132   2.370  14.273  0.1479  2.0437  0.1950
 2012SOL    HW217496   0.134   2.462  14.149  0.4504 -0.8798 -2.5512
 2013SOL     OW17497   1.574   0.764   4.294  0.1694  0.2813 -0.3686
 2013SOL    HW117498   1.507   0.799   4.236  1.0175 -0.9873 -2.1236
 2013SOL    HW217499   1.591   0.680   4.252 -2.2928  0.8848 -2.5987
 2014SOL     OW17500   0.618   0.439  11.637  0.3663  0.2518 -0.3712
 2014SOL    HW117501   0.561   0.363  11.631 -0.9289  1.4476 -3.5252
 2014SOL    HW217502   0.590   0.483  11.717 -0.3920  0.7277 -0.9017
 2015SOL     OW17503   1.404   1.060   2.625 -0.1815  0.1259  0.1513
 2015SOL    HW117504   1.422   1.151   2.602  3.4739 -0.8078 -0.6917
 2015SOL    HW217505   1.342   1.030   2.559 -0.9818  0.9338  0.5348
 2016SOL     OW17506   1.458   4.143   6.548  0.2809  0.3307 -0.6502
 2016SOL    HW117507   1.424   4.054   6.552 -1.9955  1.1816 -1.5134
 2016SOL    HW217508   1.384   4.189   6.509 -1.4967 -1.5732  0.5378
 2017SOL     OW17509   2.091   2.709   0.948  0.2739  0.6398 -0.1660
 2017SOL    HW117510   2.071   2.616   0.953  0.7944  0.4223 -2.1090
 2017SOL    HW217511   2.009   2.752   0.975  1.1419  2.3370 -0.2605
 2018SOL     OW17512   2.979   1.714  10.273  0.6862 -0.0135 -0.6565
 2018SOL    HW117513   2.899   1.722  10.325  0.8853 -0.6604 -0.2468
 2018SOL    HW217514   2.964   1.633  10.223  0.6459 -0.2221 -0.3025
 2019SOL     OW17515   4.689   0.364  15.365  0.5162  0.2627  0.1153
 2019SOL    HW117516   0.047   0.316  15.395  0.8081 -0.1479 -1.3141
 2019SOL    HW217517   4.686   0.356  15.270 -0.7438 -2.8166  0.3944
 2020SOL     OW17518   3.056   0.749   7.357  0.0750  0.2583  0.0053
 2020SOL    HW117519   3.150   0.759   7.345  0.1318 -0.4231 -0.1346
 2020SOL    HW217520   3.058   0.726   7.450  0.2752  0.9385  0.1665
 2021SOL     OW17521   1.697   3.129   3.762 -0.0677 -0.3345 -0.2513
 2021SOL    HW117522   1.791   3.146   3.755 -0.1925  2.6150  5.1727
 2021SOL    HW217523   1.683   3.215   3.801 -0.8676 -0.5845  0.0201
 2022SOL     OW17524   3.547   0.731   3.622  1.0897  0.2899 -0.3860
 2022SOL    HW117525   3.525   0.708   3.532  0.3828  1.4842 -0.5235
 2022SOL    HW217526   3.571   0.648   3.662  1.9972  0.2474 -1.0101
 2023SOL     OW17527   0.271   2.764   3.853 -0.2205 -0.1195 -0.2403
 2023SOL    HW117528   0.209   2.830   3.885 -0.0651  0.1233 -0.4385
 2023SOL    HW217529   0.314   2.736   3.934 -0.7641  0.8902  0.3995
 2024SOL     OW17530   0.376   2.890  15.522 -0.1276 -0.4133  0.7991
 2024SOL    HW117531   0.381   2.824  15.591 -1.9631 -0.2616  1.0712
 2024SOL    HW217532   0.335   2.835  15.456  1.1185 -0.3465 -0.0196
 2025SOL     OW17533   1.720   3.687   1.651  0.0935 -0.2847 -0.1596
 2025SOL    HW117534   1.722   3.719   1.561  0.2387  0.1223 -0.0103
 2025SOL    HW217535   1.705   3.594   1.633  4.3559 -1.1794  0.9127
 2026SOL     OW17536   0.846   2.899  10.556 -0.3608  0.0200 -0.1676
 2026SOL    HW117537   0.781   2.970  10.561  0.6368  1.0361 -1.9281
 2026SOL    HW217538   0.926   2.950  10.569 -0.4174  0.0512  0.0734
 2027SOL     OW17539   0.657   1.925   4.861 -0.0507 -0.1187  0.4745
 2027SOL    HW117540   0.617   1.973   4.789  1.3184 -0.0337 -0.2278
 2027SOL    HW217541   0.717   1.863   4.819  0.0819 -0.1763  0.7475
 2028SOL     OW17542   1.112   1.080  16.936  0.1241  0.4018  0.2142
 2028SOL    HW117543   1.064   1.016  16.883 -0.6793 -1.7183  3.4905
 2028SOL    HW217544   1.060   1.092  17.016  2.2914  1.6041  1.4545
 2029SOL     OW17545   4.338   3.101   9.526  0.5258  0.0155  0.1977
 2029SOL    HW117546   4.359   3.075   9.436  2.4240  2.4782 -0.0841
 2029SOL    HW217547   4.425   3.111   9.563  0.7099  0.0555 -0.2480
 2030SOL     OW17548   3.608   3.664   4.252  0.4515 -0.2124  0.1148
 2030SOL    HW117549   3.587   3.700   4.165  0.1920  3.1670  1.5950
 2030SOL    HW217550   3.590   3.738   4.309 -0.0700 -0.3456  0.1230
 2031SOL     OW17551   3.656   0.108  11.794 -0.5668 -0.3027  0.6542
 2031SOL    HW117552   3.686   0.083  11.882  1.6234  0.8617  0.2269
 2031SOL    HW217553   3.641   0.201  11.807 -0.7600 -0.6330  2.8144
 2032SOL     OW17554   4.392   4.719   4.002  0.1414  0.3815 -0.5212
 2032SOL    HW117555   4.475   0.025   4.044 -0.5749  0.4625  0.8463
 2032SOL    HW217556   4.332   0.020   4.074 -0.1467  0.4348 -0.7787
 2033SOL     OW17557   1.352   0.572   5.608 -0.6868  0.4443 -0.0673
 2033SOL    HW117558   1.395   0.552   5.525  0.1636  0.2282  0.4157
 2033SOL    HW217559   1.260   0.565   5.584 -0.3903 -1.3659 -0.6330
 2034SOL     OW17560   0.794   4.141   4.902 -0.6512 -0.1803  0.0658
 2034SOL    HW117561   0.770   4.072   4.964  1.0698 -0.9310 -0.0931
 2034SOL    HW217562   0.889   4.138   4.895 -0.4924  2.4310  1.1569
 2035SOL     OW17563   3.287   1.377   6.561  0.1932  0.1195 -0.0115
 2035SOL    HW117564   3.257   1.346   6.476  1.7630 -1.1364 -0.0964
 2035SOL    HW217565   3.273   1.300   6.617  0.7380 -2.6710 -3.7081
 2036SOL     OW17566   3.192   4.361   6.571  0.1050  0.6302  0.1974
 2036SOL    HW117567   3.144   4.434   6.611  1.3598  1.4864  0.1503
 2036SOL    HW217568   3.127   4.321   6.513  0.2437  3.4238 -1.8720
 2037SOL     OW17569   0.183   0.058  10.653  0.0552 -0.1774 -0.3226
 2037SOL    HW117570   0.241   0.134  10.656  0.2375 -0.3541  0.4455
 2037SOL    HW217571   0.153   0.067  10.562 -1.1656  1.5733  0.2750
 2038SOL     OW17572   3.682   3.851   5.662 -0.5042 -0.1130 -0.4925
 2038SOL    HW117573   3.639   3.875   5.580 -1.2064 -2.7686 -0.8851
 2038SOL    HW217574   3.613   3.874   5.724 -0.2996  0.1263 -0.3543
 2039SOL     OW17575   3.721   0.199  10.965 -0.0905  0.1296  0.3549
 2039SOL    HW117576   3.640   0.179  11.013 -0.8935 -1.0320 -1.5067
 2039SOL    HW217577   3.703   0.293  10.971 -1.0293  0.0546 -1.1715
 2040SOL     OW17578   2.332   0.380   4.453  0.3595 -0.1647 -0.2876
 2040SOL    HW117579   2.257   0.322   4.462  0.2592 -0.3294 -2.3402
 2040SOL    HW217580   2.317   0.450   4.517  0.6797 -1.4340  1.1777
 2041SOL     OW17581   3.971   1.821   3.543 -0.3176  0.0925  0.3397
 2041SOL    HW117582   3.957   1.854   3.454 -1.8106 -1.9836 -0.2064
 2041SOL    HW217583   3.978   1.726   3.541  1.7650  0.2744 -2.1229
 2042SOL     OW17584   1.656   1.172   4.202 -0.0922  0.1896 -0.2757
 2042SOL    HW117585   1.702   1.092   4.227  0.6375  0.4330 -0.8128
 2042SOL    HW217586   1.670   1.218   4.285 -1.5377  2.1103 -1.1135
 2043SOL     OW17587   3.304   1.795   4.068 -0.4402 -0.2622  0.9773
 2043SOL    HW117588   3.228   1.853   4.076  0.0651  0.5549 -0.2740
 2043SOL    HW217589   3.290   1.728   4.136  1.6191  0.0544  1.7062
 2044SOL     OW17590   4.078   3.238   8.116 -0.2069  0.0132 -0.2558
 2044SOL    HW117591   4.033   3.170   8.165  0.3212  0.0665  0.3048
 2044SOL    HW217592   4.006   3.299   8.104 -1.6884 -1.2012  2.5393
 2045SOL     OW17593   0.079   0.893   3.470 -0.7106  0.6480  0.0742
 2045SOL    HW117594   0.117   0.805   3.481 -1.4766  0.5349  1.8786
 2045SOL    HW217595   4.707   0.879   3.445 -0.7621  2.2445 -0.6100
 2046SOL     OW17596   1.484   2.414   5.285  0.0838 -0.4296  0.0057
 2046SOL    HW117597   1.578   2.427   5.268  0.5967 -2.2999  1.3548
 2046SOL    HW217598   1.486   2.323   5.316  1.0179 -0.5222 -0.3071
 2047SOL     OW17599   0.271   0.205   3.352  0.1180 -0.0634  0.0387
 2047SOL    HW117600   0.211   0.219   3.279 -2.4616  1.1183  2.3736
 2047SOL    HW217601   0.236   0.122   3.383  3.2087 -1.0715  0.8136
 2048SOL     OW17602   2.628   0.873   0.493  0.1449 -0.1713 -0.1088
 2048SOL    HW117603   2.569   0.883   0.568  0.6008  0.9053  0.1096
 2048SOL    HW217604   2.575   0.810   0.445 -0.5176  1.6916 -1.7931
 2049SOL     OW17605   3.448   2.391   6.214 -0.4608  0.0770  0.1163
 2049SOL    HW117606   3.435   2.345   6.297 -1.5866  2.6094  1.3174
 2049SOL    HW217607   3.531   2.436   6.232 -0.5549  1.3607 -2.5527
 2050SOL     OW17608   2.462   3.662   3.512  0.5445 -0.2633  0.2649
 2050SOL    HW117609   2.550   3.625   3.509  0.9657  0.7441  0.4001
 2050SOL    HW217610   2.485   3.741   3.561  0.5464  0.1380 -0.3859
 2051SOL     OW17611   3.924   2.378   8.396 -0.3252  0.0499  0.5118
 2051SOL    HW117612   3.908   2.306   8.334  0.8701  0.6597 -0.5213
 2051SOL    HW217613   3.986   2.428   8.343 -1.4375  3.0941  2.1223
 2052SOL     OW17614   1.715   2.770   2.188 -0.0225  0.4651  0.4124
 2052SOL    HW117615   1.737   2.677   2.188 -0.6547  0.3135  0.1907
 2052SOL    HW217616   1.696   2.783   2.095  1.0621 -2.3552 -0.2205
 2053SOL     OW17617   3.702   1.825   9.118 -0.7171  0.6103 -0.1764
 2053SOL    HW117618   3.755   1.896   9.155  0.0846  1.0545 -2.1956
 2053SOL    HW217619   3.656   1.857   9.040 -0.2117 -2.6489 -1.7897
 2054SOL     OW17620   0.360   2.305   7.944 -0.0725  0.9488 -0.2992
 2054SOL    HW117621   0.314   2.289   8.026 -1.3696 -0.0892 -1.2290
 2054SOL    HW217622   0.433   2.364   7.963  1.0841 -0.8533  0.8575
 2055SOL     OW17623   1.128   2.740   0.319  0.0118 -0.4839  0.3308
 2055SOL    HW117624   1.191   2.699   0.379 -0.7080  0.0818  1.4794
 2055SOL    HW217625   1.078   2.788   0.385  1.7193 -1.5430  2.4089
 2056SOL     OW17626   0.319   4.524   2.192  0.2207 -0.5330 -0.5267
 2056SOL    HW117627   0.408   4.506   2.162  1.0701  0.9355  1.1295
 2056SOL    HW217628   0.307   4.460   2.261  1.8061 -0.3780 -0.0989
 2057SOL     OW17629   4.624   2.068   4.487 -0.1768  0.1853  0.0289
 2057SOL    HW117630   4.636   2.147   4.540 -1.4335  0.3996 -0.0063
 2057SOL    HW217631   4.573   2.103   4.413  0.1771 -2.5988 -1.5133
 2058SOL     OW17632   2.172   3.043  16.410  0.0534  0.2875 -0.0269
 2058SOL    HW117633   2.124   3.123  16.386 -3.0439 -1.3975  0.5274
 2058SOL    HW217634   2.192   3.067  16.500  1.3769 -1.9008  0.2517
 2059SOL     OW17635   3.942   0.404  12.641  0.1719  0.3359  0.3437
 2059SOL    HW117636   3.969   0.493  12.621 -0.4714  0.9321  2.1254
 2059SOL    HW217637   3.985   0.358  12.569 -1.0472  0.6920 -0.5985
 2060SOL     OW17638   0.633   0.569  11.127 -0.2671  0.0704 -0.6245
 2060SOL    HW117639   0.592   0.591  11.043  1.0398  2.4114 -0.6414
 2060SOL    HW217640   0.707   0.520  11.092 -0.1045 -0.0234 -0.1548
 2061SOL     OW17641   3.383   3.683  10.365 -0.1915  0.9526 -0.1795
 2061SOL    HW117642   3.408   3.625  10.437  0.1419  1.2149 -0.0815
 2061SOL    HW217643   3.364   3.619  10.298  1.7657  0.6711 -0.4650
 2062SOL     OW17644   0.427   0.737   8.451 -0.3580  0.5839  0.1755
 2062SOL    HW117645   0.428   0.825   8.413 -0.3381  0.6755  0.3884
 2062SOL    HW217646   0.477   0.687   8.387 -1.3864  0.7955 -0.8108
 2063SOL     OW17647   0.857   3.178  13.983  1.1323  0.2920  0.6197
 2063SOL    HW117648   0.930   3.150  14.040  0.1481 -0.9204  1.3039
 2063SOL    HW217649   0.874   3.125  13.905 -2.7471  0.2318 -0.1611
 2064SOL     OW17650   0.195   0.926   5.542 -0.1178  0.3456  0.4518
 2064SOL    HW117651   0.275   0.946   5.492 -0.2476  1.1030  0.5538
 2064SOL    HW217652   0.218   0.842   5.581 -0.4973  0.8242  1.6844
 2065SOL     OW17653   3.808   2.663   4.802  0.3771 -0.5247 -0.5348
 2065SOL    HW117654   3.813   2.758   4.803 -0.4109 -0.4684 -1.6083
 2065SOL    HW217655   3.807   2.650   4.707  1.7457 -0.4755 -0.5571
 2066SOL     OW17656   2.906   1.035  11.466 -0.1077 -0.0536 -0.3351
 2066SOL    HW117657   2.955   1.070  11.392 -0.0327  1.1952  0.3125
 2066SOL    HW217658   2.822   1.010  11.427  0.5362 -1.0974 -1.0753
 2067SOL     OW17659   3.140   1.038  12.496 -0.8431  0.3026  0.4460
 2067SOL    HW117660   3.191   1.111  12.529 -1.9443  1.3265 -0.1072
 2067SOL    HW217661   3.051   1.072  12.508 -1.2918 -0.4354 -0.8316
 2068SOL     OW17662   1.433   1.327  16.446 -0.4402  0.3842  0.0269
 2068SOL    HW117663   1.505   1.293  16.393 -0.2633 -1.8075  1.6667
 2068SOL    HW217664   1.364   1.307  16.383 -1.1376 -1.2524  1.3167
 2069SOL     OW17665   3.112   0.987   3.311 -0.5265 -0.4146 -0.0485
 2069SOL    HW117666   3.036   0.942   3.274  0.7630 -0.8353 -2.1643
 2069SOL    HW217667   3.121   1.076   3.279  0.8534 -0.4545  0.2027
 2070SOL     OW17668   4.486   3.415   3.786  0.2787  0.1174  0.4638
 2070SOL    HW117669   4.536   3.482   3.738  2.0281 -0.2015  1.8483
 2070SOL    HW217670   4.404   3.440   3.744 -0.2934 -0.0455  1.5100
 2071SOL     OW17671   4.155   3.564   6.057  0.2433 -0.0561  0.1619
 2071SOL    HW117672   4.171   3.611   5.975 -0.5474 -0.6302 -0.3217
 2071SOL    HW217673   4.077   3.514   6.035 -0.3510 -0.6299  3.6334
 2072SOL     OW17674   1.207   2.049   6.443 -0.2281 -0.3851  0.1843
 2072SOL    HW117675   1.253   2.099   6.377 -2.6484  0.4487 -0.8617
 2072SOL    HW217676   1.173   1.980   6.386 -0.9561 -0.7466  1.0438
 2073SOL     OW17677   4.052   4.160   3.724  0.6620  0.0024  0.2424
 2073SOL    HW117678   4.090   4.235   3.679  0.6018  0.5817  1.1487
 2073SOL    HW217679   4.069   4.089   3.662 -0.1624  1.4124 -1.6048
 2074SOL     OW17680   2.548   3.408   5.726  0.1568 -0.0702  0.0701
 2074SOL    HW117681   2.643   3.396   5.730  0.3054  0.7923 -1.0184
 2074SOL    HW217682   2.528   3.370   5.640 -0.5354 -1.1287  0.6865
 2075SOL     OW17683   0.197   3.717  15.170 -0.0003 -0.0525  0.8081
 2075SOL    HW117684   0.290   3.737  15.160  0.2702 -1.0535  1.3166
 2075SOL    HW217685   0.190   3.665  15.250  0.2711  1.2047  1.6376
 2076SOL     OW17686   0.834   0.053   0.558  0.0068 -0.2585 -0.1761
 2076SOL    HW117687   0.903   4.714   0.527  0.6789  0.5754 -0.2383
 2076SOL    HW217688   0.873   0.095   0.634 -0.5008  0.9046 -0.5649
 2077SOL     OW17689   0.322   1.288   1.482 -0.1020 -0.5472 -0.4139
 2077SOL    HW117690   0.232   1.320   1.489  0.5623  1.6538 -2.0800
 2077SOL    HW217691   0.316   1.226   1.410 -1.5421  1.0023 -1.6458
 2078SOL     OW17692   3.755   2.305  14.763 -0.0217 -0.6685  0.3546
 2078SOL    HW117693   3.775   2.251  14.840 -0.1925  2.0424  2.2766
 2078SOL    HW217694   3.783   2.389  14.798  0.5915 -0.5158 -0.5180
 2079SOL     OW17695   1.964   4.432   5.702  0.2139  0.1250  0.4546
 2079SOL    HW117696   1.998   4.511   5.744 -1.6331  0.6005  1.0602
 2079SOL    HW217697   1.983   4.459   5.612  0.9816 -0.2434  0.4990
 2080SOL     OW17698   2.158   2.607   8.186 -0.3441 -0.9064 -0.1188
 2080SOL    HW117699   2.241   2.639   8.221 -0.6126 -1.8258  1.3886
 2080SOL    HW217700   2.135   2.672   8.120  0.5658 -1.9811 -1.4887
 2081SOL     OW17701   0.821   0.946  15.602  0.0462 -0.1488  0.0103
 2081SOL    HW117702   0.880   1.020  15.592 -0.9376  0.5082 -0.9043
 2081SOL    HW217703   0.882   0.883  15.641 -0.2550 -1.7011 -2.0149
 2082SOL     OW17704   1.716   0.576   2.563 -0.8178  0.0378  0.1386
 2082SOL    HW117705   1.777   0.631   2.613 -0.2336 -1.6276  1.2398
 2082SOL    HW217706   1.767   0.572   2.482  1.5306 -0.2589  1.6131
 2083SOL     OW17707   0.020   0.351  10.615  0.5845 -0.5106  0.5981
 2083SOL    HW117708   4.648   0.343  10.642  0.3164 -0.6135 -0.3253
 2083SOL    HW217709   0.018   0.308  10.529  3.0120  0.4966  0.0135
 2084SOL     OW17710   1.228   1.667   8.626 -0.5761 -0.1993  0.0920
 2084SOL    HW117711   1.237   1.619   8.708  1.9096 -2.2154 -1.3636
 2084SOL    HW217712   1.285   1.740   8.649  2.1689 -2.0415 -0.9311
 2085SOL     OW17713   4.083   1.769  12.035 -0.1211  0.4356  0.4985
 2085SOL    HW117714   4.062   1.846  12.087 -0.0808  0.8852 -0.1479
 2085SOL    HW217715   4.125   1.804  11.956 -1.8244  1.2929 -0.0156
 2086SOL     OW17716   0.526   1.701   8.132 -0.1669  0.4033 -0.2821
 2086SOL    HW117717   0.431   1.692   8.123  0.0040 -1.9104  0.4128
 2086SOL    HW217718   0.560   1.699   8.043  0.4177 -1.2233 -0.0213
 2087SOL     OW17719   2.647   2.591   2.022 -0.1125 -0.0114 -0.3107
 2087SOL    HW117720   2.733   2.629   2.040 -0.1970  1.8584 -3.8052
 2087SOL    HW217721   2.590   2.629   2.088  0.2223  0.7200 -0.4394
 2088SOL     OW17722   1.140   1.569   4.270 -0.3115 -0.1564  0.0611
 2088SOL    HW117723   1.072   1.509   4.242  2.3202 -2.6548 -1.0438
 2088SOL    HW217724   1.103   1.595   4.354 -1.2749  0.2907 -0.4949
 2089SOL     OW17725   3.904   0.859   9.404  0.0600  0.1653 -0.1152
 2089SOL    HW117726   3.959   0.869   9.482 -0.2742 -0.5113  0.2081
 2089SOL    HW217727   3.950   0.792   9.353  0.8688 -0.3894  1.3146
 2090SOL     OW17728   0.820   0.210   6.824  0.1958 -0.2107  0.0779
 2090SOL    HW117729   0.773   0.267   6.884  0.2704  0.2693 -0.3232
 2090SOL    HW217730   0.852   0.147   6.889 -1.1268 -0.8995  0.0573
 2091SOL     OW17731   0.398   1.991   6.877  0.0610  0.5672 -0.4589
 2091SOL    HW117732   0.419   1.905   6.912  0.2649 -0.0348 -2.0847
 2091SOL    HW217733   0.336   1.963   6.811  0.4974 -2.1709  0.3145
 2092SOL     OW17734   4.164   0.477   4.224 -0.0947 -0.2284  0.5797
 2092SOL    HW117735   4.160   0.515   4.311 -1.2452  0.4864  0.2183
 2092SOL    HW217736   4.221   0.401   4.235 -0.3644 -0.6978 -1.1524
 2093SOL     OW17737   4.024   3.865   7.578 -0.6767 -0.1027  0.1636
 2093SOL    HW117738   4.028   3.958   7.601  0.1975  0.1256 -0.9191
 2093SOL    HW217739   4.072   3.862   7.495 -1.7782  1.7596 -0.5413
 2094SOL     OW17740   2.712   4.061   3.429 -0.4444  0.2452 -0.0481
 2094SOL    HW117741   2.763   3.981   3.441 -1.3053 -0.3187 -0.1489
 2094SOL    HW217742   2.769   4.132   3.402 -0.1410 -0.1829 -0.5244
 2095SOL     OW17743   3.624   1.508   3.395  0.1089 -0.0839  0.2730
 2095SOL    HW117744   3.558   1.490   3.462 -0.3742  0.1412 -0.1518
 2095SOL    HW217745   3.576   1.543   3.321 -2.7594 -0.7035  1.8192
 2096SOL     OW17746   3.724   2.093  13.453 -0.4996  0.1155  0.2082
 2096SOL    HW117747   3.700   2.127  13.539  1.5331  0.1817  0.7427
 2096SOL    HW217748   3.743   2.168  13.397 -3.1291 -0.3233 -1.3056
 2097SOL     OW17749   4.238   3.492   4.098 -0.1772  0.3043  0.9391
 2097SOL    HW117750   4.289   3.572   4.106  1.1837 -0.3999 -0.5728
 2097SOL    HW217751   4.275   3.442   4.171  1.5435  0.4593  0.1833
 2098SOL     OW17752   0.881   2.627   2.389 -0.4222 -0.4315  0.2840
 2098SOL    HW117753   0.923   2.701   2.345 -2.2824  0.6864  0.3966
 2098SOL    HW217754   0.875   2.650   2.482  0.9187 -3.0540  1.0425
 2099SOL     OW17755   0.464   4.647   3.054 -0.4459 -0.1461  0.1950
 2099SOL    HW117756   0.525   4.719   3.070 -0.7555 -0.1945  1.5633
 2099SOL    HW217757   0.535   4.588   3.027  0.7501  0.5802  1.7965
 2100SOL     OW17758   2.993   4.030   2.717  0.6651  0.4806 -0.1370
 2100SOL    HW117759   3.067   3.969   2.709  0.9687  1.2076 -2.8683
 2100SOL    HW217760   2.926   3.971   2.684 -0.4940  2.3262 -1.0775
 2101SOL     OW17761   2.598   2.993  11.762  0.4901  0.5142  0.3097
 2101SOL    HW117762   2.592   3.040  11.678  0.3634 -0.7052 -0.3660
 2101SOL    HW217763   2.636   2.911  11.733  2.1188  1.6390 -0.7124
 2102SOL     OW17764   2.786   1.947   2.298 -0.0710 -0.2737  0.2693
 2102SOL    HW117765   2.817   1.872   2.248 -0.5404  0.1386 -0.6260
 2102SOL    HW217766   2.849   1.944   2.371  1.1790  0.7572 -0.7728
 2103SOL     OW17767   2.110   3.652   4.508 -0.6930  0.1042  0.0537
 2103SOL    HW117768   2.118   3.647   4.413  2.2857  1.5577  0.2402
 2103SOL    HW217769   2.026   3.696   4.524 -0.6644 -0.7045  2.4976
 2104SOL     OW17770   0.100   0.163  10.398  0.2730 -0.1215  0.0557
 2104SOL    HW117771   0.050   0.195  10.323 -1.2168  2.0371  1.9600
 2104SOL    HW217772   0.184   0.166  10.353  0.4083  0.3901  0.3306
 2105SOL     OW17773   1.157   4.559  11.794  0.5578 -0.0893 -0.3637
 2105SOL    HW117774   1.239   4.531  11.835 -0.9682 -1.9695  1.4225
 2105SOL    HW217775   1.129   4.627  11.856  0.9603  2.0750 -2.5827
 2106SOL     OW17776   2.852   4.045   5.268 -0.3297  0.3213 -0.3373
 2106SOL    HW117777   2.845   3.991   5.190 -0.5996 -1.2281  0.7563
 2106SOL    HW217778   2.779   4.106   5.269  1.8354  2.8751  0.7406
 2107SOL     OW17779   0.122   0.090   7.300  0.7733 -0.2438 -0.2180
 2107SOL    HW117780   0.062   0.027   7.260 -1.7331  2.7215 -1.1263
 2107SOL    HW217781   0.063   0.164   7.314  0.2089 -0.3183 -2.1979
 2108SOL     OW17782   0.323   3.341   5.101  0.4413  0.6483 -0.3615
 2108SOL    HW117783   0.242   3.347   5.151  0.2080 -2.2685 -0.3846
 2108SOL    HW217784   0.318   3.250   5.071  0.7855  0.2785  0.7288
 2109SOL     OW17785   2.690   2.438   4.150 -0.8146 -0.2471  0.0467
 2109SOL    HW117786   2.597   2.429   4.133 -0.4863  0.0542 -1.9299
 2109SOL    HW217787   2.722   2.348   4.161  0.9411  0.4220  0.4730
 2110SOL     OW17788   0.630   3.631  15.941 -0.4104 -0.0803  0.8839
 2110SOL    HW117789   0.681   3.689  15.997 -1.4363 -0.2212  1.9813
 2110SOL    HW217790   0.646   3.548  15.986  0.1578 -0.7243 -0.5287
 2111SOL     OW17791   4.416   0.111   8.173  0.3975 -0.5433 -0.3931
 2111SOL    HW117792   4.419   0.025   8.132  0.2452 -0.9871  0.5192
 2111SOL    HW217793   4.450   0.086   8.259 -3.2713  0.2376  1.2863
 2112SOL     OW17794   3.801   1.402   1.675  0.6630  0.2626  0.2416
 2112SOL    HW117795   3.783   1.402   1.581  3.0330 -1.0816 -0.2168
 2112SOL    HW217796   3.848   1.319   1.684  1.8150  0.8067 -0.6325
 2113SOL     OW17797   0.835   1.084   6.287  0.0278 -0.0105  0.3529
 2113SOL    HW117798   0.790   1.011   6.243 -1.7639  0.4938  1.3630
 2113SOL    HW217799   0.921   1.044   6.295 -0.3362 -0.7010  0.7705
 2114SOL     OW17800   2.453   3.305  12.998  0.1605 -0.0108  0.2293
 2114SOL    HW117801   2.519   3.375  12.998  0.9168 -0.7192  2.8067
 2114SOL    HW217802   2.376   3.356  12.974  0.0922 -0.8360 -1.3466
 2115SOL     OW17803   2.777   0.349  14.160 -0.0093  0.1365  0.2122
 2115SOL    HW117804   2.814   0.369  14.074 -0.6165 -0.2994 -0.1500
 2115SOL    HW217805   2.837   0.283  14.197 -0.0831  0.8718  1.6321
 2116SOL     OW17806   1.733   1.190  16.774  0.3678  0.4206 -0.6804
 2116SOL    HW117807   1.704   1.277  16.801 -1.8097  0.0240 -1.7357
 2116SOL    HW217808   1.689   1.169  16.692 -0.9286  4.4135 -1.0162
 2117SOL     OW17809   1.367   2.909   2.494 -0.4234 -0.1891  0.4558
 2117SOL    HW117810   1.354   2.948   2.408  1.3479  0.7274  0.5996
 2117SOL    HW217811   1.453   2.870   2.477  0.7818  2.3857  0.7860
 2118SOL     OW17812   4.649   0.061  10.791  0.2570 -0.1364  0.6047
 2118SOL    HW117813   0.005   0.061  10.732 -0.1578  0.7616  0.0752
 2118SOL    HW217814   4.653   4.694  10.832 -1.8452 -0.3333  0.4161
 2119SOL     OW17815   2.497   1.756   6.614 -0.0899 -0.0430  1.0627
 2119SOL    HW117816   2.554   1.811   6.559 -1.5394  1.0165  0.6349
 2119SOL    HW217817   2.561   1.742   6.684 -0.1982 -2.2302  0.7171
 2120SOL     OW17818   3.076   0.872  13.414 -0.2428  0.1719 -0.8488
 2120SOL    HW117819   3.105   0.782  13.398 -0.6073 -0.1141  0.1435
 2120SOL    HW217820   3.146   0.923  13.374  0.2266  0.7075  0.6619
 2121SOL     OW17821   2.743   2.720   3.187  0.2367 -0.5703  0.1216
 2121SOL    HW117822   2.789   2.792   3.232 -0.2892  0.3331 -0.7938
 2121SOL    HW217823   2.651   2.733   3.210 -0.2069 -0.7288 -1.5877
 2122SOL     OW17824   4.385   4.019   9.628 -0.3983 -0.1091 -0.2969
 2122SOL    HW117825   4.327   4.091   9.653  0.1805  0.4095 -0.4555
 2122SOL    HW217826   4.468   4.063   9.646 -0.2930 -0.6577  0.5630
 2123SOL     OW17827   2.029   4.307   7.558 -0.4597 -0.0434 -0.0784
 2123SOL    HW117828   2.080   4.343   7.631  0.2914  0.4787 -0.8564
 2123SOL    HW217829   2.058   4.217   7.572  0.3892  0.2669  0.1805
 2124SOL     OW17830   3.641   0.489  16.211 -0.2679  0.1658  0.4694
 2124SOL    HW117831   3.667   0.515  16.122 -1.9030 -2.2633 -0.7127
 2124SOL    HW217832   3.553   0.455  16.197  0.0859 -0.5825  0.0856
 2125SOL     OW17833   1.176   0.311   2.627 -0.0628 -0.3396  0.1786
 2125SOL    HW117834   1.207   0.288   2.715 -2.2066  1.6198  1.4535
 2125SOL    HW217835   1.245   0.374   2.607 -0.5319  1.0360  2.8757
 2126SOL     OW17836   2.630   3.377   2.146 -0.3468  0.0496 -0.0026
 2126SOL    HW117837   2.651   3.394   2.238  1.2230  0.2664 -0.4025
 2126SOL    HW217838   2.672   3.451   2.104 -0.9525  0.1874 -0.3642
 2127SOL     OW17839   1.704   4.099   8.443  0.1215 -0.0914 -0.2373
 2127SOL    HW117840   1.683   4.115   8.351  1.2026  0.2638 -0.4221
 2127SOL    HW217841   1.799   4.086   8.439  0.0227  0.4507 -5.0158
 2128SOL     OW17842   2.891   0.793   1.445 -0.5312  0.0384 -0.4467
 2128SOL    HW117843   2.967   0.852   1.441 -0.5710  0.0929 -0.3971
 2128SOL    HW217844   2.863   0.810   1.355 -0.8552 -0.6056 -0.4608
 2129SOL     OW17845   2.041   1.893   7.114 -0.3875  0.3889 -0.0393
 2129SOL    HW117846   2.029   1.878   7.208  1.4671 -0.5114  0.0550
 2129SOL    HW217847   1.987   1.971   7.102 -0.2828 -0.0395 -3.3365
 2130SOL     OW17848   0.331   1.079   3.837 -0.1772 -0.0174 -0.8129
 2130SOL    HW117849   0.320   1.110   3.927  0.4876  1.6130 -1.2976
 2130SOL    HW217850   0.265   1.010   3.832 -1.7021  1.5620 -2.3910
 2131SOL     OW17851   0.834   0.532   4.507 -0.3666 -0.4586 -0.1154
 2131SOL    HW117852   0.898   0.600   4.488 -0.6722 -0.3531 -0.7697
 2131SOL    HW217853   0.758   0.566   4.460  0.1807  1.6801  0.5521
 2132SOL     OW17854   1.858   3.807   4.513 -0.4105  0.2559 -0.0694
 2132SOL    HW117855   1.787   3.848   4.563 -0.2583  2.6401 -1.8154
 2132SOL    HW217856   1.811   3.805   4.430  0.7672  2.0830 -0.7841
 2133SOL     OW17857   2.405   4.719   6.387 -0.0797  0.4297 -0.3930
 2133SOL    HW117858   2.473   0.023   6.324  0.4516  0.2004  0.0904
 2133SOL    HW217859   2.449   0.027   6.468  0.7437  0.4351 -0.8413
 2134SOL     OW17860   2.858   0.424   0.553  0.2589  0.2143  0.1057
 2134SOL    HW117861   2.820   0.368   0.621  0.7426  0.2427  0.4049
 2134SOL    HW217862   2.827   0.513   0.569 -0.2362  0.5842 -2.8907
 2135SOL     OW17863   2.744   1.511   6.620 -0.2204 -0.3611  0.6328
 2135SOL    HW117864   2.695   1.452   6.677 -2.4035  1.4927  0.6730
 2135SOL    HW217865   2.794   1.450   6.566  1.5390  0.4850  1.3019
 2136SOL     OW17866   0.155   3.273   8.385  0.5683  0.1935  0.9770
 2136SOL    HW117867   0.140   3.225   8.304  0.5676  2.0317 -0.1068
 2136SOL    HW217868   0.250   3.263   8.399  0.7930  1.8751  0.7577
 2137SOL     OW17869   0.563   4.134   2.402  0.3113  0.1516 -0.2500
 2137SOL    HW117870   0.549   4.121   2.308  0.2959  0.8697 -0.3448
 2137SOL    HW217871   0.658   4.149   2.406  0.1830  0.6985  0.5876
 2138SOL     OW17872   2.024   2.961   6.583  0.1691 -1.0654  0.0151
 2138SOL    HW117873   2.049   2.943   6.493  1.3504 -0.3238  0.1951
 2138SOL    HW217874   2.092   2.918   6.634  3.8148  1.3915 -2.7907
 2139SOL     OW17875   0.404   3.041   3.109  0.4922  0.6846  0.0436
 2139SOL    HW117876   0.324   3.028   3.159  1.3118  0.1154  1.1951
 2139SOL    HW217877   0.371   3.056   3.020 -1.4995 -0.3818  0.6037
 2140SOL     OW17878   1.931   0.480  14.492 -0.1824 -0.0876 -0.8911
 2140SOL    HW117879   1.867   0.417  14.525  0.6816 -0.8958 -0.7274
 2140SOL    HW217880   1.876   0.520  14.425 -0.1402  0.9090 -0.3206
 2141SOL     OW17881   1.020   4.434   1.573  0.6196 -0.0928 -0.0382
 2141SOL    HW117882   1.062   4.443   1.487 -1.2802 -0.5329 -1.0124
 2141SOL    HW217883   0.930   4.457   1.549  0.8381  0.0931 -0.6709
 2142SOL     OW17884   2.620   0.345   1.890 -0.2563 -0.5134  0.4412
 2142SOL    HW117885   2.634   0.429   1.934 -0.3262 -0.7601  0.9335
 2142SOL    HW217886   2.709   0.310   1.897  1.4082  3.0003 -3.2337
 2143SOL     OW17887   3.436   3.025   6.906 -0.0841  0.5197 -0.0356
 2143SOL    HW117888   3.488   3.086   6.959 -0.8210 -0.4607  1.8151
 2143SOL    HW217889   3.345   3.043   6.930 -0.6286  1.9534 -3.1625
 2144SOL     OW17890   4.132   3.328   3.533 -0.2787  0.2333  0.0780
 2144SOL    HW117891   4.128   3.354   3.625  1.8971 -0.7021  0.4173
 2144SOL    HW217892   4.040   3.321   3.508 -0.4030  0.4617  0.4780
 2145SOL     OW17893   3.414   4.119   4.576 -0.3887  0.0495  0.0684
 2145SOL    HW117894   3.393   4.114   4.669 -2.5982 -2.5150 -0.5752
 2145SOL    HW217895   3.508   4.136   4.575 -0.3502 -0.1667  0.1702
 2146SOL     OW17896   2.028   3.133   5.650 -0.1501 -0.5498 -0.0600
 2146SOL    HW117897   2.032   3.041   5.676 -2.0836 -0.6768 -0.2366
 2146SOL    HW217898   1.934   3.145   5.643  0.0888  2.7650  2.3215
 2147SOL     OW17899   3.445   2.367   8.425 -0.0089 -0.1504  0.2884
 2147SOL    HW117900   3.453   2.375   8.520 -2.1178 -0.1061  0.4584
 2147SOL    HW217901   3.523   2.315   8.406  0.5531  0.3181  1.3302
 2148SOL     OW17902   4.652   4.434   4.312 -0.3517  0.1927  0.0505
 2148SOL    HW117903   4.632   4.439   4.219  0.2010  1.1699 -0.0234
 2148SOL    HW217904   4.666   4.340   4.327  0.1719  0.0700 -1.2297
 2149SOL     OW17905   3.491   0.051  15.086 -0.1810  0.4060 -0.4399
 2149SOL    HW117906   3.475   0.013  15.000 -0.2068 -0.4665 -0.0412
 2149SOL    HW217907   3.494   4.690  15.137 -0.8966  0.1302 -0.8279
 2150SOL     OW17908   2.262   1.824   2.377 -0.0599  0.7523 -0.0859
 2150SOL    HW117909   2.342   1.862   2.411  0.6663 -1.1002  0.2638
 2150SOL    HW217910   2.271   1.868   2.292 -0.6483  1.3821  0.1788
 2151SOL     OW17911   3.273   1.275   8.001 -0.8819  0.2218  0.1250
 2151SOL    HW117912   3.304   1.320   7.923 -0.9132 -0.0709 -0.0598
 2151SOL    HW217913   3.290   1.327   8.079  1.2226 -0.3287  0.0404
 2152SOL     OW17914   2.315   4.334   6.955  0.2995 -0.1232 -0.1997
 2152SOL    HW117915   2.401   4.307   6.923 -0.1137 -1.0829 -0.5202
 2152SOL    HW217916   2.265   4.253   6.950 -0.7189  0.5022 -0.2047
 2153SOL     OW17917   3.845   1.907   9.701 -0.2705  0.1004 -0.6223
 2153SOL    HW117918   3.816   1.948   9.783  3.7550  1.2956  0.2193
 2153SOL    HW217919   3.848   1.815   9.728  1.3953  0.5853  0.9268
 2154SOL     OW17920   3.197   1.875   3.281  0.7010 -0.5554 -0.1824
 2154SOL    HW117921   3.210   1.868   3.187  1.1168  0.5396 -0.2016
 2154SOL    HW217922   3.129   1.942   3.275  1.5996  0.3189 -0.5220
 2155SOL     OW17923   4.618   2.969  10.770 -0.1941 -0.1182  0.0161
 2155SOL    HW117924   4.710   2.944  10.773 -0.2197 -0.2269 -0.1021
 2155SOL    HW217925   4.589   2.929  10.688  0.1565  0.7490 -0.5410
 2156SOL     OW17926   4.038   0.599   2.176 -0.5971 -0.0090  0.2351
 2156SOL    HW117927   4.009   0.689   2.157  0.2306  0.0151 -0.9085
 2156SOL    HW217928   3.979   0.571   2.247 -1.6444 -0.8448 -0.9707
 2157SOL     OW17929   2.443   4.501   5.133 -0.0884 -1.3699  0.5327
 2157SOL    HW117930   2.394   4.456   5.064  0.8237  0.5918 -1.4087
 2157SOL    HW217931   2.529   4.513   5.092 -0.4180 -0.0480  0.2183
 2158SOL     OW17932   0.270   3.603  16.228  0.1279  0.1299  0.0225
 2158SOL    HW117933   0.342   3.652  16.267  0.4044  0.6772 -1.1758
 2158SOL    HW217934   0.196   3.656  16.259  0.6720  1.2578 -0.6450
 2159SOL     OW17935   0.872   4.513  13.263 -0.4014 -0.0463 -0.1402
 2159SOL    HW117936   0.943   4.578  13.258  1.8179 -2.4108  0.5563
 2159SOL    HW217937   0.817   4.535  13.338 -1.6360  0.7620 -1.2931
 2160SOL     OW17938   1.324   0.817  15.287  0.0259  0.2401  0.0994
 2160SOL    HW117939   1.339   0.724  15.303  1.4230  1.1059  3.8678
 2160SOL    HW217940   1.413   0.847  15.273 -0.2578  1.1197  0.1502
 2161SOL     OW17941   4.409   2.596   3.097  0.0326  0.3597  0.1709
 2161SOL    HW117942   4.378   2.506   3.088 -3.4325  1.4661  0.9184
 2161SOL    HW217943   4.394   2.615   3.190  1.5268  1.7720  0.1280
 2162SOL     OW17944   4.234   0.008  12.999  0.2531  0.2756 -0.4794
 2162SOL    HW117945   4.225   0.074  12.930 -1.1742  0.4456 -0.1345
 2162SOL    HW217946   4.198   4.648  12.960 -0.3088 -0.7030  2.0146
 2163SOL     OW17947   2.289   4.335   8.078 -0.3232  0.3982 -0.2189
 2163SOL    HW117948   2.284   4.265   8.012  0.9966  1.1880 -1.1798
 2163SOL    HW217949   2.312   4.410   8.023  1.5764 -1.3401 -1.8354
 2164SOL     OW17950   2.392   1.057   4.365  0.4785  0.2244  0.3523
 2164SOL    HW117951   2.465   1.118   4.373  0.4199  0.4117 -0.5826
 2164SOL    HW217952   2.396   1.038   4.459  0.3131  0.7924  0.4743
 2165SOL     OW17953   3.259   0.477  13.060 -0.2960 -0.0758  0.3853
 2165SOL    HW117954   3.353   0.491  13.049 -0.4017 -0.7817 -1.5727
 2165SOL    HW217955   3.265   0.391  13.103  0.4421 -0.9655 -1.4571
 2166SOL     OW17956   0.651   4.603   9.035  0.2029 -0.4724  0.1230
 2166SOL    HW117957   0.709   4.556   8.975  2.5419  0.7333  1.4027
 2166SOL    HW217958   0.714   4.643   9.095  2.2870  2.4773 -3.9821
 2167SOL     OW17959   0.771   4.302   6.562 -0.4737 -0.1676  0.2346
 2167SOL    HW117960   0.698   4.250   6.528 -0.3921 -0.9150  1.2219
 2167SOL    HW217961   0.825   4.315   6.484 -1.1672  1.3296 -0.0119
 2168SOL     OW17962   0.871   2.358   2.791 -0.0395 -0.2354 -0.3012
 2168SOL    HW117963   0.845   2.366   2.883  0.2302  1.9759 -0.4172
 2168SOL    HW217964   0.785   2.361   2.748 -0.1728  0.7317  0.0399
 2169SOL     OW17965   4.603   4.475   3.997 -0.0988 -0.5776  0.3301
 2169SOL    HW117966   4.626   4.544   3.934 -0.2911  0.6381  1.5740
 2169SOL    HW217967   4.689   4.437   4.018  0.1269 -0.1217  0.2335
 2170SOL     OW17968   3.070   3.771  14.423 -0.4343 -0.5678 -0.4829
 2170SOL    HW117969   3.058   3.804  14.334  0.3674 -0.9164 -0.7197
 2170SOL    HW217970   2.981   3.788  14.454  0.1464  0.4630  0.6278
 2171SOL     OW17971   0.597   1.385   3.200  0.3751 -0.2069  0.7239
 2171SOL    HW117972   0.624   1.293   3.190 -4.8044 -1.9103  2.2376
 2171SOL    HW217973   0.503   1.374   3.184  0.0787  0.9394  1.7144
 2172SOL     OW17974   3.544   0.362   9.245 -0.0090 -0.1416 -0.5396
 2172SOL    HW117975   3.589   0.306   9.307 -2.4620 -0.9033  0.5525
 2172SOL    HW217976   3.598   0.440   9.258 -0.6743 -0.1428  2.1796
 2173SOL     OW17977   4.161   0.968   7.632  0.7081 -0.1125  0.1414
 2173SOL    HW117978   4.199   0.939   7.548  0.2058 -1.2167  0.2962
 2173SOL    HW217979   4.109   1.041   7.598 -1.0326 -0.1538  2.7924
 2174SOL     OW17980   2.149   1.373   6.895 -0.3619  0.2829 -0.2332
 2174SOL    HW117981   2.069   1.375   6.948 -0.3204  1.1349 -0.1905
 2174SOL    HW217982   2.126   1.437   6.827 -0.8437  0.5532  0.1783
 2175SOL     OW17983   4.473   2.614   9.080 -0.1899  0.3805 -0.3370
 2175SOL    HW117984   4.382   2.636   9.061 -0.1846  2.0050  1.5498
 2175SOL    HW217985   4.523   2.695   9.066  3.5871 -1.8847  0.0866
 2176SOL     OW17986   2.756   1.829   7.419  0.0986  0.2261 -0.2621
 2176SOL    HW117987   2.807   1.900   7.379 -2.1481  1.4413 -1.0189
 2176SOL    HW217988   2.785   1.751   7.372  1.0752  0.1478  0.4852
 2177SOL     OW17989   0.650   1.616   1.334  0.1008 -0.5758 -0.2183
 2177SOL    HW117990   0.619   1.704   1.311 -1.8344 -2.0683 -3.2647
 2177SOL    HW217991   0.567   1.577   1.362  0.7834 -1.0747  1.0867
 2178SOL     OW17992   1.883   1.226  10.636 -0.2706  0.6311 -0.5538
 2178SOL    HW117993   1.875   1.131  10.633 -0.1510  0.5682  0.9114
 2178SOL    HW217994   1.802   1.245  10.684  1.0707 -2.1541  2.7225
 2179SOL     OW17995   0.644   2.830   5.113 -0.1107 -0.2682  0.1689
 2179SOL    HW117996   0.627   2.775   5.189  0.5688 -0.1397  0.4143
 2179SOL    HW217997   0.630   2.911   5.163  2.7566  0.5474 -0.3876
 2180SOL     OW17998   3.654   1.198   7.798  0.6143  0.2386 -0.0785
 2180SOL    HW117999   3.660   1.183   7.892 -0.4043 -0.4110 -0.1136
 2180SOL    HW218000   3.700   1.122   7.763 -1.0910 -1.1101  0.5726
 2181SOL     OW18001   2.322   1.426  14.955 -0.5285 -0.2491  0.2607
 2181SOL    HW118002   2.302   1.428  15.049  1.2549  0.9690  0.6088
 2181SOL    HW218003   2.314   1.520  14.938 -0.6082  0.3996  3.8648
 2182SOL     OW18004   1.645   0.473   5.598  0.0912 -0.5805 -0.1998
 2182SOL    HW118005   1.645   0.561   5.636  0.9244 -1.0068  0.7772
 2182SOL    HW218006   1.567   0.481   5.543  0.5282  3.8544 -0.1516
 2183SOL     OW18007   0.611   4.219   2.139 -0.2992 -0.4569  0.6369
 2183SOL    HW118008   0.665   4.182   2.069  0.3655  0.7254  0.5192
 2183SOL    HW218009   0.521   4.203   2.112  0.6214  0.9917 -3.2657
 2184SOL     OW18010   1.402   3.420   6.134 -0.3706  0.1264 -0.7499
 2184SOL    HW118011   1.411   3.433   6.228  0.3338  0.6375 -0.8892
 2184SOL    HW218012   1.456   3.486   6.089 -0.8032  1.4144  0.6353
 2185SOL     OW18013   3.144   2.688  11.056 -0.2183  0.3901 -0.3028
 2185SOL    HW118014   3.090   2.613  11.081 -3.0900  2.2062 -1.0902
 2185SOL    HW218015   3.197   2.661  10.981 -0.7650  2.2477 -1.3719
 2186SOL     OW18016   4.011   3.677  16.502 -0.2852 -0.5273  0.3783
 2186SOL    HW118017   3.977   3.593  16.472 -2.0011  0.8716 -1.6435
 2186SOL    HW218018   3.934   3.733  16.514 -1.8051 -1.9384 -2.7157
 2187SOL     OW18019   2.459   3.327  16.029  0.5514 -0.2647  0.6299
 2187SOL    HW118020   2.518   3.295  16.097  1.1508  1.0323  0.7130
 2187SOL    HW218021   2.511   3.336  15.949  1.2228  0.6214  1.1662
 2188SOL     OW18022   4.416   3.806   8.813 -0.0452  0.0938  0.1402
 2188SOL    HW118023   4.371   3.829   8.732 -0.2532 -2.8112 -0.5572
 2188SOL    HW218024   4.499   3.854   8.810  0.0690  0.0512  2.7828
 2189SOL     OW18025   2.792   0.679   0.622  0.2075  0.4390 -0.1953
 2189SOL    HW118026   2.852   0.739   0.666  2.0677 -2.1682  0.7979
 2189SOL    HW218027   2.739   0.743   0.574 -2.1142 -0.1287  1.5797
 2190SOL     OW18028   4.036   2.712   8.806 -0.4906 -0.7171 -0.7037
 2190SOL    HW118029   3.990   2.641   8.761  0.1336 -3.5604  3.2183
 2190SOL    HW218030   3.994   2.795   8.781  2.4502  0.6449 -1.1032
 2191SOL     OW18031   2.102   0.310   9.188  0.2278  0.5280  0.5537
 2191SOL    HW118032   2.106   0.337   9.280  0.6936  0.4512  0.5538
 2191SOL    HW218033   2.042   0.370   9.143  0.3452  1.3425  1.4771
 2192SOL     OW18034   1.951   3.430   4.263  0.2804  0.3228  0.1632
 2192SOL    HW118035   1.861   3.444   4.236 -0.5547 -1.6563  1.9109
 2192SOL    HW218036   2.004   3.461   4.189  0.1740  2.1854  0.8840
 2193SOL     OW18037   0.767   2.493   5.476  0.9772 -0.0018  0.3137
 2193SOL    HW118038   0.741   2.521   5.564 -0.9213  0.4373 -0.3912
 2193SOL    HW218039   0.705   2.420   5.468  2.5487 -1.2939 -0.2492
 2194SOL     OW18040   2.228   0.298   5.637 -0.3360  0.2737 -0.4406
 2194SOL    HW118041   2.213   0.304   5.543 -0.6613 -0.7884 -0.4511
 2194SOL    HW218042   2.145   0.330   5.672  0.2516 -0.1087  1.3002
 2195SOL     OW18043   4.568   2.897   2.423  0.1800  0.8839  0.0207
 2195SOL    HW118044   4.521   2.891   2.339  2.8142 -0.4407 -1.3751
 2195SOL    HW218045   4.609   2.983   2.432  1.2648  0.2763  0.9470
 2196SOL     OW18046   2.314   0.888   6.796 -0.8652 -0.3817 -0.3879
 2196SOL    HW118047   2.353   0.870   6.710 -3.3821  0.3692 -1.6907
 2196SOL    HW218048   2.256   0.957   6.764 -2.4398 -0.9086  1.3083
 2197SOL     OW18049   3.125   3.319   5.689  0.2099  0.3785 -0.4408
 2197SOL    HW118050   3.098   3.232   5.658  1.5612 -0.6071  1.1884
 2197SOL    HW218051   3.091   3.370   5.615 -0.6030  0.3447 -0.0975
 2198SOL     OW18052   0.098   0.691   3.063 -0.1422 -0.0210  0.4032
 2198SOL    HW118053   0.142   0.741   2.995 -0.3078  0.2058  0.4649
 2198SOL    HW218054   0.179   0.652   3.096 -0.3164 -1.0744 -0.4152
 2199SOL     OW18055   1.598   0.594   6.882 -0.1764  0.3577  0.3496
 2199SOL    HW118056   1.692   0.581   6.874 -0.2326  1.0101 -1.4700
 2199SOL    HW218057   1.566   0.518   6.834  1.5497 -1.0415  1.4094
 2200SOL     OW18058   2.049   3.913   3.875 -0.7040 -0.3549 -0.0746
 2200SOL    HW118059   2.125   3.972   3.870 -1.2841  0.3482 -0.4817
 2200SOL    HW218060   2.081   3.845   3.817 -1.3518  1.8651 -3.0176
 2201SOL     OW18061   4.128   1.504   3.031  0.1473  0.4134 -0.1675
 2201SOL    HW118062   4.112   1.544   3.116 -1.1296 -2.3702  0.8837
 2201SOL    HW218063   4.039   1.496   2.997  0.5004  1.1814 -1.2773
 2202SOL     OW18064   3.600   3.209   8.422  0.0554  0.1672  0.6028
 2202SOL    HW118065   3.663   3.280   8.409 -0.8503  0.8251 -0.2482
 2202SOL    HW218066   3.645   3.147   8.479  1.3921 -0.2477 -0.9065
 2203SOL     OW18067   1.960   4.052   2.883 -0.0007 -0.5665 -0.0065
 2203SOL    HW118068   2.038   4.091   2.923  1.1342 -3.9584  1.0988
 2203SOL    HW218069   1.951   3.970   2.932 -1.1898 -0.2377  0.3154
 2204SOL     OW18070   0.400   2.796   9.383  0.1640  0.3517 -0.1240
 2204SOL    HW118071   0.415   2.709   9.419 -1.4754 -0.9030 -2.4443
 2204SOL    HW218072   0.459   2.809   9.309  0.7995  2.1912  0.7042
 2205SOL     OW18073   3.242   1.882   8.607  0.2627  0.6154 -0.0783
 2205SOL    HW118074   3.202   1.832   8.678  2.1699  2.0998  2.0719
 2205SOL    HW218075   3.243   1.815   8.539 -0.8772  0.1109  0.3964
 2206SOL     OW18076   3.004   0.778   6.462  0.4712  0.1807 -0.1116
 2206SOL    HW118077   3.051   0.807   6.384 -0.5298  1.7796 -0.1114
 2206SOL    HW218078   2.992   0.684   6.447  2.5481 -0.3983  1.9546
 2207SOL     OW18079   1.434   0.574   4.122 -0.6534  0.0387  0.1500
 2207SOL    HW118080   1.516   0.525   4.131  1.1707  2.7065 -1.7386
 2207SOL    HW218081   1.446   0.622   4.040 -2.0174 -1.0275 -0.6470
 2208SOL     OW18082   1.254   1.436   0.447 -0.2308 -0.6740 -0.0642
 2208SOL    HW118083   1.177   1.473   0.405  0.3258  0.0578 -0.4333
 2208SOL    HW218084   1.303   1.390   0.380 -1.0339 -0.0618 -1.0641
 2209SOL     OW18085   4.148   0.185   3.743  0.3629 -0.5983 -0.2628
 2209SOL    HW118086   4.243   0.179   3.730  0.1092  1.6714 -3.0643
 2209SOL    HW218087   4.119   0.246   3.675 -0.2054 -0.0262  0.4866
 2210SOL     OW18088   1.769   0.684  14.714 -0.2407  0.4654  0.4084
 2210SOL    HW118089   1.844   0.738  14.740 -0.0611 -0.1293  1.1226
 2210SOL    HW218090   1.809   0.598  14.707 -1.2395  0.0970 -0.6759
 2211SOL     OW18091   3.791   0.110   8.150  0.1216 -0.0593  0.0272
 2211SOL    HW118092   3.818   0.201   8.160 -3.7483  1.2831 -1.8770
 2211SOL    HW218093   3.873   0.070   8.121 -0.3523  0.5471 -2.1100
 2212SOL     OW18094   2.425   0.341  10.196 -0.0151 -0.5179 -0.0258
 2212SOL    HW118095   2.450   0.255  10.162  2.4238  1.0154 -2.1696
 2212SOL    HW218096   2.386   0.384  10.119 -0.1897 -0.1970  0.2420
 2213SOL     OW18097   0.887   1.257   7.718 -0.2855 -0.2876  0.7453
 2213SOL    HW118098   0.935   1.212   7.787 -0.7906 -0.2067  1.1494
 2213SOL    HW218099   0.891   1.190   7.650  0.2793 -0.5826  1.0704
 2214SOL     OW18100   0.415   1.049   8.762 -0.7327  0.1645  0.0210
 2214SOL    HW118101   0.401   1.113   8.692 -2.0707 -1.2633 -1.0417
 2214SOL    HW218102   0.503   1.019   8.736 -0.8135 -0.7617  0.7959
 2215SOL     OW18103   3.856   3.336   8.933  0.0336 -0.1262  0.2671
 2215SOL    HW118104   3.825   3.351   8.843  0.5710  1.1338  0.2979
 2215SOL    HW218105   3.813   3.413   8.969 -1.0061 -0.5932  0.0063
 2216SOL     OW18106   0.395   4.268  11.054 -0.0462 -0.1827  0.5900
 2216SOL    HW118107   0.485   4.287  11.028 -0.6859  0.9677 -0.7590
 2216SOL    HW218108   0.364   4.253  10.965  1.3835  0.7354 -0.0618
 2217SOL     OW18109   3.121   2.076   6.115 -0.3122  0.3428 -0.2223
 2217SOL    HW118110   3.093   2.151   6.062 -0.1558  0.4365 -0.1710
 2217SOL    HW218111   3.068   2.005   6.079 -0.1826 -0.8372  1.9378
 2218SOL     OW18112   0.908   0.900   5.883 -0.2872  0.6606 -0.7655
 2218SOL    HW118113   0.846   0.915   5.955  1.4025 -0.0220  0.8169
 2218SOL    HW218114   0.845   0.876   5.814 -1.2246 -2.0616  1.0306
 2219SOL     OW18115   4.172   1.180   0.624 -0.5284 -0.1802  0.2015
 2219SOL    HW118116   4.121   1.154   0.547  0.4509 -2.1150  0.2199
 2219SOL    HW218117   4.200   1.265   0.590  0.8310 -1.1203 -0.9912
 2220SOL     OW18118   3.174   1.436  11.044  0.0192 -0.1094 -1.2130
 2220SOL    HW118119   3.228   1.416  10.967  0.7845  2.4314 -1.3574
 2220SOL    HW218120   3.099   1.381  11.024  1.4268 -3.2150  2.0904
 2221SOL     OW18121   0.494   1.301   0.666  0.1367 -0.2636  0.4781
 2221SOL    HW118122   0.475   1.240   0.737 -0.7351 -0.3521  0.1758
 2221SOL    HW218123   0.587   1.282   0.655  0.6269  2.4333 -0.0362
 2222SOL     OW18124   4.391   2.291   8.147 -0.5169  0.2615 -0.7794
 2222SOL    HW118125   4.302   2.326   8.142 -0.4474  0.6816  1.0900
 2222SOL    HW218126   4.391   2.257   8.057  1.6506  1.2079 -1.1258
 2223SOL     OW18127   1.428   2.119   6.616  0.3680  0.2771  0.5216
 2223SOL    HW118128   1.415   2.095   6.708  1.0634  0.5761  0.7024
 2223SOL    HW218129   1.350   2.093   6.567  1.8961 -0.2251 -1.6704
 2224SOL     OW18130   4.614   0.670   0.409 -0.6255 -0.4491 -0.4532
 2224SOL    HW118131   4.706   0.696   0.412 -0.4231 -1.1966 -0.1863
 2224SOL    HW218132   4.612   0.602   0.342  1.1355  0.3278 -1.3146
 2225SOL     OW18133   3.639   1.973  15.889 -0.2072  0.3531 -0.0473
 2225SOL    HW118134   3.588   1.913  15.835 -2.1227  1.1438  0.9011
 2225SOL    HW218135   3.609   1.946  15.976 -0.7537  1.3895  0.0924
 2226SOL     OW18136   1.045   2.115   6.738 -0.0193 -0.5829 -0.3701
 2226SOL    HW118137   1.005   2.112   6.825 -1.0229  0.0381 -0.8073
 2226SOL    HW218138   1.136   2.091   6.751  0.5797 -0.3001 -4.0350
 2227SOL     OW18139   4.026   1.166   2.619 -0.3136  0.3959  0.0119
 2227SOL    HW118140   3.997   1.083   2.581 -0.9826  0.0272  1.3428
 2227SOL    HW218141   4.032   1.220   2.540  1.0765 -1.0887 -0.8867
 2228SOL     OW18142   0.038   1.368   2.957  0.3754 -0.0570 -0.4816
 2228SOL    HW118143   0.012   1.277   2.975 -0.9137  0.8260  2.0822
 2228SOL    HW218144   0.014   1.375   2.864 -1.6017 -2.2813 -0.1588
 2229SOL     OW18145   0.966   2.680   6.887  0.1903 -0.5440  0.2857
 2229SOL    HW118146   0.950   2.727   6.969 -0.8564  0.5821 -0.5630
 2229SOL    HW218147   0.893   2.706   6.831 -1.0764  1.4920  2.8502
 2230SOL     OW18148   4.310   3.195   5.500 -0.5656 -0.1209  0.6014
 2230SOL    HW118149   4.404   3.211   5.511 -0.3972  1.1832 -2.9654
 2230SOL    HW218150   4.277   3.269   5.552 -0.0415 -0.0849  0.8856
 2231SOL     OW18151   0.935   0.127   8.447  0.4249  0.3259 -0.4684
 2231SOL    HW118152   0.882   0.206   8.440 -0.6382 -0.6293 -3.3837
 2231SOL    HW218153   0.904   0.078   8.523 -0.6540 -2.0187 -2.4093
 2232SOL     OW18154   0.999   4.013   1.951 -0.7654 -0.4679  0.1052
 2232SOL    HW118155   0.986   3.934   1.898  1.2043 -0.2417 -0.7065
 2232SOL    HW218156   1.094   4.006   1.958 -0.7154  0.1613 -0.0215
 2233SOL     OW18157   3.543   0.259  17.246 -0.4438 -0.5548  0.6316
 2233SOL    HW118158   3.531   0.178  17.196  1.8573  0.3246 -1.3027
 2233SOL    HW218159   3.638   0.273  17.246 -0.7219  1.3105 -0.3432
 2234SOL     OW18160   1.812   3.936   5.575 -0.0760  0.5171  0.2493
 2234SOL    HW118161   1.879   3.894   5.628  0.4575 -1.1703 -1.7703
 2234SOL    HW218162   1.810   4.026   5.608 -1.6410  0.2042  1.0531
 2235SOL     OW18163   3.347   3.959   0.693  0.1131  0.1376  0.2114
 2235SOL    HW118164   3.277   4.004   0.646 -0.2457 -0.4007  0.2366
 2235SOL    HW218165   3.354   3.880   0.641  2.1920  1.4080 -1.4362
 2236SOL     OW18166   1.430   1.555  14.266 -0.7575 -0.1634  0.4367
 2236SOL    HW118167   1.460   1.571  14.176 -1.7651  0.5908  0.2299
 2236SOL    HW218168   1.513   1.580  14.306 -0.2824 -2.0731  0.6436
 2237SOL     OW18169   3.222   1.121  16.281  0.2378  0.2073 -0.3313
 2237SOL    HW118170   3.314   1.093  16.283 -0.5030 -2.2493 -0.4727
 2237SOL    HW218171   3.193   1.064  16.210  2.2114 -0.1571 -0.8517
 2238SOL     OW18172   1.521   0.835   4.616  0.0142 -0.2403  0.1955
 2238SOL    HW118173   1.446   0.778   4.634  1.8210 -1.7596  2.9233
 2238SOL    HW218174   1.583   0.773   4.576 -0.8031 -1.9385  1.5683
 2239SOL     OW18175   4.445   0.367  12.883 -0.2812 -0.5845 -0.6919
 2239SOL    HW118176   4.424   0.402  12.970  0.2810 -0.8574 -0.4443
 2239SOL    HW218177   4.357   0.351  12.848 -1.1612  1.1732  0.6981
 2240SOL     OW18178   2.697   2.500   8.795  0.5735  0.6134 -0.0706
 2240SOL    HW118179   2.725   2.422   8.843  1.0824  0.6657 -0.2842
 2240SOL    HW218180   2.615   2.528   8.836  0.3657  0.1945 -0.2074
 2241SOL     OW18181   1.730   1.377   3.950 -0.1192 -1.1261  0.3264
 2241SOL    HW118182   1.648   1.416   3.978  0.8136 -0.0978  1.6040
 2241SOL    HW218183   1.702   1.297   3.905 -0.3358 -1.4909  1.1180
 2242SOL     OW18184   3.244   2.740   6.156 -0.2168  0.1907  0.0776
 2242SOL    HW118185   3.164   2.742   6.103 -1.9806 -1.3856  2.6680
 2242SOL    HW218186   3.301   2.772   6.087 -1.0190  0.3748 -0.5059
 2243SOL     OW18187   2.069   2.598   6.077  0.1006 -0.0546  0.5636
 2243SOL    HW118188   1.986   2.605   6.125  0.1068  3.5419  0.0088
 2243SOL    HW218189   2.033   2.570   5.993  1.9432  0.3059 -0.3343
 2244SOL     OW18190   1.360   4.492   4.934  0.4378  0.4286 -0.3487
 2244SOL    HW118191   1.315   4.425   4.986 -0.4165 -0.8215 -2.6838
 2244SOL    HW218192   1.368   4.436   4.856  3.4758 -0.8483  0.8740
 2245SOL     OW18193   0.954   4.222   7.541 -0.0266  0.0200  0.4601
 2245SOL    HW118194   0.867   4.258   7.559  0.5460  0.3062  2.6244
 2245SOL    HW218195   0.949   4.128   7.557  0.9847 -0.0503  0.3703
 2246SOL     OW18196   2.840   1.357  15.656 -0.0274  0.1919 -0.4920
 2246SOL    HW118197   2.749   1.348  15.629 -0.6098  0.5362  1.3757
 2246SOL    HW218198   2.857   1.451  15.653  0.5582  0.1474  1.3085
 2247SOL     OW18199   0.264   0.307   5.169  0.1781 -0.2786 -0.0929
 2247SOL    HW118200   0.285   0.258   5.250 -0.1524 -1.5556 -0.7838
 2247SOL    HW218201   0.247   0.396   5.201 -1.1226 -0.5754  0.0384
 2248SOL     OW18202   0.289   0.947   7.686  0.2828 -0.4752  0.2196
 2248SOL    HW118203   0.358   0.949   7.619 -0.6821 -0.1360 -0.7685
 2248SOL    HW218204   0.294   1.035   7.723  1.2381  0.3965 -1.9808
 2249SOL     OW18205   1.771   0.360   1.478 -0.1144 -0.2667 -0.4959
 2249SOL    HW118206   1.837   0.298   1.446 -1.8492 -0.9095 -2.8262
 2249SOL    HW218207   1.820   0.441   1.462 -1.6532  0.8274  0.3539
 2250SOL     OW18208   2.959   4.429   3.179 -0.1526 -0.1035 -0.3727
 2250SOL    HW118209   3.043   4.429   3.133 -0.1534  1.1008 -0.3538
 2250SOL    HW218210   2.922   4.347   3.144  1.4302  0.1713 -2.7237
 2251SOL     OW18211   3.044   0.419  17.314 -0.1646  0.2642 -0.1235
 2251SOL    HW118212   2.984   0.494  17.308  1.1598  1.4255  1.1539
 2251SOL    HW218213   3.126   0.465  17.295 -0.9507  0.1039 -3.8496
 2252SOL     OW18214   0.329   1.878  12.711 -0.1300  0.0884  0.1613
 2252SOL    HW118215   0.379   1.955  12.683 -0.2986  0.3545  0.5875
 2252SOL    HW218216   0.253   1.927  12.742 -0.0485 -0.6791  1.5261
 2253SOL     OW18217   1.938   3.176   7.160  0.2156 -0.8337  0.3067
 2253SOL    HW118218   1.941   3.116   7.235 -2.4302  0.3969  1.4117
 2253SOL    HW218219   1.874   3.133   7.104  0.6435 -0.9911 -0.0521
 2254SOL     OW18220   2.859   0.306  15.471  0.2208  0.0583  0.3757
 2254SOL    HW118221   2.796   0.263  15.412  0.4948 -0.8495  0.7549
 2254SOL    HW218222   2.886   0.378  15.414 -1.2436 -2.0766 -3.0524
 2255SOL     OW18223   3.891   2.446   3.753  0.3456 -0.0095  0.0936
 2255SOL    HW118224   3.909   2.370   3.698 -1.0721 -1.1050  1.1546
 2255SOL    HW218225   3.880   2.511   3.684  0.3704 -0.8169 -0.6641
 2256SOL     OW18226   3.500   0.198   2.696 -0.0364  0.0048 -0.5741
 2256SOL    HW118227   3.527   0.239   2.614 -1.1037 -1.4168 -1.6463
 2256SOL    HW218228   3.455   0.118   2.668  0.8210 -0.3376 -0.9871
 2257SOL     OW18229   3.007   3.239   6.617  0.2881  0.2387  0.3197
 2257SOL    HW118230   3.097   3.267   6.630 -0.6652  3.1110  0.6273
 2257SOL    HW218231   3.005   3.145   6.597 -1.2563  0.3861 -0.2795
 2258SOL     OW18232   2.430   4.579   4.349 -0.6112 -0.4096 -0.0654
 2258SOL    HW118233   2.393   4.490   4.348 -1.8061  0.0815  2.2693
 2258SOL    HW218234   2.523   4.557   4.354 -0.3807  0.6497  0.1985
 2259SOL     OW18235   4.712   2.135   2.748  0.2840  0.1654 -0.2455
 2259SOL    HW118236   4.624   2.171   2.763 -0.4465 -2.3955  1.5952
 2259SOL    HW218237   0.018   2.178   2.666  0.2169 -0.6151 -0.6792
 2260SOL     OW18238   0.468   1.307   2.728  0.2001  0.1640 -0.3781
 2260SOL    HW118239   0.433   1.234   2.778  0.3837  0.8741  0.7830
 2260SOL    HW218240   0.552   1.263   2.712  0.8947  1.9004 -1.6308
 2261SOL     OW18241   3.446   1.683   6.219  0.2966  0.1362 -0.1728
 2261SOL    HW118242   3.473   1.665   6.310  1.7020 -1.1903 -0.8528
 2261SOL    HW218243   3.403   1.769   6.222  2.4013  1.1901 -0.4029
 2262SOL     OW18244   3.104   2.326   6.006 -0.1907  0.3439  0.5657
 2262SOL    HW118245   3.023   2.329   6.057  0.7420 -1.7188  2.1616
 2262SOL    HW218246   3.161   2.372   6.068  0.9480 -0.6243  0.2345
 2263SOL     OW18247   2.798   3.525   8.800 -0.3268 -0.5776 -0.2399
 2263SOL    HW118248   2.880   3.541   8.753 -0.8482  3.0101  0.0921
 2263SOL    HW218249   2.795   3.429   8.802  0.7538 -0.5619  2.6078
 2264SOL     OW18250   3.599   3.688  10.143 -0.3705 -0.4916 -0.7408
 2264SOL    HW118251   3.670   3.747  10.118 -0.6018 -0.2260 -0.7680
 2264SOL    HW218252   3.553   3.693  10.059  1.3348 -0.1210 -1.6554
 2265SOL     OW18253   4.573   1.815   6.953  0.1549 -0.4158 -0.1577
 2265SOL    HW118254   4.602   1.832   6.864  1.0259 -0.1638  0.1723
 2265SOL    HW218255   4.653   1.785   6.995 -0.1399 -1.0224 -0.0252
 2266SOL     OW18256   3.545   3.352   5.873 -0.2967  0.2224  0.1098
 2266SOL    HW118257   3.478   3.329   5.808 -0.6756  1.0480  0.2108
 2266SOL    HW218258   3.591   3.428   5.838 -2.1188  1.3504  0.1837
 2267SOL     OW18259   1.937   2.193   1.128  0.3249 -0.2660 -0.4502
 2267SOL    HW118260   1.848   2.175   1.097 -0.9375 -0.7106  3.3045
 2267SOL    HW218261   1.957   2.100   1.136  1.8526  0.1374  0.3831
 2268SOL     OW18262   1.988   2.863  17.537  0.2324 -0.7332 -0.1930
 2268SOL    HW118263   1.909   2.810  17.531 -0.1447  0.1288 -2.9138
 2268SOL    HW218264   1.956   2.931  17.478 -0.2078 -2.0302 -1.4481
 2269SOL     OW18265   0.605   1.804  11.940  0.2541  0.8919  0.0562
 2269SOL    HW118266   0.623   1.711  11.958 -1.0165  0.2924 -1.8256
 2269SOL    HW218267   0.545   1.801  11.866  1.1576 -0.5572 -0.6367
 2270SOL     OW18268   1.267   3.319   1.111  0.2798  0.4678  0.3944
 2270SOL    HW118269   1.303   3.238   1.075 -0.2241 -0.1137  1.1879
 2270SOL    HW218270   1.312   3.377   1.050 -1.0806  0.7993 -0.2905
 2271SOL     OW18271   4.622   0.990  11.901 -0.0478 -0.0556 -0.4056
 2271SOL    HW118272   4.639   0.919  11.963 -1.2136 -0.5619 -0.6626
 2271SOL    HW218273   4.577   1.051  11.960 -0.7434 -1.4295  0.4914
 2272SOL     OW18274   3.626   3.564   0.876 -0.1139  0.2465  0.1107
 2272SOL    HW118275   3.640   3.608   0.792  1.7232  1.1381  0.8772
 2272SOL    HW218276   3.567   3.489   0.867  0.7524 -0.1943 -1.9986
 2273SOL     OW18277   0.029   3.514   8.632 -0.3969 -0.3496 -0.1887
 2273SOL    HW118278   0.079   3.447   8.586 -0.6808 -1.2543  0.7931
 2273SOL    HW218279   4.673   3.460   8.655  2.3153 -3.0043  2.5109
 2274SOL     OW18280   0.469   1.706  11.098  0.2154  0.3872  0.0136
 2274SOL    HW118281   0.405   1.636  11.112  0.5312  0.0989  0.0130
 2274SOL    HW218282   0.421   1.776  11.143 -0.0129  0.5462 -0.4849
 2275SOL     OW18283   4.513   3.452   6.367 -0.5696  0.3124 -0.7849
 2275SOL    HW118284   4.454   3.396   6.315  0.7497 -0.5404 -1.3810
 2275SOL    HW218285   4.587   3.476   6.312 -0.9924  0.5505 -1.2570
 2276SOL     OW18286   0.009   3.566   1.475  0.1912 -0.5441 -0.1758
 2276SOL    HW118287   4.674   3.487   1.478 -1.9505  0.9674  0.5871
 2276SOL    HW218288   0.024   3.575   1.381  0.7871  0.0024 -0.0268
 2277SOL     OW18289   2.293   1.046   8.219 -0.3714  0.0970  0.9135
 2277SOL    HW118290   2.312   1.133   8.256  1.1130 -0.8505  2.3922
 2277SOL    HW218291   2.336   1.047   8.134 -2.4677 -0.1257 -0.1555
 2278SOL     OW18292   2.276   4.186   6.460 -0.0969  0.6079 -0.6766
 2278SOL    HW118293   2.271   4.113   6.521  2.5170  0.3439 -0.7873
 2278SOL    HW218294   2.315   4.259   6.509 -0.6175  1.1534 -1.0588
 2279SOL     OW18295   3.681   0.825   4.616  0.1157 -0.1438  0.3307
 2279SOL    HW118296   3.603   0.771   4.624 -0.0162  0.0715  0.5100
 2279SOL    HW218297   3.651   0.915   4.624 -0.2108 -0.3613  1.6678
 2280SOL     OW18298   2.088   0.879  10.969 -1.2082  0.3656  0.2930
 2280SOL    HW118299   2.038   0.800  10.952  0.6326 -1.3702  2.9391
 2280SOL    HW218300   2.018   0.942  10.951 -1.5956 -0.1950 -0.1162
 2281SOL     OW18301   2.201   3.424   8.405 -0.4192 -0.2131 -0.2351
 2281SOL    HW118302   2.285   3.452   8.370  0.3210  0.4166  2.0810
 2281SOL    HW218303   2.143   3.448   8.332 -3.4532 -4.2249  0.8177
 2282SOL     OW18304   3.981   1.003   1.507 -0.4462  0.2899 -0.3165
 2282SOL    HW118305   3.939   0.948   1.441 -2.1817  1.1335  0.0701
 2282SOL    HW218306   4.002   1.074   1.446 -0.7434  0.3240 -0.3823
 2283SOL     OW18307   0.117   4.608   0.877  0.5854  0.1352  0.3146
 2283SOL    HW118308   0.173   4.541   0.836  1.3890  1.0251 -0.0565
 2283SOL    HW218309   0.062   4.632   0.803  0.6851  0.7938  0.4568
 2284SOL     OW18310   2.315   2.380  12.666 -0.3618 -0.2456  0.1306
 2284SOL    HW118311   2.405   2.374  12.696  0.0705 -0.0678 -1.1551
 2284SOL    HW218312   2.273   2.420  12.743  0.1483 -2.7578  1.7258
 2285SOL     OW18313   2.711   4.318   4.428  0.4019  0.1149  0.2834
 2285SOL    HW118314   2.754   4.404   4.427  0.1334  0.2467  0.0185
 2285SOL    HW218315   2.668   4.320   4.514 -0.8941 -0.4366 -0.3654
 2286SOL     OW18316   0.793   2.513   4.526 -0.2090  0.3552  0.3266
 2286SOL    HW118317   0.720   2.565   4.558 -0.0010 -0.2685  1.7869
 2286SOL    HW218318   0.773   2.520   4.432  0.3735  1.7193  0.3045
 2287SOL     OW18319   4.124   0.336   6.117 -0.5175  0.1228  0.0090
 2287SOL    HW118320   4.105   0.426   6.145  0.4750  0.5862 -0.7595
 2287SOL    HW218321   4.055   0.288   6.162  0.3044  0.6540  1.8265
 2288SOL     OW18322   4.152   1.085   6.779 -0.4968 -0.0274 -0.5777
 2288SOL    HW118323   4.079   1.032   6.747 -2.2816  1.8749  0.3048
 2288SOL    HW218324   4.145   1.169   6.733 -0.6234  1.0208  1.3421
 2289SOL     OW18325   4.558   0.629   0.925 -0.9025  0.1240 -0.0629
 2289SOL    HW118326   4.545   0.641   0.831  0.4859 -2.5390 -0.5832
 2289SOL    HW218327   4.472   0.609   0.963  0.5474 -0.6479  2.8335
 2290SOL     OW18328   1.243   2.057  16.041 -0.5798  0.1841 -0.0225
 2290SOL    HW118329   1.232   2.037  15.948 -0.2769  1.8484 -0.4091
 2290SOL    HW218330   1.337   2.071  16.044 -0.8821  2.0192  0.7921
 2291SOL     OW18331   3.243   2.264   8.826  0.3031 -0.6075 -0.3190
 2291SOL    HW118332   3.250   2.195   8.892  1.4060  0.6439  0.8658
 2291SOL    HW218333   3.207   2.332   8.883 -2.1974  0.1285 -2.8050
 2292SOL     OW18334   1.924   1.548  10.509  0.1041  0.0438  0.0953
 2292SOL    HW118335   1.854   1.554  10.574  2.9146  0.3166  3.0872
 2292SOL    HW218336   1.886   1.483  10.449 -0.0639 -0.1157  0.3742
 2293SOL     OW18337   3.678   0.518  12.635 -0.3030 -0.0661 -0.1122
 2293SOL    HW118338   3.722   0.598  12.608 -2.8295  0.8971 -1.3568
 2293SOL    HW218339   3.755   0.461  12.630 -0.2500  0.0656 -0.9078
 2294SOL     OW18340   4.687   3.716   7.645 -0.1529 -0.5148  0.4522
 2294SOL    HW118341   0.034   3.764   7.694  1.1449 -1.3698 -0.4850
 2294SOL    HW218342   0.012   3.632   7.635  0.3210 -0.3771  1.5030
 2295SOL     OW18343   0.368   4.239   5.082 -0.1969 -0.0547 -0.4316
 2295SOL    HW118344   0.286   4.286   5.071  0.1718  0.6025 -0.3838
 2295SOL    HW218345   0.425   4.264   5.010  0.4359  0.3302  0.2030
 2296SOL     OW18346   1.874   0.365   9.789 -0.5218 -0.6483  0.5455
 2296SOL    HW118347   1.849   0.457   9.785 -0.6768 -0.6150  2.3625
 2296SOL    HW218348   1.942   0.364   9.721 -1.7969  2.1734 -0.7792
 2297SOL     OW18349   3.999   0.384   9.989 -0.0880  0.1542  0.2835
 2297SOL    HW118350   3.928   0.449   9.991 -0.5335 -0.2714 -1.4472
 2297SOL    HW218351   4.066   0.428  10.042 -0.9268  3.0947 -1.0700
 2298SOL     OW18352   4.306   2.721   9.710 -0.1738  0.2489 -0.8183
 2298SOL    HW118353   4.239   2.683   9.766 -0.2290  1.9936  0.3165
 2298SOL    HW218354   4.380   2.689   9.761 -0.8891 -0.2392 -0.0829
 2299SOL     OW18355   2.302   2.791   2.461  0.6074 -0.4787  0.1633
 2299SOL    HW118356   2.251   2.729   2.409 -0.5066 -0.1909  0.9284
 2299SOL    HW218357   2.339   2.846   2.392 -0.8062 -1.8475 -1.6891
 2300SOL     OW18358   4.709   1.678   9.147 -0.0180 -0.1749  0.2070
 2300SOL    HW118359   4.674   1.741   9.211  2.0602  2.0242 -0.8046
 2300SOL    HW218360   0.078   1.716   9.150 -0.8909  1.9018  0.0134
 2301SOL     OW18361   0.329   3.271   7.662 -0.2969 -0.0617  0.0147
 2301SOL    HW118362   0.298   3.361   7.655 -0.4475 -0.1900 -1.0479
 2301SOL    HW218363   0.422   3.274   7.684 -0.0145  0.9564 -1.2924
 2302SOL     OW18364   3.829   4.147   6.395  0.3790 -0.3615 -0.2390
 2302SOL    HW118365   3.842   4.099   6.313  0.1935 -1.8571  0.6129
 2302SOL    HW218366   3.912   4.190   6.415 -0.9461  0.9718  2.4575
 2303SOL     OW18367   4.665   4.134   3.496  0.5002  0.1764 -0.2220
 2303SOL    HW118368   0.015   4.121   3.431 -0.3740  0.9539 -1.3169
 2303SOL    HW218369   4.695   4.102   3.581 -0.1631 -2.0416 -0.8185
 2304SOL     OW18370   3.537   3.490   8.122 -0.3824  0.2302  0.7357
 2304SOL    HW118371   3.485   3.571   8.120  1.0939  1.1573  0.3052
 2304SOL    HW218372   3.617   3.518   8.166 -0.8777  1.8647  0.6115
 2305SOL     OW18373   4.633   0.657   8.567  0.3022 -0.0073  0.2026
 2305SOL    HW118374   4.659   0.657   8.659  2.8401 -0.2262 -0.4964
 2305SOL    HW218375   4.654   0.745   8.536  2.3457 -0.7227 -0.4364
 2306SOL     OW18376   3.138   2.538  17.505  0.1653 -0.7606 -0.4700
 2306SOL    HW118377   3.106   2.471  17.565 -1.1368 -0.2550 -0.5955
 2306SOL    HW218378   3.161   2.478  17.433 -0.7552  0.2452 -1.6068
 2307SOL     OW18379   3.361   2.751   4.882 -0.0038  0.6994  0.0042
 2307SOL    HW118380   3.449   2.767   4.917  0.1289 -1.4807  0.6373
 2307SOL    HW218381   3.331   2.677   4.934 -0.8019  0.5365 -0.6938
 2308SOL     OW18382   1.410   1.761   8.829  0.1929 -0.5556 -0.4174
 2308SOL    HW118383   1.496   1.752   8.868  0.5738 -0.2968 -1.2055
 2308SOL    HW218384   1.377   1.672   8.847  0.2286 -0.3330  0.7547
 2309SOL     OW18385   0.537   1.726   9.156  0.2374  0.2195 -0.2399
 2309SOL    HW118386   0.495   1.805   9.122  1.6985  1.1163 -0.0088
 2309SOL    HW218387   0.590   1.701   9.080  0.6803 -0.5645  0.3312
 2310SOL     OW18388   4.411   3.584   7.200 -0.0471 -0.0460 -0.4414
 2310SOL    HW118389   4.415   3.680   7.208  0.3230 -0.1530  0.5950
 2310SOL    HW218390   4.328   3.563   7.242  0.2274  0.8188  0.5418
 2311SOL     OW18391   0.723   2.388   2.507  0.4547  0.1771 -0.3765
 2311SOL    HW118392   0.751   2.297   2.512  0.5929  0.0671 -3.1444
 2311SOL    HW218393   0.808   2.428   2.487  1.1385 -1.7760 -1.3505
 2312SOL     OW18394   1.153   4.096   7.299  0.1058  0.1016 -0.0760
 2312SOL    HW118395   1.107   4.023   7.257 -0.3594 -0.5258  1.4821
 2312SOL    HW218396   1.234   4.106   7.249 -0.6282 -1.4356 -1.5853
 2313SOL     OW18397   0.008   0.662   6.915 -0.5014 -0.1096 -0.2474
 2313SOL    HW118398   0.054   0.578   6.912  0.7582  0.6396 -2.1595
 2313SOL    HW218399   0.076   0.720   6.879 -0.1267  0.0516  0.7229
 2314SOL     OW18400   0.964   2.979  12.911 -0.2545  0.3904 -0.3525
 2314SOL    HW118401   1.043   3.030  12.928  0.8012 -0.5785 -2.3400
 2314SOL    HW218402   0.991   2.938  12.829 -1.6537  1.3560 -1.2922
 2315SOL     OW18403   1.546   4.604  15.112  0.0386  0.6001 -0.3675
 2315SOL    HW118404   1.527   4.697  15.098  1.2572  0.8907 -0.0717
 2315SOL    HW218405   1.524   4.579  15.022 -1.0115 -4.2636  1.3018
 2316SOL     OW18406   2.888   1.754   4.599  0.4307 -0.6425 -0.1516
 2316SOL    HW118407   2.843   1.838   4.608  0.5971 -0.8159  2.2947
 2316SOL    HW218408   2.890   1.734   4.506  0.2383 -1.3698  0.0056
 2317SOL     OW18409   1.809   3.238   2.779  0.2803  0.0482 -0.1042
 2317SOL    HW118410   1.888   3.291   2.786  1.3976 -1.5495 -0.6270
 2317SOL    HW218411   1.756   3.305   2.736 -0.5053 -0.4188  0.1318
 2318SOL     OW18412   2.818   1.049   2.687  0.0896  0.0061  0.0975
 2318SOL    HW118413   2.886   1.083   2.628 -0.6179 -1.1284 -1.3820
 2318SOL    HW218414   2.847   1.076   2.774  0.1363 -0.4841  0.2362
 2319SOL     OW18415   3.634   3.314  16.611 -0.3811 -0.1900 -0.0571
 2319SOL    HW118416   3.549   3.302  16.652 -1.1466 -1.9847 -2.1431
 2319SOL    HW218417   3.621   3.385  16.548  1.0702  0.9926  0.9686
 2320SOL     OW18418   3.014   0.365  11.153 -0.0449  0.2499  0.5520
 2320SOL    HW118419   2.919   0.361  11.139  0.1428  0.2538 -0.6939
 2320SOL    HW218420   3.030   0.287  11.207  0.8591  0.1206  0.1033
 2321SOL     OW18421   3.572   0.026   4.588 -0.7327 -0.0036  0.3477
 2321SOL    HW118422   3.640   4.680   4.575 -1.3881 -0.6785  0.3200
 2321SOL    HW218423   3.626   0.105   4.596 -0.5485 -0.1192  0.2237
 2322SOL     OW18424   3.582   0.826   6.382 -0.0606  0.6393 -0.0395
 2322SOL    HW118425   3.508   0.766   6.372  0.0556  0.5750 -0.5057
 2322SOL    HW218426   3.579   0.875   6.300  0.6930  1.5952  0.5090
 2323SOL     OW18427   0.198   0.601   4.536  0.4325 -0.5105  0.5313
 2323SOL    HW118428   0.230   0.691   4.538 -1.3323  0.1425 -0.0831
 2323SOL    HW218429   0.279   0.551   4.538 -0.1357 -1.4809 -0.4350
 2324SOL     OW18430   1.500   0.383   6.711  0.3845 -0.0603  0.2149
 2324SOL    HW118431   1.467   0.425   6.631 -2.9812  0.2012  1.7458
 2324SOL    HW218432   1.479   0.293   6.688  1.9846 -0.4233  0.1734
 2325SOL     OW18433   1.820   0.217   7.457  0.1931  0.8613 -0.0985
 2325SOL    HW118434   1.740   0.233   7.507  0.6889  1.2323  0.5744
 2325SOL    HW218435   1.788   0.155   7.392  1.6881 -1.0286  0.9620
 2326SOL     OW18436   1.514   0.522   2.974  0.2795 -0.1824  0.4900
 2326SOL    HW118437   1.596   0.523   2.924 -0.0460 -1.8966 -0.0581
 2326SOL    HW218438   1.488   0.614   2.965  0.8783  0.0814  1.3899
 2327SOL     OW18439   2.038   0.118   0.495 -0.1742 -0.2970  0.2296
 2327SOL    HW118440   1.986   0.042   0.521 -1.9303  1.0610  0.7032
 2327SOL    HW218441   2.128   0.090   0.510 -0.4640 -1.3115  0.0439
 2328SOL     OW18442   4.067   2.170   8.587  0.5830  0.4751 -0.1059
 2328SOL    HW118443   4.115   2.087   8.584 -1.0053 -0.4762  1.0452
 2328SOL    HW218444   4.041   2.197   8.499  0.8801  0.4829 -0.1907
 2329SOL     OW18445   0.401   2.135   1.036 -0.2854  0.1345  0.4921
 2329SOL    HW118446   0.408   2.176   1.122  1.6484 -1.6768  1.1691
 2329SOL    HW218447   0.492   2.150   1.013 -0.2045 -1.2724 -0.1305
 2330SOL     OW18448   2.258   1.279   2.866 -0.4610  0.2545 -0.5790
 2330SOL    HW118449   2.282   1.267   2.957 -1.9765  0.8073 -0.1147
 2330SOL    HW218450   2.195   1.351   2.861  1.1247  1.6540 -0.6669
 2331SOL     OW18451   1.048   2.279   2.038  0.1309 -0.1329 -0.2360
 2331SOL    HW118452   1.079   2.227   2.112 -0.0335 -1.0131 -0.7839
 2331SOL    HW218453   0.965   2.314   2.070 -0.1934 -0.1928 -1.0173
 2332SOL     OW18454   4.160   4.371   1.404  0.1478 -0.0317 -0.4940
 2332SOL    HW118455   4.149   4.279   1.379  2.0820 -0.2842 -0.4506
 2332SOL    HW218456   4.173   4.367   1.499 -0.2386  1.3121 -0.3913
 2333SOL     OW18457   0.531   1.129   1.915  0.0344  0.3605 -0.7080
 2333SOL    HW118458   0.465   1.086   1.861 -0.2775 -0.1819  0.1032
 2333SOL    HW218459   0.482   1.205   1.948 -1.6403 -0.5393 -1.0791
 2334SOL     OW18460   4.133   2.521   8.299 -0.2231 -1.1013  0.2459
 2334SOL    HW118461   4.219   2.486   8.323 -0.6227 -0.8664  2.0079
 2334SOL    HW218462   4.150   2.614   8.290  1.4528 -1.4829 -0.5127
 2335SOL     OW18463   0.008   1.832   4.414  0.5473  0.3513 -0.2239
 2335SOL    HW118464   4.693   1.904   4.467  0.5179  0.7554 -0.7916
 2335SOL    HW218465   0.103   1.846   4.419  1.0392 -3.3283  0.2817
 2336SOL     OW18466   2.791   4.027   7.216 -0.1569  0.6384  0.6952
 2336SOL    HW118467   2.828   3.965   7.278 -0.2916  0.9714  1.1106
 2336SOL    HW218468   2.738   4.085   7.272  0.6292  1.5391  0.5010
 2337SOL     OW18469   0.473   1.843   0.285 -0.0395 -0.0446 -0.0849
 2337SOL    HW118470   0.432   1.841   0.198  1.9130  1.1117 -1.0431
 2337SOL    HW218471   0.565   1.825   0.264  0.8511  2.4903  1.6243
 2338SOL     OW18472   1.059   2.806   2.967  0.3253 -0.2182 -0.4882
 2338SOL    HW118473   1.088   2.730   3.017  0.4234  0.0634 -0.1186
 2338SOL    HW218474   1.104   2.796   2.883 -0.4763 -0.1640 -0.9209
 2339SOL     OW18475   1.381   1.128   6.078  0.2092  0.0879  0.1183
 2339SOL    HW118476   1.442   1.081   6.022 -0.9255 -2.3775  0.9245
 2339SOL    HW218477   1.298   1.130   6.030  0.8593  1.9427 -0.9485
 2340SOL     OW18478   2.552   0.038   7.532  0.7971 -0.5077  0.8093
 2340SOL    HW118479   2.569   0.021   7.439  1.4434 -1.2483  1.0634
 2340SOL    HW218480   2.487   4.690   7.552  0.2969 -0.0730  0.6406
 2341SOL     OW18481   2.078   2.038  16.867 -0.2758 -0.0431 -0.0399
 2341SOL    HW118482   2.052   2.116  16.818  1.3960  1.1748  1.0218
 2341SOL    HW218483   2.114   1.986  16.795 -1.4840  1.3504 -1.6712
 2342SOL     OW18484   4.401   4.101  13.886  0.5808  0.5120 -0.6229
 2342SOL    HW118485   4.422   4.162  13.815 -2.8774  0.6831 -1.4585
 2342SOL    HW218486   4.339   4.155  13.935  0.6220  1.5902 -1.7782
 2343SOL     OW18487   3.259   0.935   4.953 -0.5742 -0.2860  0.0921
 2343SOL    HW118488   3.177   0.901   4.918 -0.6700 -0.2074  0.2420
 2343SOL    HW218489   3.296   0.849   4.974  2.4721  1.5897  2.4412
 2344SOL     OW18490   0.903   0.064   3.672  0.1804 -0.0536 -0.1392
 2344SOL    HW118491   0.868   4.700   3.642 -0.9660  0.9965 -1.7149
 2344SOL    HW218492   0.933   0.017   3.750  0.5215 -0.4062 -0.4864
 2345SOL     OW18493   3.160   1.887  10.182 -0.5702 -0.1676  0.1069
 2345SOL    HW118494   3.108   1.823  10.230 -1.0631 -0.4927 -0.8568
 2345SOL    HW218495   3.150   1.959  10.244 -2.1844 -1.1044  0.9445
 2346SOL     OW18496   1.643   4.524   4.639  0.1587 -0.2874 -0.1290
 2346SOL    HW118497   1.626   4.515   4.733  0.5339 -2.4662 -0.2559
 2346SOL    HW218498   1.733   4.555   4.632 -0.9773  3.1886  0.7730
 2347SOL     OW18499   3.526   0.510   3.114 -0.4193 -0.7504  0.1502
 2347SOL    HW118500   3.493   0.443   3.054  0.2100 -1.6803  0.8418
 2347SOL    HW218501   3.608   0.536   3.073 -1.0345  1.6280  0.4612
 2348SOL     OW18502   0.255   4.447   1.509  0.0148  0.0170 -0.1069
 2348SOL    HW118503   0.187   4.512   1.525  0.1392  0.1325 -0.0454
 2348SOL    HW218504   0.261   4.389   1.585 -1.0644  2.3044  1.7237
 2349SOL     OW18505   2.129   0.691   1.435 -0.6064  0.5795  0.8611
 2349SOL    HW118506   2.178   0.610   1.446  2.0973  2.0199 -0.6926
 2349SOL    HW218507   2.132   0.709   1.341  4.2426  1.7978  1.2711
 2350SOL     OW18508   1.963   4.524  13.323  0.0910 -0.4082 -0.0925
 2350SOL    HW118509   2.045   4.568  13.304 -1.4178  2.0648 -0.9620
 2350SOL    HW218510   1.930   4.508  13.235  0.3903  2.2504 -0.6586
 2351SOL     OW18511   2.932   3.893   9.971 -0.3468  0.1854 -0.2042
 2351SOL    HW118512   2.881   3.817   9.943 -1.9797  1.3835 -0.4837
 2351SOL    HW218513   2.886   3.931  10.046 -0.5698  0.6359 -0.5739
 2352SOL     OW18514   0.392   0.604  11.782 -0.6818 -0.0389 -0.0877
 2352SOL    HW118515   0.323   0.549  11.818 -1.2404 -0.3533 -1.6696
 2352SOL    HW218516   0.372   0.596  11.689 -0.3669  0.0497 -0.1641
 2353SOL     OW18517   1.494   4.086   3.457 -0.1139 -0.7801  0.0032
 2353SOL    HW118518   1.512   4.049   3.371 -1.1218 -3.3861  0.9227
 2353SOL    HW218519   1.552   4.024   3.501 -0.6078 -0.1696  1.5262
 2354SOL     OW18520   0.709   2.528   7.562 -0.1556 -0.7987 -0.0863
 2354SOL    HW118521   0.671   2.586   7.628  2.1754  0.0773  0.4888
 2354SOL    HW218522   0.783   2.490   7.608 -0.1305 -1.2357 -0.5020
 2355SOL     OW18523   1.149   3.345   5.399  0.0946 -0.3885 -0.3042
 2355SOL    HW118524   1.073   3.400   5.418 -0.9396 -1.5350 -1.1237
 2355SOL    HW218525   1.120   3.265   5.442 -0.5358  0.1173  0.2192
 2356SOL     OW18526   0.664   2.290   3.905 -0.2101  0.1969 -0.0089
 2356SOL    HW118527   0.657   2.213   3.961 -1.4254  1.2069  1.2228
 2356SOL    HW218528   0.685   2.363   3.964  0.0357  1.4430 -1.6465
 2357SOL     OW18529   0.677   0.520  11.889  0.2819  0.7188 -0.0577
 2357SOL    HW118530   0.755   0.551  11.841  0.9237  0.1316  0.6119
 2357SOL    HW218531   0.723   0.476  11.960 -1.5253  0.4311  0.9374
 2358SOL     OW18532   1.382   0.848  14.830  0.0390 -0.0557  0.9618
 2358SOL    HW118533   1.465   0.828  14.873  1.0240 -1.8928 -1.7715
 2358SOL    HW218534   1.397   0.816  14.741 -1.6839 -0.3740  0.7850
 2359SOL     OW18535   2.867   0.983   3.195 -0.2823  0.1612  0.4443
 2359SOL    HW118536   2.791   1.035   3.220 -1.1713 -0.6375 -0.5889
 2359SOL    HW218537   2.832   0.898   3.170  1.4817 -0.1304 -1.0553
 2360SOL     OW18538   1.527   1.340   5.870  0.1011  0.1574  0.1587
 2360SOL    HW118539   1.555   1.426   5.900  0.8645  0.1822 -0.6467
 2360SOL    HW218540   1.435   1.366   5.876 -0.6686 -2.4178 -0.5695
 2361SOL     OW18541   0.754   0.213   3.280 -0.6590  0.3004  0.2069
 2361SOL    HW118542   0.672   0.251   3.248 -0.2641  0.8007 -0.1975
 2361SOL    HW218543   0.802   0.295   3.276  1.7511 -1.1177  0.1066
 2362SOL     OW18544   1.598   0.700   8.101 -0.1374 -0.2416  0.1492
 2362SOL    HW118545   1.531   0.668   8.040 -0.0127 -1.1733  0.4928
 2362SOL    HW218546   1.555   0.679   8.184 -0.4882  0.5418  0.1594
 2363SOL     OW18547   2.227   1.886  17.089  0.2431 -0.2831 -0.4443
 2363SOL    HW118548   2.218   1.888  16.994 -1.1549 -0.7367 -0.3168
 2363SOL    HW218549   2.158   1.950  17.102 -1.0948 -1.5618 -1.2144
 2364SOL     OW18550   0.599   3.786   7.650 -0.1702  0.0037 -0.0208
 2364SOL    HW118551   0.581   3.702   7.608 -1.4631  0.1113  0.3230
 2364SOL    HW218552   0.604   3.767   7.743  2.0896  0.0348 -0.1228
 2365SOL     OW18553   4.073   0.672   7.372 -0.0818  0.2930  0.3763
 2365SOL    HW118554   4.146   0.616   7.397 -0.6795 -0.7659 -0.2672
 2365SOL    HW218555   4.108   0.758   7.395 -0.8411  0.2924  1.5416
 2366SOL     OW18556   0.044   2.200   5.199 -0.0858 -0.1646 -0.0162
 2366SOL    HW118557   0.020   2.113   5.168 -0.7714 -0.2972  0.9189
 2366SOL    HW218558   4.692   2.211   5.261  0.2498  1.8996  0.0353
 2367SOL     OW18559   2.405   4.150   7.568  0.0535 -0.3678 -0.2310
 2367SOL    HW118560   2.370   4.115   7.487 -0.8761 -0.1766  0.0889
 2367SOL    HW218561   2.437   4.075   7.620  3.7854  1.7596  0.5179
 2368SOL     OW18562   1.685   2.622   8.885 -0.4474 -0.0287 -0.3765
 2368SOL    HW118563   1.594   2.594   8.874 -0.0613 -1.6486  0.4698
 2368SOL    HW218564   1.721   2.534   8.871  1.3329  0.6366  0.0197
 2369SOL     OW18565   1.574   0.960   7.457 -0.1123  0.4955  0.2620
 2369SOL    HW118566   1.558   1.053   7.475 -0.7056  0.5151 -0.3617
 2369SOL    HW218567   1.653   0.941   7.507  0.5049  1.7817 -0.2234
 2370SOL     OW18568   4.341   2.490  10.303 -0.1431  0.0156 -0.2082
 2370SOL    HW118569   4.275   2.560  10.304 -0.2143 -0.0726  2.7269
 2370SOL    HW218570   4.392   2.504  10.383 -2.2257 -2.7252  1.6031
 2371SOL     OW18571   4.100   2.266   6.152  0.0222  0.2410  0.0720
 2371SOL    HW118572   4.021   2.239   6.106 -0.9000 -0.0004  1.7900
 2371SOL    HW218573   4.061   2.317   6.223 -0.5868  0.6607 -0.5662
 2372SOL     OW18574   4.315   3.800   7.969 -0.3551 -0.3882  0.0380
 2372SOL    HW118575   4.267   3.864   8.022 -2.8096 -1.5642 -0.7714
 2372SOL    HW218576   4.255   3.787   7.896 -1.4167  0.6184  0.7411
 2373SOL     OW18577   3.846   4.647   5.124 -0.3117 -0.4992  0.4556
 2373SOL    HW118578   3.905   0.002   5.139 -0.6072 -0.3942  1.0709
 2373SOL    HW218579   3.900   4.568   5.114 -0.1691  0.2356 -4.5714
 2374SOL     OW18580   0.829   3.182  10.009 -0.1917 -0.1341 -0.6992
 2374SOL    HW118581   0.808   3.089   9.999  0.0747 -0.2184 -0.4747
 2374SOL    HW218582   0.876   3.181  10.093  2.5872  0.8259 -2.2577
 2375SOL     OW18583   0.421   0.848   7.130  0.7020  0.3781 -0.1715
 2375SOL    HW118584   0.372   0.808   7.059 -0.8267  1.1170  0.4553
 2375SOL    HW218585   0.432   0.937   7.095 -0.4200  0.4470 -0.3297
 2376SOL     OW18586   3.705   3.993   2.884  0.6470 -0.3328 -0.1678
 2376SOL    HW118587   3.780   3.981   2.942 -0.3442 -0.1609  1.1403
 2376SOL    HW218588   3.724   3.915   2.832 -1.3495 -0.2485 -1.0343
 2377SOL     OW18589   1.604   1.918   6.512 -0.4049  0.4973  0.1910
 2377SOL    HW118590   1.555   1.864   6.450 -1.5425  1.5537  0.1887
 2377SOL    HW218591   1.536   1.981   6.535 -0.5066 -0.4448  2.3925
 2378SOL     OW18592   3.464   4.168   5.453  0.1543  0.3815 -0.1593
 2378SOL    HW118593   3.522   4.243   5.441 -1.4781  1.9078  1.5638
 2378SOL    HW218594   3.378   4.207   5.443 -0.0970  0.0189  0.6051
 2379SOL     OW18595   0.676   1.634   8.555 -0.1987  0.4558  0.5795
 2379SOL    HW118596   0.682   1.685   8.474  0.2929  1.0905  1.0189
 2379SOL    HW218597   0.763   1.594   8.560 -1.4139 -2.2203  0.3361
 2380SOL     OW18598   4.376   2.496   8.412  0.1121  0.3594 -0.3253
 2380SOL    HW118599   4.376   2.402   8.429 -0.7279  0.1465 -1.4943
 2380SOL    HW218600   4.409   2.529   8.495  1.4014 -0.4074 -0.5201
 2381SOL     OW18601   0.019   4.255   3.119  0.0469  0.8178 -0.4454
 2381SOL    HW118602   0.075   4.321   3.078  1.5238  0.5097  1.1244
 2381SOL    HW218603   4.707   4.204   3.044  1.9671 -0.2714 -0.4776
 2382SOL     OW18604   2.407   2.945   2.281 -0.1660  0.3853  0.0659
 2382SOL    HW118605   2.366   3.028   2.255  0.2254  0.9024  1.0827
 2382SOL    HW218606   2.492   2.976   2.314  1.2897 -1.9760 -1.4888
 2383SOL     OW18607   1.389   3.176   6.471  0.5327  0.8932  0.0585
 2383SOL    HW118608   1.346   3.132   6.398  0.9759  0.5647 -0.0029
 2383SOL    HW218609   1.459   3.113   6.487 -0.8908 -0.4538  0.8956
 2384SOL     OW18610   0.322   2.548   8.358  0.4998 -0.3001  0.2965
 2384SOL    HW118611   0.242   2.597   8.337 -0.1779 -1.9567 -1.0680
 2384SOL    HW218612   0.275   2.474   8.399 -0.2611  0.7780  1.3756
 2385SOL     OW18613   1.721   1.535   0.085  0.4372  0.2175  0.0253
 2385SOL    HW118614   1.769   1.502   0.161  1.1555 -1.2139 -1.0516
 2385SOL    HW218615   1.660   1.461   0.077 -1.8259  2.2109 -1.2116
 2386SOL     OW18616   0.951   0.771   7.570 -0.0811 -0.0916 -0.0845
 2386SOL    HW118617   1.029   0.786   7.516  1.0797 -0.7159  1.4298
 2386SOL    HW218618   0.900   0.716   7.510  0.8150  0.2944 -1.2056
 2387SOL     OW18619   0.709   1.901   0.110  0.0177 -0.2862 -0.1392
 2387SOL    HW118620   0.701   1.997   0.106  2.6089 -0.0450  0.0821
 2387SOL    HW218621   0.789   1.887   0.059  1.1281  2.3723  0.8438
 2388SOL     OW18622   3.658   4.572   6.214 -0.3144  0.3856  0.1865
 2388SOL    HW118623   3.624   4.496   6.261 -1.1140  0.1600 -0.7397
 2388SOL    HW218624   3.748   4.576   6.245 -0.5775 -1.2184  1.1597
 2389SOL     OW18625   4.562   0.854   7.625 -0.6757  0.3433  0.1841
 2389SOL    HW118626   4.621   0.879   7.696 -0.8443  1.1064  0.0558
 2389SOL    HW218627   4.586   0.762   7.613  1.1719  0.7047  1.0362
 2390SOL     OW18628   3.928   3.535   8.534  0.1317  0.2676 -0.2843
 2390SOL    HW118629   3.980   3.597   8.483  0.8846  0.6882  1.0047
 2390SOL    HW218630   3.880   3.594   8.593 -2.0594  0.7711 -2.5718
 2391SOL     OW18631   3.366   0.799  16.748  0.1637  0.5120 -0.0591
 2391SOL    HW118632   3.323   0.867  16.799 -1.6275 -0.6143 -0.0602
 2391SOL    HW218633   3.426   0.761  16.813  0.7198  0.8853 -0.3650
 2392SOL     OW18634   0.733   1.439  13.077 -0.4505 -0.1126  0.4744
 2392SOL    HW118635   0.662   1.374  13.083  1.1314 -2.1905 -3.2613
 2392SOL    HW218636   0.685   1.522  13.084  0.1656  0.3932 -1.5737
 2393SOL     OW18637   0.953   4.663   2.463  0.8897  0.4411  0.0743
 2393SOL    HW118638   1.035   4.664   2.412  0.1320  1.4064 -1.1093
 2393SOL    HW218639   0.916   4.582   2.429  0.1925 -0.5213  3.1623
 2394SOL     OW18640   0.025   0.833  17.089 -0.1375 -0.2150 -0.0547
 2394SOL    HW118641   0.111   0.796  17.069 -1.3241 -1.2941 -3.2416
 2394SOL    HW218642   4.705   0.849  17.003  1.1760  0.4903 -0.5129
 2395SOL     OW18643   0.166   2.889   6.428  0.1915 -0.2758  0.4838
 2395SOL    HW118644   0.204   2.884   6.516 -0.2460 -0.2424  0.6738
 2395SOL    HW218645   0.077   2.920   6.442  0.2044  0.2370 -0.5169
 2396SOL     OW18646   0.179   3.700   8.418  0.3426  0.2560  0.4665
 2396SOL    HW118647   0.214   3.753   8.490 -0.1631  4.1128 -2.1645
 2396SOL    HW218648   0.240   3.627   8.414  1.2499  1.2024 -2.9675
 2397SOL     OW18649   4.187   4.527   6.031  0.2441  0.0199 -0.5018
 2397SOL    HW118650   4.205   4.437   6.057  0.6336  0.8900  2.2173
 2397SOL    HW218651   4.261   4.570   6.073 -0.9907  1.6721 -0.0373
 2398SOL     OW18652   0.320   4.663   9.520  0.1687  0.1227  0.1221
 2398SOL    HW118653   0.227   4.651   9.543  0.6702  1.1382  2.6914
 2398SOL    HW218654   0.346   0.017   9.575  2.5294 -0.7159  0.0945
 2399SOL     OW18655   2.627   1.014  11.420 -0.1660  0.8674 -0.8186
 2399SOL    HW118656   2.591   1.097  11.389 -1.2573  0.5576 -0.3636
 2399SOL    HW218657   2.556   0.956  11.390  0.3641  0.3617 -1.1171
 2400SOL     OW18658   3.239   2.980  15.018  0.1325  0.1358 -0.1148
 2400SOL    HW118659   3.175   2.965  15.088  0.9672  0.4450  0.7134
 2400SOL    HW218660   3.280   2.896  14.995  1.6909  1.1932 -1.1235
 2401SOL     OW18661   2.663   3.797   8.390 -0.0127 -0.1262  0.3191
 2401SOL    HW118662   2.631   3.765   8.474 -1.8926  1.8161  0.3480
 2401SOL    HW218663   2.705   3.877   8.421  3.8725 -0.7779 -3.3452
 2402SOL     OW18664   3.352   1.324   8.296  0.5794  0.0062 -0.4338
 2402SOL    HW118665   3.409   1.361   8.363  1.8023 -2.8182  0.0771
 2402SOL    HW218666   3.350   1.231   8.315 -0.6506 -0.0063 -0.6323
 2403SOL     OW18667   3.922   0.593   4.711 -0.5364  0.1019  0.5267
 2403SOL    HW118668   3.863   0.563   4.642  0.9757 -0.7038 -0.4168
 2403SOL    HW218669   3.949   0.510   4.750  1.7011 -0.2476 -1.7710
 2404SOL     OW18670   2.351   0.472   6.258  0.0226 -0.7230 -0.1569
 2404SOL    HW118671   2.428   0.423   6.287  0.0893 -0.8565 -0.5639
 2404SOL    HW218672   2.388   0.517   6.182 -2.4331 -0.4401 -1.1996
 2405SOL     OW18673   1.762   4.689  11.367  0.3018 -0.5390  0.6181
 2405SOL    HW118674   1.816   4.680  11.445 -1.1549  0.5577  1.7463
 2405SOL    HW218675   1.717   0.050  11.390 -0.3624 -0.7219 -0.0203
 2406SOL     OW18676   0.764   0.993  14.917  0.0958 -0.1567 -0.0464
 2406SOL    HW118677   0.694   0.929  14.927  0.6969 -0.2591  3.3786
 2406SOL    HW218678   0.762   1.036  15.002  0.6772  0.5339 -0.3790
 2407SOL     OW18679   3.375   2.694   2.045 -0.5912  0.3142  0.3937
 2407SOL    HW118680   3.426   2.644   1.981 -2.4007 -1.4084  0.3182
 2407SOL    HW218681   3.375   2.774   1.994  1.3378 -0.0807 -0.2231
 2408SOL     OW18682   4.164   2.770   3.698 -0.0660 -0.0112  0.3305
 2408SOL    HW118683   4.105   2.784   3.773 -1.7007  1.7680 -1.2813
 2408SOL    HW218684   4.101   2.758   3.628  1.4315  2.6364 -1.4614
 2409SOL     OW18685   2.199   1.784   2.701  0.2730 -0.0517 -0.8413
 2409SOL    HW118686   2.130   1.785   2.767  0.8481 -1.1661 -0.2187
 2409SOL    HW218687   2.157   1.728   2.635 -2.5296  0.1326  0.7865
 2410SOL     OW18688   2.948   0.587  11.393 -0.4610 -0.3377 -0.6483
 2410SOL    HW118689   2.985   0.540  11.318  1.0069 -0.1459 -0.0543
 2410SOL    HW218690   2.879   0.643  11.356 -3.0482 -2.7007  0.6607
 2411SOL     OW18691   1.723   4.638   5.231  0.0587  0.0700  0.2714
 2411SOL    HW118692   1.775   4.699   5.178 -1.1230  3.0537  2.5648
 2411SOL    HW218693   1.751   4.550   5.205 -0.1137  0.4885 -1.3353
 2412SOL     OW18694   3.983   1.186   1.737 -0.0148  0.9503  0.0103
 2412SOL    HW118695   3.972   1.120   1.668  0.9711 -0.1428  0.9031
 2412SOL    HW218696   4.067   1.230   1.719  0.9446 -0.9952 -0.3201
 2413SOL     OW18697   4.098   4.337   0.569  0.2816 -0.2962 -0.5181
 2413SOL    HW118698   4.052   4.288   0.501  1.8191 -2.0044 -0.3342
 2413SOL    HW218699   4.041   4.411   0.588  1.6462  1.2228 -2.3200
 2414SOL     OW18700   1.757   0.918  16.498  0.5666  1.0309  0.1415
 2414SOL    HW118701   1.699   0.981  16.540 -0.7975  1.1665 -1.9080
 2414SOL    HW218702   1.768   0.849  16.564  0.4372  1.8965  1.0639
 2415SOL     OW18703   4.380   2.863   1.731 -0.4413 -0.0737  0.1593
 2415SOL    HW118704   4.322   2.910   1.672 -0.9644 -1.4723 -0.4321
 2415SOL    HW218705   4.356   2.775   1.703  0.9219 -0.5536  0.4674
 2416SOL     OW18706   1.156   4.028   2.534  0.3813 -0.0826  0.0045
 2416SOL    HW118707   1.097   4.071   2.596 -1.4403 -1.0901 -1.0343
 2416SOL    HW218708   1.099   3.987   2.468  1.4991  1.2024 -1.7667
 2417SOL     OW18709   0.596   0.122   8.809  0.0835 -0.2024 -0.3843
 2417SOL    HW118710   0.543   0.198   8.786  2.9979  1.6102 -0.9564
 2417SOL    HW218711   0.635   0.159   8.889 -0.6529  1.6847 -0.9068
 2418SOL     OW18712   0.470   0.007   2.525  0.4970 -1.0123  0.0894
 2418SOL    HW118713   0.539   0.064   2.488 -1.0321  1.0639  0.4224
 2418SOL    HW218714   0.497   4.636   2.508  0.3873 -1.2486  1.1946
 2419SOL     OW18715   0.238   1.294   6.984 -0.2965 -0.6586  0.5939
 2419SOL    HW118716   0.153   1.327   7.010  0.3206 -0.1157  1.9257
 2419SOL    HW218717   0.204   1.250   6.906 -3.4469 -1.2676  2.3290
 2420SOL     OW18718   3.458   0.786   8.435 -0.4253  0.8396 -0.1648
 2420SOL    HW118719   3.382   0.738   8.469 -0.1290  0.8424  0.5070
 2420SOL    HW218720   3.532   0.729   8.454  1.0086  3.0138  0.7732
 2421SOL     OW18721   0.203   4.427  11.245 -0.4856  0.4611 -0.1034
 2421SOL    HW118722   0.280   4.415  11.190 -0.3910 -2.2962  0.6394
 2421SOL    HW218723   0.194   4.337  11.276  0.0387  0.0364 -1.1942
 2422SOL     OW18724   3.796   2.626   9.478  0.4073  0.4353  0.0193
 2422SOL    HW118725   3.804   2.577   9.397  0.1733 -1.3713  1.0862
 2422SOL    HW218726   3.865   2.588   9.532  1.6572  0.8738 -1.2929
 2423SOL     OW18727   2.772   2.665   8.102 -0.0449 -0.5165  0.0837
 2423SOL    HW118728   2.862   2.636   8.083 -0.3921 -0.0411 -2.3097
 2423SOL    HW218729   2.801   2.709   8.181  3.7754 -1.5137 -0.7098
 2424SOL     OW18730   1.136   0.022   2.211  0.3992  0.1015 -0.2832
 2424SOL    HW118731   1.072   0.050   2.145 -0.4894  0.1256  0.5931
 2424SOL    HW218732   1.216   0.057   2.172  1.4400 -0.0691  1.7120
 2425SOL     OW18733   1.321   2.097   0.886 -0.3660 -0.1341 -0.0046
 2425SOL    HW118734   1.237   2.117   0.927  0.4614  2.4595  0.4590
 2425SOL    HW218735   1.343   2.015   0.930  1.5923 -0.4791 -1.6091
 2426SOL     OW18736   0.050   0.800   1.049 -0.1770 -0.0844 -0.6082
 2426SOL    HW118737   4.680   0.776   1.025  0.2092 -1.3169 -0.7901
 2426SOL    HW218738   0.100   0.745   0.988  0.5983  0.0291 -0.0794
 2427SOL     OW18739   3.279   2.943   4.454 -0.3312  0.2188  0.1139
 2427SOL    HW118740   3.294   3.024   4.405 -0.1307 -1.2147 -2.2001
 2427SOL    HW218741   3.270   2.975   4.543  1.4282  2.7257 -0.6012
 2428SOL     OW18742   1.514   1.832   6.129  0.1630 -0.2997 -0.3812
 2428SOL    HW118743   1.486   1.803   6.216  0.6462  2.3791  0.6738
 2428SOL    HW218744   1.441   1.893   6.112 -0.7435 -1.4651 -0.7008
 2429SOL     OW18745   4.654   2.632   3.838 -0.1357 -0.2073 -0.7147
 2429SOL    HW118746   4.645   2.716   3.793  1.9484 -0.1066 -0.9328
 2429SOL    HW218747   0.014   2.599   3.795  1.3060  0.5975  1.3411
 2430SOL     OW18748   1.536   3.857   7.639 -0.2341  0.5779  0.5071
 2430SOL    HW118749   1.448   3.894   7.631 -0.6812 -0.8460 -1.3384
 2430SOL    HW218750   1.509   3.781   7.691 -0.5485 -0.0981 -0.6327
 2431SOL     OW18751   1.001   2.572  16.406 -0.0136 -0.0640 -0.1749
 2431SOL    HW118752   0.995   2.614  16.491  2.2314 -0.2492  0.0917
 2431SOL    HW218753   0.908   2.556  16.396 -0.6105  1.6781  2.6004
 2432SOL     OW18754   4.694   3.754   4.102 -0.3784  0.2142  0.3888
 2432SOL    HW118755   0.025   3.690   4.153  2.2548 -0.2594 -2.7844
 2432SOL    HW218756   0.047   3.805   4.065 -0.6958  1.3918  1.3948
 2433SOL     OW18757   3.034   0.986   4.470 -0.1002  0.4849 -0.3751
 2433SOL    HW118758   2.991   0.976   4.555  1.8949 -1.1651  0.4401
 2433SOL    HW218759   3.012   0.902   4.430 -1.5602  1.2011 -1.0764
 2434SOL     OW18760   1.443   4.630  14.409  0.0938 -0.0240  0.4773
 2434SOL    HW118761   1.514   4.648  14.347  0.4704  0.1570  0.9559
 2434SOL    HW218762   1.409   4.555  14.361  0.1157  0.8705 -0.9366
 2435SOL     OW18763   1.724   4.432   8.449 -0.4262 -0.0897  0.6891
 2435SOL    HW118764   1.732   4.401   8.358 -0.0428 -0.9674  1.0213
 2435SOL    HW218765   1.701   4.354   8.498 -0.7426 -1.5725 -1.8211
 2436SOL     OW18766   2.996   1.864   0.929 -0.1505 -0.2815  0.3371
 2436SOL    HW118767   3.037   1.885   0.845  1.7708  1.0030  1.6190
 2436SOL    HW218768   2.909   1.869   0.889  0.9521 -2.0875 -2.3132
 2437SOL     OW18769   0.673   3.352   3.421 -0.1342 -0.1185 -0.1049
 2437SOL    HW118770   0.753   3.351   3.474 -0.5287 -2.1053  0.4222
 2437SOL    HW218771   0.698   3.299   3.345  1.3691  0.2159  0.1626
 2438SOL     OW18772   2.623   0.670  15.272 -0.0491  0.3808  0.4740
 2438SOL    HW118773   2.586   0.723  15.202 -1.7701 -1.7827 -0.2746
 2438SOL    HW218774   2.696   0.634  15.222 -0.7811  2.2006 -1.9086
 2439SOL     OW18775   3.765   3.580   1.106 -0.1820  0.2980  0.0047
 2439SOL    HW118776   3.846   3.533   1.085 -0.3910  0.4825 -1.2552
 2439SOL    HW218777   3.709   3.572   1.028 -0.2298  1.5709 -0.0944
 2440SOL     OW18778   3.132   2.938   5.612  0.3375 -0.2171  0.2661
 2440SOL    HW118779   3.193   2.876   5.649  1.9291  0.4742 -1.1818
 2440SOL    HW218780   3.154   2.912   5.522  0.0193  0.2095  0.0601
 2441SOL     OW18781   2.483   2.752  12.966 -0.4219 -0.2770 -0.6457
 2441SOL    HW118782   2.458   2.845  12.964  1.9919  0.3758 -0.3121
 2441SOL    HW218783   2.422   2.722  13.034  1.2422 -0.3014  0.8301
 2442SOL     OW18784   1.714   2.237   5.521  0.2903 -0.0008 -0.0094
 2442SOL    HW118785   1.732   2.210   5.431  1.8286  0.0681  0.2758
 2442SOL    HW218786   1.736   2.160   5.575 -0.2388  0.5679  1.0075
 2443SOL     OW18787   2.447   4.439   1.700 -0.3448 -0.6959  0.2066
 2443SOL    HW118788   2.515   4.405   1.758 -1.1428 -1.4829  0.6929
 2443SOL    HW218789   2.426   4.366   1.642 -1.4841 -0.2313  0.0386
 2444SOL     OW18790   2.670   0.010  15.542  0.1290  0.9031 -0.1899
 2444SOL    HW118791   2.668   4.688  15.628 -0.3081 -1.7555 -1.4966
 2444SOL    HW218792   2.748   4.689  15.504 -0.9846  0.4767 -2.0607
 2445SOL     OW18793   2.990   2.113  10.398  0.0683  0.2747  0.6587
 2445SOL    HW118794   2.983   2.155  10.312  2.0532 -1.1331 -0.1832
 2445SOL    HW218795   3.076   2.072  10.398 -0.4556 -0.8080  1.3767
 2446SOL     OW18796   3.675   4.694   7.428 -0.7905 -0.2429 -0.0469
 2446SOL    HW118797   3.587   4.712   7.462  0.3379  0.5656  2.4212
 2446SOL    HW218798   3.725   0.047   7.467  0.9810 -2.7246  2.2598
 2447SOL     OW18799   0.900   1.085   2.437  0.2130  0.3996  0.3714
 2447SOL    HW118800   0.826   1.144   2.424  0.5756  0.7555 -0.0542
 2447SOL    HW218801   0.910   1.089   2.532  1.1943  0.5095  0.2591
 2448SOL     OW18802   2.709   1.466   2.671 -0.1517  0.1518  0.3159
 2448SOL    HW118803   2.679   1.379   2.644  0.6731  0.1943 -0.7128
 2448SOL    HW218804   2.622   1.505   2.678  0.2950  1.1389  0.3425
 2449SOL     OW18805   3.527   3.801   1.951  0.4888  0.0423 -0.7093
 2449SOL    HW118806   3.582   3.809   2.029  1.2971 -0.1792 -1.2508
 2449SOL    HW218807   3.508   3.892   1.927  1.3406  0.4832  0.3198
 2450SOL     OW18808   3.832   1.119   5.065 -0.7856  0.1783  0.7639
 2450SOL    HW118809   3.858   1.028   5.049 -2.9937 -0.4966  0.9084
 2450SOL    HW218810   3.830   1.119   5.161  2.8115 -0.9419  0.8284
 2451SOL     OW18811   3.546   1.757   5.256  0.4031 -0.5120  0.0738
 2451SOL    HW118812   3.629   1.716   5.233  0.1693 -1.0645  0.2102
 2451SOL    HW218813   3.514   1.761   5.165 -0.4462  1.9096  0.4609
 2452SOL     OW18814   2.871   3.390   1.404  0.4395 -0.2456  0.2739
 2452SOL    HW118815   2.878   3.466   1.347 -1.3831 -0.8490 -0.7643
 2452SOL    HW218816   2.964   3.370   1.403 -0.0902 -2.5239 -1.6498
 2453SOL     OW18817   0.344   1.519   7.706  0.0368  0.2009 -0.0990
 2453SOL    HW118818   0.364   1.550   7.618 -0.0904 -0.2486 -0.2872
 2453SOL    HW218819   0.249   1.512   7.701  0.3084 -2.5616 -1.5867
 2454SOL     OW18820   3.968   1.043   2.032  0.6478  0.6461  0.4282
 2454SOL    HW118821   3.963   1.058   1.938 -0.6792  0.3180  0.4362
 2454SOL    HW218822   3.976   1.133   2.064 -0.9058  0.6745  0.7444
 2455SOL     OW18823   2.451   0.649  15.489 -0.0071  0.1182  0.4429
 2455SOL    HW118824   2.438   0.558  15.464 -2.9200  0.6495 -0.0239
 2455SOL    HW218825   2.502   0.688  15.418  0.2851 -0.3317  0.4061
 2456SOL     OW18826   4.136   0.079   7.849  0.1058 -0.0684  0.5790
 2456SOL    HW118827   4.120   0.173   7.836 -1.2372 -0.1131  1.9326
 2456SOL    HW218828   4.048   0.040   7.845 -0.1667  0.6234 -0.3377
 2457SOL     OW18829   4.290   1.693   7.674 -0.0442  0.2525 -0.3325
 2457SOL    HW118830   4.215   1.693   7.614 -0.1652  0.3113 -0.1823
 2457SOL    HW218831   4.296   1.604   7.708 -0.2354  0.3802  0.0394
 2458SOL     OW18832   3.301   0.905   7.458 -0.3715 -0.0973  0.2070
 2458SOL    HW118833   3.357   0.864   7.524 -1.4680 -0.5551  0.8366
 2458SOL    HW218834   3.235   0.955   7.506 -2.3700 -1.7944 -0.8118
 2459SOL     OW18835   3.458   4.516   1.983  0.4879 -0.0094 -0.5264
 2459SOL    HW118836   3.369   4.522   1.947  0.0447 -0.2316  0.5279
 2459SOL    HW218837   3.514   4.558   1.918  0.9395  2.1944  1.3260
 2460SOL     OW18838   2.383   4.407  13.360 -0.0276  0.6034 -0.1010
 2460SOL    HW118839   2.394   4.377  13.450 -0.1901  0.7702 -0.0282
 2460SOL    HW218840   2.288   4.409  13.356 -0.0849 -0.6118  0.6839
 2461SOL     OW18841   0.340   0.967  12.580 -0.0603 -0.2425 -0.7581
 2461SOL    HW118842   0.321   1.038  12.642  0.2937  0.7816 -1.8191
 2461SOL    HW218843   0.334   0.890  12.637  1.1464 -0.2574 -0.6598
 2462SOL     OW18844   1.729   1.076   3.385 -0.1654  0.4459 -0.3769
 2462SOL    HW118845   1.741   0.985   3.412  0.5792  0.8966  0.8377
 2462SOL    HW218846   1.648   1.088   3.435 -0.3223 -0.8749 -0.3124
 2463SOL     OW18847   1.102   0.726   7.873 -0.2028  0.0590  0.5119
 2463SOL    HW118848   1.020   0.714   7.826  1.3141  1.5457 -2.6030
 2463SOL    HW218849   1.082   0.797   7.934 -1.0997  0.1127  0.1489
 2464SOL     OW18850   2.647   3.237  12.235 -0.4578  0.2545  0.1579
 2464SOL    HW118851   2.708   3.232  12.308 -2.2944  0.9516  1.7472
 2464SOL    HW218852   2.693   3.305  12.184 -0.2370 -0.6982 -0.9192
 2465SOL     OW18853   0.908   2.343  15.294 -0.1975 -0.7512  0.4247
 2465SOL    HW118854   0.832   2.289  15.313  0.8350 -2.4675 -0.3798
 2465SOL    HW218855   0.943   2.358  15.382  0.3766 -0.1165  0.0867
 2466SOL     OW18856   0.376   2.272  12.676  0.2284 -0.2725  0.2849
 2466SOL    HW118857   0.452   2.213  12.672  2.0084  2.0991 -0.6329
 2466SOL    HW218858   0.304   2.211  12.663  0.9604 -1.2421  0.7610
 2467SOL     OW18859   2.200   0.649   8.256  0.6892 -0.3764 -0.0280
 2467SOL    HW118860   2.265   0.587   8.223  2.1571  0.7680  0.6766
 2467SOL    HW218861   2.121   0.596   8.268 -1.0223  2.0970 -0.3244
 2468SOL     OW18862   3.071   4.308   7.080 -0.1476 -0.0528  0.1152
 2468SOL    HW118863   3.113   4.266   7.156 -1.4812  0.8049  1.3145
 2468SOL    HW218864   3.041   4.234   7.028  2.8631 -1.5701  0.5004
 2469SOL     OW18865   3.427   0.368   8.206 -0.6201 -0.1737 -0.4133
 2469SOL    HW118866   3.498   0.325   8.254  0.5783  0.8770 -1.2190
 2469SOL    HW218867   3.363   0.297   8.206 -2.9837  1.9555  0.3171
 2470SOL     OW18868   2.765   2.352   9.070  0.5023  0.1641  0.2029
 2470SOL    HW118869   2.727   2.268   9.042 -0.4361  0.2338  1.2926
 2470SOL    HW218870   2.687   2.406   9.074  1.2761  1.1224  2.4587
 2471SOL     OW18871   2.381   3.213   8.523 -0.1318  0.0683  0.3067
 2471SOL    HW118872   2.315   3.146   8.537 -3.4905  2.8865 -2.1412
 2471SOL    HW218873   2.322   3.287   8.508 -0.3621 -0.3904 -0.9600
 2472SOL     OW18874   1.307   0.257  14.889 -0.1018  0.4533  0.4328
 2472SOL    HW118875   1.216   0.276  14.912 -0.1665 -1.4700  1.8276
 2472SOL    HW218876   1.326   0.341  14.848 -0.6324  0.9049  1.1306
 2473SOL     OW18877   0.278   4.251   7.658 -0.8810 -0.1676 -0.5423
 2473SOL    HW118878   0.334   4.184   7.620  0.1696  0.6607 -0.4341
 2473SOL    HW218879   0.191   4.211   7.665 -0.6626 -0.4783  0.4493
 2474SOL     OW18880   1.539   1.759   7.647 -0.9232 -0.4470 -0.5362
 2474SOL    HW118881   1.512   1.803   7.727 -1.1106  1.0160 -1.4099
 2474SOL    HW218882   1.627   1.794   7.632 -1.2196  0.5266  0.0533
 2475SOL     OW18883   4.657   2.881   4.485  0.6233  0.4233 -0.3846
 2475SOL    HW118884   4.709   2.814   4.530 -0.7347  0.3492  1.0469
 2475SOL    HW218885   4.644   2.955   4.543 -1.5588 -0.0752 -0.2634
 2476SOL     OW18886   2.824   0.112   9.037  0.0597 -0.0539  0.0382
 2476SOL    HW118887   2.769   0.050   8.989  0.2172 -0.8877  0.9558
 2476SOL    HW218888   2.797   0.192   8.993  2.0716  0.6277  0.0168
 2477SOL     OW18889   0.339   0.728   5.027  0.3150  0.3989 -0.5163
 2477SOL    HW118890   0.262   0.672   5.021 -1.1325  2.5290 -1.6328
 2477SOL    HW218891   0.352   0.764   4.940 -1.3235 -0.3889 -1.0837
 2478SOL     OW18892   3.110   1.454  15.131 -0.1204 -0.5685  0.7479
 2478SOL    HW118893   3.090   1.525  15.192 -1.6900 -0.8719  0.5891
 2478SOL    HW218894   3.103   1.369  15.174  0.8196 -1.1397 -0.2318
 2479SOL     OW18895   2.660   0.113   2.923 -0.3025 -0.1248 -0.2450
 2479SOL    HW118896   2.749   0.107   2.888 -1.0143 -1.1744 -1.8957
 2479SOL    HW218897   2.607   0.076   2.852  0.8044 -0.8987 -0.6597
 2480SOL     OW18898   2.552   1.226   2.779 -0.4636 -0.3790 -0.1387
 2480SOL    HW118899   2.472   1.279   2.789 -1.1269 -1.7046  1.4939
 2480SOL    HW218900   2.523   1.139   2.803  0.4458 -0.8243 -0.6525
 2481SOL     OW18901   2.294   1.933   8.669 -0.1301 -0.2528 -0.1711
 2481SOL    HW118902   2.367   1.961   8.725  0.3321  2.5866 -2.1844
 2481SOL    HW218903   2.234   1.991   8.715  0.0160 -2.3416  2.6861
 2482SOL     OW18904   3.068   1.171   5.071  0.0593 -0.4235  0.0413
 2482SOL    HW118905   2.975   1.189   5.088  0.5291  1.7862  0.2423
 2482SOL    HW218906   3.096   1.143   5.158  0.4084  1.1566  0.4434
 2483SOL     OW18907   3.750   3.709   8.946 -0.0309 -0.5233 -0.0813
 2483SOL    HW118908   3.703   3.653   9.008 -1.7598  1.1696  0.1528
 2483SOL    HW218909   3.764   3.790   8.995  1.1445 -0.9119  0.2158
 2484SOL     OW18910   1.048   2.808   5.894 -0.6327 -0.0012  0.7629
 2484SOL    HW118911   1.117   2.872   5.876 -0.9048  0.4495  1.3419
 2484SOL    HW218912   0.981   2.861   5.937 -0.4775 -0.3359  1.4102
 2485SOL     OW18913   1.800   1.861  17.373  1.1998 -0.0862  0.3751
 2485SOL    HW118914   1.757   1.896  17.450  0.6030  0.4023 -0.1887
 2485SOL    HW218915   1.811   1.774  17.412 -0.7594 -0.3956  0.2300
 2486SOL     OW18916   3.871   4.646  12.117  0.2249 -0.0442 -0.3859
 2486SOL    HW118917   3.948   4.650  12.174 -0.4404  0.1081  0.4972
 2486SOL    HW218918   3.848   4.553  12.129 -1.8843  0.5583  0.2485
 2487SOL     OW18919   1.523   1.905   4.279  0.0217 -0.0827  0.4508
 2487SOL    HW118920   1.563   1.992   4.273 -0.7013  0.1033 -1.7851
 2487SOL    HW218921   1.522   1.884   4.186 -0.5805  2.2527 -0.0787
 2488SOL     OW18922   1.602   2.774   2.428 -0.6496 -0.7370 -0.4545
 2488SOL    HW118923   1.650   2.788   2.346 -0.0269  0.3215  0.0830
 2488SOL    HW218924   1.568   2.685   2.419 -1.7352 -0.3523 -0.1241
 2489SOL     OW18925   1.253   4.189   3.532 -0.1741 -0.1770  0.4586
 2489SOL    HW118926   1.329   4.157   3.484  0.1644  0.5497  0.5005
 2489SOL    HW218927   1.184   4.194   3.466  0.4563  2.6361 -0.0017
 2490SOL     OW18928   3.306   2.414  16.778 -0.1070  0.1524 -0.4290
 2490SOL    HW118929   3.354   2.364  16.844  2.1897 -1.9247 -3.6734
 2490SOL    HW218930   3.373   2.480  16.760  0.8672 -0.6269  0.3334
 2491SOL     OW18931   1.908   4.652   4.628  0.2000 -0.3253 -0.4541
 2491SOL    HW118932   1.969   4.583   4.603  0.0667 -0.2000 -1.1191
 2491SOL    HW218933   1.925   4.712   4.556 -2.1148  0.6313 -0.2224
 2492SOL     OW18934   3.773   3.422   4.088  0.0101 -0.0916  0.0528
 2492SOL    HW118935   3.732   3.397   4.171 -1.4941  3.9150  0.4987
 2492SOL    HW218936   3.688   3.440   4.048 -1.4150  1.2674  3.6479
 2493SOL     OW18937   0.733   1.004   8.688  0.1296 -0.4683 -0.2043
 2493SOL    HW118938   0.724   0.914   8.656 -0.0029 -0.0220 -1.4228
 2493SOL    HW218939   0.823   1.000   8.721  0.9083 -3.3934 -2.7540
 2494SOL     OW18940   3.353   4.504   7.286  0.2210  0.0508  0.0124
 2494SOL    HW118941   3.329   4.596   7.275  0.1020  0.2592  2.0012
 2494SOL    HW218942   3.393   4.484   7.202  1.1845 -0.9070  0.6992
 2495SOL     OW18943   1.368   4.536   8.839  0.3115 -0.4686 -1.1031
 2495SOL    HW118944   1.325   4.541   8.754 -1.0096 -1.9372 -0.5183
 2495SOL    HW218945   1.330   4.462   8.887 -1.4142  0.0905 -1.5888
 2496SOL     OW18946   2.749   4.394  10.953 -0.2836 -0.0295  0.6300
 2496SOL    HW118947   2.804   4.458  10.908 -0.3734  0.0057  0.5686
 2496SOL    HW218948   2.667   4.399  10.903 -0.8597  2.7904  1.8291
 2497SOL     OW18949   4.230   0.441  16.322 -0.1078 -0.3387  0.6025
 2497SOL    HW118950   4.258   0.365  16.373 -0.6396  0.4774  2.0843
 2497SOL    HW218951   4.281   0.431  16.242  1.0108  0.8574  1.1847
 2498SOL     OW18952   0.809   0.810  14.222 -0.0684 -0.2935  0.4432
 2498SOL    HW118953   0.839   0.894  14.258 -0.4996 -0.1407  0.4385
 2498SOL    HW218954   0.813   0.833  14.130 -1.7891  0.4183  0.5586
 2499SOL     OW18955   3.818   2.513   2.147 -0.3970  0.3543  0.0656
 2499SOL    HW118956   3.848   2.600   2.174 -0.3556 -0.1637  1.6722
 2499SOL    HW218957   3.808   2.521   2.052  1.4505 -1.2332 -0.2500
 2500SOL     OW18958   0.114   3.915   5.509 -0.6878 -0.5689  0.3755
 2500SOL    HW118959   0.039   3.966   5.538 -1.6321 -0.9705 -1.3219
 2500SOL    HW218960   0.169   3.990   5.485  1.0073 -1.2156  2.3131
 2501SOL     OW18961   2.651   4.452   3.612 -0.0095 -0.3038  0.3074
 2501SOL    HW118962   2.667   4.397   3.536  0.1443  1.4782 -0.9397
 2501SOL    HW218963   2.660   4.542   3.581 -1.2359 -0.7257 -1.2306
 2502SOL     OW18964   0.620   3.612  12.934 -0.3790 -0.1380 -0.0645
 2502SOL    HW118965   0.700   3.558  12.933  0.5215  1.2305 -0.9666
 2502SOL    HW218966   0.621   3.649  13.023 -2.4059 -1.2165  0.3956
 2503SOL     OW18967   0.904   2.643   1.802  0.4208 -0.1474 -0.2914
 2503SOL    HW118968   0.946   2.596   1.730  1.6934  0.8648 -0.2189
 2503SOL    HW218969   0.973   2.710   1.809  3.2253 -3.0645  0.3318
 2504SOL     OW18970   0.128   1.885   9.482 -0.2259  0.0254 -0.2385
 2504SOL    HW118971   0.057   1.918   9.427 -1.5884 -0.2637  1.3448
 2504SOL    HW218972   0.090   1.799   9.503  2.2442 -1.0849 -0.3567
 2505SOL     OW18973   2.492   2.074  13.937 -0.7194 -0.2840  0.6169
 2505SOL    HW118974   2.449   2.079  14.023 -1.8124 -0.6175  0.0840
 2505SOL    HW218975   2.427   2.034  13.880 -1.6904  1.1808  0.6997
 2506SOL     OW18976   1.382   0.186   6.553 -0.5368 -0.1274 -0.4104
 2506SOL    HW118977   1.454   0.123   6.538 -0.0868  0.3324 -0.1792
 2506SOL    HW218978   1.304   0.136   6.529  0.0536 -1.6224  0.7729
 2507SOL     OW18979   2.626   0.449   0.279 -0.3290  0.3806 -0.0160
 2507SOL    HW118980   2.610   0.529   0.328  2.3097  2.6485 -2.7743
 2507SOL    HW218981   2.686   0.475   0.209  1.9939 -1.7433  1.2041
 2508SOL     OW18982   3.274   1.346  14.088  0.2330 -0.0054  0.1436
 2508SOL    HW118983   3.206   1.396  14.044  1.0061  0.2781 -0.7459
 2508SOL    HW218984   3.278   1.266  14.036 -1.1371 -0.2146  0.3635
 2509SOL     OW18985   2.844   0.084   9.686  0.1547  0.0654  0.3463
 2509SOL    HW118986   2.755   0.115   9.700  0.2778  0.3530  0.4992
 2509SOL    HW218987   2.863   0.039   9.768 -0.5627 -0.0556  0.4431
 2510SOL     OW18988   4.036   0.792   7.777 -0.6687 -0.2328 -0.2674
 2510SOL    HW118989   4.108   0.730   7.774  1.1401  1.9575 -2.2925
 2510SOL    HW218990   4.082   0.855   7.721 -1.9679  1.3286  0.4037
 2511SOL     OW18991   4.450   4.272   7.492  0.0885 -0.2937 -0.3518
 2511SOL    HW118992   4.397   4.285   7.571 -0.0904 -1.1624 -0.3201
 2511SOL    HW218993   4.444   4.176   7.488 -0.4017 -0.2612 -0.3435
 2512SOL     OW18994   3.585   4.408   9.445 -0.1501 -0.7199 -0.1584
 2512SOL    HW118995   3.614   4.389   9.535  0.6932 -0.0734 -0.2857
 2512SOL    HW218996   3.613   4.499   9.437 -3.3302  0.3382  0.7608
 2513SOL     OW18997   2.682   2.467   0.878  0.1905 -0.2962 -0.4746
 2513SOL    HW118998   2.667   2.446   0.786  2.8320 -3.2540 -0.2209
 2513SOL    HW218999   2.742   2.538   0.856 -1.1886  1.1582  0.4660
 2514SOL     OW19000   0.605   4.259   3.879 -0.1800  0.2152  0.1493
 2514SOL    HW119001   0.618   4.165   3.870  0.3427  0.1912  1.0976
 2514SOL    HW219002   0.693   4.291   3.859  0.2864  0.5133  2.6889
 2515SOL     OW19003   1.673   4.526  12.402 -0.0370 -0.3383 -0.4123
 2515SOL    HW119004   1.743   4.468  12.431  1.0887  0.4910 -1.5057
 2515SOL    HW219005   1.641   4.566  12.483  1.1179  0.0739 -0.1632
 2516SOL     OW19006   0.835   1.620   7.888  0.1452 -0.2364 -0.0712
 2516SOL    HW119007   0.777   1.546   7.903  0.3860 -0.4533 -0.2041
 2516SOL    HW219008   0.851   1.615   7.793  2.3132 -2.3019  0.3949
 2517SOL     OW19009   4.040   1.876   6.001 -0.8891  0.1349 -0.1471
 2517SOL    HW119010   4.021   1.926   5.922  1.0608 -0.1909 -0.8027
 2517SOL    HW219011   3.993   1.801   5.965 -2.9268  1.1785  0.3260
 2518SOL     OW19012   0.988   3.168   8.405 -0.4176 -0.4185 -0.9520
 2518SOL    HW119013   0.958   3.197   8.319  1.1991  1.1826 -0.9877
 2518SOL    HW219014   1.042   3.239   8.442 -0.4700 -1.0898  0.4212
 2519SOL     OW19015   4.002   3.399   5.414  0.1891  0.3361 -0.5888
 2519SOL    HW119016   4.094   3.418   5.397  0.7786  0.0137  2.2322
 2519SOL    HW219017   3.961   3.436   5.335  1.2454  0.5720 -1.0309
 2520SOL     OW19018   4.387   4.096   3.082 -0.1850  0.4100  0.2774
 2520SOL    HW119019   4.420   4.020   3.033  1.6648  1.5566 -0.2611
 2520SOL    HW219020   4.462   4.154   3.088  0.4264 -0.0869 -2.4216
 2521SOL     OW19021   0.436   0.357   4.940 -0.0521  0.0797 -0.1077
 2521SOL    HW119022   0.417   0.279   4.888  0.9014 -0.8767  0.9820
 2521SOL    HW219023   0.383   0.331   5.016 -0.8404  1.2320 -0.2617
 2522SOL     OW19024   0.429   1.947   9.019  0.1395  0.6998 -0.0527
 2522SOL    HW119025   0.475   2.027   9.044 -0.4515  0.4269  1.8747
 2522SOL    HW219026   0.393   1.974   8.934 -1.7919 -1.0390  0.2089
 2523SOL     OW19027   3.057   0.646   1.608  0.0132 -0.0384 -0.1176
 2523SOL    HW119028   2.983   0.689   1.565 -1.4902 -0.3006  2.2465
 2523SOL    HW219029   3.037   0.620   1.698  2.9867 -2.1763 -0.0685
 2524SOL     OW19030   0.051   3.111   6.700 -0.1732  0.3337 -0.0879
 2524SOL    HW119031   0.138   3.123   6.661  0.3637  0.1920  1.0393
 2524SOL    HW219032   0.046   3.016   6.699  3.1914  0.0979  1.7498
 2525SOL     OW19033   0.515   0.397  17.431  0.7889 -0.0010 -0.3542
 2525SOL    HW119034   0.592   0.451  17.411  0.0517  0.6330 -1.4518
 2525SOL    HW219035   0.458   0.473  17.443  1.0712 -0.0662  1.3313
 2526SOL     OW19036   1.725   2.737   9.607  0.5924  0.0714 -0.3441
 2526SOL    HW119037   1.747   2.656   9.562  1.7525 -0.2546  0.8132
 2526SOL    HW219038   1.758   2.810   9.553  1.9113 -0.0043  0.3598
 2527SOL     OW19039   2.864   2.153   3.613  0.2723  0.4009 -0.2052
 2527SOL    HW119040   2.802   2.226   3.614  0.3724  0.4441  2.2536
 2527SOL    HW219041   2.836   2.100   3.539  0.0592  0.8962 -0.4825
 2528SOL     OW19042   2.270   1.179  13.744  0.2853  0.2528  0.3090
 2528SOL    HW119043   2.336   1.195  13.811 -0.3244  0.4290  0.8644
 2528SOL    HW219044   2.276   1.263  13.698 -1.4942  0.3151  0.1752
 2529SOL     OW19045   3.743   2.524   5.065 -0.1953  0.5484 -0.3416
 2529SOL    HW119046   3.757   2.587   4.995  0.9268  0.3436 -0.3030
 2529SOL    HW219047   3.711   2.446   5.019 -0.8888 -0.6166  2.0830
 2530SOL     OW19048   0.109   4.338   5.224  0.1363  0.6938 -0.0313
 2530SOL    HW119049   0.102   4.324   5.129  0.8351  0.1054  0.0121
 2530SOL    HW219050   0.016   4.348   5.245  0.1483 -1.1946  0.8879
 2531SOL     OW19051   0.952   3.225   6.473  0.3180 -0.2120  0.1125
 2531SOL    HW119052   1.029   3.174   6.498 -0.2326 -0.2834  1.6831
 2531SOL    HW219053   0.979   3.315   6.494  0.5760 -0.6180  1.5312
 2532SOL     OW19054   1.313   3.321  10.434  0.2339 -0.2122 -0.5428
 2532SOL    HW119055   1.251   3.363  10.493  0.0926  0.9518 -1.5274
 2532SOL    HW219056   1.256   3.281  10.369 -0.6838  2.4415 -1.3271
 2533SOL     OW19057   3.840   0.004   8.556  0.6337  0.8604 -0.3674
 2533SOL    HW119058   3.902   4.652   8.541  0.7904  0.4836  2.0692
 2533SOL    HW219059   3.879   0.039   8.635 -0.8879 -0.4819  0.9840
 2534SOL     OW19060   1.095   0.657  14.823 -0.2645 -0.3199 -0.3276
 2534SOL    HW119061   1.122   0.730  14.767 -1.6551  2.0235  2.0644
 2534SOL    HW219062   1.021   0.697  14.868 -0.2725  1.1674 -1.6773
 2535SOL     OW19063   0.961   3.020   7.260  0.3324 -0.1093 -0.0452
 2535SOL    HW119064   0.994   3.056   7.178  0.9906 -0.5339  0.0342
 2535SOL    HW219065   1.011   3.063   7.329 -0.5232 -0.5643  0.8469
 2536SOL     OW19066   3.417   3.342   4.690  0.1712  0.3713 -0.1812
 2536SOL    HW119067   3.325   3.339   4.716 -0.1389 -0.9399 -1.3901
 2536SOL    HW219068   3.417   3.369   4.598  2.0542 -1.8064 -0.8258
 2537SOL     OW19069   4.530   0.090   9.650  0.9769 -0.6138 -0.7505
 2537SOL    HW119070   4.448   0.046   9.628  1.5254 -2.0467  0.1012
 2537SOL    HW219071   4.500   0.176   9.678 -0.0753 -1.1771 -0.1344
 2538SOL     OW19072   0.089   1.224   5.941 -0.3704 -0.7170 -0.3856
 2538SOL    HW119073   0.104   1.308   5.897 -2.6144  0.6060  1.3503
 2538SOL    HW219074   0.076   1.175   5.859  0.0466 -1.5979  0.0781
 2539SOL     OW19075   3.665   3.239   6.426 -0.0226  0.3767 -0.0421
 2539SOL    HW119076   3.600   3.299   6.389 -1.8577 -1.2141  0.5732
 2539SOL    HW219077   3.607   3.163   6.434  0.6618 -0.1984 -0.5488
 2540SOL     OW19078   2.659   1.948   8.608 -0.2762 -0.2655  0.1288
 2540SOL    HW119079   2.715   1.900   8.548 -2.6435 -2.1121 -0.5799
 2540SOL    HW219080   2.572   1.962   8.571 -0.3594 -2.3500 -0.4327
 2541SOL     OW19081   1.343   3.377  16.313 -0.3013 -1.0239 -0.1411
 2541SOL    HW119082   1.399   3.454  16.300  0.4936 -1.5575  0.0716
 2541SOL    HW219083   1.407   3.324  16.362 -1.5116 -1.4355  0.9936
 2542SOL     OW19084   3.585   1.205   9.865  0.2291  0.0641  0.3476
 2542SOL    HW119085   3.604   1.243   9.780 -1.3980 -0.9993 -0.4962
 2542SOL    HW219086   3.556   1.281   9.917 -0.6872  0.2613 -0.4427
 2543SOL     OW19087   4.323   4.719   2.412 -1.1387 -0.5832  0.1116
 2543SOL    HW119088   4.240   0.009   2.365 -0.6414 -0.2784 -0.7048
 2543SOL    HW219089   4.322   4.627   2.439 -0.9441 -0.4221  0.6665
 2544SOL     OW19090   3.321   2.040   0.479  0.1375  0.7144 -0.2431
 2544SOL    HW119091   3.391   2.063   0.540  2.0304 -0.3647 -2.0304
 2544SOL    HW219092   3.321   2.115   0.421  2.2890  0.7876 -0.1356
 2545SOL     OW19093   2.181   1.506   3.312 -0.3782 -0.1228 -0.0556
 2545SOL    HW119094   2.116   1.571   3.340 -2.5200 -2.5368  0.5454
 2545SOL    HW219095   2.263   1.533   3.353 -0.7619  2.6462 -1.0669
 2546SOL     OW19096   2.640   0.619   8.139 -0.0731  0.3157 -0.3087
 2546SOL    HW119097   2.702   0.625   8.065  1.2378  0.4020  0.7914
 2546SOL    HW219098   2.648   0.708   8.174  0.3314  0.1497  0.0098
 2547SOL     OW19099   2.129   2.915   4.082  0.3036 -0.5091  0.6367
 2547SOL    HW119100   2.112   2.938   3.991  0.8878 -0.7381  0.4708
 2547SOL    HW219101   2.104   2.823   4.071  0.0834 -0.6384  2.1684
 2548SOL     OW19102   2.773   0.773  13.250  0.4256 -0.2517  0.3391
 2548SOL    HW119103   2.816   0.845  13.297 -0.6153 -1.8412  3.6983
 2548SOL    HW219104   2.821   0.800  13.172 -2.4326 -0.0435 -1.3280
 2549SOL     OW19105   0.970   2.236  11.756  0.0741  0.1955  0.3698
 2549SOL    HW119106   0.977   2.317  11.807 -2.0169  0.7252 -0.1843
 2549SOL    HW219107   0.952   2.271  11.668  2.9518  1.6009  0.3257
 2550SOL     OW19108   1.199   0.508   6.148  0.0938  0.2274 -0.2055
 2550SOL    HW119109   1.259   0.538   6.079 -0.3094  3.6162  0.8982
 2550SOL    HW219110   1.121   0.531   6.097  0.3363 -1.5881 -1.3947
 2551SOL     OW19111   3.342   3.821   3.137  0.2714  0.5263  0.5108
 2551SOL    HW119112   3.305   3.892   3.085 -0.5028 -0.8737 -0.8527
 2551SOL    HW219113   3.426   3.867   3.139 -0.3621  1.7437 -1.7267
 2552SOL     OW19114   0.460   0.579   2.133 -0.3244  0.0121 -0.2770
 2552SOL    HW119115   0.465   0.619   2.047  1.6779  0.7078  0.1442
 2552SOL    HW219116   0.539   0.623   2.166 -1.5675  2.8626 -1.0882
 2553SOL     OW19117   1.864   1.981  10.986 -0.1248  0.4540 -0.2541
 2553SOL    HW119118   1.810   2.042  11.037 -0.2325 -0.7933  1.1091
 2553SOL    HW219119   1.861   2.017  10.897  0.7400 -0.7519 -0.7658
 2554SOL     OW19120   3.384   1.379  15.302 -0.0839 -0.4296  0.1515
 2554SOL    HW119121   3.299   1.353  15.338 -0.5812  0.0311 -0.6940
 2554SOL    HW219122   3.353   1.407  15.217  2.3143  1.7243 -0.0110
 2555SOL     OW19123   2.589   4.101   3.018  0.0659 -0.4372 -0.2553
 2555SOL    HW119124   2.521   4.041   2.986 -0.6917  1.2278 -1.8221
 2555SOL    HW219125   2.585   4.157   2.940  0.9671 -0.5795 -0.3961
 2556SOL     OW19126   0.883   4.017   2.208 -0.4046  0.3177 -0.0539
 2556SOL    HW119127   0.829   3.939   2.197  2.1170 -1.7777  2.2637
 2556SOL    HW219128   0.922   4.022   2.121  1.1712 -0.4768  0.6186
 2557SOL     OW19129   3.331   4.569   7.887  0.0561  0.3019 -0.2050
 2557SOL    HW119130   3.240   4.577   7.914  0.7548 -1.2973  2.6102
 2557SOL    HW219131   3.360   4.655   7.917  3.8757 -1.1345  0.2194
 2558SOL     OW19132   4.631   0.365   5.953  0.2248 -0.2346 -0.8536
 2558SOL    HW119133   4.707   0.421   5.967  0.6157 -0.4922 -1.9236
 2558SOL    HW219134   4.571   0.417   6.006 -0.6199 -0.7098 -1.3478
 2559SOL     OW19135   2.919   0.345   5.616  0.3412  0.0008  0.2959
 2559SOL    HW119136   2.926   0.397   5.696  1.0538  0.2936  0.0451
 2559SOL    HW219137   2.906   0.414   5.551  1.3716  1.4241  1.6095
 2560SOL     OW19138   0.661   1.193   7.172  0.1310 -0.6821 -0.0894
 2560SOL    HW119139   0.711   1.144   7.106  0.4506  0.0442 -0.3873
 2560SOL    HW219140   0.610   1.255   7.119  1.0598  1.1605  1.1871
 2561SOL     OW19141   4.426   1.264   3.120  0.5869  0.4022  0.3691
 2561SOL    HW119142   4.511   1.223   3.103 -0.9662 -1.9351 -1.7551
 2561SOL    HW219143   4.434   1.319   3.198 -0.2382 -1.0968  1.5050
 2562SOL     OW19144   3.849   4.681   2.794  0.1474 -0.1490 -0.1432
 2562SOL    HW119145   3.884   0.008   2.718  1.7094 -0.5779  0.3243
 2562SOL    HW219146   3.920   4.675   2.858  0.5754  0.6700 -0.5561
 2563SOL     OW19147   4.414   1.689   5.792  0.0883 -0.2019 -0.0082
 2563SOL    HW119148   4.369   1.606   5.808  1.6196 -1.5614 -2.8015
 2563SOL    HW219149   4.344   1.745   5.758 -0.5589 -0.1493  1.4188
 2564SOL     OW19150   3.730   0.585   9.514  0.6629 -0.0236 -0.8157
 2564SOL    HW119151   3.734   0.678   9.495  1.1647  0.2047  0.3982
 2564SOL    HW219152   3.756   0.579   9.606  0.9390  0.8027 -0.8439
 2565SOL     OW19153   2.975   0.619   3.844 -0.4300 -0.1480 -0.0966
 2565SOL    HW119154   3.035   0.597   3.915 -0.3879 -0.8050 -0.3297
 2565SOL    HW219155   2.950   0.710   3.859 -1.2306 -0.2534 -0.7601
 2566SOL     OW19156   2.491   2.480   7.032  0.1073 -0.5152 -0.0961
 2566SOL    HW119157   2.467   2.414   6.968  0.0107 -1.6615  1.1306
 2566SOL    HW219158   2.515   2.559   6.982  3.1897 -2.6205 -1.9513
 2567SOL     OW19159   3.948   3.166   5.517 -0.2594 -0.3817  0.0870
 2567SOL    HW119160   3.946   3.247   5.465  0.5809 -0.7260 -0.4886
 2567SOL    HW219161   3.905   3.197   5.596 -1.4839  0.1055 -0.7747
 2568SOL     OW19162   3.016   1.211   7.949 -0.2953  0.0581  0.3311
 2568SOL    HW119163   2.973   1.275   8.005  1.1634  1.6321 -0.3605
 2568SOL    HW219164   3.109   1.234   7.943 -0.8427  1.4149 -2.7088
 2569SOL     OW19165   2.444   0.718   7.872 -0.7504 -0.0320  1.1589
 2569SOL    HW119166   2.451   0.701   7.778  1.6193 -0.8984  1.4717
 2569SOL    HW219167   2.495   0.799   7.870 -0.8473 -0.0226 -0.6404
 2570SOL     OW19168   4.228   3.299   7.004  0.4884  0.7950 -0.1459
 2570SOL    HW119169   4.311   3.260   7.031 -1.1000 -3.4343 -1.2747
 2570SOL    HW219170   4.180   3.305   7.087 -0.6166  1.2230 -0.8123
 2571SOL     OW19171   3.716   3.431  16.864 -0.5962 -0.0588  0.0211
 2571SOL    HW119172   3.717   3.429  16.768 -1.6666 -0.1919  0.0077
 2571SOL    HW219173   3.622   3.435  16.883 -0.9297 -1.1938 -1.3712
 2572SOL     OW19174   1.426   4.263   8.068 -0.0601 -0.4905 -0.3421
 2572SOL    HW119175   1.350   4.306   8.029 -0.2375 -0.9904 -0.5398
 2572SOL    HW219176   1.490   4.299   8.007  2.6738 -2.5955  1.2939
 2573SOL     OW19177   0.763   0.362   8.413  0.2202  0.8790 -0.2937
 2573SOL    HW119178   0.687   0.394   8.460 -0.5653 -0.8753 -0.3758
 2573SOL    HW219179   0.823   0.437   8.411 -0.9873  1.8353 -0.5045
 2574SOL     OW19180   0.116   4.128   1.528  0.9296  0.2505 -0.2104
 2574SOL    HW119181   0.040   4.175   1.493  0.1033 -0.5069  0.5820
 2574SOL    HW219182   0.101   4.041   1.490 -0.8626 -0.1169  1.3281
 2575SOL     OW19183   1.215   2.451   8.712 -0.2074  0.1734  0.0732
 2575SOL    HW119184   1.266   2.489   8.783 -1.8123 -1.5373  2.1162
 2575SOL    HW219185   1.144   2.413   8.763 -0.0957  2.5377  1.9668
 2576SOL     OW19186   0.798   1.212  10.071 -0.0228 -0.2153  0.1633
 2576SOL    HW119187   0.783   1.222  10.165  2.8606 -1.0664  0.7192
 2576SOL    HW219188   0.892   1.230  10.069 -0.0805  0.0462 -0.2825
 2577SOL     OW19189   2.792   0.121   7.621 -0.0624 -0.2763 -0.0208
 2577SOL    HW119190   2.779   0.168   7.703 -0.0618  1.6678 -1.1373
 2577SOL    HW219191   2.702   0.094   7.603  0.0201 -1.4559  1.2726
 2578SOL     OW19192   3.840   4.387   6.879  0.0880 -0.2025 -0.0311
 2578SOL    HW119193   3.827   4.477   6.850 -2.4404 -0.1736  1.2325
 2578SOL    HW219194   3.781   4.353   6.812 -1.6624  2.8314 -0.0114
 2579SOL     OW19195   0.074   2.721   4.698  0.1700 -0.4894 -0.2652
 2579SOL    HW119196   0.137   2.666   4.745  1.8928  0.5296 -1.3741
 2579SOL    HW219197   0.012   2.715   4.770 -0.6396 -0.8632 -0.9935
 2580SOL     OW19198   0.583   1.817   3.890 -0.0311  0.3586  0.1259
 2580SOL    HW119199   0.650   1.749   3.901  1.3553  1.1615 -3.3906
 2580SOL    HW219200   0.591   1.844   3.981  1.5812  1.8716 -0.4607
 2581SOL     OW19201   1.330   4.253  13.688 -0.7430  0.4213  0.1985
 2581SOL    HW119202   1.246   4.208  13.691  0.8533 -2.3609  2.4023
 2581SOL    HW219203   1.305   4.339  13.723 -1.6316  0.3146 -0.1853
 2582SOL     OW19204   3.770   4.434   3.076  0.7013 -0.2574 -0.0184
 2582SOL    HW119205   3.796   4.518   3.113 -2.3482  0.8715 -0.4878
 2582SOL    HW219206   3.695   4.416   3.134  0.1382 -0.1077 -0.7046
 2583SOL     OW19207   3.861   1.816   3.021  0.1555 -0.2955  0.1538
 2583SOL    HW119208   3.774   1.831   2.983  0.2680  1.4422  0.6189
 2583SOL    HW219209   3.849   1.787   3.112  3.2160  0.6794  0.8652
 2584SOL     OW19210   4.546   0.693   0.682  0.2155 -0.6258 -0.2428
 2584SOL    HW119211   4.587   0.778   0.666  1.7682 -1.0479  1.3785
 2584SOL    HW219212   4.538   0.664   0.591 -0.5952  0.6933 -0.5870
 2585SOL     OW19213   0.677   3.301   7.714  0.1597 -0.5611 -0.0936
 2585SOL    HW119214   0.640   3.326   7.798  0.3399 -1.1728  0.1651
 2585SOL    HW219215   0.761   3.271   7.749 -0.3340  0.1832  1.7308
 2586SOL     OW19216   1.764   4.059  16.245  0.1155 -0.0376 -0.5646
 2586SOL    HW119217   1.755   3.972  16.206  0.2314  0.8626 -2.6332
 2586SOL    HW219218   1.853   4.055  16.279 -0.8053  0.3255  1.8846
 2587SOL     OW19219   2.952   1.317   0.522 -0.1053  0.5367  0.2959
 2587SOL    HW119220   2.955   1.321   0.618 -0.6422  0.2438  0.3245
 2587SOL    HW219221   2.912   1.231   0.507  0.6142  0.3963 -0.7828
 2588SOL     OW19222   2.654   2.116   6.261 -0.5992 -0.0850 -0.2511
 2588SOL    HW119223   2.616   2.065   6.189  2.0124 -0.2380 -1.4956
 2588SOL    HW219224   2.609   2.201   6.256  0.7849  0.4779 -3.0462
 2589SOL     OW19225   4.140   2.116  15.051 -0.1009 -0.0855  0.2706
 2589SOL    HW119226   4.136   2.023  15.074  1.8058 -0.1823  0.2550
 2589SOL    HW219227   4.177   2.155  15.131 -1.8589  1.8470  0.1246
 2590SOL     OW19228   2.664   3.943   5.465 -0.3438 -0.5712 -0.0033
 2590SOL    HW119229   2.634   3.855   5.488 -2.0419 -0.6881 -2.7923
 2590SOL    HW219230   2.712   3.924   5.384 -1.3478  2.1938 -1.2144
 2591SOL     OW19231   3.005   3.663   9.690  0.2830  0.0699  0.0338
 2591SOL    HW119232   2.950   3.739   9.707 -1.4801 -1.1957 -0.0432
 2591SOL    HW219233   3.093   3.700   9.694  0.5923 -1.2875  5.2106
 2592SOL     OW19234   3.682   3.418   8.712 -0.1244 -0.2954 -0.3614
 2592SOL    HW119235   3.731   3.400   8.632 -0.7557 -0.0615 -0.7957
 2592SOL    HW219236   3.691   3.513   8.716 -0.6064 -0.1944 -1.8579
 2593SOL     OW19237   3.137   4.253   1.610 -0.0348 -0.1442  0.0682
 2593SOL    HW119238   3.055   4.303   1.617 -1.8290 -3.1520  0.4291
 2593SOL    HW219239   3.192   4.328   1.632 -0.0208  0.1454 -0.9635
 2594SOL     OW19240   2.003   3.086   2.921  0.1146  0.1491 -0.3822
 2594SOL    HW119241   2.008   3.122   3.010 -1.6319 -0.4500 -0.0297
 2594SOL    HW219242   1.924   3.131   2.890 -1.4420 -2.2071  0.1300
 2595SOL     OW19243   3.934   2.014   9.032  0.1039  0.1205 -0.3451
 2595SOL    HW119244   3.894   1.937   8.991  0.0900  0.8944 -1.7896
 2595SOL    HW219245   3.958   1.976   9.117  0.2433 -1.5224 -1.1157
 2596SOL     OW19246   3.373   0.664   2.755  0.1899  0.4590 -0.2821
 2596SOL    HW119247   3.295   0.609   2.759  0.3899  0.1516 -0.6004
 2596SOL    HW219248   3.440   0.595   2.751 -0.3299  0.0481 -2.0759
 2597SOL     OW19249   0.477   3.720   3.550 -0.0834  0.6558 -0.4358
 2597SOL    HW119250   0.441   3.694   3.465 -0.3863 -1.2961  0.2868
 2597SOL    HW219251   0.479   3.813   3.526 -2.0960  0.5756 -0.9197
 2598SOL     OW19252   1.299   0.490  13.120  0.0539  0.0622 -0.0893
 2598SOL    HW119253   1.367   0.525  13.062  0.2228 -5.0954 -2.9515
 2598SOL    HW219254   1.219   0.532  13.088 -0.2457  0.2366  0.8966
 2599SOL     OW19255   4.620   3.145   9.305  0.2795  0.0114 -0.0656
 2599SOL    HW119256   4.553   3.077   9.306  0.9268 -0.5696  2.3443
 2599SOL    HW219257   4.573   3.229   9.312  0.4711  0.3537 -2.7712
 2600SOL     OW19258   3.152   3.931   2.399  0.7909 -0.3339  0.0547
 2600SOL    HW119259   3.126   3.848   2.359 -1.1489  0.5298 -0.4861
 2600SOL    HW219260   3.143   3.922   2.494  1.4250 -1.5660  0.0038
 2601SOL     OW19261   3.371   4.249  13.123  0.0715 -0.6737  0.0968
 2601SOL    HW119262   3.438   4.188  13.092  0.1813  0.1959 -1.3685
 2601SOL    HW219263   3.374   4.232  13.217 -1.0836 -0.3625  0.1799
 2602SOL     OW19264   4.404   3.001   2.227 -0.1054 -0.5461  0.2576
 2602SOL    HW119265   4.432   2.946   2.153 -1.2491 -0.6461 -0.1086
 2602SOL    HW219266   4.358   3.066   2.175 -1.5841 -2.3772 -0.7440
 2603SOL     OW19267   1.997   2.732  13.951 -0.1542  0.3098 -0.4238
 2603SOL    HW119268   2.006   2.675  13.875  4.5424 -0.3210  0.6024
 2603SOL    HW219269   2.054   2.804  13.924 -0.7677  1.4679  1.3685
 2604SOL     OW19270   0.448   3.823  15.149  0.6220  0.1415 -0.2618
 2604SOL    HW119271   0.507   3.770  15.204  0.3916  0.0851 -0.0692
 2604SOL    HW219272   0.500   3.903  15.142 -0.7996  1.0218 -0.6065
 2605SOL     OW19273   4.206   3.923  15.349  0.5428  0.0182  0.3986
 2605SOL    HW119274   4.263   3.866  15.400 -2.7263 -2.2214  1.5497
 2605SOL    HW219275   4.148   3.862  15.304  1.4335 -0.0680 -0.6423
 2606SOL     OW19276   2.184   2.943   8.423 -0.0241 -0.4947 -0.9662
 2606SOL    HW119277   2.143   2.867   8.464 -0.5143  0.8643  1.0455
 2606SOL    HW219278   2.111   2.960   8.363  0.3626  2.9432 -0.4393
 2607SOL     OW19279   1.024   1.780  11.411 -0.5746  0.1859  0.2826
 2607SOL    HW119280   1.005   1.805  11.321 -0.3505  0.3982  0.2971
 2607SOL    HW219281   0.972   1.850  11.450 -1.4408 -0.6156  0.5895
 2608SOL     OW19282   2.019   1.355   8.751 -0.9832  0.1636 -0.0982
 2608SOL    HW119283   1.968   1.400   8.819  0.2352  1.0121  0.2564
 2608SOL    HW219284   1.952   1.319   8.693 -0.9005  0.6966 -0.5216
 2609SOL     OW19285   4.544   3.940  16.560  0.2502 -0.1440  0.0232
 2609SOL    HW119286   4.450   3.950  16.570  0.0714 -2.4516  0.8688
 2609SOL    HW219287   4.559   3.863  16.616  0.1474  0.5101  0.9589
 2610SOL     OW19288   1.300   0.838   4.439 -0.3602  0.2652 -0.2484
 2610SOL    HW119289   1.301   0.877   4.352 -1.1248  0.0046 -0.3729
 2610SOL    HW219290   1.393   0.814   4.435  0.4318  3.4416 -0.5976
 2611SOL     OW19291   0.793   1.487  10.881 -0.2728  1.1147 -0.3404
 2611SOL    HW119292   0.866   1.531  10.837  1.7118  0.6657  2.4676
 2611SOL    HW219293   0.724   1.552  10.867 -1.3845  0.1154  0.5307
 2612SOL     OW19294   2.908   4.354   1.120 -0.1042 -0.3084 -0.1068
 2612SOL    HW119295   2.968   4.290   1.159 -0.0225 -1.7367 -2.6222
 2612SOL    HW219296   2.864   4.293   1.061 -0.3511  0.8481 -1.1086
 2613SOL     OW19297   3.923   2.344  14.273  0.0741  0.2553  0.2442
 2613SOL    HW119298   3.860   2.295  14.220  0.1430 -0.3068  0.6770
 2613SOL    HW219299   3.999   2.286  14.273  0.3290  0.5911  0.6512
 2614SOL     OW19300   4.405   4.106   7.872 -0.1904 -0.7583  0.1777
 2614SOL    HW119301   4.310   4.109   7.861 -0.4121 -1.0293  2.0118
 2614SOL    HW219302   4.410   4.082   7.965 -0.8668 -1.0576  0.1345
 2615SOL     OW19303   1.149   2.629   7.400 -0.1057  0.4064  0.1794
 2615SOL    HW119304   1.070   2.683   7.410 -0.8850 -0.6911 -0.0514
 2615SOL    HW219305   1.161   2.621   7.306 -1.9835 -1.8943  0.1162
 2616SOL     OW19306   3.005   4.119   0.230  1.4990 -0.1113  0.0331
 2616SOL    HW119307   3.044   4.088   0.312  0.5828 -1.9427 -0.2245
 2616SOL    HW219308   2.974   4.202   0.267 -2.0909 -1.1010 -0.7484
 2617SOL     OW19309   4.597   2.977   7.735 -0.3145  0.2733 -0.5438
 2617SOL    HW119310   4.541   2.996   7.810 -0.6871  0.2852 -0.8293
 2617SOL    HW219311   4.655   3.054   7.740  0.8624 -0.7898  2.3810
 2618SOL     OW19312   0.414   1.813   1.856 -0.4110 -0.6214 -0.1805
 2618SOL    HW119313   0.371   1.770   1.783 -1.7074 -1.5199  1.0981
 2618SOL    HW219314   0.402   1.906   1.836  0.6421 -0.3647  0.3484
 2619SOL     OW19315   4.434   4.275   1.447  0.0877 -0.2511 -0.1972
 2619SOL    HW119316   4.471   4.250   1.363  0.3837  1.2502 -0.4965
 2619SOL    HW219317   4.356   4.324   1.422 -0.1041 -0.3680  0.1751
 2620SOL     OW19318   3.681   0.601   7.303 -0.6815 -0.3351  0.4850
 2620SOL    HW119319   3.726   0.521   7.330  0.6501  0.0885 -0.4879
 2620SOL    HW219320   3.734   0.633   7.230  0.4464 -1.8327  0.6478
 2621SOL     OW19321   3.585   1.056  16.066  0.2788 -0.2910 -0.5882
 2621SOL    HW119322   3.562   1.088  16.154 -0.9379 -0.8583 -0.7155
 2621SOL    HW219323   3.629   1.135  16.034  0.2923  0.6279  1.6584
 2622SOL     OW19324   3.250   3.216   4.359 -0.1462 -0.1751 -0.2904
 2622SOL    HW119325   3.177   3.205   4.299  0.0505 -1.2960 -0.3142
 2622SOL    HW219326   3.226   3.294   4.410 -0.4095  0.9329 -2.0870
 2623SOL     OW19327   0.934   2.991  13.221  0.6985 -0.4129 -0.4708
 2623SOL    HW119328   0.961   2.901  13.239  1.0500 -0.3317 -0.6055
 2623SOL    HW219329   0.926   2.992  13.125  2.3341 -0.7315 -0.6084
 2624SOL     OW19330   0.155   1.555   7.243  0.4191  0.2744 -0.1673
 2624SOL    HW119331   0.129   1.475   7.289  0.3900  0.9012  0.9258
 2624SOL    HW219332   0.082   1.605   7.281  0.8816 -0.0232  1.1333
 2625SOL     OW19333   3.911   0.293   7.821 -0.6216 -0.4695 -0.1481
 2625SOL    HW119334   3.869   0.336   7.895  1.8248  0.3575  0.7564
 2625SOL    HW219335   3.923   0.363   7.757  0.2246  1.6472  2.3466
 2626SOL     OW19336   0.062   0.610  16.176 -0.5613 -0.5579  0.1263
 2626SOL    HW119337   0.097   0.544  16.235 -0.2467 -1.1057 -0.6722
 2626SOL    HW219338   4.714   0.655  16.227 -0.9344 -0.4350 -0.4730
 2627SOL     OW19339   2.774   2.643   4.585 -0.3106 -0.7031 -0.6650
 2627SOL    HW119340   2.790   2.551   4.562 -0.9022 -1.1273  0.6337
 2627SOL    HW219341   2.696   2.660   4.532  0.3002 -1.9540 -1.9951
 2628SOL     OW19342   3.801   2.941   5.416  0.3406  0.5008  0.3071
 2628SOL    HW119343   3.803   2.927   5.321  0.4701  0.6338  0.2912
 2628SOL    HW219344   3.871   3.003   5.437  2.1902 -1.4866 -0.0148
 2629SOL     OW19345   0.030   1.669   1.788 -0.3350  0.0404  0.1225
 2629SOL    HW119346   4.663   1.709   1.777 -0.0960 -0.0709 -2.2775
 2629SOL    HW219347   0.088   1.744   1.803  1.0837 -1.1745  0.6109
 2630SOL     OW19348   4.629   0.678   8.193  0.1120  0.3610 -0.1039
 2630SOL    HW119349   4.656   0.588   8.213  1.4017  0.8336  0.2551
 2630SOL    HW219350   4.653   0.718   8.276 -0.0824  0.2714 -0.0042
 2631SOL     OW19351   0.807   2.263   4.255 -0.0225 -0.0289  0.0278
 2631SOL    HW119352   0.719   2.229   4.273  0.5079 -1.9939 -0.9899
 2631SOL    HW219353   0.799   2.350   4.217  3.2560  0.1403 -0.2763
 2632SOL     OW19354   3.443   0.529   4.375  0.1406 -0.0911  0.1649
 2632SOL    HW119355   3.385   0.573   4.437  1.3643  1.2229  0.3631
 2632SOL    HW219356   3.492   0.474   4.437  0.1444  0.0873  0.3206
 2633SOL     OW19357   1.881   2.432   7.240  0.4091 -0.2447  0.1432
 2633SOL    HW119358   1.805   2.483   7.211  0.0896 -0.0946  1.2643
 2633SOL    HW219359   1.857   2.344   7.209 -0.2954  0.8566 -2.4674
 2634SOL     OW19360   1.025   0.996   3.654 -0.7004 -0.0748 -0.3331
 2634SOL    HW119361   0.952   0.937   3.635 -2.0525  1.7888 -0.8455
 2634SOL    HW219362   1.033   1.036   3.568  2.6664 -0.9839 -0.4855
 2635SOL     OW19363   1.302   0.376   5.128 -0.5658  0.3419 -0.1953
 2635SOL    HW119364   1.242   0.399   5.058 -0.1783  1.2764 -0.2321
 2635SOL    HW219365   1.353   0.324   5.066  1.0122 -0.8062  2.0330
 2636SOL     OW19366   3.509   2.242   3.536 -0.4483  0.3442 -0.3482
 2636SOL    HW119367   3.459   2.292   3.600  0.0046 -1.9612  1.7983
 2636SOL    HW219368   3.544   2.321   3.493 -1.2754  0.4081 -0.8982
 2637SOL     OW19369   0.937   2.443  14.594 -0.6442  0.0037  0.4018
 2637SOL    HW119370   0.880   2.513  14.561  0.8225  1.0983  0.2292
 2637SOL    HW219371   0.914   2.382  14.524 -0.9292  1.2555 -0.6070
 2638SOL     OW19372   3.656   2.542   7.628 -0.3778  0.1363 -0.2205
 2638SOL    HW119373   3.671   2.471   7.691 -0.1515 -0.2104 -0.6655
 2638SOL    HW219374   3.732   2.536   7.571 -1.9285  1.9459 -2.4873
 2639SOL     OW19375   0.917   4.109   2.674  0.2087  0.4975  0.2327
 2639SOL    HW119376   0.841   4.057   2.701  3.4429 -3.2470  2.0581
 2639SOL    HW219377   0.878   4.173   2.614 -1.9321 -0.9240  0.1030
 2640SOL     OW19378   0.515   3.899  15.773  0.0893 -0.0497 -0.1167
 2640SOL    HW119379   0.528   3.955  15.849  0.0034  1.6893 -1.3908
 2640SOL    HW219380   0.592   3.843  15.782  0.8056  1.1003  0.8796
 2641SOL     OW19381   1.081   3.751   0.425  0.2047  0.0265 -0.2876
 2641SOL    HW119382   1.079   3.773   0.332 -1.4351  0.5271 -0.1224
 2641SOL    HW219383   1.140   3.819   0.459  0.7673 -0.0437 -1.1174
 2642SOL     OW19384   3.547   4.688   9.046  0.3455  0.3081  0.3379
 2642SOL    HW119385   3.502   4.712   8.965  1.6172  1.0095 -0.1638
 2642SOL    HW219386   3.625   0.025   9.053 -0.0795  1.4301 -3.6707
 2643SOL     OW19387   0.727   1.512   4.437  0.4865 -0.2917  0.0627
 2643SOL    HW119388   0.702   1.458   4.361 -1.4288  1.3337 -0.4437
 2643SOL    HW219389   0.815   1.481   4.461  1.1256 -0.6657 -2.7634
 2644SOL     OW19390   3.124   0.506  17.669  0.4571 -0.1900 -0.1477
 2644SOL    HW119391   3.082   0.562  17.603 -1.1503 -0.3532  0.7362
 2644SOL    HW219392   3.046   0.465   0.027 -0.9992  1.2971 -1.5143
 2645SOL     OW19393   1.197   1.629  10.069 -0.0084  0.1020  0.2085
 2645SOL    HW119394   1.123   1.633  10.008 -0.5907  0.0133  0.9128
 2645SOL    HW219395   1.229   1.540  10.066  1.1984  0.4892  1.9248
 2646SOL     OW19396   0.357   1.145   8.085  0.3678 -0.4049  0.1282
 2646SOL    HW119397   0.275   1.095   8.079 -0.7258  1.8428 -3.4764
 2646SOL    HW219398   0.406   1.110   8.011  1.1388  1.5911 -0.3065
 2647SOL     OW19399   1.440   4.545   7.670 -0.3152  0.0127  0.2463
 2647SOL    HW119400   1.410   4.465   7.625  0.4657 -1.2827  2.0415
 2647SOL    HW219401   1.453   4.603   7.595 -0.4814  1.1355  1.0857
 2648SOL     OW19402   0.899   2.419  14.861  0.8455  0.2548 -0.4692
 2648SOL    HW119403   0.901   2.428  14.765 -0.6624  1.6359 -0.3793
 2648SOL    HW219404   0.869   2.328  14.868 -0.6812  0.8130  0.1172
 2649SOL     OW19405   1.442   4.639  17.406  0.2342  0.2864  0.1799
 2649SOL    HW119406   1.494   4.612  17.330 -2.0599 -0.0637 -1.2571
 2649SOL    HW219407   1.506   4.664  17.473  0.3222 -0.3758  0.3420
 2650SOL     OW19408   3.082   1.034   5.705  0.0104 -0.0510  0.1504
 2650SOL    HW119409   3.145   0.981   5.656 -0.2455  0.2852 -0.5497
 2650SOL    HW219410   3.080   0.988   5.789  2.0221  0.3637  0.4137
 2651SOL     OW19411   3.782   2.835  14.375 -0.5787 -0.3622  0.2739
 2651SOL    HW119412   3.712   2.803  14.431  0.5022 -0.8272  1.3520
 2651SOL    HW219413   3.788   2.763  14.312 -1.8277 -0.4702  0.2757
 2652SOL     OW19414   1.348   0.472   7.246  0.0317 -0.5324  0.3535
 2652SOL    HW119415   1.263   0.499   7.211  0.5856  2.1021  1.0863
 2652SOL    HW219416   1.418   0.507   7.190 -0.8868 -1.1780 -1.2198
 2653SOL     OW19417   2.716   0.984  17.115 -0.2617 -0.4276 -0.3682
 2653SOL    HW119418   2.646   0.980  17.180 -0.4960 -1.7200 -0.7073
 2653SOL    HW219419   2.663   1.033  17.052 -0.8260  1.7197  1.7499
 2654SOL     OW19420   1.522   0.029  16.605 -0.4577  0.1538  0.5418
 2654SOL    HW119421   1.542   4.683  16.538  2.1637  2.0346 -0.4889
 2654SOL    HW219422   1.498   0.103  16.549  2.2443  0.1286 -0.6046
 2655SOL     OW19423   0.769   3.442   1.289 -0.0192 -0.4764 -0.5687
 2655SOL    HW119424   0.802   3.394   1.213  0.2755 -0.2576 -0.5814
 2655SOL    HW219425   0.696   3.385   1.312  0.7230 -1.2511 -0.1298
 2656SOL     OW19426   1.603   3.433   2.384  0.6190 -0.1884 -0.4193
 2656SOL    HW119427   1.567   3.521   2.394  1.0320 -0.1092  0.4193
 2656SOL    HW219428   1.673   3.456   2.323  1.3949  3.0369  1.7138
 2657SOL     OW19429   4.052   3.621   7.130 -0.4397 -0.1802  0.1907
 2657SOL    HW119430   4.016   3.555   7.071  0.3817  0.8255 -1.4419
 2657SOL    HW219431   3.979   3.678   7.152 -0.6107 -0.7841  1.2040
 2658SOL     OW19432   3.393   3.215  11.900 -0.4949  0.2048  0.0895
 2658SOL    HW119433   3.488   3.213  11.903 -0.4775 -1.4684 -1.2847
 2658SOL    HW219434   3.370   3.236  11.990  1.5465  3.0841 -0.0906
 2659SOL     OW19435   3.143   0.252   0.238 -0.4738 -0.4289 -0.2626
 2659SOL    HW119436   3.199   0.300   0.298 -0.3040 -1.4002  0.3642
 2659SOL    HW219437   3.207   0.219   0.175  0.1191  1.9861 -0.8920
 2660SOL     OW19438   2.336   0.556   8.954  0.0846  0.2157  0.3863
 2660SOL    HW119439   2.330   0.561   9.049 -0.6379 -0.2168  0.3691
 2660SOL    HW219440   2.279   0.631   8.934  0.1415  0.5677  1.5709
 2661SOL     OW19441   3.857   0.688   1.907 -0.4895  0.2966 -0.0342
 2661SOL    HW119442   3.837   0.601   1.941  0.9909  0.8050  2.1073
 2661SOL    HW219443   3.944   0.710   1.940 -0.3554 -1.0494  0.5013
 2662SOL     OW19444   0.599   4.408   3.014 -0.2504 -0.3975  0.1591
 2662SOL    HW119445   0.613   4.324   3.057  1.4726  0.4878  1.3175
 2662SOL    HW219446   0.540   4.382   2.943  0.2420  3.0347 -1.5084
 2663SOL     OW19447   2.734   3.530   6.562  0.0658  0.0026 -0.1751
 2663SOL    HW119448   2.740   3.621   6.592 -0.2694 -0.1855  0.4616
 2663SOL    HW219449   2.749   3.526   6.468  0.8300  1.3164 -0.1109
 2664SOL     OW19450   4.701   3.359   2.346  0.6404  0.1833 -0.6792
 2664SOL    HW119451   4.679   3.420   2.416 -0.4855  0.1275 -0.9718
 2664SOL    HW219452   4.637   3.381   2.278 -1.0892  1.3017  1.3347
 2665SOL     OW19453   0.571   1.523  14.507  0.0489  0.5037  0.2881
 2665SOL    HW119454   0.647   1.581  14.512  1.4780 -1.1984 -1.4610
 2665SOL    HW219455   0.528   1.539  14.591 -2.6192 -0.9478 -0.7966
 2666SOL     OW19456   1.828   2.283   4.282 -0.2846  0.1206  0.5488
 2666SOL    HW119457   1.874   2.312   4.203  0.6673 -0.2624  0.9751
 2666SOL    HW219458   1.740   2.259   4.252 -0.2054 -1.8524  1.8868
 2667SOL     OW19459   4.250   0.125   9.439  0.1991  0.2274 -0.3042
 2667SOL    HW119460   4.338   0.158   9.421 -0.6468  0.6739 -3.5781
 2667SOL    HW219461   4.218   0.077   9.363 -2.5384 -0.1767  1.0921
 2668SOL     OW19462   1.644   0.945   5.128 -0.0735  0.3081 -0.0291
 2668SOL    HW119463   1.701   1.005   5.079 -0.9631  0.7472 -0.5278
 2668SOL    HW219464   1.567   0.967   5.077 -0.0700  2.2718  0.7944
 2669SOL     OW19465   2.235   1.894  16.687 -0.2224 -0.0953 -0.4791
 2669SOL    HW119466   2.325   1.927  16.696 -0.0588 -1.1347  1.7102
 2669SOL    HW219467   2.237   1.850  16.603  0.2141  0.0679 -0.5570
 2670SOL     OW19468   2.930   1.037   3.528  0.5363 -0.2056  0.3939
 2670SOL    HW119469   2.991   0.964   3.537  0.1647 -0.2666  2.3662
 2670SOL    HW219470   2.891   1.005   3.447 -1.4738  2.9613  0.1013
 2671SOL     OW19471   0.485   1.371   7.015  0.2054 -0.4260 -0.5885
 2671SOL    HW119472   0.518   1.309   6.949 -1.7295 -0.5514 -1.4277
 2671SOL    HW219473   0.393   1.349   7.022  1.0921 -3.6835  0.9052
 2672SOL     OW19474   0.953   0.983   9.712  0.1110 -0.3902 -0.5944
 2672SOL    HW119475   0.994   0.950   9.792 -2.2768 -0.8185  0.4544
 2672SOL    HW219476   0.968   0.907   9.655 -1.0550 -0.9212 -0.1945
 2673SOL     OW19477   1.197   3.623   8.667 -0.1757 -0.1011  0.1027
 2673SOL    HW119478   1.176   3.710   8.634 -2.3727 -0.4558  0.5531
 2673SOL    HW219479   1.225   3.649   8.754 -0.1685 -0.1557  0.1170
 2674SOL     OW19480   3.304   1.764   7.562 -0.1658 -0.2330 -0.5501
 2674SOL    HW119481   3.371   1.717   7.611  0.3695  0.2955 -0.7855
 2674SOL    HW219482   3.231   1.707   7.537 -1.0075  0.4083  0.4285
 2675SOL     OW19483   4.686   0.521   5.225  0.1925  0.0136 -0.3713
 2675SOL    HW119484   4.604   0.568   5.211  0.9482  0.9430 -1.7292
 2675SOL    HW219485   4.652   0.431   5.219 -0.3788  0.3153 -1.8217
 2676SOL     OW19486   3.430   2.313  11.576 -0.2871  0.2103 -0.4020
 2676SOL    HW119487   3.388   2.234  11.608  0.2139  0.5641  1.1441
 2676SOL    HW219488   3.518   2.282  11.556  0.1062 -0.3303  2.1697
 2677SOL     OW19489   2.424   0.448   5.778  0.2479 -0.1796  0.5295
 2677SOL    HW119490   2.356   0.393   5.740 -0.9742  0.4223  1.8724
 2677SOL    HW219491   2.477   0.462   5.699 -0.4412  1.3784  0.3465
 2678SOL     OW19492   1.039   3.340  13.091 -0.3201  0.2173  0.2087
 2678SOL    HW119493   1.130   3.363  13.109 -0.1366  0.3135 -0.7940
 2678SOL    HW219494   1.055   3.249  13.066  0.9698  0.4552  0.1380
 2679SOL     OW19495   4.328   0.962  10.776 -0.1218 -0.1828  0.0613
 2679SOL    HW119496   4.253   1.021  10.785 -0.1997 -0.3863  0.7705
 2679SOL    HW219497   4.274   0.888  10.748 -0.0504 -1.0727  2.2303
 2680SOL     OW19498   0.601   4.259  17.230 -0.0526  0.4232 -0.2582
 2680SOL    HW119499   0.627   4.170  17.209 -0.1432  0.1816  0.6494
 2680SOL    HW219500   0.688   4.294  17.252 -0.3260  1.0831 -0.2046
 2681SOL     OW19501   0.951   4.382   1.962 -0.6142 -0.3530 -0.1475
 2681SOL    HW119502   1.037   4.367   1.922 -0.4626 -1.5767  0.6258
 2681SOL    HW219503   0.909   4.432   1.892  0.9546 -0.5144 -1.2184
 2682SOL     OW19504   3.799   3.195   7.822  0.1394 -0.4203  0.2965
 2682SOL    HW119505   3.783   3.238   7.906  1.4343  1.7332 -0.5645
 2682SOL    HW219506   3.711   3.169   7.793 -0.7104  3.1377 -0.3559
 2683SOL     OW19507   1.896   4.347   4.719 -0.1054  0.7243 -0.2719
 2683SOL    HW119508   1.956   4.397   4.773  1.7649  0.8500 -2.4755
 2683SOL    HW219509   1.931   4.342   4.630 -0.4512  0.7699 -0.4140
 2684SOL     OW19510   3.274   2.601   9.385 -0.3684 -0.0984  0.2400
 2684SOL    HW119511   3.278   2.512   9.352 -3.1265 -0.1182 -0.0304
 2684SOL    HW219512   3.197   2.629   9.336  1.6254  3.7338 -0.7881
 2685SOL     OW19513   3.670   0.131  14.013 -0.8620 -0.3055  0.0960
 2685SOL    HW119514   3.652   0.163  13.925 -0.9748  0.1569  0.2857
 2685SOL    HW219515   3.714   0.046  14.007  0.5054  0.2264  2.4764
 2686SOL     OW19516   2.084   1.170  15.126 -0.1756 -0.1730 -0.0728
 2686SOL    HW119517   2.022   1.098  15.115 -0.5034  0.2211 -0.7720
 2686SOL    HW219518   2.048   1.238  15.069  2.6724  1.5939  0.2224
 2687SOL     OW19519   3.186   3.472   2.376  0.2825 -0.3675 -0.0967
 2687SOL    HW119520   3.209   3.436   2.290  0.9698 -0.0110 -0.0620
 2687SOL    HW219521   3.142   3.395   2.412 -2.0169  1.1778  0.4405
 2688SOL     OW19522   1.959   0.995   6.512 -0.0184  0.6942 -0.6774
 2688SOL    HW119523   1.979   0.988   6.605 -2.8889 -2.2981 -0.2939
 2688SOL    HW219524   1.959   1.091   6.513 -1.7963  0.6858  0.0119
 2689SOL     OW19525   2.187   4.588   7.086 -0.3184 -0.2365 -0.1593
 2689SOL    HW119526   2.237   4.669   7.095  2.8400 -2.3088  0.9591
 2689SOL    HW219527   2.235   4.535   7.023  0.3478  0.9116 -0.6133
 2690SOL     OW19528   3.736   4.002   5.253  0.5076  0.1858 -0.1641
 2690SOL    HW119529   3.785   3.920   5.254 -0.6685 -0.5240 -0.3378
 2690SOL    HW219530   3.663   3.961   5.299  1.2144 -1.4924 -0.5657
 2691SOL     OW19531   2.659   1.111   1.900  0.1755 -0.0339 -0.1765
 2691SOL    HW119532   2.614   1.166   1.965  0.8957  0.9038 -0.4791
 2691SOL    HW219533   2.717   1.181   1.872 -0.1013 -0.5155 -1.9830
 2692SOL     OW19534   4.344   1.662  10.989 -0.2747  0.1632  0.2578
 2692SOL    HW119535   4.303   1.718  11.056  2.1029  1.9258  0.2247
 2692SOL    HW219536   4.434   1.667  11.019 -0.6659  0.5228  1.3826
 2693SOL     OW19537   3.054   0.547   2.986  0.2603  0.0323  0.1638
 2693SOL    HW119538   3.097   0.629   3.010  2.0326 -0.6429 -0.6148
 2693SOL    HW219539   3.091   0.492   3.056 -0.6742  1.0587  1.4642
 2694SOL     OW19540   1.728   1.152   6.318  0.8096  0.3438 -0.3749
 2694SOL    HW119541   1.689   1.237   6.302  1.1803  0.3833 -1.0500
 2694SOL    HW219542   1.654   1.101   6.350  2.4048 -1.4221  0.5237
 2695SOL     OW19543   3.275   0.997  15.555 -0.0343 -0.2720  0.1517
 2695SOL    HW119544   3.260   1.054  15.631  0.0036  1.6066 -1.2484
 2695SOL    HW219545   3.355   1.039  15.525 -0.9077  0.9465 -0.4624
 2696SOL     OW19546   4.268   2.026   3.219  0.0017 -0.0378  0.3054
 2696SOL    HW119547   4.259   1.931   3.206  2.0023 -0.2388  0.4197
 2696SOL    HW219548   4.292   2.033   3.312 -0.5986  1.8701  0.3150
 2697SOL     OW19549   0.204   1.755   5.741 -0.2242 -0.1781 -0.2331
 2697SOL    HW119550   0.121   1.797   5.718 -1.2516 -1.1010  1.8210
 2697SOL    HW219551   0.200   1.754   5.836  0.7890 -0.3334 -0.2000
 2698SOL     OW19552   0.311   1.486   9.393 -0.4499 -0.4222  0.6910
 2698SOL    HW119553   0.250   1.527   9.455 -1.4231  1.1940 -1.3267
 2698SOL    HW219554   0.263   1.419   9.345  0.0623  1.7608 -2.8834
 2699SOL     OW19555   1.287   1.547   2.543 -0.2425 -0.2149 -0.3614
 2699SOL    HW119556   1.201   1.537   2.501  0.1126 -3.8051 -0.2845
 2699SOL    HW219557   1.271   1.498   2.624  2.8619 -1.1281 -0.2863
 2700SOL     OW19558   0.858   4.423   4.798  0.1855 -1.2006  0.3448
 2700SOL    HW119559   0.878   4.361   4.868 -1.3553 -1.7580  0.2795
 2700SOL    HW219560   0.812   4.372   4.731  0.7631 -2.6594  1.0730
 2701SOL     OW19561   4.565   1.568   8.946 -0.1536  0.7938 -0.1743
 2701SOL    HW119562   4.619   1.602   8.875  2.2401 -1.7127  0.4550
 2701SOL    HW219563   4.617   1.593   9.023 -0.6505  2.0844 -0.2625
 2702SOL     OW19564   0.961   1.577   8.633  0.0740 -0.3545 -0.1864
 2702SOL    HW119565   0.967   1.495   8.682  4.0242  0.4688  0.6537
 2702SOL    HW219566   1.036   1.625   8.667 -0.1915  0.7614 -1.1806
 2703SOL     OW19567   4.192   1.314   6.659  1.1252 -0.2665  0.5001
 2703SOL    HW119568   4.273   1.316   6.609  0.7451 -1.2310 -0.1547
 2703SOL    HW219569   4.197   1.402   6.697  2.2183 -0.8445  1.6827
 2704SOL     OW19570   1.505   2.461  16.386 -0.3728  0.7617  0.2052
 2704SOL    HW119571   1.412   2.479  16.377 -0.5516  0.4414  1.4131
 2704SOL    HW219572   1.508   2.451  16.481 -3.0501 -0.6197  0.1210
 2705SOL     OW19573   0.667   3.171   3.719 -0.1789  0.0372 -0.3082
 2705SOL    HW119574   0.733   3.201   3.656 -0.1777  0.8171  0.0711
 2705SOL    HW219575   0.670   3.077   3.703 -0.7374 -0.1706  0.8317
 2706SOL     OW19576   1.811   0.769   4.781 -0.7179 -0.0006  1.2698
 2706SOL    HW119577   1.797   0.859   4.809 -2.9091 -0.1326  0.5711
 2706SOL    HW219578   1.724   0.732   4.792 -1.8140  2.0257 -0.5906
 2707SOL     OW19579   1.703   4.268   8.221  0.3472  0.0823  0.2332
 2707SOL    HW119580   1.780   4.256   8.165 -1.0582 -0.1550 -1.6611
 2707SOL    HW219581   1.639   4.301   8.158 -0.3372 -1.8372 -0.0894
 2708SOL     OW19582   3.511   1.344  12.176  0.0753 -0.2692 -0.3128
 2708SOL    HW119583   3.422   1.364  12.207  0.5022  1.0195  0.0986
 2708SOL    HW219584   3.560   1.339  12.258  2.8118 -0.9130 -2.0139
 2709SOL     OW19585   3.291   1.542  16.123  0.3080 -0.2050  0.1738
 2709SOL    HW119586   3.221   1.606  16.114 -1.7942 -2.4733  0.5679
 2709SOL    HW219587   3.341   1.594  16.187  0.4031 -0.1534  0.0590
 2710SOL     OW19588   0.584   0.970   3.865 -0.2967 -0.5015  0.2368
 2710SOL    HW119589   0.650   1.038   3.854 -0.5411 -0.5714 -1.6737
 2710SOL    HW219590   0.500   1.016   3.871  0.4110  0.5553  1.9848
 2711SOL     OW19591   4.273   1.440   5.823  0.4084 -0.7027  0.2734
 2711SOL    HW119592   4.188   1.439   5.867 -0.3836  1.6214 -1.1924
 2711SOL    HW219593   4.240   1.399   5.742  1.3875 -2.3772  0.7190
 2712SOL     OW19594   1.003   2.169   6.030 -0.4144 -0.5203 -0.2064
 2712SOL    HW119595   1.007   2.260   6.060 -0.8356 -0.4504 -0.3572
 2712SOL    HW219596   1.046   2.184   5.946  1.0328 -1.5099  0.3578
 2713SOL     OW19597   0.634   0.365   2.320 -0.0297 -0.5833  0.2528
 2713SOL    HW119598   0.645   0.272   2.342  1.9868  0.2365  2.7546
 2713SOL    HW219599   0.701   0.378   2.253 -0.0337 -1.4413  0.0798
 2714SOL     OW19600   3.218   1.035  12.772  0.1245  0.4509  0.2884
 2714SOL    HW119601   3.172   1.085  12.838  0.9412 -0.0505  1.2382
 2714SOL    HW219602   3.158   1.005  12.704  0.3774  1.2129 -0.2818
 2715SOL     OW19603   4.248   2.332   7.908 -0.2582 -0.0807  0.4490
 2715SOL    HW119604   4.269   2.284   7.828  2.0075  0.0948  0.9241
 2715SOL    HW219605   4.284   2.420   7.896  1.2972 -0.3131  3.5075
 2716SOL     OW19606   4.555   0.787   4.167 -0.0624  0.2926  0.3958
 2716SOL    HW119607   4.560   0.707   4.220 -1.9377  0.2783  0.5373
 2716SOL    HW219608   4.634   0.783   4.112 -0.0769 -0.5949  0.4342
 2717SOL     OW19609   2.556   0.446   7.884  0.2966 -0.3295  0.7024
 2717SOL    HW119610   2.482   0.450   7.945 -0.4358 -0.2915 -0.1767
 2717SOL    HW219611   2.535   0.522   7.830 -1.2704 -0.3882  1.2065
 2718SOL     OW19612   2.562   1.543   7.937  0.5997 -0.3453 -0.4426
 2718SOL    HW119613   2.486   1.599   7.956  0.7657 -0.4998  0.6797
 2718SOL    HW219614   2.631   1.601   7.906 -0.5466  0.5445 -1.2932
 2719SOL     OW19615   4.304   1.762   3.206 -0.2682 -0.4584 -0.6752
 2719SOL    HW119616   4.263   1.684   3.243 -0.0259 -0.5702 -0.6429
 2719SOL    HW219617   4.312   1.728   3.116  0.6047 -2.8918  0.3298
 2720SOL     OW19618   3.279   0.604  16.017  0.3453 -0.8866 -0.7214
 2720SOL    HW119619   3.348   0.637  15.960  0.5294  0.7346  0.4140
 2720SOL    HW219620   3.310   0.516  16.036 -0.4025 -1.1973 -0.9718
 2721SOL     OW19621   0.122   0.423  13.787  0.3991 -0.7845 -0.4133
 2721SOL    HW119622   0.180   0.496  13.809  0.3636 -1.0265  0.4748
 2721SOL    HW219623   0.148   0.362  13.856  2.0430  1.4109  0.9164
 2722SOL     OW19624   2.050   4.467   7.819 -0.6246 -0.1615  0.3750
 2722SOL    HW119625   2.140   4.446   7.797  0.3752  0.2996  3.9592
 2722SOL    HW219626   2.046   4.558   7.792  0.4692 -0.5918 -1.2188
 2723SOL     OW19627   0.095   1.908  11.832 -0.3118 -0.3403  0.0445
 2723SOL    HW119628   0.057   1.987  11.873 -0.7694  0.1944 -1.4058
 2723SOL    HW219629   0.044   1.899  11.752  2.2646 -4.3661 -1.1441
 2724SOL     OW19630   1.312   2.816   5.313 -0.2722  0.2852  0.1569
 2724SOL    HW119631   1.312   2.729   5.354  2.4661  0.3482  0.3375
 2724SOL    HW219632   1.315   2.854   5.400  1.0644 -0.8088  0.6001
 2725SOL     OW19633   0.054   2.996   8.878  0.5876  0.7669 -0.2056
 2725SOL    HW119634   4.694   3.030   8.837 -0.3881  0.4923  1.4371
 2725SOL    HW219635   0.062   3.053   8.954  0.8190 -1.3223  1.3334
 2726SOL     OW19636   1.658   2.986   6.230 -0.4181 -0.2682  0.1412
 2726SOL    HW119637   1.679   3.080   6.237 -0.2923 -0.4307  2.0509
 2726SOL    HW219638   1.743   2.964   6.190 -0.6589  0.4690 -0.7734
 2727SOL     OW19639   4.450   2.578  10.561 -0.1279 -0.2589  0.1043
 2727SOL    HW119640   4.493   2.544  10.640 -1.3261  0.3915  1.0229
 2727SOL    HW219641   4.397   2.653  10.588 -0.1062 -0.1059 -0.2769
 2728SOL     OW19642   4.641   2.279   1.345  0.2664 -0.1864 -0.1371
 2728SOL    HW119643   4.684   2.253   1.263 -0.2538 -0.1843 -0.4070
 2728SOL    HW219644   4.582   2.205   1.355 -1.1654  1.2832  2.2324
 2729SOL     OW19645   3.984   2.846  16.905 -0.8442  0.4376 -0.5768
 2729SOL    HW119646   3.928   2.890  16.969  0.8943 -0.1162  1.3399
 2729SOL    HW219647   3.966   2.887  16.820 -0.2438  0.9129 -0.4805
 2730SOL     OW19648   0.584   0.267  16.290 -1.4159 -0.4216 -0.0645
 2730SOL    HW119649   0.595   0.179  16.325  1.4231 -0.6218 -1.4178
 2730SOL    HW219650   0.502   0.297  16.328 -0.6589  0.3725  0.9572
 2731SOL     OW19651   0.926   1.490   3.623 -0.7729 -0.1016 -0.1596
 2731SOL    HW119652   0.843   1.449   3.649  0.2258 -2.3804 -0.6121
 2731SOL    HW219653   0.985   1.415   3.623 -0.6404  0.0047 -0.0346
 2732SOL     OW19654   4.669   0.842   4.969 -0.5813  0.1243  0.0937
 2732SOL    HW119655   4.597   0.887   5.013  1.3839  1.5322  1.8475
 2732SOL    HW219656   0.015   0.910   4.980  0.6821 -0.8955 -1.0766
 2733SOL     OW19657   2.294   4.420   3.307  0.0347  0.4434 -0.6409
 2733SOL    HW119658   2.346   4.496   3.333  1.7119 -0.8793 -0.1643
 2733SOL    HW219659   2.369   4.362   3.293 -0.2441  0.6204 -2.8866
 2734SOL     OW19660   1.539   2.374   6.482  0.1308  0.0576  0.0417
 2734SOL    HW119661   1.479   2.300   6.486 -1.4611  1.1948 -2.1074
 2734SOL    HW219662   1.617   2.342   6.527  0.1447 -1.2279 -0.9190
 2735SOL     OW19663   2.507   3.161   4.882  0.0132  0.2565 -0.4328
 2735SOL    HW119664   2.526   3.148   4.789  1.2523  0.9173 -0.2771
 2735SOL    HW219665   2.439   3.228   4.876 -0.4338 -0.5720 -4.4690
 2736SOL     OW19666   4.085   4.431   2.294 -0.2428 -0.5259 -0.3833
 2736SOL    HW119667   4.019   4.458   2.358  1.9407  1.6263  0.9593
 2736SOL    HW219668   4.165   4.465   2.334  0.6362 -2.4384 -0.5051
 2737SOL     OW19669   0.814   0.004   8.668  0.1950 -0.3965  0.1724
 2737SOL    HW119670   0.867   4.684   8.737  0.1422  0.0502  0.4635
 2737SOL    HW219671   0.748   0.052   8.717 -0.7919 -1.0447 -0.5151
 2738SOL     OW19672   3.703   1.168   8.763 -0.2715 -0.1506  0.2440
 2738SOL    HW119673   3.729   1.134   8.848  2.3405 -0.3791 -0.6499
 2738SOL    HW219674   3.644   1.098   8.734 -1.8302  1.2212  0.1286
 2739SOL     OW19675   1.652   4.506   5.931  0.2869  0.2719  0.0063
 2739SOL    HW119676   1.712   4.568   5.972  1.4018 -0.6273 -0.2642
 2739SOL    HW219677   1.623   4.556   5.855 -0.8276 -0.0452  0.2263
 2740SOL     OW19678   0.852   2.473   8.418 -0.2667 -0.0059  0.3908
 2740SOL    HW119679   0.848   2.561   8.454 -0.2874  0.1471  0.0109
 2740SOL    HW219680   0.920   2.481   8.351 -0.1002  1.6934  0.7701
 2741SOL     OW19681   0.149   0.978   6.849 -0.1921  0.2210  0.1900
 2741SOL    HW119682   0.136   0.903   6.791  3.8275  2.0233 -2.9951
 2741SOL    HW219683   0.168   1.058   6.800 -1.8805 -0.2744 -1.2837
 2742SOL     OW19684   1.199   4.319   5.741 -0.3966 -0.0147  0.6791
 2742SOL    HW119685   1.288   4.337   5.772 -0.0729 -1.9452  0.8730
 2742SOL    HW219686   1.221   4.245   5.684  0.3365 -1.1897  2.4788
 2743SOL     OW19687   3.045   1.535   9.092  0.0073  0.1739  0.2918
 2743SOL    HW119688   3.099   1.589   9.149 -1.6650  1.3381  0.7997
 2743SOL    HW219689   2.976   1.517   9.156  0.9522 -1.5249  0.8087
 2744SOL     OW19690   3.014   2.749   7.325 -0.4614 -0.3002 -0.0619
 2744SOL    HW119691   2.957   2.770   7.399  1.0806  1.4647  0.6225
 2744SOL    HW219692   3.093   2.717   7.370 -0.6226 -0.8850 -0.1921
 2745SOL     OW19693   0.165   2.197  15.751  0.9917 -0.6646 -0.2570
 2745SOL    HW119694   0.143   2.239  15.668 -0.0503 -0.5379  0.0799
 2745SOL    HW219695   0.108   2.120  15.753 -0.8128  0.7311  2.0751
 2746SOL     OW19696   4.128   0.803   6.069  0.0313 -0.2703  0.6344
 2746SOL    HW119697   4.194   0.843   6.126  1.2621 -0.1017 -0.9117
 2746SOL    HW219698   4.101   0.735   6.130  0.0746 -0.1840  0.7506
 2747SOL     OW19699   0.652   3.549  10.958  0.0629 -0.0040 -0.3455
 2747SOL    HW119700   0.735   3.519  10.996 -0.9951  0.4964  2.3662
 2747SOL    HW219701   0.613   3.585  11.037  0.4495  3.3543 -1.6704
 2748SOL     OW19702   0.740   0.862   6.095  0.3762  0.0774 -0.1995
 2748SOL    HW119703   0.677   0.835   6.028 -0.4715 -0.9199  1.0041
 2748SOL    HW219704   0.718   0.809   6.172 -1.1070  1.4297  0.2849
 2749SOL     OW19705   0.492   3.729  14.895 -0.5236 -0.1312 -0.0214
 2749SOL    HW119706   0.417   3.692  14.849  0.8112 -0.5396 -1.9079
 2749SOL    HW219707   0.458   3.745  14.983  0.5484 -0.2597  0.4194
 2750SOL     OW19708   2.330   3.198   2.278 -0.2316  0.4991 -0.2381
 2750SOL    HW119709   2.307   3.235   2.192 -0.4218  0.1787 -0.3259
 2750SOL    HW219710   2.251   3.207   2.331 -0.1050 -3.8060  0.6773
 2751SOL     OW19711   2.475   2.070   8.042 -0.3377 -0.6022  0.1390
 2751SOL    HW119712   2.460   2.120   7.961  1.6017  0.1339  0.2336
 2751SOL    HW219713   2.541   2.124   8.085 -0.1220 -1.2322  0.5896
 2752SOL     OW19714   2.317   0.978   1.426  0.0843 -0.7495  0.2567
 2752SOL    HW119715   2.251   1.020   1.370  0.2999 -1.2647 -0.3820
 2752SOL    HW219716   2.279   0.971   1.513  0.5269  0.8571  0.5882
 2753SOL     OW19717   3.890   2.012  17.375  0.1516 -0.2524 -0.4991
 2753SOL    HW119718   3.864   2.104  17.377  0.3917 -0.1602 -1.9853
 2753SOL    HW219719   3.817   1.989  17.318 -1.3768 -0.7124  1.6395
 2754SOL     OW19720   3.862   0.116   4.265  0.0364  0.0089  0.3188
 2754SOL    HW119721   3.933   0.122   4.201 -0.8898  2.6415 -0.4979
 2754SOL    HW219722   3.781   0.130   4.216  0.3596 -0.4922 -0.3588
 2755SOL     OW19723   0.920   0.571  15.693  0.3200  0.0063  0.4857
 2755SOL    HW119724   0.935   0.623  15.772 -1.9005  2.6960 -0.8512
 2755SOL    HW219725   0.995   0.602  15.642 -0.3378  1.1132  0.2104
 2756SOL     OW19726   2.977   0.672   5.640  0.0067 -0.1498  0.8818
 2756SOL    HW119727   2.993   0.640   5.551 -1.3892  1.2173  0.1356
 2756SOL    HW219728   2.881   0.669   5.641 -0.0261 -0.8319 -2.1964
 2757SOL     OW19729   4.607   1.389   0.749 -0.3181  0.3307 -0.3974
 2757SOL    HW119730   4.620   1.439   0.669 -1.4787  0.8961 -0.2287
 2757SOL    HW219731   4.695   1.367   0.779 -1.0125  0.0945  1.4988
 2758SOL     OW19732   1.778   2.930  14.130  0.4834 -0.1024  0.1297
 2758SOL    HW119733   1.818   2.955  14.213  0.5566 -1.4295  0.4847
 2758SOL    HW219734   1.705   2.992  14.122 -0.0280 -0.9344 -1.6600
 2759SOL     OW19735   1.657   4.413  11.406  0.2674  0.2629 -0.2137
 2759SOL    HW119736   1.622   4.481  11.348  0.6708 -1.2986 -2.2552
 2759SOL    HW219737   1.751   4.418  11.388  0.0244  0.5091 -1.4404
 2760SOL     OW19738   1.004   3.749   3.818 -0.4394 -0.3843  0.1051
 2760SOL    HW119739   0.919   3.724   3.853 -1.8262  2.6635 -0.9859
 2760SOL    HW219740   1.036   3.789   3.899  0.4210  0.0102 -0.4320
 2761SOL     OW19741   0.752   1.004   5.593 -0.1237  0.3835 -0.1713
 2761SOL    HW119742   0.777   1.036   5.679  0.1142 -0.2187 -0.0208
 2761SOL    HW219743   0.835   0.980   5.552 -0.0378 -0.1500  0.3150
 2762SOL     OW19744   3.036   4.195   5.646 -0.1374  0.2084  0.0374
 2762SOL    HW119745   3.020   4.280   5.606 -1.1042  0.5169  1.0781
 2762SOL    HW219746   2.946   4.163   5.655  0.5227 -1.7891 -0.3692
 2763SOL     OW19747   1.421   0.593   5.971 -0.1964 -0.7688  0.7507
 2763SOL    HW119748   1.456   0.514   5.929  1.4907  0.0420  0.6184
 2763SOL    HW219749   1.478   0.597   6.047  1.0369  0.0745 -0.2112
 2764SOL     OW19750   3.734   2.971   3.271 -0.0207  0.5217  0.6233
 2764SOL    HW119751   3.652   2.971   3.221  0.4926 -2.1484 -0.2478
 2764SOL    HW219752   3.803   3.006   3.215  0.4557  0.3171  1.0830
 2765SOL     OW19753   3.585   1.567   4.757 -0.3824 -0.2205  0.2468
 2765SOL    HW119754   3.593   1.476   4.726 -0.5208 -0.0383 -0.3217
 2765SOL    HW219755   3.500   1.555   4.800 -0.1559 -3.9966 -0.3227
 2766SOL     OW19756   1.236   1.846   1.132 -0.2122 -0.2400 -0.2752
 2766SOL    HW119757   1.255   1.934   1.164  0.4645 -1.6001  3.0114
 2766SOL    HW219758   1.147   1.852   1.098 -1.1337 -0.4923  2.1027
 2767SOL     OW19759   0.344   0.631   4.032 -0.6544 -0.5075 -0.1211
 2767SOL    HW119760   0.306   0.640   3.944  0.7030  0.0275 -0.6495
 2767SOL    HW219761   0.310   0.547   4.065 -1.0803  0.9536  3.0798
 2768SOL     OW19762   4.518   2.558   1.772  0.0833 -0.0694  0.1311
 2768SOL    HW119763   4.439   2.579   1.723 -0.5927 -1.6278  0.5428
 2768SOL    HW219764   4.564   2.499   1.713  0.3092 -0.8891  1.1146
 2769SOL     OW19765   0.910   0.511   0.246  0.0034  0.6716  0.1734
 2769SOL    HW119766   0.939   0.453   0.316  0.3595  1.1114  0.3913
 2769SOL    HW219767   0.961   0.589   0.268  1.7174 -0.7673  1.3625
 2770SOL     OW19768   2.800   4.028   7.908 -0.7206  0.4236  0.7568
 2770SOL    HW119769   2.779   4.012   8.000 -1.5474  0.6679  0.6116
 2770SOL    HW219770   2.888   4.065   7.914 -0.3210 -0.1672 -1.3694
 2771SOL     OW19771   4.613   2.945   5.945 -0.2106  0.4512 -0.3678
 2771SOL    HW119772   4.579   2.931   5.857  0.6543  0.9227 -0.7842
 2771SOL    HW219773   4.697   2.901   5.934 -1.1835 -1.6178  0.6353
 2772SOL     OW19774   4.179   3.022  11.963  0.1625 -0.2914 -0.4345
 2772SOL    HW119775   4.147   2.974  12.039  1.0536  0.3064  0.3195
 2772SOL    HW219776   4.149   3.112  11.975  0.0408 -0.7557  2.6478
 2773SOL     OW19777   1.282   3.445   5.184  0.1062  0.6202  0.1372
 2773SOL    HW119778   1.267   3.397   5.102  0.6650 -2.7892  2.0341
 2773SOL    HW219779   1.202   3.421   5.231  1.1016 -0.2638  1.3825
 2774SOL     OW19780   0.737   0.338  12.098  0.5508  0.3368 -0.0820
 2774SOL    HW119781   0.780   0.262  12.138 -1.7673 -0.7997  0.2322
 2774SOL    HW219782   0.751   0.406  12.165 -0.6706  1.1437 -0.6538
 2775SOL     OW19783   2.846   0.269   1.036  0.0050  0.2970 -0.1284
 2775SOL    HW119784   2.783   0.292   1.104 -1.9698 -1.3771 -1.3532
 2775SOL    HW219785   2.897   0.203   1.082  0.5485  1.1501  0.4783
 2776SOL     OW19786   0.306   4.559   3.805 -0.2007  0.1863 -0.1891
 2776SOL    HW119787   0.221   4.517   3.797  0.2512 -0.4762 -1.4685
 2776SOL    HW219788   0.297   4.581   3.898 -1.8114 -2.6948  0.3288
 2777SOL     OW19789   3.377   2.389   3.710 -0.1704  0.4466 -0.1209
 2777SOL    HW119790   3.396   2.460   3.772 -0.0652 -0.8017  1.2616
 2777SOL    HW219791   3.286   2.405   3.684 -0.2994  0.4358  0.3171
 2778SOL     OW19792   1.181   1.209  10.548 -0.4461 -0.1788  0.4339
 2778SOL    HW119793   1.153   1.297  10.522  1.0831 -0.3526 -1.7801
 2778SOL    HW219794   1.150   1.155  10.475 -0.6707 -1.2813  1.3415
 2779SOL     OW19795   0.079   4.253   4.108 -0.1297 -0.0358  0.2995
 2779SOL    HW119796   0.039   4.187   4.165 -1.3340  0.4858  0.0519
 2779SOL    HW219797   0.125   4.306   4.173 -0.1633  0.9113 -0.4589
 2780SOL     OW19798   1.649   4.301   6.138 -0.1124 -0.2771 -0.7524
 2780SOL    HW119799   1.632   4.392   6.115 -0.4619  0.4645  2.3889
 2780SOL    HW219800   1.740   4.295   6.109  0.7152 -1.4085  2.0791
 2781SOL     OW19801   2.029   4.407   6.149 -0.4238  0.2744  0.0193
 2781SOL    HW119802   2.109   4.367   6.116 -0.2723 -0.7386  1.6251
 2781SOL    HW219803   2.035   4.496   6.116 -1.2102  0.9726  1.7602
 2782SOL     OW19804   2.731   2.294   1.535  0.3653  0.1196  0.1242
 2782SOL    HW119805   2.757   2.363   1.473 -0.2498  1.3699  1.2433
 2782SOL    HW219806   2.750   2.222   1.475  0.5653  0.5760 -0.3627
 2783SOL     OW19807   1.395   0.993   5.040 -0.0326 -0.1891 -0.1498
 2783SOL    HW119808   1.308   0.955   5.031  0.2784 -1.3833  1.8813
 2783SOL    HW219809   1.386   1.077   4.995 -1.8741  0.2655  1.0704
 2784SOL     OW19810   0.690   2.920   7.561  0.1074  0.4655  0.7239
 2784SOL    HW119811   0.681   2.895   7.653 -0.3183  0.5912  0.7133
 2784SOL    HW219812   0.689   3.015   7.551  1.2977  0.2411 -1.6596
 2785SOL     OW19813   1.659   1.040   8.675 -0.0611  0.2516 -0.0307
 2785SOL    HW119814   1.572   1.073   8.653  0.1007  2.3550  2.4108
 2785SOL    HW219815   1.696   1.129   8.677  2.3128 -0.7304 -0.7171
 2786SOL     OW19816   0.083   3.610   3.374 -0.1605 -0.2290  0.2215
 2786SOL    HW119817   0.038   3.545   3.319  1.7262  1.5890 -3.4745
 2786SOL    HW219818   0.036   3.627   3.456 -1.0334 -3.1655  0.3250
 2787SOL     OW19819   2.489   4.627  13.237 -0.0360  0.2283 -0.5768
 2787SOL    HW119820   2.465   4.559  13.300  1.5790 -1.1281 -1.4553
 2787SOL    HW219821   2.544   4.569  13.185 -2.2769 -2.9294  0.6249
 2788SOL     OW19822   0.183   3.216   4.514  0.2439 -0.3788 -0.3207
 2788SOL    HW119823   0.135   3.218   4.431 -1.4009 -2.3708  0.5683
 2788SOL    HW219824   0.120   3.163   4.563 -2.0501  2.6472 -0.0082
 2789SOL     OW19825   0.637   2.177   5.050 -0.4591  0.5151  0.8058
 2789SOL    HW119826   0.683   2.107   5.004  2.5510  0.4240  3.9657
 2789SOL    HW219827   0.550   2.139   5.064  0.7854 -2.6665 -0.2806
 2790SOL     OW19828   3.628   0.935  14.440 -0.6151 -0.2954 -0.0801
 2790SOL    HW119829   3.701   0.993  14.460 -1.7715  0.2091  2.5968
 2790SOL    HW219830   3.585   0.987  14.372  3.9585  4.1315  0.4088
 2791SOL     OW19831   3.775   1.595  16.033  0.6004  0.1085  0.0344
 2791SOL    HW119832   3.817   1.576  15.949 -1.4003  0.0455 -0.9529
 2791SOL    HW219833   3.727   1.513  16.044 -1.3844  1.0303 -1.8272
 2792SOL     OW19834   4.285   0.057   1.729 -0.4893 -0.2713  0.4366
 2792SOL    HW119835   4.316   4.686   1.727 -0.5109 -0.3031  1.8650
 2792SOL    HW219836   4.220   0.055   1.799  1.9806 -1.0933  2.7271
 2793SOL     OW19837   2.908   0.985   7.325  0.2296 -0.3848  0.1175
 2793SOL    HW119838   2.827   0.958   7.283  0.4393  0.5328 -0.8863
 2793SOL    HW219839   2.952   0.901   7.315  0.0801 -0.4503  0.0137
 2794SOL     OW19840   3.827   3.814  11.395 -0.2069  0.0610 -0.2731
 2794SOL    HW119841   3.902   3.847  11.344 -0.0868  0.7407  0.3317
 2794SOL    HW219842   3.782   3.896  11.417  1.0061  0.3982  0.9755
 2795SOL     OW19843   4.547   3.492  15.470 -0.2519 -0.4102  0.2740
 2795SOL    HW119844   4.484   3.420  15.474  0.2097 -0.8658 -0.6252
 2795SOL    HW219845   4.623   3.455  15.514 -0.7213 -1.4706  0.1779
 2796SOL     OW19846   3.748   0.609   9.096 -0.0696 -0.3884 -0.4088
 2796SOL    HW119847   3.758   0.518   9.124 -0.4568 -0.6407 -1.0813
 2796SOL    HW219848   3.815   0.621   9.028  0.9432  2.1180  1.0439
 2797SOL     OW19849   3.712   2.671  10.088  0.0046  0.5384 -0.3434
 2797SOL    HW119850   3.713   2.763  10.115 -3.2483  0.1737  1.0795
 2797SOL    HW219851   3.686   2.684   9.997  0.0118  1.9899 -0.1443
 2798SOL     OW19852   1.531   1.992   5.768 -0.0236 -0.2625  0.0338
 2798SOL    HW119853   1.505   1.914   5.719  0.6610 -0.4518 -0.0183
 2798SOL    HW219854   1.484   2.059   5.718  1.4936 -0.0576 -1.1132
 2799SOL     OW19855   0.817   2.630   1.394 -0.6693 -0.4587 -0.0389
 2799SOL    HW119856   0.749   2.563   1.385  0.9921 -2.4450  1.8589
 2799SOL    HW219857   0.772   2.709   1.423 -0.4722  0.1582 -1.4143
 2800SOL     OW19858   3.739   0.767  12.514  0.5848 -0.1094  0.0623
 2800SOL    HW119859   3.720   0.853  12.551  0.2717 -0.7376  1.3501
 2800SOL    HW219860   3.664   0.754  12.456 -0.7085  0.1791  1.7005
 2801SOL     OW19861   0.987   2.536   0.961  0.0807 -0.1711  0.5772
 2801SOL    HW119862   0.988   2.581   0.876  1.5400 -1.2828 -0.0080
 2801SOL    HW219863   0.915   2.574   1.012  0.6311 -0.8444  1.8638
 2802SOL     OW19864   0.222   2.131   2.168  0.0682 -0.1480  0.1978
 2802SOL    HW119865   0.186   2.166   2.086 -0.1381  0.0227  0.3615
 2802SOL    HW219866   0.146   2.151   2.222  0.8609 -0.8873  1.5695
 2803SOL     OW19867   2.424   4.279   4.554 -0.1847  0.7346 -0.4844
 2803SOL    HW119868   2.370   4.295   4.632  0.1247 -1.0773  0.1036
 2803SOL    HW219869   2.507   4.253   4.594 -0.1325  1.1743 -0.3088
 2804SOL     OW19870   0.097   2.519   2.612 -0.4498  0.2744  0.1267
 2804SOL    HW119871   0.002   2.523   2.605 -0.5468 -0.6548  0.8696
 2804SOL    HW219872   0.125   2.602   2.572 -1.0680  0.7665  0.7152
 2805SOL     OW19873   0.397   3.010   5.422 -0.6412 -0.3282  0.0747
 2805SOL    HW119874   0.471   3.029   5.365 -1.8129  0.2476 -1.2711
 2805SOL    HW219875   0.439   2.968   5.496  1.0647  1.1887 -0.0450
 2806SOL     OW19876   1.602   2.871   1.965 -0.3747 -0.5373  0.2616
 2806SOL    HW119877   1.509   2.864   1.988 -0.6428  0.8539 -0.4152
 2806SOL    HW219878   1.629   2.947   2.016  0.0291 -0.1651 -0.5114
 2807SOL     OW19879   2.734   2.617  15.325  0.3052 -0.2667 -0.3774
 2807SOL    HW119880   2.754   2.620  15.418 -1.1598  0.4579 -0.0904
 2807SOL    HW219881   2.646   2.655  15.329  0.4285 -0.0309  0.1406
 2808SOL     OW19882   3.754   2.122  15.292 -0.1471  0.1435  0.3025
 2808SOL    HW119883   3.727   2.209  15.321 -1.5276 -0.0794 -0.3046
 2808SOL    HW219884   3.784   2.089  15.377 -0.5353  1.7550  1.0678
 2809SOL     OW19885   3.245   3.908   8.300  0.2497 -0.3557  0.2672
 2809SOL    HW119886   3.259   3.940   8.390  0.4311  0.1007  0.0773
 2809SOL    HW219887   3.178   3.841   8.315 -0.4723  0.6880  1.8087
 2810SOL     OW19888   2.096   3.372   6.430 -0.1872 -0.1835  0.5328
 2810SOL    HW119889   2.049   3.367   6.346  0.6356 -0.2063  0.0744
 2810SOL    HW219890   2.024   3.399   6.486  1.4638 -0.5461  2.8148
 2811SOL     OW19891   2.844   1.776   1.313 -0.5910 -1.1332  0.0115
 2811SOL    HW119892   2.754   1.799   1.294  0.3289  1.5022 -1.1099
 2811SOL    HW219893   2.823   1.702   1.370 -1.2895 -0.2103  0.9404
 2812SOL     OW19894   3.212   0.315   7.629  0.0605 -0.8225 -0.0773
 2812SOL    HW119895   3.261   0.342   7.707 -1.5911 -2.1019  1.4169
 2812SOL    HW219896   3.157   0.243   7.662  0.4995 -0.6250  1.0716
 2813SOL     OW19897   0.113   4.679   6.925 -0.0370  0.6179  0.1529
 2813SOL    HW119898   0.077   4.607   6.978  3.6299 -0.7587  0.8007
 2813SOL    HW219899   0.040   0.021   6.932 -0.1084  0.5172  0.2947
 2814SOL     OW19900   0.444   4.417  11.558 -0.2601  0.1834 -0.0267
 2814SOL    HW119901   0.437   4.512  11.567 -1.8657 -0.1462  2.2435
 2814SOL    HW219902   0.472   4.391  11.646  0.6558  0.4184 -0.2458
 2815SOL     OW19903   3.626   1.824   4.832  0.4374 -0.0972 -0.2556
 2815SOL    HW119904   3.543   1.827   4.879  1.3064 -1.2257  1.3622
 2815SOL    HW219905   3.623   1.729   4.818  1.8455 -0.2567  0.4900
 2816SOL     OW19906   0.530   1.703   6.022  0.2691  0.2507 -0.0444
 2816SOL    HW119907   0.488   1.780   6.060 -0.6402  0.6814 -1.9621
 2816SOL    HW219908   0.615   1.740   6.000 -0.1979  3.0147  2.7915
 2817SOL     OW19909   2.050   1.353  14.923  0.3140 -0.7524 -0.2170
 2817SOL    HW119910   2.143   1.375  14.926  0.2198 -1.1050  4.3290
 2817SOL    HW219911   2.002   1.433  14.944  2.8075  0.6363  0.0967
 2818SOL     OW19912   0.846   3.581   2.490 -0.1810  0.0089 -0.0847
 2818SOL    HW119913   0.833   3.493   2.455  0.9907 -0.5028  0.7447
 2818SOL    HW219914   0.769   3.626   2.456 -0.7495 -2.0228 -1.4758
 2819SOL     OW19915   3.484   3.794  16.902  0.5988  0.0380 -0.0072
 2819SOL    HW119916   3.454   3.724  16.960  1.2233  0.1328  0.4245
 2819SOL    HW219917   3.410   3.854  16.888 -0.1101 -0.3980  1.8445
 2820SOL     OW19918   0.899   2.492  13.214 -1.4449 -0.0337 -0.3472
 2820SOL    HW119919   0.893   2.531  13.301 -0.9923  1.4005 -0.9691
 2820SOL    HW219920   0.910   2.401  13.244 -2.3569  0.8501  2.6978
 2821SOL     OW19921   1.779   0.255   3.388 -0.3693  0.3552 -0.5832
 2821SOL    HW119922   1.763   0.194   3.316 -0.0832 -2.3205  1.6286
 2821SOL    HW219923   1.819   0.324   3.335 -0.2685 -0.7200 -1.9227
 2822SOL     OW19924   1.938   2.197   3.686 -0.2455  0.1705 -0.2412
 2822SOL    HW119925   1.881   2.249   3.744  0.8035  0.1444  0.8130
 2822SOL    HW219926   1.872   2.136   3.653 -0.7085  0.1866  0.6465
 2823SOL     OW19927   0.821   3.658   8.817 -0.2923  0.0462 -0.1622
 2823SOL    HW119928   0.767   3.645   8.739 -0.9448 -0.5867  0.3989
 2823SOL    HW219929   0.772   3.733   8.852 -0.9304 -0.1635 -0.6092
 2824SOL     OW19930   3.127   3.866  16.135  0.0668 -0.1253  0.3511
 2824SOL    HW119931   3.203   3.837  16.085  1.8680  2.1925  1.7499
 2824SOL    HW219932   3.087   3.913  16.062  0.9362  3.0634  1.8973
 2825SOL     OW19933   1.377   3.222  16.082  0.0529  0.3424 -0.7105
 2825SOL    HW119934   1.427   3.200  16.004  0.9760  0.4077 -0.1305
 2825SOL    HW219935   1.407   3.312  16.093 -0.0985  0.2261  0.6624
 2826SOL     OW19936   3.073   4.014   1.510  0.3419 -0.1403  0.2725
 2826SOL    HW119937   3.110   4.098   1.539  2.4808 -0.7391 -0.7139
 2826SOL    HW219938   3.147   3.985   1.457  1.4748  4.2552 -0.5987
 2827SOL     OW19939   0.350   3.840   8.919  0.0639 -0.0903  0.4733
 2827SOL    HW119940   0.340   3.780   8.992 -0.3853 -1.6766 -0.8825
 2827SOL    HW219941   0.393   3.787   8.851 -1.8484 -0.9103 -0.1094
 2828SOL     OW19942   1.347   3.134   6.761 -0.4325  0.3485 -0.1811
 2828SOL    HW119943   1.355   3.046   6.724 -0.1752 -0.8408  2.6866
 2828SOL    HW219944   1.384   3.185   6.689  0.2172 -0.1485 -0.1982
 2829SOL     OW19945   1.958   2.928  15.000 -0.8356 -0.1577 -0.4431
 2829SOL    HW119946   1.984   2.964  15.084 -1.4953  0.6267 -0.5786
 2829SOL    HW219947   1.919   3.005  14.958  0.6261  1.2509  0.7570
 2830SOL     OW19948   1.316   0.982   7.677  0.6617 -0.2325  0.2424
 2830SOL    HW119949   1.380   1.038   7.723  0.8135  0.8137 -1.2301
 2830SOL    HW219950   1.363   0.899   7.680  0.1726 -0.5672 -2.1166
 2831SOL     OW19951   3.679   3.583   4.607  0.4635 -0.4023  0.2360
 2831SOL    HW119952   3.597   3.554   4.568  0.9652 -1.5723  0.0499
 2831SOL    HW219953   3.651   3.666   4.647 -1.1662 -0.3608 -0.9816
 2832SOL     OW19954   0.789   0.810   0.101 -0.5036  0.0463  0.6569
 2832SOL    HW119955   0.876   0.771   0.094  0.6717  2.8984 -0.5748
 2832SOL    HW219956   0.812   0.899   0.128 -0.5078  0.7127 -1.5949
 2833SOL     OW19957   2.832   1.807   7.683  0.0263 -0.7089  0.6992
 2833SOL    HW119958   2.802   1.823   7.593 -1.6363 -2.1496  1.0021
 2833SOL    HW219959   2.901   1.872   7.694  0.6502 -1.2664  0.0814
 2834SOL     OW19960   4.591   3.131   5.664  0.1470  0.3195  1.1660
 2834SOL    HW119961   4.517   3.146   5.722 -1.7098  0.3382 -1.2055
 2834SOL    HW219962   4.576   3.037   5.651 -0.6118  0.6163 -0.1277
 2835SOL     OW19963   0.350   3.495   4.362  0.0972 -0.3374 -0.9119
 2835SOL    HW119964   0.390   3.408   4.362 -1.4582 -1.0421  0.0933
 2835SOL    HW219965   0.337   3.509   4.456  0.6459  2.1297 -1.1991
 2836SOL     OW19966   1.977   2.544  11.155  0.4947 -0.7617  0.2072
 2836SOL    HW119967   2.012   2.528  11.067  0.4058 -2.9748  0.5636
 2836SOL    HW219968   1.915   2.472  11.165  1.8789 -1.9494  0.2769
 2837SOL     OW19969   3.799   3.604   9.293  0.1249  0.2519 -0.6962
 2837SOL    HW119970   3.723   3.576   9.242  0.5075 -0.6776 -0.7506
 2837SOL    HW219971   3.813   3.524   9.342  0.0729  1.4506  1.2654
 2838SOL     OW19972   0.132   1.188   1.206 -0.0760 -0.3221 -0.2534
 2838SOL    HW119973   0.130   1.265   1.149  2.0128  0.9530  1.4075
 2838SOL    HW219974   0.226   1.175   1.218 -0.1758 -1.4378 -0.6012
 2839SOL     OW19975   0.196   4.484   3.422  0.0560  0.0286 -0.2735
 2839SOL    HW119976   0.250   4.552   3.462 -2.5221  0.8679  1.7120
 2839SOL    HW219977   0.112   4.483   3.467 -0.0513  0.9996 -0.4692
 2840SOL     OW19978   3.509   3.236   7.137 -0.3095 -0.1200 -0.3075
 2840SOL    HW119979   3.463   3.228   7.220  1.5286 -2.7090  0.4996
 2840SOL    HW219980   3.589   3.277   7.170  0.9263 -2.2214 -0.6384
 2841SOL     OW19981   4.607   0.542   4.324  0.1833  0.1187 -0.5634
 2841SOL    HW119982   4.600   0.447   4.334 -0.7903 -0.1904 -4.3402
 2841SOL    HW219983   4.545   0.573   4.390 -0.2363  0.2572 -1.0353
 2842SOL     OW19984   4.424   1.975   6.750 -0.1515  0.2860 -0.3457
 2842SOL    HW119985   4.451   1.912   6.683 -1.2616  1.0029 -1.4635
 2842SOL    HW219986   4.512   2.004   6.777 -0.6105 -0.1013  1.5380
 2843SOL     OW19987   3.917   1.567   3.503  0.3883 -0.8282  0.3808
 2843SOL    HW119988   3.935   1.537   3.592  0.1672  1.2678  1.1361
 2843SOL    HW219989   3.827   1.537   3.497  0.7027 -1.7907  0.4897
 2844SOL     OW19990   3.885   0.931   0.822 -0.0592  0.4503 -0.1293
 2844SOL    HW119991   3.848   0.844   0.812 -1.0172  0.9332 -0.8665
 2844SOL    HW219992   3.812   0.979   0.862  0.4560  0.2265  1.0839
 2845SOL     OW19993   2.622   0.768  11.557  0.3712  0.5281  0.0442
 2845SOL    HW119994   2.656   0.750  11.470  1.9347  0.8063  0.5895
 2845SOL    HW219995   2.641   0.861  11.573  0.1391  1.1227 -3.2536
 2846SOL     OW19996   0.205   2.957   7.508 -0.0768  0.4057  0.0936
 2846SOL    HW119997   0.252   2.890   7.458  0.9266  1.1802  0.0099
 2846SOL    HW219998   0.268   3.028   7.499 -0.9382  0.9581 -1.6398
 2847SOL     OW19999   3.150   3.561   8.977 -0.0885 -0.2294 -0.1526
 2847SOL    HW120000   3.158   3.657   8.976 -0.9758 -0.1694 -1.5967
 2847SOL    HW220001   3.086   3.563   9.048  3.1400 -0.9494  2.8215
 2848SOL     OW20002   2.950   0.867   7.002  0.0794 -0.1471 -0.1562
 2848SOL    HW120003   3.004   0.854   6.924  0.4108 -0.7848  0.1740
 2848SOL    HW220004   2.914   0.955   6.992 -1.9203 -1.2749 -2.8779
 2849SOL     OW20005   4.554   0.893   5.473  0.0786 -0.1811  0.6873
 2849SOL    HW120006   4.462   0.903   5.450  0.3179 -2.6748 -1.4223
 2849SOL    HW220007   4.544   0.835   5.548  0.6790  0.2160  1.0735
 2850SOL     OW20008   0.516   2.175   7.661 -1.2309  1.0429  0.5758
 2850SOL    HW120009   0.485   2.259   7.695 -2.7550  0.8423 -0.3188
 2850SOL    HW220010   0.459   2.174   7.585 -0.1985 -0.6671 -0.1884
 2851SOL     OW20011   0.619   2.912   3.166 -0.3275  0.1792  0.0887
 2851SOL    HW120012   0.541   2.955   3.132 -0.7867 -1.0279 -0.3964
 2851SOL    HW220013   0.586   2.823   3.153 -1.0984  0.1771  1.9775
 2852SOL     OW20014   4.242   0.007   4.213  0.0784 -1.2598 -0.7280
 2852SOL    HW120015   4.305   4.666   4.254 -1.5393  0.0263  3.6953
 2852SOL    HW220016   4.185   0.025   4.288  1.3733  1.2435 -0.3603
 2853SOL     OW20017   4.415   2.427   4.190  0.0856 -0.0904 -0.3224
 2853SOL    HW120018   4.425   2.483   4.113 -1.1398  0.7688  0.1563
 2853SOL    HW220019   4.337   2.377   4.167  0.9518 -2.2624  1.5081
 2854SOL     OW20020   0.746   3.342  10.432  0.4276  0.7876  0.1702
 2854SOL    HW120021   0.757   3.253  10.399 -0.5895  1.0692 -0.9008
 2854SOL    HW220022   0.652   3.352  10.447  0.0925  1.8262 -2.7589
 2855SOL     OW20023   1.064   4.134   9.004  0.3423 -0.6133  0.2726
 2855SOL    HW120024   0.991   4.111   8.946 -1.2850  2.7157  0.9725
 2855SOL    HW220025   1.041   4.095   9.088 -1.6300  2.8508  1.3532
 2856SOL     OW20026   2.445   1.051  12.728  0.1972  0.2363  0.4259
 2856SOL    HW120027   2.356   1.043  12.764  1.4872 -2.2394  3.0872
 2856SOL    HW220028   2.470   1.141  12.747  0.4290  0.1587  0.4909
 2857SOL     OW20029   0.386   4.279  15.684  0.2904 -0.2230  0.2832
 2857SOL    HW120030   0.409   4.271  15.777 -1.1925 -0.7429  0.6094
 2857SOL    HW220031   0.318   4.214  15.668 -1.2215  0.8307  2.4902
 2858SOL     OW20032   2.546   4.085   1.834  0.6567 -0.7282 -0.4366
 2858SOL    HW120033   2.585   4.055   1.916 -3.1804 -0.9365  1.3273
 2858SOL    HW220034   2.487   4.013   1.810  0.2001 -0.3059 -0.5846
 2859SOL     OW20035   2.426   1.683   4.841  0.3443  0.3146 -0.5611
 2859SOL    HW120036   2.476   1.737   4.901  1.1863 -2.1778  0.9599
 2859SOL    HW220037   2.341   1.672   4.884  1.2283 -0.1888  1.0533
 2860SOL     OW20038   0.572   3.002  15.667 -0.3009 -0.2214  0.3026
 2860SOL    HW120039   0.514   2.972  15.597  1.8108 -0.0741 -1.5162
 2860SOL    HW220040   0.509   2.982  15.737 -0.4595 -0.8327 -0.0207
 2861SOL     OW20041   0.242   0.696   5.675 -0.1551 -0.2961  1.2699
 2861SOL    HW120042   0.192   0.622   5.642 -0.7770  1.3148 -1.4362
 2861SOL    HW220043   0.261   0.687   5.769  2.3499 -0.1877  0.7823
 2862SOL     OW20044   2.430   3.983   8.069 -0.2582 -0.6330  0.7848
 2862SOL    HW120045   2.426   4.052   8.135 -1.6450 -0.8012  0.8832
 2862SOL    HW220046   2.479   4.025   7.998 -1.3231 -0.4611  0.1382
 2863SOL     OW20047   0.521   3.544   1.938 -0.5939 -0.0842 -0.3923
 2863SOL    HW120048   0.538   3.476   1.872 -0.7319 -2.3767  1.9454
 2863SOL    HW220049   0.425   3.538   1.944 -0.4048 -0.2590  2.2244
 2864SOL     OW20050   1.258   1.582  17.570  0.2208  0.2177 -0.2974
 2864SOL    HW120051   1.288   1.631  17.647  0.4571  1.7119 -1.3250
 2864SOL    HW220052   1.342   1.567  17.527 -0.5863 -2.0981 -1.0694
 2865SOL     OW20053   2.152   0.005   2.273 -0.1743 -0.0200  0.0752
 2865SOL    HW120054   2.110   4.653   2.321  0.6303  0.7851  1.9695
 2865SOL    HW220055   2.167   4.685   2.187 -1.0049 -0.6787  0.2293
 2866SOL     OW20056   1.922   1.042   3.876  0.2341 -0.3295  0.4223
 2866SOL    HW120057   1.870   1.086   3.808 -0.2762  0.0027  1.0309
 2866SOL    HW220058   1.857   1.004   3.935 -1.2702  0.4200 -0.7311
 2867SOL     OW20059   1.454   4.388   0.263 -0.3917 -0.1529 -0.3452
 2867SOL    HW120060   1.530   4.427   0.307 -0.9640  1.7890 -1.0880
 2867SOL    HW220061   1.379   4.386   0.323 -0.5115  0.5312 -0.4739
 2868SOL     OW20062   1.590   1.400   0.430  0.1244  0.0165 -0.2729
 2868SOL    HW120063   1.603   1.343   0.506  1.1878 -1.3689 -1.4872
 2868SOL    HW220064   1.515   1.362   0.384  0.6117 -2.5243  0.9986
 2869SOL     OW20065   1.505   0.479  12.649  0.0328 -0.1159 -0.4637
 2869SOL    HW120066   1.512   0.431  12.566  0.6032 -0.2237 -0.3524
 2869SOL    HW220067   1.467   0.565  12.629  1.0923  0.9498  2.1236
 2870SOL     OW20068   4.436   0.807   3.121  0.0201  0.3087 -0.1810
 2870SOL    HW120069   4.391   0.723   3.108 -0.7943  0.6349  0.5085
 2870SOL    HW220070   4.457   0.828   3.030 -0.0855 -0.6980 -0.4385
 2871SOL     OW20071   0.363   3.337   7.295  0.0454  0.5191  0.0056
 2871SOL    HW120072   0.271   3.357   7.314  0.8737  3.3176  1.0879
 2871SOL    HW220073   0.397   3.422   7.269 -1.5197  1.5339  1.2572
 2872SOL     OW20074   0.988   1.449  13.162 -0.5656 -0.3432 -0.0140
 2872SOL    HW120075   0.904   1.447  13.115 -0.1494 -1.1046 -0.7282
 2872SOL    HW220076   1.005   1.539  13.187  0.8579 -0.5068 -0.3975
 2873SOL     OW20077   0.297   0.940   6.476  0.0130 -0.3137 -0.4271
 2873SOL    HW120078   0.254   0.897   6.550 -1.2955  0.1534 -0.9301
 2873SOL    HW220079   0.230   1.005   6.456  1.1668  0.3128 -2.2547
 2874SOL     OW20080   2.200   1.338   7.457  0.3812 -0.3818 -0.0633
 2874SOL    HW120081   2.189   1.259   7.403  0.2026  0.4623 -1.2558
 2874SOL    HW220082   2.188   1.396   7.382 -0.5862  1.0159  1.1692
 2875SOL     OW20083   1.166   2.387   4.475  0.0171  0.4836 -0.7549
 2875SOL    HW120084   1.105   2.459   4.460  0.5672  0.6333 -2.2881
 2875SOL    HW220085   1.171   2.354   4.385  1.3728  2.1829 -1.2992
 2876SOL     OW20086   2.742   2.310   8.496  0.1034  0.6121 -0.5451
 2876SOL    HW120087   2.780   2.225   8.517  1.2192  1.3600  0.4683
 2876SOL    HW220088   2.718   2.342   8.583  0.7905  0.2833 -0.2329
 2877SOL     OW20089   2.776   4.376  15.976  0.4486 -0.5084  0.6682
 2877SOL    HW120090   2.789   4.468  15.999  1.6781 -0.3619 -0.6383
 2877SOL    HW220091   2.778   4.329  16.060  0.7397  0.0740  0.9931
 2878SOL     OW20092   1.611   3.020  12.850  0.1552  0.1322  0.1787
 2878SOL    HW120093   1.685   3.002  12.791  1.2629 -1.2039  1.9770
 2878SOL    HW220094   1.558   2.941  12.849  1.3246 -0.6159 -2.0445
 2879SOL     OW20095   4.461   0.686   5.694 -0.1954  0.7413 -0.1408
 2879SOL    HW120096   4.388   0.704   5.753 -0.2991 -1.7276  0.4655
 2879SOL    HW220097   4.535   0.721   5.744  0.8345  0.0955 -1.2194
 2880SOL     OW20098   0.859   0.076   7.777  0.1695  0.1689 -0.1301
 2880SOL    HW120099   0.798   0.149   7.772 -1.3725 -1.0924  0.3609
 2880SOL    HW220100   0.842   0.027   7.697 -0.4152  3.2206 -1.8424
 2881SOL     OW20101   0.610   1.045  15.484  0.0818  0.1087  0.5391
 2881SOL    HW120102   0.685   1.012  15.534 -0.2382  0.0965  1.0109
 2881SOL    HW220103   0.628   1.139  15.493 -0.1007  0.2103 -0.1943
 2882SOL     OW20104   1.004   0.886  17.483  0.6901  0.5212  0.2596
 2882SOL    HW120105   1.006   0.974  17.523  0.9819  1.1028 -1.0473
 2882SOL    HW220106   0.976   0.915  17.397 -0.7751 -0.7324  0.3287
 2883SOL     OW20107   2.133   4.658   6.165  0.3831  0.4333  0.1695
 2883SOL    HW120108   2.129   4.689   6.256  0.5722 -2.8749  1.2825
 2883SOL    HW220109   2.194   4.587   6.180 -0.2803  0.0338  0.9752
 2884SOL     OW20110   4.004   0.885   4.549 -0.4694 -0.2795 -0.5175
 2884SOL    HW120111   4.035   0.906   4.637 -1.4855 -0.6739 -0.0660
 2884SOL    HW220112   3.910   0.878   4.565 -0.2845  2.9825  1.8234
 2885SOL     OW20113   3.913   2.596   8.151 -0.0375 -0.0456  0.3434
 2885SOL    HW120114   3.988   2.594   8.211  0.7744 -0.3912 -0.6917
 2885SOL    HW220115   3.953   2.633   8.073  2.0396 -0.5255  1.1851
 2886SOL     OW20116   0.645   0.796  12.103  0.5948 -0.6689  0.6056
 2886SOL    HW120117   0.592   0.773  12.179  0.5966 -0.1082  0.7746
 2886SOL    HW220118   0.685   0.880  12.127 -1.4057  0.4480 -0.0062
 2887SOL     OW20119   4.499   1.453   7.513  0.5274  0.4244 -0.3954
 2887SOL    HW120120   4.472   1.522   7.453 -0.8389  0.0157 -0.2436
 2887SOL    HW220121   4.577   1.426   7.465 -1.1093 -1.1153 -2.1719
 2888SOL     OW20122   3.144   3.483   3.492 -0.1957  0.1755 -0.4417
 2888SOL    HW120123   3.199   3.535   3.433  2.8416 -0.3629  1.8925
 2888SOL    HW220124   3.062   3.528   3.474  0.6395  2.1615  0.6405
 2889SOL     OW20125   0.223   3.609  17.146  0.2420 -0.2857  0.3629
 2889SOL    HW120126   0.210   3.591  17.053  0.5927  0.2109  0.2194
 2889SOL    HW220127   0.133   3.595  17.178  0.5598  0.1508  1.4635
 2890SOL     OW20128   3.310   1.825   8.983  0.0745 -0.2460 -0.1924
 2890SOL    HW120129   3.389   1.877   8.995  0.4904 -0.2141 -3.0617
 2890SOL    HW220130   3.326   1.775   8.903  1.3887  1.9244 -1.2988
 2891SOL     OW20131   3.889   0.060   7.035  0.6723  0.0657  0.5882
 2891SOL    HW120132   3.850   0.055   7.123 -1.0932  2.8451 -0.0197
 2891SOL    HW220133   3.847   4.718   6.974  1.0574  0.3762  0.0102
 2892SOL     OW20134   3.648   2.800   7.728 -0.0031 -0.2279  0.6090
 2892SOL    HW120135   3.633   2.713   7.691 -0.7249  0.2050 -0.1326
 2892SOL    HW220136   3.589   2.800   7.803 -0.8879 -1.1594 -0.0912
 2893SOL     OW20137   0.370   2.773   2.386  0.0333 -0.3502 -0.5617
 2893SOL    HW120138   0.433   2.702   2.376 -0.2543 -0.3488 -2.3779
 2893SOL    HW220139   0.292   2.741   2.432 -0.1586  0.8847 -0.0338
 2894SOL     OW20140   0.398   4.329   2.798  0.4495  0.5500 -0.0455
 2894SOL    HW120141   0.434   4.251   2.757 -3.8954 -0.2586 -2.3154
 2894SOL    HW220142   0.359   4.291   2.877  0.4009  0.0329 -0.3178
 2895SOL     OW20143   3.959   1.344   7.176 -0.1072 -0.3408  1.3091
 2895SOL    HW120144   3.914   1.325   7.094  0.2533  2.3882  0.4672
 2895SOL    HW220145   3.911   1.422   7.203 -1.3597 -0.9530  0.8158
 2896SOL     OW20146   4.198   1.730   7.968 -0.2638  0.3396  0.3085
 2896SOL    HW120147   4.180   1.636   7.962 -0.2722  0.3756 -0.2511
 2896SOL    HW220148   4.214   1.757   7.878  0.6205  0.4694  0.5054
 2897SOL     OW20149   3.471   0.997  11.455 -0.2756 -0.1270  0.6477
 2897SOL    HW120150   3.428   1.018  11.372 -0.0592 -1.3104  0.2414
 2897SOL    HW220151   3.465   1.082  11.500 -1.2485  1.5141 -2.5957
 2898SOL     OW20152   3.239   3.935   4.083  0.5447  0.0446  0.6000
 2898SOL    HW120153   3.274   3.955   4.169 -1.5494  1.6425  1.0692
 2898SOL    HW220154   3.283   4.003   4.032  2.0951 -0.4455  1.2939
 2899SOL     OW20155   4.296   0.328   4.432 -0.0228  0.2037  0.3117
 2899SOL    HW120156   4.264   0.249   4.475  0.6476 -0.3651 -0.2460
 2899SOL    HW220157   4.317   0.388   4.504  1.1513 -1.1206  1.0666
 2900SOL     OW20158   4.582   1.079   8.570  0.4214 -0.2863  0.2154
 2900SOL    HW120159   4.651   1.030   8.526  1.2675  1.3839 -0.3223
 2900SOL    HW220160   4.628   1.160   8.590 -2.9230  1.9552 -1.0270
 2901SOL     OW20161   0.519   4.705   4.840  0.4233  0.4398 -0.6707
 2901SOL    HW120162   0.595   0.039   4.862  1.6028 -1.6363  0.3562
 2901SOL    HW220163   0.476   0.059   4.796 -1.5894  0.6769  1.7059
 2902SOL     OW20164   2.713   4.511   6.365 -0.0122 -0.3633 -0.2596
 2902SOL    HW120165   2.737   4.601   6.384 -1.7273 -0.0263  0.2829
 2902SOL    HW220166   2.785   4.487   6.305  1.3997 -1.2876  1.8105
 2903SOL     OW20167   4.478   2.439   3.513  0.0610  0.4130  0.1125
 2903SOL    HW120168   4.413   2.391   3.461 -0.4580  2.3159 -1.0146
 2903SOL    HW220169   4.421   2.484   3.576 -1.4415 -0.8274 -0.3537
 2904SOL     OW20170   3.994   0.030   3.150  0.4752 -0.1934  0.1911
 2904SOL    HW120171   4.064   4.691   3.122  0.6453 -0.2922  0.8219
 2904SOL    HW220172   4.038   0.115   3.154 -0.7764  0.3399  2.4198
 2905SOL     OW20173   0.640   1.677   1.940 -0.3942  0.7619  0.1915
 2905SOL    HW120174   0.575   1.719   1.885 -1.9953  0.4195  1.8061
 2905SOL    HW220175   0.581   1.658   2.013 -1.7831  1.1759 -0.8356
 2906SOL     OW20176   1.827   3.059   7.943  0.2566 -0.3399 -0.1573
 2906SOL    HW120177   1.897   3.122   7.921 -1.2560  0.6179 -2.1978
 2906SOL    HW220178   1.880   2.980   7.948  0.1610 -0.4640 -1.2989
 2907SOL     OW20179   3.784   2.196   2.832 -0.2864 -0.1744 -0.4633
 2907SOL    HW120180   3.766   2.266   2.894  3.0134  0.4803 -0.2629
 2907SOL    HW220181   3.868   2.164   2.865 -1.3652  0.0087  2.3853
 2908SOL     OW20182   1.344   2.291   0.479 -0.4565 -0.3164  0.0189
 2908SOL    HW120183   1.329   2.196   0.481 -0.4430 -0.3105  0.3265
 2908SOL    HW220184   1.394   2.293   0.560 -1.4116  0.9023  0.5651
 2909SOL     OW20185   1.881   2.721  12.374  0.2108  0.2285  0.3371
 2909SOL    HW120186   1.918   2.636  12.398 -0.5103 -0.1957 -0.0436
 2909SOL    HW220187   1.798   2.717  12.420  0.0402 -0.1543 -0.0036
 2910SOL     OW20188   1.561   4.698   8.932  0.4526 -0.0555  0.0412
 2910SOL    HW120189   1.482   4.648   8.913  0.5055  0.5910 -1.8636
 2910SOL    HW220190   1.624   4.628   8.917 -1.1563 -1.4837  0.0122
 2911SOL     OW20191   3.875   2.902   8.506  0.3824  0.1010  0.2783
 2911SOL    HW120192   3.797   2.862   8.545  0.7009 -0.0267  0.7747
 2911SOL    HW220193   3.897   2.839   8.437 -1.1375  2.8849 -2.7810
 2912SOL     OW20194   0.874   2.065   4.407 -0.2397  0.0272 -0.2759
 2912SOL    HW120195   0.877   1.999   4.337 -0.0078 -1.0006  0.7088
 2912SOL    HW220196   0.871   2.153   4.368  2.1653  0.3514  0.2840
 2913SOL     OW20197   0.095   2.845   8.562  0.4387 -0.2798  0.1358
 2913SOL    HW120198   0.078   2.750   8.557 -2.0460  0.1650  0.1738
 2913SOL    HW220199   0.034   2.866   8.492  1.2545  0.4080 -0.3616
 2914SOL     OW20200   3.540   2.004   0.636  0.1070 -0.0878  0.5315
 2914SOL    HW120201   3.621   1.958   0.660 -0.0482 -0.5984  0.0874
 2914SOL    HW220202   3.537   2.067   0.708  2.2364  2.2947 -1.4818
 2915SOL     OW20203   1.472   1.735  17.419 -0.8852  0.2747  0.1146
 2915SOL    HW120204   1.480   1.648  17.458  0.0665 -0.7492 -2.3591
 2915SOL    HW220205   1.457   1.707  17.329  0.0392  2.2064 -0.6383
 2916SOL     OW20206   1.752   1.213   3.668 -0.5349  0.4174 -0.1954
 2916SOL    HW120207   1.768   1.171   3.583 -0.6632  1.9487 -0.9670
 2916SOL    HW220208   1.682   1.274   3.646 -1.2087 -0.8669 -1.6124
 2917SOL     OW20209   1.516   2.364  17.332  0.0463  0.4191 -0.2462
 2917SOL    HW120210   1.587   2.304  17.355  1.2431  1.6283 -0.8305
 2917SOL    HW220211   1.449   2.316  17.381 -0.2274 -1.0882 -2.0670
 2918SOL     OW20212   2.162   0.913   4.749  0.2386 -0.3640 -0.7765
 2918SOL    HW120213   2.129   0.823   4.747 -1.0208  0.0594  0.2344
 2918SOL    HW220214   2.143   0.939   4.659 -0.5626 -1.0810 -0.8201
 2919SOL     OW20215   4.633   3.635  15.251  0.3439 -0.7289 -1.2800
 2919SOL    HW120216   4.571   3.599  15.314 -0.5122 -0.1938 -1.8105
 2919SOL    HW220217   4.714   3.620  15.299 -0.2442  0.6003  0.1280
 2920SOL     OW20218   1.773   3.601   7.397  0.1287 -0.7994 -0.3398
 2920SOL    HW120219   1.820   3.534   7.347 -0.4590 -2.5541  1.4886
 2920SOL    HW220220   1.703   3.623   7.335  0.1773  2.5340  0.7957
 2921SOL     OW20221   4.564   3.234  14.335  0.0777 -0.0559 -0.0324
 2921SOL    HW120222   4.594   3.291  14.264 -1.5512 -0.0844 -0.7427
 2921SOL    HW220223   4.650   3.224  14.377  1.0653  2.6070 -1.3726
 2922SOL     OW20224   3.607   0.192   7.938  0.2221  0.2670 -0.1061
 2922SOL    HW120225   3.667   0.174   8.010 -1.2344  0.4747  1.1627
 2922SOL    HW220226   3.629   0.111   7.892  2.2509 -0.4509  2.1262
 2923SOL     OW20227   1.468   2.151   8.935 -0.0550 -0.2909 -0.0897
 2923SOL    HW120228   1.486   2.117   9.023  0.3251  1.1326  0.3762
 2923SOL    HW220229   1.372   2.158   8.932 -0.0131  0.2176 -0.2050
 2924SOL     OW20230   0.595   3.916   3.140  0.3668  0.2639  0.1377
 2924SOL    HW120231   0.592   3.886   3.231 -0.7859  1.2932  0.4421
 2924SOL    HW220232   0.671   3.872   3.102  1.2851  3.1502 -1.3387
 2925SOL     OW20233   1.331   3.678   5.303 -0.1337  0.0496 -0.5305
 2925SOL    HW120234   1.339   3.625   5.382 -0.2166  1.2282  0.2799
 2925SOL    HW220235   1.309   3.612   5.238  0.5419 -0.9116  0.2205
 2926SOL     OW20236   2.193   2.149  17.570 -0.0785 -0.4169 -0.5854
 2926SOL    HW120237   2.105   2.126  17.598  0.3000  1.6923  2.4231
 2926SOL    HW220238   2.243   2.078  17.609 -2.4024 -2.4411 -1.3289
 2927SOL     OW20239   1.507   3.759   2.839 -0.2493  0.0635 -0.3213
 2927SOL    HW120240   1.453   3.695   2.794 -0.1477 -2.5074  3.2223
 2927SOL    HW220241   1.593   3.727   2.814  0.9153  2.0713  1.0404
 2928SOL     OW20242   0.428   4.698  10.806 -0.2425 -0.0300 -0.4806
 2928SOL    HW120243   0.371   0.050  10.777  0.1398  0.0552 -1.0242
 2928SOL    HW220244   0.364   4.629  10.824  0.6794 -0.5289  0.8745
 2929SOL     OW20245   4.062   0.972  10.695 -0.1495  0.5734 -0.1086
 2929SOL    HW120246   4.114   1.005  10.621  1.5542  2.0562  1.7532
 2929SOL    HW220247   3.976   0.957  10.656 -0.5784  2.3685  0.1237
 2930SOL     OW20248   3.553   1.975   0.321  0.3633  0.3070  0.0798
 2930SOL    HW120249   3.469   1.937   0.295  0.5062  1.0186 -1.3976
 2930SOL    HW220250   3.546   2.014   0.408  1.2808 -2.0050  1.1954
 2931SOL     OW20251   1.984   2.878   1.885 -0.4174 -0.2867 -0.1512
 2931SOL    HW120252   1.943   2.962   1.862  2.5118  1.0034 -0.5938
 2931SOL    HW220253   2.017   2.912   1.968 -1.5075  0.1043  0.1155
 2932SOL     OW20254   1.211   1.009   8.396  0.2926  0.3864 -0.1974
 2932SOL    HW120255   1.269   0.996   8.471 -2.3115 -0.5043  1.6885
 2932SOL    HW220256   1.219   1.102   8.378 -2.5781  0.4657 -1.0168
 2933SOL     OW20257   3.510   1.002   3.713  0.0190 -0.4018 -0.4335
 2933SOL    HW120258   3.566   1.029   3.640  1.1779  1.1852  1.0279
 2933SOL    HW220259   3.522   0.911   3.685  0.0948 -0.5278  0.0129
 2934SOL     OW20260   2.360   3.509   6.667 -0.6075 -0.7553 -0.4654
 2934SOL    HW120261   2.366   3.591   6.618  4.6562  0.0146  1.4800
 2934SOL    HW220262   2.286   3.525   6.725 -1.4342  1.3239 -2.0850
 2935SOL     OW20263   2.271   0.552   1.846 -0.4963  0.1757 -0.4540
 2935SOL    HW120264   2.189   0.575   1.803  0.0973 -1.1273 -2.2999
 2935SOL    HW220265   2.256   0.558   1.940 -1.2121  1.8038 -0.6746
 2936SOL     OW20266   0.157   2.139   8.756 -0.1531 -0.1834  0.0057
 2936SOL    HW120267   0.079   2.102   8.715  1.0718 -1.4990 -1.1325
 2936SOL    HW220268   0.130   2.126   8.847  1.9317  0.9514  0.8080
 2937SOL     OW20269   3.505   1.885   6.895  0.3822  0.3858 -0.4802
 2937SOL    HW120270   3.484   1.965   6.848 -1.0850 -0.7291 -1.7340
 2937SOL    HW220271   3.422   1.874   6.941  0.7330  2.9611  0.7641
 2938SOL     OW20272   2.045   2.739   8.547 -0.3066  0.3940 -0.6465
 2938SOL    HW120273   1.974   2.781   8.594  0.7877 -1.9973  3.1620
 2938SOL    HW220274   1.986   2.701   8.482  0.3273 -2.8322  0.6508
 2939SOL     OW20275   3.464   3.402  10.888  0.1215 -0.7620 -0.2980
 2939SOL    HW120276   3.466   3.311  10.860 -0.3534 -1.1014  0.7742
 2939SOL    HW220277   3.539   3.406  10.947  0.1665  0.3297 -0.4319
 2940SOL     OW20278   1.085   3.669  14.158 -1.0902  0.0565 -0.2308
 2940SOL    HW120279   1.129   3.751  14.135  0.3400 -0.3583  1.0319
 2940SOL    HW220280   1.048   3.704  14.239 -1.2776  0.6861 -0.5864
 2941SOL     OW20281   0.564   2.341  16.880 -0.1894  0.3841  0.5025
 2941SOL    HW120282   0.623   2.291  16.937 -0.1468 -0.6731 -0.4661
 2941SOL    HW220283   0.572   2.289  16.800  0.2920  0.5855  0.4168
 2942SOL     OW20284   3.472   4.085   0.241  0.0497  0.0915 -0.7017
 2942SOL    HW120285   3.535   4.102   0.310 -0.3455  1.2344 -0.6232
 2942SOL    HW220286   3.440   4.174   0.230 -2.4334 -0.6294  0.7177
 2943SOL     OW20287   0.580   2.831   9.772  0.1886 -0.0236  0.1051
 2943SOL    HW120288   0.632   2.755   9.746  1.3336  1.5952 -2.3327
 2943SOL    HW220289   0.590   2.883   9.692 -0.8558  1.1838  0.7704
 2944SOL     OW20290   1.107   0.583   2.742 -0.6048 -0.6665  0.4757
 2944SOL    HW120291   1.201   0.589   2.762 -0.6963 -1.1753  1.0663
 2944SOL    HW220292   1.103   0.500   2.694 -0.3038 -1.9023  2.5913
 2945SOL     OW20293   3.358   3.430   6.072 -0.3074  0.1930  0.1298
 2945SOL    HW120294   3.379   3.520   6.048  0.9260 -0.0589  0.2773
 2945SOL    HW220295   3.410   3.392   6.001 -2.2215  0.7785 -1.5845
 2946SOL     OW20296   4.154   3.218  10.847 -0.1958  0.1646  0.0867
 2946SOL    HW120297   4.202   3.282  10.795  2.5191 -1.1743  0.8991
 2946SOL    HW220298   4.143   3.253  10.935  0.7686 -0.4756  0.4674
 2947SOL     OW20299   0.310   3.790  15.595 -0.1824  0.5902  0.0616
 2947SOL    HW120300   0.235   3.810  15.651  0.4578  1.5687  0.5543
 2947SOL    HW220301   0.381   3.824  15.649 -0.6644  1.0056  0.4305
 2948SOL     OW20302   1.093   0.237   6.990 -0.2380  0.0493 -0.5992
 2948SOL    HW120303   1.030   0.291   7.038 -0.1083 -1.5697  1.3906
 2948SOL    HW220304   1.041   0.157   6.982  0.7160 -0.5718 -0.5165
 2949SOL     OW20305   4.300   2.903   0.472  0.3939  0.4430 -0.4112
 2949SOL    HW120306   4.207   2.887   0.452  0.0993  2.4107 -0.5864
 2949SOL    HW220307   4.302   2.972   0.538  0.2443 -0.4505  0.5271
 2950SOL     OW20308   2.884   1.108  12.598  0.3642 -0.1255 -0.7963
 2950SOL    HW120309   2.856   1.198  12.612 -2.6016 -1.0254 -0.8371
 2950SOL    HW220310   2.829   1.071  12.667 -0.1042  0.0822 -1.0608
 2951SOL     OW20311   0.998   4.347  14.210  0.7990 -0.0502 -0.4781
 2951SOL    HW120312   1.028   4.432  14.241 -2.1317  0.1227  1.9268
 2951SOL    HW220313   1.084   4.305  14.208  0.4057 -0.9807  1.8426
 2952SOL     OW20314   0.650   3.201   3.193  0.1086 -1.2623 -0.0341
 2952SOL    HW120315   0.687   3.127   3.241 -0.8255  0.2491  3.0350
 2952SOL    HW220316   0.579   3.156   3.148  0.2292  0.7281 -2.2315
 2953SOL     OW20317   4.243   4.047   4.332  0.4135  0.0912 -0.4086
 2953SOL    HW120318   4.187   3.975   4.300 -2.6018  0.8312  3.2215
 2953SOL    HW220319   4.189   4.105   4.385 -0.8540 -0.6221 -0.9065
 2954SOL     OW20320   0.707   2.762   5.855  0.7422 -0.1026 -0.0941
 2954SOL    HW120321   0.762   2.781   5.932 -1.2221  0.1505  1.2324
 2954SOL    HW220322   0.620   2.759   5.893  0.6476  0.8727 -0.2309
 2955SOL     OW20323   3.846   0.498  15.144  0.8978 -0.1058  0.6059
 2955SOL    HW120324   3.878   0.419  15.100  0.1380 -1.5599  2.6829
 2955SOL    HW220325   3.898   0.562  15.095 -0.6803  0.8112  0.1541
 2956SOL     OW20326   3.527   0.705   9.246 -0.7248 -0.1002  0.5810
 2956SOL    HW120327   3.525   0.801   9.239  0.4159 -0.0449  1.0312
 2956SOL    HW220328   3.601   0.679   9.191 -0.2578 -0.2859  1.3029
 2957SOL     OW20329   0.600   4.111   6.503 -0.0241 -0.0011  0.2799
 2957SOL    HW120330   0.644   4.035   6.541 -1.3148 -0.2996  1.1782
 2957SOL    HW220331   0.520   4.107   6.555 -0.4315 -0.6328 -0.4030
 2958SOL     OW20332   4.566   2.559   2.515  0.3739 -0.3225 -0.4535
 2958SOL    HW120333   4.497   2.600   2.464 -0.7339  0.4988  1.7360
 2958SOL    HW220334   4.512   2.533   2.589 -1.6353 -0.2026 -1.8863
 2959SOL     OW20335   3.677   1.479   5.942  0.2093  0.2199  0.1344
 2959SOL    HW120336   3.748   1.487   5.879  1.2548  0.9407  1.4076
 2959SOL    HW220337   3.668   1.574   5.948 -2.8947  0.0258 -1.5909
 2960SOL     OW20338   0.521   0.808   5.420  0.4424 -0.3912 -0.1063
 2960SOL    HW120339   0.598   0.825   5.474  1.6462 -1.9326 -1.3390
 2960SOL    HW220340   0.489   0.898   5.421  3.4197  0.6844 -0.9563
 2961SOL     OW20341   1.903   2.021  12.818  0.0090  0.3071 -0.4496
 2961SOL    HW120342   1.892   2.005  12.912 -1.3997 -0.0907 -0.6785
 2961SOL    HW220343   1.997   2.036  12.810  0.1334  0.0637  0.6165
 2962SOL     OW20344   0.423   0.483  10.829 -0.2772 -0.1943 -0.3513
 2962SOL    HW120345   0.369   0.505  10.753 -0.0453  0.1427 -0.4197
 2962SOL    HW220346   0.423   0.567  10.876 -1.0469 -0.2818 -0.1858
 2963SOL     OW20347   3.014   2.312   3.933  0.2655  0.3230  0.4013
 2963SOL    HW120348   2.933   2.338   3.889 -0.6222 -0.6471  1.4637
 2963SOL    HW220349   3.034   2.224   3.901 -1.5666  0.1267 -0.1493
 2964SOL     OW20350   1.997   1.546   5.654  0.0366 -0.3544 -0.9937
 2964SOL    HW120351   1.997   1.637   5.625  0.9734 -0.1444 -0.3316
 2964SOL    HW220352   1.918   1.518   5.608  0.8863 -1.9726 -1.4938
 2965SOL     OW20353   4.371   3.492   7.741 -0.1258  0.6838 -0.4320
 2965SOL    HW120354   4.422   3.500   7.821  0.3613  0.2373 -0.6980
 2965SOL    HW220355   4.347   3.583   7.723  2.5813  1.0959 -1.8724
 2966SOL     OW20356   4.704   2.582   8.848 -0.8332  0.1143 -0.2415
 2966SOL    HW120357   4.714   2.513   8.914  0.2182  0.6924  0.2052
 2966SOL    HW220358   4.672   2.651   8.906  0.1063 -2.0548  2.8356
 2967SOL     OW20359   1.542   1.443   5.450 -0.7883 -0.2905  0.0022
 2967SOL    HW120360   1.454   1.481   5.443 -0.1278  1.5309  1.7711
 2967SOL    HW220361   1.537   1.364   5.504  0.0498 -0.5378 -0.2850
 2968SOL     OW20362   2.054   3.339   7.001  0.4821 -0.1738  0.3839
 2968SOL    HW120363   2.009   3.272   7.053  0.1537  1.6922  2.4766
 2968SOL    HW220364   2.145   3.312   7.017  0.4869 -0.8364 -0.7714
 2969SOL     OW20365   3.591   1.815   2.095 -0.3835 -0.2454 -0.3546
 2969SOL    HW120366   3.625   1.809   2.006  0.8061  1.1776  0.0199
 2969SOL    HW220367   3.663   1.768   2.136  0.6424  0.9650 -0.7924
 2970SOL     OW20368   1.895   1.381   7.996 -0.1791  0.1309  0.2186
 2970SOL    HW120369   1.928   1.470   8.000 -1.0602  0.4152  1.2889
 2970SOL    HW220370   1.874   1.362   8.088 -0.2408  1.1623  0.4140
 2971SOL     OW20371   0.320   0.284  11.302 -0.2630 -0.5253  0.2967
 2971SOL    HW120372   0.358   0.266  11.215  2.0268 -3.5438  1.8924
 2971SOL    HW220373   0.228   0.266  11.283  0.1384 -1.9590 -0.3354
 2972SOL     OW20374   0.360   2.387   4.933 -0.5723  0.1884 -0.0117
 2972SOL    HW120375   0.372   2.430   5.018 -0.4623  1.0626 -0.4622
 2972SOL    HW220376   0.451   2.363   4.916 -1.3666 -1.4619 -1.9561
 2973SOL     OW20377   1.662   2.541   7.132  0.5637 -0.1131  0.3416
 2973SOL    HW120378   1.599   2.606   7.164 -0.1881 -1.6637  2.0189
 2973SOL    HW220379   1.630   2.548   7.041  0.2733 -1.1956  0.3616
 2974SOL     OW20380   1.749   0.861  10.900  0.2775 -0.4881  0.1951
 2974SOL    HW120381   1.782   0.782  10.944 -0.7147 -0.0277  1.7851
 2974SOL    HW220382   1.665   0.873  10.944 -0.7806 -0.1700 -1.9314
 2975SOL     OW20383   1.913   1.678   4.988 -0.1334  0.7351  0.4170
 2975SOL    HW120384   1.846   1.716   4.931  0.4914  1.5297  0.2145
 2975SOL    HW220385   1.884   1.587   4.995 -0.9387  1.0856  1.4942
 2976SOL     OW20386   2.289   2.604   4.232 -0.0058 -0.0119 -0.2869
 2976SOL    HW120387   2.307   2.512   4.214 -1.1023 -0.3364  0.2551
 2976SOL    HW220388   2.222   2.619   4.166 -0.5529 -0.6294  0.1205
 2977SOL     OW20389   1.302   2.848   6.660  0.3055 -0.3260 -0.3663
 2977SOL    HW120390   1.242   2.796   6.714  0.4339  0.7097  0.7826
 2977SOL    HW220391   1.359   2.791   6.608 -2.7151 -1.4968 -2.3580
 2978SOL     OW20392   1.850   0.136  12.062 -0.9166  0.8017 -0.3552
 2978SOL    HW120393   1.865   0.074  12.134  1.2847  1.9615  0.1763
 2978SOL    HW220394   1.793   0.195  12.111  0.6824  3.1889 -1.3904
 2979SOL     OW20395   2.945   1.176   1.175 -0.0419  0.2351  0.8479
 2979SOL    HW120396   2.994   1.164   1.093 -2.7576 -0.2039 -0.7051
 2979SOL    HW220397   2.913   1.089   1.200  2.1238 -1.2499 -1.4875
 2980SOL     OW20398   2.259   0.992   5.790 -0.3609  0.2337  0.5240
 2980SOL    HW120399   2.324   1.060   5.811 -2.5620  2.7595 -0.9349
 2980SOL    HW220400   2.178   1.034   5.818 -0.4907 -0.3841  1.0565
 2981SOL     OW20401   2.350   4.159   0.190  0.2079 -0.2086  0.2840
 2981SOL    HW120402   2.420   4.188   0.249  2.3995 -1.6230 -1.6548
 2981SOL    HW220403   2.280   4.131   0.249  0.4512 -1.4301 -0.0168
 2982SOL     OW20404   3.448   0.555  15.797 -0.0294 -0.3027 -0.3573
 2982SOL    HW120405   3.401   0.481  15.758 -0.3581  0.3902 -1.2624
 2982SOL    HW220406   3.438   0.621  15.728  1.8749 -0.6203 -0.9278
 2983SOL     OW20407   2.037   3.815   7.600  0.0858 -0.0293  0.1214
 2983SOL    HW120408   2.052   3.729   7.561  3.9700  1.1753 -0.9730
 2983SOL    HW220409   1.942   3.807   7.592  0.1157 -1.6333  1.4061
 2984SOL     OW20410   0.461   3.541   6.554 -0.1720  0.0226 -0.3844
 2984SOL    HW120411   0.499   3.477   6.495 -0.2561 -0.4196  0.0478
 2984SOL    HW220412   0.410   3.588   6.487 -1.8871  0.4817  1.2371
 2985SOL     OW20413   4.485   4.195   6.852  0.1269 -0.0535 -0.5530
 2985SOL    HW120414   4.497   4.106   6.820  0.3329  0.3225 -1.5177
 2985SOL    HW220415   4.457   4.182   6.942  2.2810 -1.1284 -0.0438
 2986SOL     OW20416   2.785   4.719  16.845 -0.0415  0.4911 -1.0384
 2986SOL    HW120417   2.849   4.709  16.915 -0.6263 -0.2178 -0.6035
 2986SOL    HW220418   2.814   4.651  16.784  1.5589 -1.8807  2.4224
 2987SOL     OW20419   3.502   3.244   8.851 -0.0689  0.1118  0.0877
 2987SOL    HW120420   3.557   3.300   8.797 -1.1785 -1.6034 -2.8162
 2987SOL    HW220421   3.418   3.269   8.812 -0.9298 -0.3801  1.6199
 2988SOL     OW20422   3.638   1.446   8.070 -0.3433 -0.7621  0.1031
 2988SOL    HW120423   3.708   1.464   8.007 -1.5083  0.7304 -0.7686
 2988SOL    HW220424   3.648   1.351   8.077 -1.2854 -0.8463  0.2947
 2989SOL     OW20425   3.154   4.244   1.896  0.2015  0.1249  0.1976
 2989SOL    HW120426   3.091   4.272   1.963  0.6299  2.0174 -0.1974
 2989SOL    HW220427   3.142   4.306   1.825  1.9354  1.5182  1.1181
 2990SOL     OW20428   1.779   3.955  11.126 -0.9090 -0.1143  0.2898
 2990SOL    HW120429   1.758   4.049  11.120 -2.5423 -0.5013 -0.2458
 2990SOL    HW220430   1.753   3.919  11.041  0.1617  1.2034 -0.5908
 2991SOL     OW20431   1.287   4.140   1.780  0.2734  0.2422  0.6327
 2991SOL    HW120432   1.266   4.234   1.775  0.6544  0.4139  2.1331
 2991SOL    HW220433   1.276   4.111   1.690  0.4248  0.0701  0.6696
 2992SOL     OW20434   3.485   1.066  14.253  0.3142 -0.0425  0.5058
 2992SOL    HW120435   3.514   1.119  14.179  0.7587  0.6916  1.2094
 2992SOL    HW220436   3.398   1.055  14.214 -0.2423  0.5305  1.5827
 2993SOL     OW20437   2.838   0.259   2.322  0.1937 -0.0162 -0.5390
 2993SOL    HW120438   2.895   0.226   2.253 -1.1827 -0.0811 -1.6388
 2993SOL    HW220439   2.852   0.354   2.318 -0.5990  0.1278  0.1050
 2994SOL     OW20440   1.549   0.966   5.754 -0.5292  0.1092  0.3389
 2994SOL    HW120441   1.605   0.936   5.826  0.1844 -1.1290 -0.7400
 2994SOL    HW220442   1.468   0.922   5.781 -1.0716  1.3697  0.7967
 2995SOL     OW20443   0.632   3.478   6.102  0.1430 -0.2693 -0.4105
 2995SOL    HW120444   0.713   3.509   6.142 -0.7995  0.2126  1.0978
 2995SOL    HW220445   0.585   3.555   6.070  0.5912  0.0922 -0.1926
 2996SOL     OW20446   2.354   2.784   0.948  0.3347  0.0163 -0.2752
 2996SOL    HW120447   2.350   2.877   0.923 -0.2956 -0.2259 -1.0692
 2996SOL    HW220448   2.265   2.763   0.923  0.1063  1.3824 -0.6163
 2997SOL     OW20449   0.151   0.631   3.522 -0.5445  0.5329  0.4733
 2997SOL    HW120450   0.140   0.537   3.503  1.1093  0.3900  0.1965
 2997SOL    HW220451   0.067   0.646   3.565 -0.2101 -0.2088  1.4137
 2998SOL     OW20452   3.182   3.628  10.617 -0.5358  0.6238  0.2631
 2998SOL    HW120453   3.139   3.629  10.703 -0.6483 -0.3349  0.2153
 2998SOL    HW220454   3.136   3.559  10.569  1.2364  1.0854 -2.0292
 2999SOL     OW20455   2.959   1.517  12.429  0.3521 -0.0948 -0.0897
 2999SOL    HW120456   2.976   1.548  12.340 -1.3111  1.6897  0.2347
 2999SOL    HW220457   2.898   1.444  12.414  0.9006 -0.4507 -0.6510
 3000SOL     OW20458   2.356   0.187   1.892  0.7002 -0.1492 -0.1492
 3000SOL    HW120459   2.450   0.202   1.899  0.7612 -0.7337  0.2767
 3000SOL    HW220460   2.340   0.094   1.904 -0.1262  0.0055 -0.0447
 3001SOL     OW20461   1.210   1.403   0.103 -0.9636  0.0348 -0.4931
 3001SOL    HW120462   1.207   1.425   0.010 -0.5703 -0.0365 -0.5234
 3001SOL    HW220463   1.121   1.431   0.127 -0.5102  1.6057 -0.6233
 3002SOL     OW20464   0.942   1.043  11.611  0.0348  0.8730 -0.2967
 3002SOL    HW120465   0.926   1.124  11.561  0.1661  1.9666  1.4360
 3002SOL    HW220466   1.030   1.064  11.643 -0.5877  2.2655  0.4695
 3003SOL     OW20467   2.812   1.074   0.490  0.0106  0.1940  0.1813
 3003SOL    HW120468   2.865   1.052   0.413 -1.9436 -1.2061 -0.7464
 3003SOL    HW220469   2.755   0.998   0.495  0.6360 -0.1859  1.6077
 3004SOL     OW20470   4.707   0.142  17.329 -0.5010 -0.3527 -0.3032
 3004SOL    HW120471   4.716   0.103  17.415  2.5803 -0.2989 -0.6333
 3004SOL    HW220472   0.028   0.229  17.334 -0.1011 -0.6058  0.8772
 3005SOL     OW20473   1.989   1.238   2.173 -0.0178 -0.4403  0.0018
 3005SOL    HW120474   1.941   1.190   2.241  0.7445 -0.6160  0.4199
 3005SOL    HW220475   2.079   1.207   2.186 -0.6904 -1.2703  2.7819
 3006SOL     OW20476   4.576   3.791   3.820 -0.1182 -0.2991 -0.0642
 3006SOL    HW120477   4.625   3.809   3.901 -1.2315  0.2863  0.4791
 3006SOL    HW220478   4.486   3.799   3.853  0.2476  0.1381  0.8391
 3007SOL     OW20479   0.869   4.165   8.597 -0.5781 -0.1577 -0.0634
 3007SOL    HW120480   0.911   4.178   8.512  0.2206  0.3812  0.4088
 3007SOL    HW220481   0.933   4.193   8.663 -1.5212 -0.8747  1.1553
 3008SOL     OW20482   3.962   4.555   4.738 -0.3465 -0.3533 -0.1318
 3008SOL    HW120483   3.998   4.467   4.726  1.0259 -0.0552  1.8281
 3008SOL    HW220484   4.004   4.584   4.820  0.2179 -0.5477 -0.3510
 3009SOL     OW20485   0.340   0.308  11.571 -0.2799 -0.1160  0.0734
 3009SOL    HW120486   0.358   0.291  11.479 -2.2162  2.1452 -0.7347
 3009SOL    HW220487   0.303   0.395  11.558 -0.4117 -0.4049 -1.4640
 3010SOL     OW20488   3.022   0.632   7.611  0.4215 -0.4072  0.4649
 3010SOL    HW120489   3.073   0.658   7.688  0.0935 -1.1614  0.9389
 3010SOL    HW220490   2.937   0.618   7.652  0.0508 -1.0018 -0.5020
 3011SOL     OW20491   4.671   3.797   4.483 -0.1376  0.0081  0.7371
 3011SOL    HW120492   4.646   3.705   4.476  1.5227 -0.4592  0.9857
 3011SOL    HW220493   4.589   3.844   4.469  0.8999  1.5059 -0.2578
 3012SOL     OW20494   0.513   1.059   5.499 -0.2379 -0.4945  0.2206
 3012SOL    HW120495   0.607   1.056   5.513 -0.2303 -1.7616 -0.1261
 3012SOL    HW220496   0.490   1.063   5.591  4.0836 -1.5616  1.3223
 3013SOL     OW20497   2.546   1.362  11.928 -0.0067 -0.2190 -0.0087
 3013SOL    HW120498   2.630   1.405  11.940 -0.9054  1.8018 -0.9329
 3013SOL    HW220499   2.567   1.308  11.852 -1.8426  2.7521 -2.6603
 3014SOL     OW20500   2.887   1.986   7.021  0.4662  0.7041 -0.3720
 3014SOL    HW120501   2.931   1.994   6.936  3.3827 -0.8902  0.9932
 3014SOL    HW220502   2.894   2.076   7.051 -1.4338  0.3878  1.0653
 3015SOL     OW20503   1.289   3.866   3.133  0.2153  0.2380  0.1249
 3015SOL    HW120504   1.359   3.916   3.090  0.4611 -0.8476 -0.7309
 3015SOL    HW220505   1.209   3.912   3.105 -1.0310 -1.0466  1.6123
 3016SOL     OW20506   4.069   4.672   0.649 -0.2499  0.0766 -0.2474
 3016SOL    HW120507   4.065   4.711   0.561 -2.0123  0.3523 -0.0360
 3016SOL    HW220508   4.048   0.026   0.706  1.1540 -1.4308  2.1906
 3017SOL     OW20509   1.082   3.491  16.340 -0.4571 -0.0726  0.7321
 3017SOL    HW120510   1.173   3.465  16.352  0.7190  3.2286 -0.9317
 3017SOL    HW220511   1.037   3.427  16.395 -0.2786  0.6938  1.7619
 3018SOL     OW20512   1.974   2.027  12.460  0.0151 -0.1959 -0.0116
 3018SOL    HW120513   2.065   2.017  12.486 -0.6441 -1.4913  1.8172
 3018SOL    HW220514   1.970   2.121  12.475 -3.5695 -0.4604  0.8395
 3019SOL     OW20515   2.535   1.987  11.196  0.9979 -0.0487 -0.0250
 3019SOL    HW120516   2.551   1.954  11.108 -1.6426  2.2550 -1.3646
 3019SOL    HW220517   2.592   1.938  11.255  0.9847 -0.9583 -0.7722
 3020SOL     OW20518   3.141   0.572  10.302 -0.5252 -0.0178 -0.4521
 3020SOL    HW120519   3.153   0.659  10.264  1.8787  0.2030  0.8371
 3020SOL    HW220520   3.228   0.534  10.290 -0.6812 -0.0849 -1.3458
 3021SOL     OW20521   1.473   0.681   8.353 -0.3242 -0.2732  0.2303
 3021SOL    HW120522   1.524   0.744   8.403  0.4925 -0.1566 -0.7427
 3021SOL    HW220523   1.425   0.635   8.422 -1.8389  0.8112 -0.0826
 3022SOL     OW20524   0.259   0.212   0.006  0.0379 -0.2419 -0.3952
 3022SOL    HW120525   0.296   0.294   0.040 -1.5077 -0.1504  1.0345
 3022SOL    HW220526   0.265   0.158   0.085  0.7060 -0.1276 -0.3665
 3023SOL     OW20527   4.156   3.963   8.217  0.5038 -0.1703  0.3314
 3023SOL    HW120528   4.104   4.038   8.245  1.3625  0.2695  0.7486
 3023SOL    HW220529   4.226   4.011   8.172  1.3211 -0.3107  1.4393
 3024SOL     OW20530   0.381   4.464   4.295  0.1942  0.3546 -0.2476
 3024SOL    HW120531   0.460   4.465   4.349 -1.6376  3.6746  2.4103
 3024SOL    HW220532   0.410   4.412   4.220  2.2854 -1.0672  1.5437
 3025SOL     OW20533   3.253   3.247   6.725  0.1059  0.3383 -0.4812
 3025SOL    HW120534   3.251   3.165   6.775 -1.2539 -0.4887 -1.9106
 3025SOL    HW220535   3.301   3.299   6.790  0.8861 -1.1468  0.1356
 3026SOL     OW20536   0.080   0.163  11.270 -0.1313 -0.0094  0.3217
 3026SOL    HW120537   0.028   0.154  11.190 -1.4725 -2.4168  1.4553
 3026SOL    HW220538   0.077   0.070  11.292 -0.6550 -0.3143 -1.0460
 3027SOL     OW20539   2.261   3.139   1.989  0.3866 -0.4661 -0.8344
 3027SOL    HW120540   2.241   3.140   1.896 -1.1959  0.9315 -0.4672
 3027SOL    HW220541   2.222   3.062   2.030 -1.0100  1.0137  0.6298
 3028SOL     OW20542   1.397   0.194   4.417 -0.4646 -0.7276  0.3749
 3028SOL    HW120543   1.317   0.238   4.446  1.2668  2.3162  0.5270
 3028SOL    HW220544   1.456   0.269   4.408 -3.1383  1.1865 -1.3029
 3029SOL     OW20545   4.295   2.109   5.454 -0.1119 -0.1083 -0.4945
 3029SOL    HW120546   4.263   2.019   5.466  3.0989 -1.2654 -0.4298
 3029SOL    HW220547   4.214   2.144   5.418  0.9596  1.2762 -1.5329
 3030SOL     OW20548   3.518   1.358  14.593 -0.0430  0.4739 -0.6593
 3030SOL    HW120549   3.454   1.308  14.542 -1.7096  0.4466  1.4785
 3030SOL    HW220550   3.571   1.384  14.517 -0.2665  1.8817 -0.3297
 3031SOL     OW20551   3.404   0.775   0.322 -0.0673 -0.3786  0.4765
 3031SOL    HW120552   3.376   0.726   0.245  0.0011  0.7830 -0.2899
 3031SOL    HW220553   3.348   0.851   0.308 -0.1753 -0.5111  0.1894
 3032SOL     OW20554   0.199   4.046   5.208  0.3534 -0.5138 -0.1484
 3032SOL    HW120555   0.177   4.095   5.287  0.8007  1.5695 -1.3258
 3032SOL    HW220556   0.279   4.085   5.174 -2.1470  2.7645 -2.2421
 3033SOL     OW20557   2.822   0.918   9.695 -0.2736  0.4270  0.0614
 3033SOL    HW120558   2.776   0.847   9.740  0.8286 -0.2603  0.1117
 3033SOL    HW220559   2.847   0.968   9.773 -2.6278 -0.2842  1.2759
 3034SOL     OW20560   1.217   3.361   0.143 -0.1652 -0.2724 -0.0915
 3034SOL    HW120561   1.183   3.309   0.216  1.8874  0.2521  1.2478
 3034SOL    HW220562   1.272   3.423   0.191 -0.6168  0.7994 -0.9626
 3035SOL     OW20563   3.931   1.663  16.713  0.0915 -0.0818 -0.8812
 3035SOL    HW120564   3.902   1.751  16.739  0.9279  0.7668 -2.8080
 3035SOL    HW220565   3.847   1.620  16.729 -0.1048  0.4018 -0.6064
 3036SOL     OW20566   1.408   2.146   3.812 -0.2271  0.5483 -0.3418
 3036SOL    HW120567   1.344   2.217   3.814 -0.5897  0.2514 -1.0805
 3036SOL    HW220568   1.449   2.149   3.725  3.0980  0.6427  1.2419
 3037SOL     OW20569   1.170   0.789  12.829  0.3880  0.2702 -0.3554
 3037SOL    HW120570   1.107   0.727  12.867  0.3654  1.2619  1.2543
 3037SOL    HW220571   1.151   0.872  12.874 -0.0969 -0.9257  1.6369
 3038SOL     OW20572   1.975   0.730  11.400 -0.4612 -0.0844  0.2203
 3038SOL    HW120573   2.033   0.676  11.346 -1.3715 -0.6931 -0.1580
 3038SOL    HW220574   1.901   0.673  11.422 -0.9124  1.0278  1.5488
 3039SOL     OW20575   1.200   3.061   8.845 -0.0641  0.6886  0.0809
 3039SOL    HW120576   1.136   3.018   8.788  0.4573 -1.2621  0.9745
 3039SOL    HW220577   1.270   3.082   8.784  0.4478  1.1463  0.8251
 3040SOL     OW20578   2.932   0.905   3.805  0.9384 -0.0246  0.2925
 3040SOL    HW120579   2.932   0.969   3.735  1.4886 -1.1065 -0.6997
 3040SOL    HW220580   2.841   0.876   3.799  1.3681 -1.5117  0.8088
 3041SOL     OW20581   1.179   2.845   2.681 -0.1910 -0.2926 -0.2335
 3041SOL    HW120582   1.178   2.756   2.645 -1.3333  1.0295 -3.5500
 3041SOL    HW220583   1.255   2.884   2.638 -0.0361 -0.7062 -0.3391
 3042SOL     OW20584   3.438   4.148  14.938 -0.1293 -0.1871 -0.3982
 3042SOL    HW120585   3.478   4.062  14.928 -0.7210 -0.5247  0.1803
 3042SOL    HW220586   3.347   4.121  14.948  0.2231  0.1596  3.5429
 3043SOL     OW20587   3.788   1.486  15.276 -0.3449 -0.2515  0.7562
 3043SOL    HW120588   3.784   1.390  15.284  0.2550 -0.2236  1.2936
 3043SOL    HW220589   3.768   1.496  15.183  0.8006 -1.0875  0.4148
 3044SOL     OW20590   3.718   1.111   0.955 -0.2711  0.0100 -0.1554
 3044SOL    HW120591   3.734   1.191   0.907 -0.6618 -0.3555 -0.8846
 3044SOL    HW220592   3.702   1.150   1.041 -1.8179  1.0177 -0.9253
 3045SOL     OW20593   3.232   1.895   6.983  0.1076  0.0849  0.0553
 3045SOL    HW120594   3.191   1.817   7.019 -1.6005  0.0611 -1.8860
 3045SOL    HW220595   3.196   1.963   7.040 -1.1789  0.7263 -1.4945
 3046SOL     OW20596   0.787   4.486   5.850  0.4179 -0.0053  0.6282
 3046SOL    HW120597   0.872   4.508   5.811  1.8072 -2.0344  2.4892
 3046SOL    HW220598   0.732   4.485   5.771  1.8744 -1.4612 -0.3717
 3047SOL     OW20599   2.561   3.427   4.618  0.0314 -0.2664 -0.2585
 3047SOL    HW120600   2.643   3.379   4.609  0.3191  0.2842 -0.5781
 3047SOL    HW220601   2.497   3.356   4.619 -3.0462  2.4788  0.0798
 3048SOL     OW20602   3.409   3.120   9.102  0.2549 -0.2055 -0.1162
 3048SOL    HW120603   3.491   3.072   9.103  1.0065  1.0646 -0.5886
 3048SOL    HW220604   3.431   3.180   9.031 -2.9614  0.6049 -0.4518
 3049SOL     OW20605   1.268   0.867   3.588 -0.4505  0.3860  0.6765
 3049SOL    HW120606   1.348   0.852   3.639 -0.2463  1.1829  0.5916
 3049SOL    HW220607   1.217   0.924   3.645  0.5173  1.4164  0.5212
 3050SOL     OW20608   1.689   3.934   4.684  0.0626 -0.3407  0.3175
 3050SOL    HW120609   1.675   4.028   4.679 -0.6382 -0.4413  0.4249
 3050SOL    HW220610   1.644   3.921   4.767  0.5143 -1.3386  0.4159
 3051SOL     OW20611   2.782   1.770   5.522  0.6738  0.4529 -0.1183
 3051SOL    HW120612   2.724   1.823   5.577  1.3440  1.2629 -0.1774
 3051SOL    HW220613   2.852   1.833   5.503  1.5396 -0.9096 -1.3756
 3052SOL     OW20614   1.405   4.145   7.226  0.2659  0.1956 -0.1343
 3052SOL    HW120615   1.423   4.239   7.217 -2.1922  0.8506  1.8473
 3052SOL    HW220616   1.496   4.121   7.209 -0.1993 -1.0628 -0.8582
 3053SOL     OW20617   3.749   4.011   7.623 -0.3377 -0.0567  0.5197
 3053SOL    HW120618   3.710   3.928   7.595  0.3941 -0.4816  0.7762
 3053SOL    HW220619   3.800   4.021   7.543  0.7839 -0.7537  1.1508
 3054SOL     OW20620   3.304   1.867  15.845 -0.4505  0.0692 -0.2321
 3054SOL    HW120621   3.369   1.878  15.776 -1.0819  3.2564 -0.3536
 3054SOL    HW220622   3.266   1.780  15.838 -0.3994  0.2852 -3.1405
 3055SOL     OW20623   4.045   3.393   6.596 -0.3472  0.0795 -0.0289
 3055SOL    HW120624   3.987   3.395   6.520 -0.3287  0.4855 -0.0345
 3055SOL    HW220625   4.069   3.484   6.612  0.5036  0.1064 -1.4924
 3056SOL     OW20626   2.930   2.360   2.260 -0.1085  0.1439 -0.4755
 3056SOL    HW120627   2.875   2.406   2.323  0.9234  0.0772  0.4845
 3056SOL    HW220628   2.950   2.431   2.198  0.4532  0.3858 -0.0147
 3057SOL     OW20629   2.684   1.049   4.355 -0.4364 -0.3715 -0.3755
 3057SOL    HW120630   2.744   1.038   4.282  0.9867  1.7260  0.4842
 3057SOL    HW220631   2.721   1.126   4.398 -1.4110 -0.6545  0.9984
 3058SOL     OW20632   1.433   4.217   9.516 -0.2199 -1.1104 -1.0090
 3058SOL    HW120633   1.511   4.164   9.530 -1.3939 -2.9775 -1.3912
 3058SOL    HW220634   1.367   4.148   9.504 -1.3635 -0.5406  1.9813
 3059SOL     OW20635   1.254   1.594  13.888  0.2484 -0.2698  0.3203
 3059SOL    HW120636   1.328   1.550  13.932 -0.5656 -1.1952  0.7587
 3059SOL    HW220637   1.275   1.687  13.900  2.5874 -0.5759 -1.3090
 3060SOL     OW20638   3.076   0.220   9.035  0.0960  0.2734  0.2299
 3060SOL    HW120639   3.001   0.166   9.012  0.4267 -1.5458  3.4439
 3060SOL    HW220640   3.083   0.201   9.128  0.9613 -1.4782 -0.2009
 3061SOL     OW20641   3.085   1.282   3.531  0.0175 -0.5085 -0.1028
 3061SOL    HW120642   3.162   1.229   3.553  0.6886  0.7720  0.6420
 3061SOL    HW220643   3.018   1.214   3.532 -0.5781  0.0918  0.0220
 3062SOL     OW20644   4.416   4.560   7.366  0.2941 -0.0357 -0.4228
 3062SOL    HW120645   4.355   4.521   7.303  0.8617 -0.3419 -0.7806
 3062SOL    HW220646   4.422   4.485   7.426 -2.4241 -0.3043 -0.4950
 3063SOL     OW20647   0.400   3.384   3.312  0.3192  0.1814 -0.2398
 3063SOL    HW120648   0.382   3.478   3.321  2.0742  0.4391  0.5921
 3063SOL    HW220649   0.492   3.370   3.334  0.2721  1.9467  1.1114
 3064SOL     OW20650   0.166   3.812  16.604 -0.4781 -0.6172 -0.6505
 3064SOL    HW120651   0.171   3.907  16.602 -1.2333 -0.5192  2.1513
 3064SOL    HW220652   0.096   3.790  16.665  2.2897 -0.0103  2.7631
 3065SOL     OW20653   4.479   0.197  10.589 -0.3805 -0.0029 -0.4138
 3065SOL    HW120654   4.549   0.166  10.646 -0.6790 -2.0437 -1.1708
 3065SOL    HW220655   4.426   0.118  10.582 -0.8127  0.0142  2.5519
 3066SOL     OW20656   0.009   2.675  10.449  0.2128  0.4536  0.3828
 3066SOL    HW120657   4.663   2.738  10.479  0.7609  1.0441  0.3379
 3066SOL    HW220658   4.692   2.589  10.466  0.4492  0.5677  1.4293
 3067SOL     OW20659   2.080   0.974   5.011  0.0187  0.2889  0.2318
 3067SOL    HW120660   2.085   0.891   5.058  1.3342  0.5540  0.5466
 3067SOL    HW220661   2.118   0.952   4.926 -3.6142 -0.3954 -1.2346
 3068SOL     OW20662   2.358   0.189   8.770  0.0833 -0.4868 -0.3778
 3068SOL    HW120663   2.372   0.202   8.864 -1.7592  1.1442 -0.3203
 3068SOL    HW220664   2.304   0.266   8.753 -0.8134 -1.1961 -0.7789
 3069SOL     OW20665   2.567   3.728   5.763 -0.0960 -0.4864  0.2549
 3069SOL    HW120666   2.576   3.637   5.790 -0.8112 -0.1264  1.6999
 3069SOL    HW220667   2.631   3.722   5.692  0.1549 -1.5931  0.5833
 3070SOL     OW20668   2.780   3.393   8.004 -0.1412 -0.0780  0.0369
 3070SOL    HW120669   2.780   3.426   8.093  0.6706 -0.4237  0.1661
 3070SOL    HW220670   2.852   3.331   8.014 -0.1888 -0.0689  0.4090
 3071SOL     OW20671   3.096   2.220   0.406 -0.6776  0.4719 -0.3180
 3071SOL    HW120672   3.148   2.210   0.326 -0.4987 -0.7248 -0.0511
 3071SOL    HW220673   3.036   2.146   0.389 -1.2787  0.7430  0.6479
 3072SOL     OW20674   2.076   2.214   8.116  0.2847 -0.2529 -0.5777
 3072SOL    HW120675   2.156   2.265   8.102 -1.2135  1.7277 -1.9228
 3072SOL    HW220676   2.107   2.160   8.189 -1.8862 -1.3246 -0.4520
 3073SOL     OW20677   0.660   4.474   0.720  0.2011  0.0299  0.1250
 3073SOL    HW120678   0.708   4.552   0.693  1.8289 -0.9880  0.0270
 3073SOL    HW220679   0.600   4.498   0.791 -1.9757 -3.7988 -0.4369
 3074SOL     OW20680   3.513   1.926  11.512  0.0115  0.0841  0.1826
 3074SOL    HW120681   3.567   1.961  11.583  1.4345  1.0163 -1.3605
 3074SOL    HW220682   3.471   1.853  11.558  2.7295 -0.6200  1.5454
 3075SOL     OW20683   1.366   4.243   8.675  0.9893  0.2225  0.3761
 3075SOL    HW120684   1.346   4.320   8.622 -0.6702  0.1031  0.8154
 3075SOL    HW220685   1.289   4.247   8.732  0.3307  1.4591 -0.5938
 3076SOL     OW20686   0.098   4.016   8.412 -0.2723 -0.2915 -0.1258
 3076SOL    HW120687   0.167   4.081   8.403 -0.0980 -0.4477  0.1086
 3076SOL    HW220688   0.120   3.977   8.496 -1.3350 -0.7786 -0.0711
 3077SOL     OW20689   2.537   2.964   3.941  0.0604 -0.1640 -0.1368
 3077SOL    HW120690   2.522   2.950   4.035 -2.0637  2.6936 -0.0476
 3077SOL    HW220691   2.632   2.954   3.942  0.1652  0.8625  0.3613
 3078SOL     OW20692   2.650   4.034   6.177 -0.4505  0.0976 -0.0569
 3078SOL    HW120693   2.604   4.116   6.196 -2.7194 -1.2560  0.2370
 3078SOL    HW220694   2.577   3.980   6.148  0.2615 -1.1647  0.5053
 3079SOL     OW20695   0.429   2.785   5.935  0.4441  0.0002  0.7678
 3079SOL    HW120696   0.390   2.711   5.981 -0.1506  0.6602  1.3264
 3079SOL    HW220697   0.349   2.837   5.924 -0.8784 -2.1117  0.4184
 3080SOL     OW20698   1.398   1.569   3.069 -0.1285  0.1228  0.2529
 3080SOL    HW120699   1.387   1.520   2.987  2.9487  2.1999 -1.4074
 3080SOL    HW220700   1.310   1.564   3.105  0.0397  0.2420  0.6759
 3081SOL     OW20701   1.368   4.303   7.526  0.1787  0.0957  0.2736
 3081SOL    HW120702   1.442   4.244   7.540  0.7735  0.6982 -0.3325
 3081SOL    HW220703   1.379   4.345   7.441  1.3012 -0.2260  0.2686
 3082SOL     OW20704   1.060   3.183   7.088 -0.0751  0.2308 -0.0477
 3082SOL    HW120705   1.063   3.276   7.111 -2.9019  0.4013 -0.2680
 3082SOL    HW220706   1.092   3.191   6.998 -0.1690 -0.0420 -0.1048
 3083SOL     OW20707   2.116   2.146   6.709  0.0149  0.4321 -0.0306
 3083SOL    HW120708   2.123   2.071   6.649 -1.4558 -0.6356  1.1465
 3083SOL    HW220709   2.068   2.111   6.784  0.9283 -0.3485  0.1917
 3084SOL     OW20710   4.472   4.094  15.758  0.2934 -0.4456  0.9401
 3084SOL    HW120711   4.561   4.109  15.726 -0.5583  2.4579 -0.0989
 3084SOL    HW220712   4.489   4.022  15.818  1.3550 -1.1435 -0.1838
 3085SOL     OW20713   0.593   4.298   3.321  0.1673 -0.6289  0.0977
 3085SOL    HW120714   0.643   4.266   3.396  0.6966  1.1282  0.5144
 3085SOL    HW220715   0.631   4.245   3.250 -0.7666 -1.2524  0.0704
 3086SOL     OW20716   0.440   3.198   2.681 -0.2737 -0.1572 -0.0621
 3086SOL    HW120717   0.387   3.189   2.760 -0.1480 -0.6708 -0.0325
 3086SOL    HW220718   0.506   3.131   2.698 -0.4551 -0.2655  0.2281
 3087SOL     OW20719   3.681   4.093   4.102  0.2086  0.0967  0.5114
 3087SOL    HW120720   3.771   4.080   4.134  0.8956  2.6742 -0.3487
 3087SOL    HW220721   3.668   4.187   4.112  2.2591  0.4555 -0.2396
 3088SOL     OW20722   2.853   3.072   0.353  0.1177 -0.2889 -0.1236
 3088SOL    HW120723   2.823   3.108   0.269 -2.1957 -0.3783  0.6576
 3088SOL    HW220724   2.892   3.155   0.383 -2.0233  0.2787  1.1511
 3089SOL     OW20725   2.347   3.003   6.488 -0.0262  0.0003 -0.4599
 3089SOL    HW120726   2.430   3.030   6.448 -0.0557 -0.1102 -0.5978
 3089SOL    HW220727   2.320   3.091   6.514 -2.6564  0.0055 -3.2972
 3090SOL     OW20728   3.579   4.491  11.214  0.4473 -0.0679 -0.1817
 3090SOL    HW120729   3.545   4.514  11.301 -0.0739  0.0073 -0.4008
 3090SOL    HW220730   3.569   4.396  11.213  1.1153 -0.1404  0.2839
 3091SOL     OW20731   2.526   2.242  14.753 -0.6378 -0.0229  0.0734
 3091SOL    HW120732   2.483   2.199  14.827  0.9758 -0.2080  0.8938
 3091SOL    HW220733   2.585   2.172  14.725 -2.3901 -0.3470 -2.8804
 3092SOL     OW20734   1.125   2.166   8.038  0.5187 -0.3182 -0.3475
 3092SOL    HW120735   1.175   2.108   8.096 -0.2267 -1.5433 -0.9134
 3092SOL    HW220736   1.041   2.170   8.083  1.1224 -1.2533  0.8698
 3093SOL     OW20737   2.865   4.160   6.081  0.4019 -0.3091  0.4238
 3093SOL    HW120738   2.813   4.228   6.037 -0.3240  0.1629  1.9748
 3093SOL    HW220739   2.796   4.111   6.126  0.3516  0.5405  1.2739
 3094SOL     OW20740   1.466   4.668   7.411 -0.5708 -0.2371  0.4956
 3094SOL    HW120741   1.400   0.010   7.379 -0.5187  0.1939  1.2288
 3094SOL    HW220742   1.545   4.709   7.374 -1.4816  1.5724  0.5627
 3095SOL     OW20743   1.323   1.355   0.705  0.5697  0.4500  0.1698
 3095SOL    HW120744   1.351   1.444   0.687  1.3870 -0.0902 -1.2432
 3095SOL    HW220745   1.279   1.341   0.621 -1.7265 -1.0775  1.6083
 3096SOL     OW20746   0.687   0.891   2.617 -0.3312 -0.1695  0.2271
 3096SOL    HW120747   0.734   0.815   2.653 -0.6875 -0.4204  0.1601
 3096SOL    HW220748   0.667   0.853   2.531  0.6706 -0.1218 -0.0263
 3097SOL     OW20749   2.967   3.884   4.480 -0.0846  0.5472 -0.0486
 3097SOL    HW120750   2.872   3.874   4.479 -0.3430  2.8683  1.1480
 3097SOL    HW220751   2.974   3.979   4.496 -0.7860  0.6823 -0.5673
 3098SOL     OW20752   3.097   0.530   4.058  0.2652  0.5706 -0.2021
 3098SOL    HW120753   3.044   0.506   4.134 -0.6062 -0.3107 -1.0903
 3098SOL    HW220754   3.149   0.450   4.053  0.0281  0.4888 -1.2750
 3099SOL     OW20755   2.246   1.534   4.175  0.7117 -0.6046 -0.4735
 3099SOL    HW120756   2.243   1.510   4.268 -1.0991 -0.9934 -0.6286
 3099SOL    HW220757   2.168   1.489   4.143 -0.0281  0.8012 -0.6641
 3100SOL     OW20758   0.932   2.282  17.643 -0.0410 -0.7691 -0.2126
 3100SOL    HW120759   0.930   2.211  17.579  0.2440 -0.2280 -0.8279
 3100SOL    HW220760   0.890   2.360  17.605  1.0252 -1.7099 -3.3316
 3101SOL     OW20761   2.617   2.476   4.827  0.2735 -0.0085  0.5980
 3101SOL    HW120762   2.709   2.503   4.820  1.0866 -3.1133 -0.4496
 3101SOL    HW220763   2.571   2.560   4.826  0.2409 -0.0757 -2.1632
 3102SOL     OW20764   1.367   0.091   2.067  0.0749 -0.3156 -0.9113
 3102SOL    HW120765   1.407   0.164   2.020  0.6862 -0.6911 -0.9700
 3102SOL    HW220766   1.448   0.051   2.097 -0.6240 -1.7768 -0.9393
 3103SOL     OW20767   0.773   1.019   5.150 -0.3954  0.2652 -0.4658
 3103SOL    HW120768   0.773   1.093   5.089  0.7805 -0.4595 -1.3280
 3103SOL    HW220769   0.685   0.981   5.143  0.8968 -2.8323  0.1973
 3104SOL     OW20770   2.209   4.140   8.911  0.3368  0.1983  1.0206
 3104SOL    HW120771   2.223   4.143   9.005  0.1858 -1.7862  1.1060
 3104SOL    HW220772   2.115   4.121   8.911 -0.2550  3.2053  0.2447
 3105SOL     OW20773   0.682   3.987   9.228  0.2950 -0.2771  0.5280
 3105SOL    HW120774   0.718   3.976   9.316  2.7688 -2.0338 -0.7029
 3105SOL    HW220775   0.619   3.915   9.225 -1.2913  1.0858  0.9565
 3106SOL     OW20776   2.350   4.576   6.835 -0.8049 -0.4909 -0.3634
 3106SOL    HW120777   2.425   4.635   6.827 -1.8838  0.9148 -0.2123
 3106SOL    HW220778   2.376   4.514   6.904  0.7545 -0.3998 -0.8646
 3107SOL     OW20779   0.532   1.612  10.657  0.3047  0.4133  0.1382
 3107SOL    HW120780   0.527   1.516  10.658 -0.3460  0.4497  0.1467
 3107SOL    HW220781   0.596   1.635  10.725  1.0684 -0.4982 -0.2671
 3108SOL     OW20782   1.285   0.563  16.828  0.2611 -0.3726  0.3335
 3108SOL    HW120783   1.212   0.619  16.803  0.7416 -0.2708 -0.8347
 3108SOL    HW220784   1.258   0.545  16.918  1.9954  1.8949  1.3059
 3109SOL     OW20785   0.346   0.979  14.530  0.2357  0.1896 -0.7019
 3109SOL    HW120786   0.367   0.919  14.458 -1.3144 -1.4669  0.2435
 3109SOL    HW220787   0.437   1.008  14.526  0.6703 -1.2044 -1.0328
 3110SOL     OW20788   0.285   1.551  15.904  0.2625 -0.9125 -0.1358
 3110SOL    HW120789   0.227   1.477  15.923 -2.3620  1.4385  0.8693
 3110SOL    HW220790   0.241   1.625  15.945  0.3644 -0.6589 -0.4822
 3111SOL     OW20791   4.393   2.118   1.306 -0.2250 -0.2140  0.2451
 3111SOL    HW120792   4.323   2.178   1.281 -0.2785 -0.3246  0.1311
 3111SOL    HW220793   4.393   2.059   1.231 -0.3100 -2.9485  2.3682
 3112SOL     OW20794   3.821   3.169   9.574 -0.3376  0.1185 -0.0061
 3112SOL    HW120795   3.830   3.078   9.547 -1.2611  0.1817 -0.5444
 3112SOL    HW220796   3.897   3.182   9.631 -0.1659 -1.6568  0.1490
 3113SOL     OW20797   0.812   3.384   7.320 -0.0456  0.3761  0.2207
 3113SOL    HW120798   0.838   3.468   7.357 -1.9306  0.4246  1.4271
 3113SOL    HW220799   0.827   3.398   7.226  2.3490  1.9757  0.8665
 3114SOL     OW20800   1.871   3.525   3.862  0.0534 -0.0156  0.0779
 3114SOL    HW120801   1.892   3.432   3.855  0.8944  0.1193  0.8526
 3114SOL    HW220802   1.879   3.547   3.769 -1.6549  0.7969  0.1062
 3115SOL     OW20803   3.244   4.363   8.973  0.2468 -0.1959 -0.4411
 3115SOL    HW120804   3.328   4.333   9.007 -0.4650 -0.8694  0.7222
 3115SOL    HW220805   3.275   4.387   8.886  1.3475 -0.3381 -0.0872
 3116SOL     OW20806   4.600   1.315  11.399  0.1525 -0.1691 -0.3079
 3116SOL    HW120807   4.620   1.407  11.383 -3.1501  0.3816 -1.2196
 3116SOL    HW220808   4.542   1.300  11.324  0.3411  0.7701 -0.6392
 3117SOL     OW20809   0.383   1.865  11.557  0.2783  0.6157  0.1110
 3117SOL    HW120810   0.416   1.784  11.519 -0.5663  0.2946  0.0575
 3117SOL    HW220811   0.453   1.926  11.534  0.4518  0.9304  1.4480
 3118SOL     OW20812   4.496   3.044  16.252  0.5393 -0.1400  0.3770
 3118SOL    HW120813   4.401   3.059  16.247  0.8613  2.4966  2.2765
 3118SOL    HW220814   4.513   3.069  16.162 -2.0324  0.0770 -0.0409
 3119SOL     OW20815   2.724   1.705   2.963 -0.3871 -0.5879 -0.3000
 3119SOL    HW120816   2.654   1.726   2.901  0.6865 -1.9825 -1.9994
 3119SOL    HW220817   2.713   1.610   2.957  1.3133 -0.8681  0.8468
 3120SOL     OW20818   0.200   0.705   3.796 -0.1374  0.0812 -0.0756
 3120SOL    HW120819   0.180   0.650   3.720  0.1144  0.7353 -0.6114
 3120SOL    HW220820   0.163   0.787   3.763  0.1981  0.4018  0.3465
 3121SOL     OW20821   4.648   4.333   9.471  0.2000 -0.3830  0.2577
 3121SOL    HW120822   4.712   4.365   9.534 -0.3685  1.7322 -0.2599
 3121SOL    HW220823   4.565   4.370   9.502  0.8750  1.9780 -0.8084
 3122SOL     OW20824   1.928   3.240   8.481 -0.0386  0.3440  0.3337
 3122SOL    HW120825   1.907   3.177   8.412 -0.0008  0.0316  0.6065
 3122SOL    HW220826   1.849   3.213   8.529  0.1604  0.3123  0.6443
 3123SOL     OW20827   0.746   2.633   9.720 -0.3168 -0.9586 -0.0654
 3123SOL    HW120828   0.744   2.544   9.756  0.4964 -0.4868  1.1537
 3123SOL    HW220829   0.834   2.667   9.734 -1.6464  1.2413  3.0278
 3124SOL     OW20830   3.828   3.178   9.917 -0.6112 -0.5158  0.0600
 3124SOL    HW120831   3.903   3.120   9.923  0.0514  0.3513  0.2043
 3124SOL    HW220832   3.865   3.246   9.860 -0.1142 -0.5893  0.3043
 3125SOL     OW20833   1.553   1.528   2.173 -0.2851 -0.1687 -0.2487
 3125SOL    HW120834   1.502   1.608   2.188  3.1152  1.5822  2.0546
 3125SOL    HW220835   1.591   1.549   2.088  1.8646  1.0845  0.9948
 3126SOL     OW20836   3.783   0.157   6.050 -0.2921 -0.0591 -0.6023
 3126SOL    HW120837   3.835   0.122   5.978  0.5179  1.2947 -0.6638
 3126SOL    HW220838   3.851   0.162   6.118  0.1868  1.2068 -1.1752
 3127SOL     OW20839   2.499   0.859   9.234  0.3289 -0.4747  0.6921
 3127SOL    HW120840   2.552   0.875   9.156 -1.5560  1.0851 -0.2895
 3127SOL    HW220841   2.446   0.938   9.249  0.4089 -0.2515 -0.1743
 3128SOL     OW20842   0.412   1.737   0.521  0.5598 -0.0668 -0.0880
 3128SOL    HW120843   0.442   1.786   0.444 -0.1043 -0.8850 -0.8609
 3128SOL    HW220844   0.319   1.741   0.502  0.1603  0.1989  1.9302
 3129SOL     OW20845   4.203   0.507   6.429  0.0324 -0.1562 -0.1588
 3129SOL    HW120846   4.144   0.541   6.497 -1.2088  0.2244 -1.4263
 3129SOL    HW220847   4.148   0.457   6.369 -0.6324 -0.2307  0.5090
 3130SOL     OW20848   1.516   2.249   3.576 -0.0664  0.1197 -0.1464
 3130SOL    HW120849   1.559   2.334   3.590 -1.3313  0.4311  1.7784
 3130SOL    HW220850   1.440   2.278   3.525  0.4904  3.1201  0.7259
 3131SOL     OW20851   0.788   2.488  11.861  0.2865 -0.2753 -0.4502
 3131SOL    HW120852   0.750   2.437  11.933  1.3256  0.1346  0.3806
 3131SOL    HW220853   0.736   2.568  11.870  0.8796 -0.3394  3.6651
 3132SOL     OW20854   0.475   3.677   5.247  0.7863 -0.1545  0.4735
 3132SOL    HW120855   0.469   3.676   5.151 -1.5067 -1.2264  0.6318
 3132SOL    HW220856   0.504   3.764   5.273 -0.0992 -0.4697  2.5060
 3133SOL     OW20857   4.301   2.227   4.870  0.2016  0.2800  0.3089
 3133SOL    HW120858   4.270   2.313   4.898  2.1115  1.4086 -1.0339
 3133SOL    HW220859   4.250   2.209   4.791 -1.8682 -1.6588  2.0812
 3134SOL     OW20860   2.340   3.707   1.982  0.0473  0.0630 -0.2157
 3134SOL    HW120861   2.425   3.736   2.014 -0.8008  1.0481  1.1316
 3134SOL    HW220862   2.332   3.756   1.900  1.0133 -0.5683 -0.6889
 3135SOL     OW20863   0.762   4.384   8.893 -0.6399  0.1636  0.3392
 3135SOL    HW120864   0.686   4.327   8.911 -0.2679 -0.6833 -0.7428
 3135SOL    HW220865   0.760   4.372   8.798 -0.5813 -1.1610  0.4987
 3136SOL     OW20866   1.850   1.964  10.671 -0.0257  0.3999  0.0500
 3136SOL    HW120867   1.893   1.946  10.587 -0.0718 -1.0823  0.3417
 3136SOL    HW220868   1.811   1.879  10.692 -1.5319  0.7189 -1.3895
 3137SOL     OW20869   0.875   2.997  13.785  0.2644  0.1503 -0.5720
 3137SOL    HW120870   0.808   2.928  13.781 -0.7668  1.2445 -1.9873
 3137SOL    HW220871   0.869   3.019  13.692  1.4870  0.7167 -0.5072
 3138SOL     OW20872   2.048   2.839   5.155  0.7172 -0.7817  0.0384
 3138SOL    HW120873   2.072   2.844   5.247  0.6265 -2.1341  0.1300
 3138SOL    HW220874   2.093   2.913   5.112 -0.2884 -1.0273 -1.4273
 3139SOL     OW20875   2.807   0.451   8.263 -0.4409  0.0284 -0.3118
 3139SOL    HW120876   2.752   0.490   8.194 -0.6668 -1.0671 -0.7435
 3139SOL    HW220877   2.868   0.517   8.297 -0.4236  0.0885 -0.4593
 3140SOL     OW20878   3.538   1.700  15.449  0.1675  0.1121  0.0248
 3140SOL    HW120879   3.529   1.607  15.472 -2.9694  0.0993 -1.1366
 3140SOL    HW220880   3.632   1.719  15.447 -0.0993  1.6901  2.5020
 3141SOL     OW20881   3.684   4.676   8.343 -0.5671 -0.4829 -0.4918
 3141SOL    HW120882   3.721   0.010   8.273  0.8872 -0.5756  0.2116
 3141SOL    HW220883   3.742   4.695   8.416 -0.0307  0.6166 -1.2059
 3142SOL     OW20884   0.184   0.026   7.974  0.2745 -0.1209  0.1976
 3142SOL    HW120885   0.190   0.006   8.068 -0.2014 -0.9899  0.0459
 3142SOL    HW220886   0.132   0.105   7.961 -0.4257 -0.3942  1.3353
 3143SOL     OW20887   0.941   2.080   6.493 -0.3900  0.2529 -0.0030
 3143SOL    HW120888   1.034   2.059   6.488 -1.1106 -2.9723  0.2168
 3143SOL    HW220889   0.938   2.109   6.584  0.6466  1.3266 -0.3124
 3144SOL     OW20890   3.104   2.566   0.755  0.0925  0.0055 -0.2391
 3144SOL    HW120891   3.081   2.487   0.706  2.6653  0.4651 -2.1726
 3144SOL    HW220892   3.136   2.517   0.831  0.1445 -0.8810 -0.8293
 3145SOL     OW20893   1.526   0.522  12.927  0.0196 -0.1013  0.4724
 3145SOL    HW120894   1.620   0.506  12.912 -0.4422 -1.7389 -0.6645
 3145SOL    HW220895   1.499   0.544  12.838 -0.7959 -1.2994  0.4217
 3146SOL     OW20896   0.488   0.322  11.905 -0.2437  0.2207 -0.0226
 3146SOL    HW120897   0.541   0.398  11.880  2.6993 -1.4632  1.1537
 3146SOL    HW220898   0.525   0.293  11.988  1.5042 -0.4285 -1.0526
 3147SOL     OW20899   3.882   3.616   4.270 -0.1410  0.1526  0.0902
 3147SOL    HW120900   3.802   3.667   4.278  0.1695  0.5100  0.9080
 3147SOL    HW220901   3.855   3.558   4.199  1.5195  0.8281 -1.1271
 3148SOL     OW20902   4.195   1.794   5.697  0.3105  0.9404 -0.3746
 3148SOL    HW120903   4.110   1.832   5.718  0.1598 -0.4299  1.4987
 3148SOL    HW220904   4.187   1.807   5.603  2.4544  0.4524 -0.6199
 3149SOL     OW20905   4.230   4.058   1.440  0.3053  0.0490  0.6764
 3149SOL    HW120906   4.306   4.113   1.424  1.2866 -1.3639  0.4829
 3149SOL    HW220907   4.275   3.976   1.418 -1.2875  0.1682 -3.1158
 3150SOL     OW20908   3.933   2.603   4.082 -0.3418 -0.1396 -0.5113
 3150SOL    HW120909   3.845   2.577   4.053  0.8947 -3.3149 -1.4694
 3150SOL    HW220910   3.897   2.663   4.147  1.6397 -1.2619  1.6232
 3151SOL     OW20911   0.286   1.865  11.250  0.1604  0.4103 -0.6546
 3151SOL    HW120912   0.194   1.879  11.274  0.2094 -0.2461 -0.0923
 3151SOL    HW220913   0.321   1.882  11.337  0.8961  1.0489 -1.0770
 3152SOL     OW20914   3.544   3.136   7.831 -0.1311 -0.1372 -0.2797
 3152SOL    HW120915   3.530   3.185   7.751  0.1551  0.6993  0.1870
 3152SOL    HW220916   3.518   3.194   7.903 -3.7779 -1.7762 -0.2546
 3153SOL     OW20917   3.222   0.900   9.924 -0.1846 -0.1481  0.2959
 3153SOL    HW120918   3.236   0.840   9.997  1.3150  0.3379  0.4024
 3153SOL    HW220919   3.233   0.841   9.850  0.7110 -0.8155  0.9544
 3154SOL     OW20920   4.160   4.443   3.331  0.3619 -0.3470 -0.2599
 3154SOL    HW120921   4.227   4.471   3.269  0.2581 -1.0282 -0.6830
 3154SOL    HW220922   4.157   4.356   3.293  0.3721 -0.2616 -0.4571
 3155SOL     OW20923   1.217   0.268   6.284  0.3401 -0.7226  0.0568
 3155SOL    HW120924   1.189   0.351   6.243 -0.1073 -1.7233 -1.6556
 3155SOL    HW220925   1.287   0.243   6.224  1.0161 -0.6047  0.8097
 3156SOL     OW20926   2.761   4.008   8.184 -0.2454  0.2843  0.0486
 3156SOL    HW120927   2.788   4.021   8.275  2.0797  0.0426 -0.6112
 3156SOL    HW220928   2.666   4.002   8.197  0.2606 -2.4746  2.3658
 3157SOL     OW20929   0.734   0.644   2.220 -0.5402 -0.0962  0.6962
 3157SOL    HW120930   0.770   0.730   2.244 -0.2899  0.8972 -3.1960
 3157SOL    HW220931   0.806   0.595   2.181  0.0267  0.7572  0.6533
 3158SOL     OW20932   4.015   1.311   2.373  0.1932  0.0239 -0.0220
 3158SOL    HW120933   3.960   1.315   2.295 -2.0012 -1.4626  1.4297
 3158SOL    HW220934   4.087   1.260   2.338  1.6066  0.3344  2.3981
 3159SOL     OW20935   3.262   1.484   8.913  0.1123 -0.1406  0.0274
 3159SOL    HW120936   3.193   1.513   8.974  0.2102  3.0032 -1.3493
 3159SOL    HW220937   3.320   1.446   8.978  2.4396  0.0779 -1.9384
 3160SOL     OW20938   1.560   2.683   8.523 -0.0871 -0.1307  0.2177
 3160SOL    HW120939   1.523   2.596   8.505 -1.0829  0.4908 -0.7259
 3160SOL    HW220940   1.487   2.726   8.566 -1.0187 -2.9456  1.4450
 3161SOL     OW20941   2.089   0.373   4.161 -0.2012  0.3377  0.8247
 3161SOL    HW120942   2.038   0.303   4.120  2.1330 -0.9039  0.0682
 3161SOL    HW220943   2.179   0.342   4.154  0.1699  1.4449  0.7258
 3162SOL     OW20944   3.100   1.700   8.767 -0.2659  0.6486  0.1308
 3162SOL    HW120945   3.013   1.678   8.733  0.7827 -1.5143 -1.2035
 3162SOL    HW220946   3.130   1.610   8.779  0.2356  0.8577  0.4392
 3163SOL     OW20947   2.055   2.652   7.861 -0.5331 -0.8282 -0.1328
 3163SOL    HW120948   1.975   2.652   7.808 -1.7674  0.1636  1.6961
 3163SOL    HW220949   2.118   2.600   7.812 -0.1853 -0.2290 -0.3220
 3164SOL     OW20950   3.721   0.932   9.184  0.1640  0.2423  0.3339
 3164SOL    HW120951   3.747   0.862   9.125 -0.0243  1.9140 -1.7231
 3164SOL    HW220952   3.768   0.906   9.263  2.8146  0.4789 -1.1736
 3165SOL     OW20953   3.082   3.695   2.270 -0.3032 -0.1320 -0.7845
 3165SOL    HW120954   3.119   3.632   2.332  0.3500  1.0590  0.0395
 3165SOL    HW220955   3.031   3.631   2.220 -0.8875 -1.5044  1.5471
 3166SOL     OW20956   0.861   2.871   8.119  0.2440 -0.1642 -0.1513
 3166SOL    HW120957   0.882   2.793   8.067 -2.5973 -1.4733  0.7008
 3166SOL    HW220958   0.912   2.929   8.063  1.6862 -1.5015 -0.2449
 3167SOL     OW20959   4.207   2.744   4.879  0.8353  0.1172  0.2886
 3167SOL    HW120960   4.218   2.837   4.898  0.2241 -0.3361  2.8763
 3167SOL    HW220961   4.212   2.733   4.784 -0.3809  0.2930  0.1987
 3168SOL     OW20962   3.683   0.303   1.502  0.7713  0.2569  0.6598
 3168SOL    HW120963   3.596   0.311   1.541  1.4196  1.2337  1.9112
 3168SOL    HW220964   3.739   0.289   1.579 -0.7712 -1.0797  1.5617
 3169SOL     OW20965   0.285   3.346   0.528 -0.0246 -0.4453 -0.2032
 3169SOL    HW120966   0.353   3.395   0.481 -0.8483 -1.1633 -2.1280
 3169SOL    HW220967   0.333   3.264   0.544  1.5051  0.5886  0.5570
 3170SOL     OW20968   4.376   1.221   7.757 -0.2513  0.1391  0.1228
 3170SOL    HW120969   4.338   1.133   7.761 -1.0793  0.4848 -0.1140
 3170SOL    HW220970   4.451   1.203   7.700 -0.2757 -0.1903  0.1935
 3171SOL     OW20971   2.098   3.189   7.852  0.3320  0.0165  1.0285
 3171SOL    HW120972   2.149   3.108   7.845  3.0496  1.7539  0.6584
 3171SOL    HW220973   2.112   3.221   7.941 -1.5295  1.3958  0.8182
 3172SOL     OW20974   1.205   3.706   6.392  0.2765 -0.5076 -0.6862
 3172SOL    HW120975   1.243   3.771   6.332 -1.6836  1.0001 -0.2914
 3172SOL    HW220976   1.278   3.648   6.415  1.9454  1.1879 -1.6692
 3173SOL     OW20977   1.965   3.929  10.718  0.3977 -0.0614 -0.0671
 3173SOL    HW120978   1.982   3.912  10.810  0.2756  0.3370  0.0279
 3173SOL    HW220979   1.923   4.015  10.719 -1.0309 -0.7907  1.4939
 3174SOL     OW20980   1.242   4.166   3.037 -0.1827  0.3854 -0.3201
 3174SOL    HW120981   1.271   4.112   2.964  1.0164 -1.1504  1.3122
 3174SOL    HW220982   1.273   4.254   3.012  1.9682 -0.5608 -0.9585
 3175SOL     OW20983   0.925   0.923  13.411  0.2498  0.0860  0.0332
 3175SOL    HW120984   0.873   1.004  13.412 -0.9623 -0.7251  1.3139
 3175SOL    HW220985   0.974   0.930  13.328  0.3996 -0.9199  0.0438
 3176SOL     OW20986   0.204   3.222   6.298  0.1718  0.3893  0.4627
 3176SOL    HW120987   0.179   3.202   6.388  3.3076 -0.0872  1.2360
 3176SOL    HW220988   0.186   3.138   6.256 -3.0654  2.1416 -1.6765
 3177SOL     OW20989   4.160   4.574   2.991 -0.5857 -0.2639 -0.2373
 3177SOL    HW120990   4.236   4.516   2.994  0.9853  1.8217  0.3323
 3177SOL    HW220991   4.142   4.583   2.898  0.4528  0.4120 -0.3675
 3178SOL     OW20992   2.596   2.843   7.566 -0.2065 -0.5061  0.2863
 3178SOL    HW120993   2.518   2.792   7.590  0.1122 -0.9411  0.4030
 3178SOL    HW220994   2.640   2.846   7.651  2.8253  1.0776 -1.3727
 3179SOL     OW20995   3.788   4.321  10.157 -0.5825  0.7775  0.5346
 3179SOL    HW120996   3.831   4.324  10.243 -1.4447  0.0863  0.9926
 3179SOL    HW220997   3.700   4.336  10.191 -0.6776 -0.2035  0.7402
 3180SOL     OW20998   2.353   3.296   3.131 -0.0593  0.2133 -0.0972
 3180SOL    HW120999   2.335   3.313   3.039  0.9469 -1.1103 -0.5423
 3180SOL    HW221000   2.403   3.375   3.149  0.2312  0.0859 -0.3545
 3181SOL     OW21001   3.224   3.518   2.753  0.5218 -0.3543  0.2440
 3181SOL    HW121002   3.215   3.573   2.831 -1.4478 -1.5617  0.8683
 3181SOL    HW221003   3.205   3.436   2.798 -0.5434  0.2671  0.9357
 3182SOL     OW21004   3.697   0.237   4.882  0.4471  0.3941 -0.1645
 3182SOL    HW121005   3.643   0.158   4.888  1.2164 -0.0612  0.6953
 3182SOL    HW221006   3.646   0.298   4.829  2.2415  1.6822 -0.4284
 3183SOL     OW21007   1.599   0.387   2.113  0.0132 -0.8205 -0.1863
 3183SOL    HW121008   1.604   0.342   2.029  1.7627 -0.2704 -0.3834
 3183SOL    HW221009   1.644   0.471   2.103 -2.5511  0.3316 -1.8501
 3184SOL     OW21010   1.547   3.277  15.137  0.3158  0.8385  0.1957
 3184SOL    HW121011   1.611   3.337  15.101 -0.8145  0.7492 -1.9672
 3184SOL    HW221012   1.598   3.200  15.161 -0.3180  0.6892  1.0576
 3185SOL     OW21013   1.590   3.197   4.571  0.0206  0.1287 -0.5793
 3185SOL    HW121014   1.654   3.133   4.602 -1.1364 -0.0028  1.5611
 3185SOL    HW221015   1.641   3.278   4.568 -0.0854  0.2485  0.6127
 3186SOL     OW21016   4.254   2.843   8.526 -0.2760  0.4894 -0.2862
 3186SOL    HW121017   4.233   2.931   8.560 -3.7596 -0.6374  0.4426
 3186SOL    HW221018   4.288   2.808   8.608  1.3900  1.9984 -0.3180
 3187SOL     OW21019   3.296   4.208   5.056 -0.6921 -0.0999  0.1862
 3187SOL    HW121020   3.236   4.133   5.062 -0.4389 -0.1721  1.5899
 3187SOL    HW221021   3.386   4.177   5.057 -0.9285 -0.6689  2.7063
 3188SOL     OW21022   4.636   0.349   3.244  0.1708 -0.5466 -0.1701
 3188SOL    HW121023   4.696   0.293   3.195 -1.3018 -3.2231  1.1237
 3188SOL    HW221024   4.613   0.414   3.177  0.9105 -2.1535 -2.0041
 3189SOL     OW21025   3.816   4.135   3.534  0.0800 -0.2350 -0.8163
 3189SOL    HW121026   3.849   4.223   3.513 -1.4048  0.0587 -1.9766
 3189SOL    HW221027   3.850   4.086   3.459 -1.5891 -2.2654 -0.2532
 3190SOL     OW21028   1.450   0.446   2.333 -0.1407  0.1149  0.4020
 3190SOL    HW121029   1.416   0.363   2.365  0.8771 -0.9549 -1.3485
 3190SOL    HW221030   1.502   0.417   2.258 -0.5359  1.2984 -0.3290
 3191SOL     OW21031   4.366   2.298   3.120  0.5911  0.5042 -0.3971
 3191SOL    HW121032   4.380   2.204   3.106 -0.5534 -0.1101  2.5326
 3191SOL    HW221033   4.444   2.313   3.173 -0.8432  1.2908  1.5077
 3192SOL     OW21034   2.396   0.636   5.118  0.2020  0.5886 -0.1780
 3192SOL    HW121035   2.407   0.723   5.157 -2.3359  0.8805 -0.1389
 3192SOL    HW221036   2.460   0.635   5.047 -0.9023  2.3066 -1.1843
 3193SOL     OW21037   1.877   1.068   1.898 -0.1447  0.2699  0.0185
 3193SOL    HW121038   1.910   1.064   1.988 -1.2020 -0.2503  0.3756
 3193SOL    HW221039   1.948   1.097   1.840 -0.0734  1.3290  0.6343
 3194SOL     OW21040   0.093   1.463   5.838 -0.4038  0.2570  0.5994
 3194SOL    HW121041   0.113   1.531   5.774  1.6190 -0.8432  0.0472
 3194SOL    HW221042   4.719   1.450   5.820 -0.6485  1.0395  1.3080
 3195SOL     OW21043   2.879   4.680  15.384  0.3085  0.3870 -0.0429
 3195SOL    HW121044   2.867   4.696  15.290  1.0606  1.3647  0.0198
 3195SOL    HW221045   2.950   0.021  15.407  1.4819 -0.4636 -1.4573
 3196SOL     OW21046   1.219   3.331   6.865  0.4240 -0.5637 -0.3651
 3196SOL    HW121047   1.255   3.251   6.825  0.8452 -0.7055  0.2895
 3196SOL    HW221048   1.296   3.372   6.905  0.3887 -0.2264 -0.6453
 3197SOL     OW21049   2.345   1.169  14.473  0.5113 -0.2043 -0.2253
 3197SOL    HW121050   2.407   1.223  14.424  2.4498 -1.1046  1.2191
 3197SOL    HW221051   2.341   1.219  14.555  0.3073 -0.8484  0.1546
 3198SOL     OW21052   0.538   1.057  10.540  0.2301 -0.2757  0.3107
 3198SOL    HW121053   0.497   1.087  10.621  1.3492 -0.4378  0.9330
 3198SOL    HW221054   0.515   1.135  10.489 -2.0238 -0.4097  1.1263
 3199SOL     OW21055   0.827   3.243   1.968  0.0595  0.1414  0.4064
 3199SOL    HW121056   0.878   3.216   2.044 -2.8451 -0.1891  2.2406
 3199SOL    HW221057   0.875   3.205   1.895  0.3950 -0.6155  1.0206
 3200SOL     OW21058   1.299   4.313   6.017  0.0753  0.1890 -0.6560
 3200SOL    HW121059   1.225   4.256   5.998 -0.1785  0.5109 -0.6417
 3200SOL    HW221060   1.311   4.290   6.109  1.1990  0.6151 -0.6882
 3201SOL     OW21061   1.792   2.996   4.154 -0.6633 -0.0886 -0.3745
 3201SOL    HW121062   1.840   2.995   4.237  2.3706  0.4559 -2.1719
 3201SOL    HW221063   1.708   2.989   4.201 -0.6203 -1.7376 -0.5263
 3202SOL     OW21064   0.070   0.682   2.591  0.3481  0.0166 -0.7115
 3202SOL    HW121065   0.015   0.609   2.617 -0.3738 -0.1040 -2.5523
 3202SOL    HW221066   0.148   0.679   2.645 -0.4820 -0.1476  0.4625
 3203SOL     OW21067   2.425   0.607   6.002  0.1235 -0.3518  0.1931
 3203SOL    HW121068   2.385   0.570   5.924  1.6019  1.8884 -1.6126
 3203SOL    HW221069   2.391   0.696   6.011 -1.7698 -1.0704  0.1288
 3204SOL     OW21070   1.607   3.149  13.431  0.2293 -0.2106 -0.0890
 3204SOL    HW121071   1.647   3.071  13.470  1.3585  1.0010  1.1786
 3204SOL    HW221072   1.677   3.172  13.370  0.2087 -0.0518 -0.0523
 3205SOL     OW21073   1.450   3.571   1.325  0.0929  0.1169  0.0839
 3205SOL    HW121074   1.387   3.563   1.398 -0.1228  0.3843 -0.0709
 3205SOL    HW221075   1.487   3.484   1.321  1.1538  0.7127 -3.1159
 3206SOL     OW21076   1.496   2.049  14.027 -0.3697 -0.0349 -0.2719
 3206SOL    HW121077   1.497   2.098  13.945  0.3266  0.4244  0.0133
 3206SOL    HW221078   1.585   2.014  14.022  0.0964  1.1914 -0.5666
 3207SOL     OW21079   1.505   1.445   7.260 -0.4094  0.0521  0.2143
 3207SOL    HW121080   1.453   1.496   7.198  0.2081 -3.1838 -2.9634
 3207SOL    HW221081   1.568   1.517   7.267  0.9540 -0.7551 -3.5714
 3208SOL     OW21082   0.744   3.993   5.130 -0.1102 -0.9024  0.0137
 3208SOL    HW121083   0.668   4.017   5.182  0.3142 -1.0581  0.7084
 3208SOL    HW221084   0.807   4.037   5.187 -0.9562  0.4359 -0.0708
 3209SOL     OW21085   3.382   3.228   7.369 -0.1539 -0.4444  0.4258
 3209SOL    HW121086   3.410   3.264   7.453 -1.6755  2.2766 -0.2251
 3209SOL    HW221087   3.295   3.192   7.381  0.0574 -0.8763  0.6595
 3210SOL     OW21088   3.360   4.312   7.463  0.0493  0.2692 -0.0216
 3210SOL    HW121089   3.359   4.388   7.405 -0.2239  1.0749  1.0410
 3210SOL    HW221090   3.426   4.262   7.415  1.0997 -0.2890  2.0122
 3211SOL     OW21091   0.233   2.751   0.415  0.1885  0.1565 -0.0955
 3211SOL    HW121092   0.162   2.747   0.478 -0.9568 -0.6389 -1.4304
 3211SOL    HW221093   0.303   2.768   0.478  0.2406  1.8746 -0.6244
 3212SOL     OW21094   4.454   3.818   1.530 -0.0223 -0.3050  0.6607
 3212SOL    HW121095   4.527   3.879   1.539 -1.0289  1.4665 -3.0434
 3212SOL    HW221096   4.418   3.822   1.619 -0.3814  1.3346  0.4387
 3213SOL     OW21097   4.618   1.447   4.129 -0.0349  0.4157  0.7129
 3213SOL    HW121098   4.680   1.509   4.169 -2.1677  3.5321 -0.8164
 3213SOL    HW221099   4.580   1.404   4.205  0.1197 -1.2026 -0.1295
 3214SOL     OW21100   1.418   2.922   3.325  0.2028 -0.0678  0.3127
 3214SOL    HW121101   1.499   2.962   3.293  0.7211 -0.5671  0.9917
 3214SOL    HW221102   1.440   2.829   3.314 -0.8590 -0.3410  0.4437
 3215SOL     OW21103   4.070   0.962   6.999  0.0675 -0.0063 -0.0212
 3215SOL    HW121104   4.131   0.892   7.020  0.4863  0.4669  0.3432
 3215SOL    HW221105   4.102   0.996   6.916  2.1197  0.5179  0.9944
 3216SOL     OW21106   4.042   1.950  12.231  0.7618 -0.0401  0.3956
 3216SOL    HW121107   4.131   1.972  12.258  0.9035 -0.0425 -0.0678
 3216SOL    HW221108   4.000   1.900  12.301  0.5924  0.1812  0.4514
 3217SOL     OW21109   3.877   1.857   8.595  0.5186  0.7623 -0.5695
 3217SOL    HW121110   3.946   1.844   8.531  0.3329 -2.0041 -0.2339
 3217SOL    HW221111   3.855   1.764   8.604 -2.5917  1.4346 -1.1108
 3218SOL     OW21112   4.469   2.248   7.481  0.1847 -0.6879  0.2264
 3218SOL    HW121113   4.383   2.246   7.438 -1.8775  4.0706  4.0655
 3218SOL    HW221114   4.522   2.177   7.445 -0.8272  0.1970 -2.9845
 3219SOL     OW21115   0.918   0.322   3.845 -0.0612 -0.3238  0.3969
 3219SOL    HW121116   0.900   0.246   3.789 -0.6357 -0.2582  0.4960
 3219SOL    HW221117   0.889   0.392   3.787  0.7077  0.4533  0.9550
 3220SOL     OW21118   0.956   1.741   7.178 -0.2341  0.4101 -0.2140
 3220SOL    HW121119   0.881   1.784   7.217 -0.8721 -0.0063 -0.9700
 3220SOL    HW221120   1.004   1.728   7.260 -1.7509  0.9986  0.7537
 3221SOL     OW21121   3.256   0.059   7.265  0.3596 -0.5147  0.0382
 3221SOL    HW121122   3.254   0.034   7.173 -0.4757 -2.6719  0.6476
 3221SOL    HW221123   3.184   0.122   7.260 -0.0115 -0.7314  2.8044
 3222SOL     OW21124   2.460   3.822   6.980 -0.1833  0.1358  0.0373
 3222SOL    HW121125   2.395   3.857   6.920  1.2553  1.7840 -0.5640
 3222SOL    HW221126   2.504   3.906   6.993  3.0378 -1.2106 -2.4488
 3223SOL     OW21127   2.979   1.125   0.230 -0.7678 -0.0335  0.2628
 3223SOL    HW121128   2.901   1.152   0.182 -0.4431  2.4449  1.1276
 3223SOL    HW221129   3.007   1.215   0.251 -1.9928 -0.0775  2.0498
 3224SOL     OW21130   2.913   0.362  11.821  0.3416  0.1166  0.0358
 3224SOL    HW121131   2.896   0.269  11.837 -1.2405  0.7981  2.2754
 3224SOL    HW221132   2.984   0.372  11.884  1.3023 -1.5186 -0.7647
 3225SOL     OW21133   1.023   0.598   2.104  0.6743 -0.0205  0.2715
 3225SOL    HW121134   1.091   0.663   2.123 -0.5258  1.4895 -0.5423
 3225SOL    HW221135   1.052   0.523   2.155 -0.5521  0.0537  1.0959
 3226SOL     OW21136   2.268   4.572   8.297 -0.5351  0.2383 -0.2834
 3226SOL    HW121137   2.345   4.519   8.316  0.6211  1.0704 -2.6256
 3226SOL    HW221138   2.229   4.503   8.242  1.1826 -1.5324  0.7346
 3227SOL     OW21139   4.520   3.220   4.001  0.7313  0.2763 -0.2203
 3227SOL    HW121140   4.531   3.267   4.084 -2.3077 -1.7332  1.3056
 3227SOL    HW221141   4.521   3.292   3.938 -0.1257  0.6443  0.1806
 3228SOL     OW21142   3.541   4.196   5.738 -0.1754  0.4170  0.5681
 3228SOL    HW121143   3.509   4.169   5.652 -0.7912  2.5817  0.1267
 3228SOL    HW221144   3.525   4.290   5.735  0.0233  0.5384  3.3187
 3229SOL     OW21145   2.528   3.597   2.351 -0.4720 -0.2211  1.0188
 3229SOL    HW121146   2.552   3.684   2.321 -0.4038 -1.1034 -1.4400
 3229SOL    HW221147   2.617   3.565   2.362  0.1888  0.9491 -1.0065
 3230SOL     OW21148   4.238   3.810  16.370  0.1722 -0.4472  0.2543
 3230SOL    HW121149   4.267   3.880  16.428  2.1532  0.7862 -2.2376
 3230SOL    HW221150   4.163   3.781  16.421 -1.2765  2.0854 -0.4322
 3231SOL     OW21151   2.714   4.336   5.119 -0.1728  0.0900 -0.3378
 3231SOL    HW121152   2.688   4.387   5.042 -0.8172 -0.1719 -0.2922
 3231SOL    HW221153   2.767   4.399   5.166  0.0892 -1.1516  1.0287
 3232SOL     OW21154   2.673   3.677   9.039 -0.2925  0.3432 -0.1449
 3232SOL    HW121155   2.753   3.639   9.076 -1.0095  1.1849  2.2690
 3232SOL    HW221156   2.682   3.646   8.949  0.7384  1.3224 -0.3674
 3233SOL     OW21157   2.833   1.428  12.018 -0.3102  0.3103  0.4047
 3233SOL    HW121158   2.906   1.367  12.022  0.0337  0.8390  1.8693
 3233SOL    HW221159   2.864   1.491  12.082 -2.0653  0.8067  0.7662
 3234SOL     OW21160   1.901   4.303   2.329  0.5581 -0.5753  0.1579
 3234SOL    HW121161   1.966   4.242   2.291 -1.1206 -2.2714  0.0156
 3234SOL    HW221162   1.877   4.251   2.405 -0.3449 -0.8501 -0.3206
 3235SOL     OW21163   2.750   0.381   7.384  0.1278 -0.0319 -0.5952
 3235SOL    HW121164   2.694   0.381   7.462 -2.5794 -1.8751 -2.5132
 3235SOL    HW221165   2.834   0.369   7.426  0.2777  1.2741 -0.5013
 3236SOL     OW21166   0.307   1.057   7.323 -0.1468 -0.1996  0.4647
 3236SOL    HW121167   0.265   1.042   7.238 -0.4218 -1.4649  0.8316
 3236SOL    HW221168   0.228   1.048   7.376  2.1325 -2.8105  3.3550
 3237SOL     OW21169   4.445   2.494   5.576  0.5108  0.0319 -0.3291
 3237SOL    HW121170   4.458   2.400   5.588  0.3377 -0.0793 -0.9776
 3237SOL    HW221171   4.355   2.512   5.602  0.3828 -1.6954  0.4449
 3238SOL     OW21172   3.814   2.935   2.820 -0.2073  0.0710 -0.2134
 3238SOL    HW121173   3.877   2.863   2.823 -0.1743  0.0913 -0.4301
 3238SOL    HW221174   3.751   2.880   2.772 -0.1885 -1.3574  1.4145
 3239SOL     OW21175   4.510   2.492   9.899 -0.2147  0.1113  0.0364
 3239SOL    HW121176   4.447   2.460   9.964 -0.3477  0.3060  0.0019
 3239SOL    HW221177   4.518   2.581   9.934  0.5616 -0.0427  0.2607
 3240SOL     OW21178   3.601   2.892   4.929  0.0174 -0.0169  0.3293
 3240SOL    HW121179   3.692   2.891   4.900  0.5325  1.1545  1.8677
 3240SOL    HW221180   3.609   2.934   5.015  0.9629  0.9313 -0.2247
 3241SOL     OW21181   0.596   1.030   2.940 -0.0640 -0.2433  0.2434
 3241SOL    HW121182   0.530   0.962   2.954  0.3839 -0.8028 -0.3861
 3241SOL    HW221183   0.670   0.970   2.949 -1.8588 -2.1159  2.3571
 3242SOL     OW21184   2.560   0.313   6.318  0.0647  0.2360 -0.0988
 3242SOL    HW121185   2.566   0.238   6.258 -3.0485  0.1307 -0.2869
 3242SOL    HW221186   2.607   0.279   6.394  1.4040  1.8327 -0.2303
 3243SOL     OW21187   0.116   0.745   1.737 -0.8646 -0.2786 -0.1506
 3243SOL    HW121188   0.130   0.798   1.659  1.8453  0.7915  1.0740
 3243SOL    HW221189   0.153   0.661   1.712 -0.9404 -0.1959 -0.5326
 3244SOL     OW21190   4.641   2.270   2.992  0.3750  0.4688 -0.4185
 3244SOL    HW121191   4.559   2.231   2.961 -0.3051  0.6123  1.2213
 3244SOL    HW221192   4.690   2.256   2.911  1.9266  1.5944  0.3344
 3245SOL     OW21193   4.707   3.832   7.196  0.1984  1.1291  0.7452
 3245SOL    HW121194   4.646   3.898   7.163  1.0420  0.5865 -1.8943
 3245SOL    HW221195   4.654   3.771   7.248  0.3517 -0.0502 -0.4723
 3246SOL     OW21196   2.354   1.532   5.168 -0.5711  0.5873  0.2685
 3246SOL    HW121197   2.437   1.555   5.209  1.0226  1.3986 -3.4677
 3246SOL    HW221198   2.387   1.461   5.113  1.7390 -0.6878  3.2957
 3247SOL     OW21199   1.569   0.295   7.600 -0.6521  0.2023 -0.3504
 3247SOL    HW121200   1.538   0.372   7.553  0.4664  1.2483  0.6554
 3247SOL    HW221201   1.582   0.331   7.688 -1.7484 -1.3039  0.4409
 3248SOL     OW21202   3.229   1.938  10.793  0.0231  0.0663 -0.0502
 3248SOL    HW121203   3.264   1.851  10.813 -0.2189 -0.0319 -0.0576
 3248SOL    HW221204   3.193   1.970  10.876 -0.2721  0.7381 -0.4428
 3249SOL     OW21205   1.956   0.687   6.253 -0.3319  0.6523  0.0974
 3249SOL    HW121206   1.909   0.759   6.296  0.2751  0.6369  0.7967
 3249SOL    HW221207   1.976   0.712   6.163 -0.5969 -0.8016 -0.3590
 3250SOL     OW21208   2.932   4.643   0.801  0.2357  0.2389 -0.1815
 3250SOL    HW121209   2.987   4.630   0.878 -1.5288  0.9636  1.1980
 3250SOL    HW221210   2.911   4.551   0.783 -1.3420  0.2399  1.5719
 3251SOL     OW21211   3.838   3.814   6.244 -0.0079 -0.1041 -0.2395
 3251SOL    HW121212   3.912   3.806   6.305  0.5810  2.4931 -0.6344
 3251SOL    HW221213   3.837   3.732   6.195  1.7682 -1.7364  2.4263
 3252SOL     OW21214   3.375   3.131   0.438 -0.3805  0.0265 -0.1741
 3252SOL    HW121215   3.408   3.074   0.508 -4.5451 -2.3338 -0.1474
 3252SOL    HW221216   3.376   3.073   0.361  0.2729  1.0759 -0.9539
 3253SOL     OW21217   0.380   2.349   8.765 -0.0650 -0.0272 -0.2343
 3253SOL    HW121218   0.423   2.290   8.703 -0.6772 -0.3024 -0.3924
 3253SOL    HW221219   0.295   2.307   8.776  1.0993 -3.2726 -3.5702
 3254SOL     OW21220   3.493   4.269  16.066  0.3457 -0.6865 -0.7429
 3254SOL    HW121221   3.495   4.356  16.026 -2.6107 -0.5700 -0.6176
 3254SOL    HW221222   3.417   4.258  16.123 -0.2848  0.3775 -1.3848
 3255SOL     OW21223   2.907   1.262   4.765 -0.2335 -0.3288  0.0275
 3255SOL    HW121224   2.996   1.276   4.796  0.6781 -0.9621 -2.2824
 3255SOL    HW221225   2.853   1.289   4.839  0.4750  1.6473 -0.1711
 3256SOL     OW21226   3.018   3.699   7.690  0.0293  0.4038 -0.1361
 3256SOL    HW121227   3.049   3.787   7.667 -2.4462  1.0987 -0.8104
 3256SOL    HW221228   2.962   3.716   7.766  0.6389  2.3430 -0.1250
 3257SOL     OW21229   3.466   0.190   6.670 -0.0383  0.3790 -1.0203
 3257SOL    HW121230   3.430   0.101   6.672  0.0182  0.3487 -1.3332
 3257SOL    HW221231   3.423   0.222   6.591  1.7243 -0.3469 -2.2650
 3258SOL     OW21232   4.005   0.684  12.564 -0.2928  0.8336  0.1959
 3258SOL    HW121233   3.921   0.728  12.548 -1.1283 -0.4244  1.1585
 3258SOL    HW221234   4.022   0.655  12.474 -1.7787  1.0636 -0.1667
 3259SOL     OW21235   0.678   3.885   8.698 -0.0200  0.3966  0.1102
 3259SOL    HW121236   0.610   3.822   8.723 -1.0745  1.1398 -0.8773
 3259SOL    HW221237   0.626   3.965   8.710 -1.4659 -0.5457  0.1918
 3260SOL     OW21238   3.024   1.618   7.416  0.3479 -0.7080  0.2316
 3260SOL    HW121239   2.963   1.578   7.354  0.4071  0.9104 -0.8869
 3260SOL    HW221240   3.036   1.705   7.378  2.0459 -0.0692  2.2560
 3261SOL     OW21241   1.358   1.674   7.447  0.7830 -0.8930 -0.4226
 3261SOL    HW121242   1.439   1.703   7.489 -0.5476  1.8367  0.2826
 3261SOL    HW221243   1.359   1.579   7.459 -1.2690 -0.6991  1.3848
 3262SOL     OW21244   4.456   2.259   6.021 -0.5761 -0.5614 -0.4232
 3262SOL    HW121245   4.402   2.338   6.027 -0.4212 -0.4800 -0.1046
 3262SOL    HW221246   4.528   2.297   6.071  0.6648 -1.8445 -1.2485
 3263SOL     OW21247   2.885   4.480  15.727 -0.0585  0.3691 -0.0049
 3263SOL    HW121248   2.822   4.426  15.774  1.6085 -1.1059  0.5509
 3263SOL    HW221249   2.940   4.417  15.682  0.9414  0.7480  0.6893
 3264SOL     OW21250   2.634   0.367   3.025 -0.1305  0.3008  0.0852
 3264SOL    HW121251   2.652   0.278   2.994  0.0785 -0.1642  1.5505
 3264SOL    HW221252   2.542   0.346   3.044  0.1328  0.0515  1.0899
 3265SOL     OW21253   0.297   4.479   5.556  0.2614 -0.3680  0.2656
 3265SOL    HW121254   0.285   4.564   5.513  0.6054 -0.8047 -0.7082
 3265SOL    HW221255   0.309   4.427   5.477 -0.8346 -2.5441  1.5472
 3266SOL     OW21256   2.146   3.471   0.825 -0.2529  0.3635 -0.1068
 3266SOL    HW121257   2.117   3.554   0.786 -0.6575  0.2131 -0.1258
 3266SOL    HW221258   2.240   3.487   0.823 -0.2958  0.8359  1.6801
 3267SOL     OW21259   4.400   0.664   4.504 -0.4811 -0.0742  0.1291
 3267SOL    HW121260   4.402   0.612   4.584  3.0088  0.4978  0.4401
 3267SOL    HW221261   4.308   0.662   4.479 -0.0132  1.6699 -1.7993
 3268SOL     OW21262   1.081   3.472  16.956 -0.0269 -0.1863 -0.3296
 3268SOL    HW121263   1.097   3.567  16.953  2.2175 -0.5423  0.9804
 3268SOL    HW221264   1.099   3.439  16.868 -0.5309  1.5755 -1.1179
 3269SOL     OW21265   1.424   4.295  17.672 -0.1821  0.2330 -0.9171
 3269SOL    HW121266   1.506   4.319  17.629  1.1861 -0.3519  1.4003
 3269SOL    HW221267   1.446   4.324   0.080  1.0361 -1.1837 -0.7602
 3270SOL     OW21268   0.177   2.425   6.313  0.4954 -0.2785  0.4851
 3270SOL    HW121269   0.119   2.408   6.387  0.0779 -1.1035 -0.0321
 3270SOL    HW221270   0.195   2.336   6.283  1.2568 -0.3116  1.0552
 3271SOL     OW21271   1.845   3.353   1.905 -0.3464  0.3279 -0.4433
 3271SOL    HW121272   1.889   3.410   1.841  2.0783 -0.8406  0.2198
 3271SOL    HW221273   1.901   3.352   1.982  0.3799  0.4734 -0.9713
 3272SOL     OW21274   0.119   4.392  13.226  0.1195 -0.5756 -0.5470
 3272SOL    HW121275   0.154   4.311  13.188  0.3904 -0.9761  0.5680
 3272SOL    HW221276   0.144   4.457  13.160  1.8285 -0.4972  0.1922
 3273SOL     OW21277   1.460   1.759   1.526 -0.0778  0.3118 -0.1357
 3273SOL    HW121278   1.470   1.729   1.436 -3.4162 -0.2585 -0.3126
 3273SOL    HW221279   1.499   1.684   1.571 -1.1207 -0.6443 -0.8105
 3274SOL     OW21280   3.059   1.052   8.455 -0.2298  0.0026  0.0288
 3274SOL    HW121281   3.006   1.104   8.395 -2.8067 -2.3028  0.2832
 3274SOL    HW221282   3.108   0.993   8.398  1.3218 -0.1657  1.5443
 3275SOL     OW21283   3.835   1.395   4.985  0.3552 -0.0061  0.2834
 3275SOL    HW121284   3.860   1.374   4.895 -2.7780 -0.5912 -0.4519
 3275SOL    HW221285   3.780   1.318   4.995 -1.2313  0.6813 -3.0321
 3276SOL     OW21286   1.176   0.020  10.808  0.3026 -0.2633 -0.9758
 3276SOL    HW121287   1.211   0.091  10.862 -0.7673 -0.1749 -0.3958
 3276SOL    HW221288   1.197   4.661  10.860  0.2792  1.3830  1.4990
 3277SOL     OW21289   2.397   3.931   4.841 -0.2004 -0.4884  0.5061
 3277SOL    HW121290   2.311   3.933   4.884 -0.1053  0.3098  0.6594
 3277SOL    HW221291   2.364   3.913   4.753  2.8031 -3.1659 -0.0407
 3278SOL     OW21292   1.720   1.507  12.004 -0.0890 -0.2539 -0.0742
 3278SOL    HW121293   1.639   1.456  12.012 -0.9645  1.1909  0.1240
 3278SOL    HW221294   1.790   1.443  11.987  0.7644  0.3548  1.1477
 3279SOL     OW21295   0.410   4.652   8.932 -0.0521 -0.0038 -0.1771
 3279SOL    HW121296   0.425   4.657   8.838 -0.0907  0.2995 -0.1683
 3279SOL    HW221297   0.493   4.621   8.969 -0.4820 -0.0983  0.7311
 3280SOL     OW21298   4.095   3.238  10.274  0.0106 -0.6878 -0.5375
 3280SOL    HW121299   4.125   3.244  10.184 -0.2205  1.0111 -0.5105
 3280SOL    HW221300   4.082   3.332  10.286  0.7995 -0.5369 -0.8796
 3281SOL     OW21301   3.032   1.651  15.317  0.1255  0.2908  0.3483
 3281SOL    HW121302   2.986   1.699  15.248 -1.6581  1.2970  2.1994
 3281SOL    HW221303   3.107   1.708  15.334 -0.7892  1.5839  0.0442
 3282SOL     OW21304   1.169   1.874   2.217 -0.4107  0.2375 -0.1383
 3282SOL    HW121305   1.238   1.821   2.258 -1.8361 -0.9475  0.6865
 3282SOL    HW221306   1.111   1.805   2.185 -0.0901  0.4077 -1.0998
 3283SOL     OW21307   0.329   2.759   7.808 -0.4979 -0.0893  0.2206
 3283SOL    HW121308   0.419   2.790   7.807 -0.4822 -0.1232  0.7495
 3283SOL    HW221309   0.330   2.706   7.728  2.1830  1.2439 -0.6258
 3284SOL     OW21310   3.606   4.341  13.335 -0.0699 -0.2058 -0.2265
 3284SOL    HW121311   3.682   4.313  13.386 -0.5348  0.9803  1.0951
 3284SOL    HW221312   3.533   4.292  13.374 -0.6249  0.6318 -0.2217
 3285SOL     OW21313   1.487   1.705   8.477 -0.2809 -0.7590  0.0236
 3285SOL    HW121314   1.577   1.692   8.445 -1.1402 -2.8867 -1.5802
 3285SOL    HW221315   1.430   1.687   8.402  0.0863 -2.7368  0.2000
 3286SOL     OW21316   1.968   0.863   0.872 -0.2215 -0.6422 -0.0329
 3286SOL    HW121317   1.924   0.791   0.917  1.0619 -0.5550  1.3697
 3286SOL    HW221318   1.893   0.908   0.834 -1.5524 -1.3782  1.7541
 3287SOL     OW21319   3.006   2.230  13.737 -0.1408 -0.1644 -0.9394
 3287SOL    HW121320   3.021   2.135  13.739  0.7916 -0.0178 -0.5526
 3287SOL    HW221321   3.018   2.247  13.644  0.4399 -2.5301 -1.3186
 3288SOL     OW21322   4.675   0.882   5.849 -0.1616 -0.0814  0.1826
 3288SOL    HW121323   4.717   0.935   5.781 -0.8209 -1.9833 -1.7137
 3288SOL    HW221324   4.717   0.913   5.929 -1.0032  1.7435 -0.1011
 3289SOL     OW21325   4.114   1.766  11.326 -0.6717 -0.1750 -0.8735
 3289SOL    HW121326   4.201   1.770  11.285 -1.6166  2.0077 -2.6840
 3289SOL    HW221327   4.115   1.698  11.393  1.1331  1.4420  0.7597
 3290SOL     OW21328   3.396   0.930   6.825 -0.4312  0.1070  0.3455
 3290SOL    HW121329   3.316   0.950   6.874 -0.0551  1.6299  0.3342
 3290SOL    HW221330   3.439   1.015   6.823  0.9103 -0.5558  1.0444
 3291SOL     OW21331   1.246   1.933   3.897 -0.1997  0.4023 -0.4215
 3291SOL    HW121332   1.199   1.960   3.975  0.9096  1.6346 -0.1856
 3291SOL    HW221333   1.285   2.011   3.856  1.0067  0.4124  0.7561
 3292SOL     OW21334   1.292   1.326   1.760 -0.1822  0.5635 -0.1038
 3292SOL    HW121335   1.363   1.344   1.698 -1.2846 -0.6169 -1.7129
 3292SOL    HW221336   1.234   1.310   1.685  0.1318  1.3075 -0.5097
 3293SOL     OW21337   1.158   0.881  15.549 -0.2477 -0.2964  0.3052
 3293SOL    HW121338   1.150   0.785  15.544 -0.5696 -0.1917 -1.1607
 3293SOL    HW221339   1.238   0.899  15.499 -0.0483  1.2058  1.1946
 3294SOL     OW21340   3.669   3.915   4.382  0.3659  0.2368  0.3293
 3294SOL    HW121341   3.656   3.979   4.312 -0.7062 -0.7367 -0.3733
 3294SOL    HW221342   3.740   3.953   4.433 -0.8159  1.2797  1.1938
 3295SOL     OW21343   2.634   0.033   3.174  0.2441  0.8771  0.2259
 3295SOL    HW121344   2.633   0.071   3.086  0.2311  1.0260  0.2916
 3295SOL    HW221345   2.726   0.037   3.197 -0.1602  0.9677  1.8437
 3296SOL     OW21346   0.991   4.643   8.876 -0.6632  0.1558 -0.1810
 3296SOL    HW121347   1.021   4.565   8.922 -0.5450 -0.3295 -1.0770
 3296SOL    HW221348   1.077   4.681   8.861 -0.1782 -0.6415  0.6341
 3297SOL     OW21349   0.754   0.252   8.167 -1.3503 -0.1787  0.4937
 3297SOL    HW121350   0.767   0.283   8.256  1.5154 -0.3475  0.1299
 3297SOL    HW221351   0.784   0.161   8.176 -0.3601  0.1577  0.6138
 3298SOL     OW21352   1.815   0.870   7.571 -0.2607  0.5786  0.2645
 3298SOL    HW121353   1.906   0.839   7.569  0.0408  1.4592  0.3472
 3298SOL    HW221354   1.833   0.962   7.555 -0.3677  0.4993 -0.3027
 3299SOL     OW21355   1.948   1.154   0.361 -0.2413  0.3872  0.0174
 3299SOL    HW121356   1.886   1.209   0.312 -0.2464 -0.1445 -0.5798
 3299SOL    HW221357   1.900   1.122   0.438  0.5056 -1.5661 -0.3173
 3300SOL     OW21358   0.712   2.373   0.145 -0.2029 -1.2718  0.4313
 3300SOL    HW121359   0.685   2.308   0.210 -0.5486 -2.3315 -0.7735
 3300SOL    HW221360   0.796   2.347   0.107  0.5049  0.3282  0.9103
 3301SOL     OW21361   3.870   2.927   5.154 -0.0784  0.0514 -0.2189
 3301SOL    HW121362   3.917   2.844   5.150 -2.4621 -1.2869 -0.7439
 3301SOL    HW221363   3.895   2.956   5.066 -2.1102 -0.9014 -1.1102
 3302SOL     OW21364   0.980   4.337   5.049 -0.0502 -0.0359 -0.3435
 3302SOL    HW121365   1.020   4.367   5.131  0.2012  0.3251 -0.5938
 3302SOL    HW221366   0.889   4.320   5.071 -0.3613 -0.7682 -2.2383
 3303SOL     OW21367   3.084   4.391   4.291 -0.0433 -0.1636 -0.3934
 3303SOL    HW121368   3.074   4.393   4.196  0.7279 -0.3480 -0.4787
 3303SOL    HW221369   3.003   4.431   4.320 -0.7833 -1.2183 -1.0242
 3304SOL     OW21370   1.159   3.802   3.626  0.5238 -0.0621  0.3419
 3304SOL    HW121371   1.089   3.792   3.690 -0.1409  0.6421 -0.2701
 3304SOL    HW221372   1.232   3.781   3.684 -1.4497 -1.4424  2.3243
 3305SOL     OW21373   0.441   2.613   6.851  0.2114 -0.4445  0.6001
 3305SOL    HW121374   0.402   2.679   6.793 -0.3147  1.2605  2.8615
 3305SOL    HW221375   0.375   2.545   6.846 -0.7867  0.5886 -0.3304
 3306SOL     OW21376   2.413   2.290  14.496  0.1257  0.2421  0.0750
 3306SOL    HW121377   2.466   2.365  14.470  0.1205  0.3815  0.4765
 3306SOL    HW221378   2.407   2.301  14.591 -1.7193 -0.3627  0.0402
 3307SOL     OW21379   4.300   2.479  13.619  0.1876 -0.6013  0.1407
 3307SOL    HW121380   4.329   2.538  13.688  0.0025 -0.8309  0.4121
 3307SOL    HW221381   4.385   2.439  13.600  0.3494  0.4278 -1.3002
 3308SOL     OW21382   3.413   1.657   5.887  0.2864  0.0834  0.0796
 3308SOL    HW121383   3.432   1.698   5.971 -1.1740  0.6590  0.1359
 3308SOL    HW221384   3.328   1.694   5.862  0.2053 -0.1847 -0.0353
 3309SOL     OW21385   3.923   3.730   0.707 -0.3218 -0.2896  0.5589
 3309SOL    HW121386   3.919   3.637   0.685 -0.4138 -0.3369  0.7841
 3309SOL    HW221387   3.846   3.732   0.763 -1.4994 -0.2777 -1.0702
 3310SOL     OW21388   0.342   4.204   1.662  0.2580 -0.3418 -0.4556
 3310SOL    HW121389   0.250   4.180   1.650 -0.1195  0.9134  0.0063
 3310SOL    HW221390   0.373   4.175   1.576  0.6255 -0.0585 -0.4178
 3311SOL     OW21391   0.453   1.161   5.107 -0.1788 -0.1683  0.3701
 3311SOL    HW121392   0.442   1.155   5.012  0.1438  0.2795  0.3005
 3311SOL    HW221393   0.453   1.068   5.128 -0.8638 -0.3146 -0.2714
 3312SOL     OW21394   1.715   0.559   6.061  0.6116 -0.6813 -0.2155
 3312SOL    HW121395   1.684   0.594   6.144  1.5467 -1.0218  0.2752
 3312SOL    HW221396   1.777   0.492   6.090  1.0055 -0.2988 -0.1661
 3313SOL     OW21397   3.987   4.060   7.175  0.4680  0.3906 -0.3696
 3313SOL    HW121398   3.952   4.149   7.162 -0.1943  0.4293  1.7343
 3313SOL    HW221399   4.003   4.031   7.085  2.5215  0.8031 -0.1387
 3314SOL     OW21400   1.134   2.518   2.839  0.4722 -0.2726  0.2952
 3314SOL    HW121401   1.041   2.497   2.842  0.8222 -2.0707 -1.2052
 3314SOL    HW221402   1.144   2.580   2.765  2.8555 -1.3149 -0.2789
 3315SOL     OW21403   2.504   1.645   7.547 -0.0473 -0.2333 -0.4591
 3315SOL    HW121404   2.558   1.581   7.594 -1.3360  0.0728  1.4412
 3315SOL    HW221405   2.564   1.719   7.549 -0.2312 -0.1433  1.9606
 3316SOL     OW21406   1.047   2.482   1.625 -0.0159  0.7278 -0.2240
 3316SOL    HW121407   1.103   2.418   1.669 -2.1261 -0.1598  1.1408
 3316SOL    HW221408   0.989   2.428   1.571  1.5492 -0.8567 -0.2944
 3317SOL     OW21409   3.402   2.141  17.632  0.2316 -0.2174 -0.2641
 3317SOL    HW121410   3.446   2.200   0.013 -2.7480  0.7203  0.9847
 3317SOL    HW221411   3.376   2.071   0.013 -2.2838 -0.5050 -1.6646
 3318SOL     OW21412   2.193   1.284   5.575  0.3084 -0.0598  0.3310
 3318SOL    HW121413   2.173   1.357   5.516  0.1273  1.4762  2.2983
 3318SOL    HW221414   2.105   1.249   5.583  0.8087 -1.8067 -1.9113
 3319SOL     OW21415   2.963   0.147   0.418  0.2597 -0.6955 -0.5324
 3319SOL    HW121416   2.936   0.220   0.474 -1.0174  0.8013 -3.0845
 3319SOL    HW221417   3.034   0.182   0.365  1.9329 -0.9463  1.5282
 3320SOL     OW21418   4.554   3.923   5.770  0.1182  0.1971  0.0448
 3320SOL    HW121419   4.503   4.003   5.774  0.8012  0.6163  0.2906
 3320SOL    HW221420   4.640   3.961   5.785  0.3531 -1.3434  2.6248
 3321SOL     OW21421   3.480   1.876   7.893  0.4313  0.4287  0.2330
 3321SOL    HW121422   3.424   1.811   7.851 -0.1067  0.8755  0.2566
 3321SOL    HW221423   3.517   1.821   7.963  0.4012  1.2871  0.9249
 3322SOL     OW21424   3.612   3.780   7.571 -0.1543  0.2043 -0.4018
 3322SOL    HW121425   3.532   3.833   7.579 -0.1471  0.2576 -0.6842
 3322SOL    HW221426   3.573   3.715   7.513 -5.1714  0.1330  2.9694
 3323SOL     OW21427   1.369   2.987   0.476 -0.4255  0.2111  0.2168
 3323SOL    HW121428   1.425   2.939   0.536 -0.6639  1.7409  1.6390
 3323SOL    HW221429   1.349   3.069   0.521 -0.4760 -0.1447  0.8382
 3324SOL     OW21430   1.073   1.764   1.508 -0.1564 -0.1960  0.4745
 3324SOL    HW121431   1.056   1.697   1.442 -1.4982 -0.0262  0.6637
 3324SOL    HW221432   1.089   1.841   1.454 -1.2954  1.0737  1.9466
 3325SOL     OW21433   4.412   1.009   6.624 -0.2361  0.5047  0.6149
 3325SOL    HW121434   4.410   1.089   6.571  3.5357  1.0994  1.4130
 3325SOL    HW221435   4.320   0.990   6.606 -0.6159  3.1224 -0.1955
 3326SOL     OW21436   3.405   4.698   1.647  0.1141 -0.5314  0.7507
 3326SOL    HW121437   3.465   0.006   1.716  0.3295  3.5896 -1.0523
 3326SOL    HW221438   3.363   0.062   1.624 -0.0583 -0.6352  0.6919
 3327SOL     OW21439   2.711   1.746   9.034 -0.0611 -0.0179 -0.5175
 3327SOL    HW121440   2.644   1.698   8.984 -0.3932 -2.0331  1.8828
 3327SOL    HW221441   2.737   1.823   8.983  1.6944 -0.8861 -0.9024
 3328SOL     OW21442   3.540   4.621   8.668  0.5364  0.6392  0.4086
 3328SOL    HW121443   3.628   4.617   8.630  0.8880 -2.0298  1.4760
 3328SOL    HW221444   3.530   4.714   8.686  1.9664  1.0097 -0.7248
 3329SOL     OW21445   3.770   1.551   7.227 -0.0485 -0.0127  0.3243
 3329SOL    HW121446   3.757   1.517   7.139 -0.4608 -0.1828  0.4480
 3329SOL    HW221447   3.738   1.641   7.217  2.4780  0.8788  0.3642
 3330SOL     OW21448   2.917   0.552   7.200 -0.0239  0.3248  0.0319
 3330SOL    HW121449   2.878   0.497   7.268 -1.7014  0.4373 -0.8434
 3330SOL    HW221450   2.968   0.614   7.252  0.0440  0.5972 -0.3582
 3331SOL     OW21451   3.595   2.945   9.485  0.2794 -0.0000  0.3985
 3331SOL    HW121452   3.511   2.933   9.442 -0.3758  1.1251  1.3714
 3331SOL    HW221453   3.577   2.977   9.573  0.7967  1.6965 -0.1042
 3332SOL     OW21454   3.882   2.509   8.664 -0.0259 -0.2566 -0.4789
 3332SOL    HW121455   3.789   2.531   8.675  0.5061  1.9859 -0.4271
 3332SOL    HW221456   3.874   2.465   8.580  0.4880 -0.5221 -0.3842
 3333SOL     OW21457   2.678   0.167  14.601 -0.1112  0.5144 -0.1080
 3333SOL    HW121458   2.727   0.248  14.588  2.4177 -1.1592 -0.8865
 3333SOL    HW221459   2.741   0.113  14.554 -1.1643  0.0480 -0.9953
 3334SOL     OW21460   1.775   0.442   8.029 -0.1339 -0.3115  0.3150
 3334SOL    HW121461   1.763   0.533   8.058  2.3415  0.1440 -0.1370
 3334SOL    HW221462   1.722   0.439   7.950  1.4325 -1.4153 -0.6935
 3335SOL     OW21463   2.049   0.089   9.358 -0.1517 -0.2327 -0.1641
 3335SOL    HW121464   2.048   0.150   9.284 -0.6184 -0.1033 -0.0470
 3335SOL    HW221465   2.142   0.087   9.383 -1.2528 -0.4599  3.8360
 3336SOL     OW21466   3.390   0.642   5.249 -0.0729 -0.4120 -0.6311
 3336SOL    HW121467   3.416   0.714   5.306  0.4916 -0.8849 -0.2907
 3336SOL    HW221468   3.343   0.592   5.316  1.0937 -0.1628  0.3641
 3337SOL     OW21469   2.855   2.094   0.763 -0.0504 -0.1799  0.5756
 3337SOL    HW121470   2.824   2.005   0.744 -1.3970  0.1814  1.0538
 3337SOL    HW221471   2.917   2.098   0.690 -1.0681  0.8811 -0.2288
 3338SOL     OW21472   3.305   1.526   4.679  0.1992  0.1165  0.2216
 3338SOL    HW121473   3.252   1.469   4.623 -0.5732  2.2741 -1.2403
 3338SOL    HW221474   3.324   1.478   4.759  0.2431  1.1789  0.8426
 3339SOL     OW21475   1.134   3.714   4.200 -0.0845 -0.1679 -0.2518
 3339SOL    HW121476   1.129   3.727   4.295 -0.7886 -0.2045 -0.2832
 3339SOL    HW221477   1.088   3.789   4.162 -0.9864 -0.6081 -0.0274
 3340SOL     OW21478   1.385   3.023  11.942 -0.3255  0.2974 -0.4212
 3340SOL    HW121479   1.316   3.090  11.943 -1.5018 -0.9181 -1.5824
 3340SOL    HW221480   1.341   2.939  11.951 -2.7759  1.2142 -3.5832
 3341SOL     OW21481   2.601   2.104   1.742 -0.0374  0.1438 -0.1546
 3341SOL    HW121482   2.617   2.055   1.661  0.4864 -0.3829  0.2630
 3341SOL    HW221483   2.646   2.047   1.805  0.5543  3.0474  2.0976
 3342SOL     OW21484   0.733   4.613   2.749  0.0941  0.1548 -0.1689
 3342SOL    HW121485   0.710   4.536   2.697 -0.4626  1.3979 -1.7998
 3342SOL    HW221486   0.758   4.672   2.677 -1.4969  0.8701 -0.1420
 3343SOL     OW21487   3.446   0.885  15.931 -0.2039  0.1863  0.4868
 3343SOL    HW121488   3.515   0.836  15.887 -0.3706 -1.0972  1.6733
 3343SOL    HW221489   3.496   0.954  15.975 -3.0506  1.0552  2.3833
 3344SOL     OW21490   1.695   3.448   4.552 -0.2013  0.2318 -0.4912
 3344SOL    HW121491   1.690   3.491   4.637  3.1024 -0.5260  0.0695
 3344SOL    HW221492   1.668   3.515   4.489  0.9789  0.3448 -0.8777
 3345SOL     OW21493   4.393   0.246   7.834 -0.1470 -0.2356  0.6323
 3345SOL    HW121494   4.318   0.218   7.887 -0.6309 -2.1894 -1.0873
 3345SOL    HW221495   4.450   0.268   7.908  0.3008  0.1965  0.1652
 3346SOL     OW21496   2.419   2.051   8.476  0.0159 -0.4853  0.0230
 3346SOL    HW121497   2.365   2.068   8.399  0.1495 -0.6438 -0.1035
 3346SOL    HW221498   2.352   2.025   8.539 -0.3651  1.4028  0.4238
 3347SOL     OW21499   1.762   3.870  14.603 -0.6419 -0.0087 -0.2301
 3347SOL    HW121500   1.723   3.871  14.690  0.5494  0.8947  0.3081
 3347SOL    HW221501   1.790   3.779  14.594 -0.7327  0.0214 -0.7908
 3348SOL     OW21502   4.383   2.264   8.558  0.3948 -0.6276 -0.4512
 3348SOL    HW121503   4.381   2.178   8.516  2.3901 -0.7090 -0.3630
 3348SOL    HW221504   4.399   2.244   8.651  1.1659 -1.7249 -0.8201
 3349SOL     OW21505   1.098   3.995  12.797 -0.5684  0.1550 -0.4903
 3349SOL    HW121506   1.068   4.017  12.885  0.9372 -1.0533  0.3182
 3349SOL    HW221507   1.146   3.914  12.810 -0.9700  0.3121  1.9089
 3350SOL     OW21508   4.056   3.247   1.911 -0.4067 -0.2350 -0.4719
 3350SOL    HW121509   3.994   3.222   1.979  0.9158  0.7510  1.0922
 3350SOL    HW221510   4.010   3.325   1.879  0.2230  1.5637  3.0259
 3351SOL     OW21511   3.506   1.533   5.647 -0.1446 -0.5475 -0.1923
 3351SOL    HW121512   3.551   1.612   5.619 -2.0454  0.7422  0.4273
 3351SOL    HW221513   3.500   1.553   5.740  0.2318  1.3436 -0.5896
 3352SOL     OW21514   4.186   0.312  12.841 -0.3409  0.2213 -0.2121
 3352SOL    HW121515   4.163   0.226  12.806 -2.2816  0.3848  0.6829
 3352SOL    HW221516   4.100   0.348  12.862 -1.0383 -0.0128 -2.7565
 3353SOL     OW21517   0.028   2.639   4.212 -0.1091 -0.0461 -0.7862
 3353SOL    HW121518   4.712   2.587   4.284 -1.0742  0.3387 -0.9876
 3353SOL    HW221519   4.677   2.694   4.179  0.9851  2.4838  1.0587
 3354SOL     OW21520   0.977   3.078   4.819 -0.0282  0.1416 -0.3841
 3354SOL    HW121521   0.896   3.080   4.769 -0.1143 -1.7575 -0.3350
 3354SOL    HW221522   0.964   3.022   4.896  2.4195  0.2990  0.1484
 3355SOL     OW21523   3.183   0.864   3.670 -0.1895 -0.1926 -0.5199
 3355SOL    HW121524   3.183   0.792   3.608 -2.6015 -1.0728  0.5223
 3355SOL    HW221525   3.218   0.813   3.744  2.2765  4.1303  1.3432
 3356SOL     OW21526   2.279   4.078   3.824 -0.0637  0.1138  0.1762
 3356SOL    HW121527   2.308   4.134   3.896  1.2401 -1.3766  0.8187
 3356SOL    HW221528   2.362   4.073   3.777 -1.2428  2.0496 -2.1303
 3357SOL     OW21529   3.913   2.739   2.492  0.6600  0.0656 -0.8437
 3357SOL    HW121530   3.844   2.805   2.501  0.6765 -0.2730  1.7088
 3357SOL    HW221531   3.945   2.767   2.406 -3.0223  3.0410 -1.2696
 3358SOL     OW21532   0.768   2.195  14.490  0.5950 -0.2211  0.7927
 3358SOL    HW121533   0.817   2.183  14.408 -0.5961  1.3437 -0.1572
 3358SOL    HW221534   0.685   2.236  14.465  0.2065 -1.4044  0.1386
 3359SOL     OW21535   0.246   2.511   1.908 -0.0123  0.5678  0.1978
 3359SOL    HW121536   0.334   2.474   1.897 -0.0800  0.7949 -1.1473
 3359SOL    HW221537   0.271   2.594   1.948  2.2439  0.7426 -1.5514
 3360SOL     OW21538   1.537   1.217   5.609  0.4616 -0.4982  0.2451
 3360SOL    HW121539   1.524   1.131   5.649 -0.5191 -0.7417 -0.6184
 3360SOL    HW221540   1.540   1.275   5.686 -2.3354 -2.0631  1.5496
 3361SOL     OW21541   3.303   1.740  11.995 -0.4162  0.2418 -0.1929
 3361SOL    HW121542   3.237   1.798  11.955  0.2076  0.8166 -0.3892
 3361SOL    HW221543   3.378   1.798  11.978 -1.3225  1.6518  0.5870
 3362SOL     OW21544   4.116   3.991   2.938 -0.2621  0.0593  0.0815
 3362SOL    HW121545   4.067   3.930   2.993  0.9720  0.1999  1.3220
 3362SOL    HW221546   4.083   4.075   2.970 -2.7641 -0.5173 -1.0158
 3363SOL     OW21547   2.833   0.619  17.217  0.2459  0.3166 -0.7394
 3363SOL    HW121548   2.875   0.699  17.248  2.7820 -1.4801  0.3956
 3363SOL    HW221549   2.792   0.656  17.138  1.8356  0.1439 -1.6477
 3364SOL     OW21550   0.896   3.185  10.649 -0.1042 -0.6627  0.3205
 3364SOL    HW121551   0.821   3.154  10.700  1.3963  0.1723  3.0612
 3364SOL    HW221552   0.862   3.259  10.600 -1.3315 -2.1545 -1.0934
 3365SOL     OW21553   4.098   4.585  12.299  0.5805 -0.4006 -0.3189
 3365SOL    HW121554   4.173   4.644  12.304  1.6305 -1.9240  2.1127
 3365SOL    HW221555   4.083   4.563  12.391  0.6864  2.0813  0.2885
 3366SOL     OW21556   1.705   4.338  10.635  1.0245 -0.4571 -0.3109
 3366SOL    HW121557   1.655   4.305  10.560 -0.6807  0.5914  0.3727
 3366SOL    HW221558   1.637   4.364  10.697 -0.6322 -3.6471 -0.8141
 3367SOL     OW21559   1.986   1.411   4.069  0.2009 -0.1770 -0.6210
 3367SOL    HW121560   1.896   1.407   4.036  0.2217 -0.4160 -0.6547
 3367SOL    HW221561   1.990   1.315   4.071 -0.4724 -0.1599  1.3374
 3368SOL     OW21562   1.681   4.129  15.189  0.1549  0.1282  0.2554
 3368SOL    HW121563   1.644   4.130  15.101 -0.4433  0.3866  0.5059
 3368SOL    HW221564   1.666   4.219  15.220  2.8717  0.8995 -0.6674
 3369SOL     OW21565   3.857   1.383   5.580 -0.0670 -0.2189 -0.0796
 3369SOL    HW121566   3.861   1.469   5.539 -0.8767 -1.2877 -2.3428
 3369SOL    HW221567   3.787   1.344   5.528  0.1793 -2.4982  1.2507
 3370SOL     OW21568   2.907   1.852  15.640 -0.8567 -0.3518  0.2250
 3370SOL    HW121569   2.833   1.891  15.594  0.0753  0.6924 -0.3904
 3370SOL    HW221570   2.950   1.938  15.647  0.3600 -0.9251 -0.3724
 3371SOL     OW21571   4.606   1.148   7.080 -0.4538  0.9957 -0.4068
 3371SOL    HW121572   4.543   1.106   7.021 -0.6136  1.2945 -0.4473
 3371SOL    HW221573   4.559   1.227   7.105 -0.0898  0.4130  2.1393
 3372SOL     OW21574   3.248   1.008   0.284 -0.3451 -0.3613  0.3203
 3372SOL    HW121575   3.244   1.103   0.290  1.4811 -0.3355  1.1529
 3372SOL    HW221576   3.154   0.995   0.270  0.0817 -2.8420 -0.2758
 3373SOL     OW21577   0.041   1.565   4.311 -0.2167 -0.0971 -0.2150
 3373SOL    HW121578   0.060   1.516   4.390 -0.6231 -0.5165 -0.3760
 3373SOL    HW221579   4.713   1.634   4.358  2.5015  0.7699  1.1988
 3374SOL     OW21580   0.936   4.395   3.290 -0.1266 -0.1250  0.4135
 3374SOL    HW121581   0.993   4.424   3.361  0.3032 -2.5245  1.0535
 3374SOL    HW221582   0.908   4.481   3.260  0.3760  1.3677  4.3369
 3375SOL     OW21583   0.765   2.158  17.018 -0.1740  0.0700 -0.0716
 3375SOL    HW121584   0.842   2.110  17.050  0.9871  0.6537 -1.9607
 3375SOL    HW221585   0.704   2.084  17.014  0.3667 -0.4154  0.6341
 3376SOL     OW21586   3.942   1.528  15.514 -0.3846  0.1667  0.4283
 3376SOL    HW121587   3.894   1.519  15.432  2.5059  0.1888 -1.2842
 3376SOL    HW221588   4.022   1.478  15.496 -2.4861 -3.2818  0.7720
 3377SOL     OW21589   4.076   4.011   6.918 -0.4550 -0.0587 -0.0217
 3377SOL    HW121590   4.156   3.988   6.871  0.7135  2.2385  0.8504
 3377SOL    HW221591   4.013   3.976   6.855 -1.9130  0.9639  0.8684
 3378SOL     OW21592   4.611   0.069   3.344  0.2692  0.2663  0.2842
 3378SOL    HW121593   4.628   0.161   3.323 -1.2626  0.4420 -0.1720
 3378SOL    HW221594   4.599   0.070   3.439  2.3439  4.6794  0.5215
 3379SOL     OW21595   3.942   1.077   4.308 -0.6461  0.2561  0.0926
 3379SOL    HW121596   3.851   1.060   4.336 -0.1358  1.1342  2.2903
 3379SOL    HW221597   3.992   1.008   4.353  0.8784  1.4584  0.2187
 3380SOL     OW21598   2.905   3.889   3.140  0.2688  0.3214  0.2539
 3380SOL    HW121599   2.831   3.863   3.195 -0.0597 -1.5644 -1.0797
 3380SOL    HW221600   2.949   3.806   3.120  1.0342  0.5296  1.0964
 3381SOL     OW21601   2.767   4.661  13.546 -0.2374  0.4783 -0.1500
 3381SOL    HW121602   2.725   4.699  13.469  2.3939  2.9382 -0.3657
 3381SOL    HW221603   2.708   4.689  13.617  1.4242  0.3982  1.2594
 3382SOL     OW21604   1.412   3.249   9.256  0.4393 -0.1926 -0.0303
 3382SOL    HW121605   1.495   3.206   9.276  0.7552 -1.0127 -3.0083
 3382SOL    HW221606   1.436   3.338   9.229  0.5787 -0.5949 -1.2589
 3383SOL     OW21607   1.086   0.700   3.501 -0.0304 -0.0043  0.7395
 3383SOL    HW121608   1.109   0.785   3.539 -3.4524  1.5120 -0.5265
 3383SOL    HW221609   1.160   0.685   3.443  0.0970  2.0019  0.3883
 3384SOL     OW21610   1.730   0.361  16.041  0.6394 -0.5241 -0.3676
 3384SOL    HW121611   1.658   0.310  16.004  0.4308 -1.7393  1.7132
 3384SOL    HW221612   1.752   0.314  16.121  3.4508  0.9785 -0.2651
 3385SOL     OW21613   0.897   4.354  11.071  0.3595 -0.3220 -0.1526
 3385SOL    HW121614   0.923   4.373  11.161  1.3014  0.7193 -0.6352
 3385SOL    HW221615   0.896   4.443  11.033  4.0444 -0.2968 -0.2084
 3386SOL     OW21616   3.712   0.656  16.962 -0.0627  0.2220  0.1847
 3386SOL    HW121617   3.699   0.594  17.034 -2.0507 -0.6107 -0.8966
 3386SOL    HW221618   3.699   0.729  17.023  1.8584  1.0182 -0.3715
 3387SOL     OW21619   4.245   3.626  17.470 -0.1345 -0.1194  0.1115
 3387SOL    HW121620   4.180   3.569  17.513 -2.5925  2.0586 -0.7555
 3387SOL    HW221621   4.238   3.693  17.538 -0.9035 -0.9081  0.8350
 3388SOL     OW21622   0.007   3.768  12.280 -0.1019 -0.1939  0.4373
 3388SOL    HW121623   0.069   3.694  12.278 -0.4844 -0.4861 -0.4231
 3388SOL    HW221624   4.702   3.785  12.371 -0.5657  0.7793  0.1184
 3389SOL     OW21625   4.205   0.773  10.393  0.0433 -0.6648  0.1805
 3389SOL    HW121626   4.122   0.771  10.441 -0.4940  2.1491 -0.6247
 3389SOL    HW221627   4.225   0.680  10.385 -0.4324 -0.7312 -0.2086
 3390SOL     OW21628   4.560   1.420   5.753 -0.0036  0.5548  0.1929
 3390SOL    HW121629   4.514   1.336   5.750  0.5605  0.3935 -3.6810
 3390SOL    HW221630   4.479   1.471   5.750  0.3243  1.0590  0.0176
 3391SOL     OW21631   2.563   2.680   6.849 -0.4658  0.3443  0.3065
 3391SOL    HW121632   2.503   2.744   6.887  1.3778  0.7754  2.4909
 3391SOL    HW221633   2.585   2.716   6.763 -1.7140  0.6463  0.1137
 3392SOL     OW21634   0.119   0.361   4.774  0.3409  0.3140  0.3983
 3392SOL    HW121635   0.123   0.429   4.841  0.8479  0.4024  0.2765
 3392SOL    HW221636   0.070   0.405   4.704  1.1687  3.0645  1.5660
 3393SOL     OW21637   3.836   4.364   0.352  0.1038  0.3183  0.1961
 3393SOL    HW121638   3.904   4.300   0.367  0.6117  0.1169 -3.1179
 3393SOL    HW221639   3.883   4.446   0.338 -0.3264  0.1047 -2.4042
 3394SOL     OW21640   1.613   3.199  15.893 -0.2471 -0.4411 -0.2340
 3394SOL    HW121641   1.578   3.113  15.872  1.2223 -0.6532 -1.8204
 3394SOL    HW221642   1.563   3.264  15.844  1.1527  0.8216  0.0128
 3395SOL     OW21643   4.129   2.406   8.738  0.0751 -0.4285 -0.0858
 3395SOL    HW121644   4.043   2.433   8.705  0.0016  0.3029  0.7171
 3395SOL    HW221645   4.150   2.350   8.663 -0.3221  0.6489 -0.9957
 3396SOL     OW21646   0.167   1.289   5.037  0.0013 -0.3472  0.4050
 3396SOL    HW121647   0.089   1.342   5.054 -0.3352 -0.8472  0.4202
 3396SOL    HW221648   0.204   1.356   4.980 -2.0366  1.6331  1.3938
 3397SOL     OW21649   3.900   0.436   9.375  0.4164  0.1889  0.1390
 3397SOL    HW121650   3.980   0.487   9.390  1.8850 -1.5095 -2.0961
 3397SOL    HW221651   3.834   0.481   9.429  0.0989  0.3886 -0.4231
 3398SOL     OW21652   2.404   4.199   4.045  0.3530  0.3493  0.0834
 3398SOL    HW121653   2.471   4.245   3.996  0.7612 -0.9639 -0.6029
 3398SOL    HW221654   2.453   4.206   4.127 -1.8005  1.5544  1.2570
 3399SOL     OW21655   3.064   2.223   1.592  0.3555 -0.1256  0.1174
 3399SOL    HW121656   3.139   2.282   1.578 -0.4475 -0.1415 -4.0778
 3399SOL    HW221657   3.067   2.178   1.508 -2.8588  1.4322 -0.8320
 3400SOL     OW21658   2.923   0.581  12.730  0.3441  0.0240  0.3280
 3400SOL    HW121659   2.838   0.608  12.764  0.6684  0.7714  0.5557
 3400SOL    HW221660   2.904   0.607  12.640 -0.6547  0.5245  0.6932
 3401SOL     OW21661   4.526   3.571  15.763  0.1016  0.2106 -0.2733
 3401SOL    HW121662   4.545   3.483  15.796  0.3151 -0.6632 -2.6563
 3401SOL    HW221663   4.589   3.625  15.810 -1.6515  1.0115  1.1328
 3402SOL     OW21664   3.855   2.620   4.513  1.1384 -0.3803  0.1624
 3402SOL    HW121665   3.945   2.604   4.486  0.2127 -1.5667 -2.1976
 3402SOL    HW221666   3.814   2.533   4.520 -0.7125  0.4969  0.2448
 3403SOL     OW21667   0.770   4.371   6.829  0.5813 -0.6969  0.1056
 3403SOL    HW121668   0.773   4.356   6.734  0.3538  0.7628 -0.1336
 3403SOL    HW221669   0.861   4.378   6.857  1.1353 -0.4892 -1.7118
 3404SOL     OW21670   0.800   0.804   4.410  0.5727  0.4395  0.2604
 3404SOL    HW121671   0.884   0.760   4.394 -0.7136 -2.0142  0.2453
 3404SOL    HW221672   0.831   0.887   4.375 -1.7816  1.0523 -0.3375
 3405SOL     OW21673   1.822   1.987  13.087 -0.2031 -0.1598  0.2578
 3405SOL    HW121674   1.886   1.945  13.145 -1.3387 -1.5281  0.5357
 3405SOL    HW221675   1.781   2.057  13.137 -2.3552  0.0966 -1.8750
 3406SOL     OW21676   2.436   2.664   7.261 -0.2813  0.6615  0.6504
 3406SOL    HW121677   2.440   2.623   7.175 -0.1817  0.7688  0.6038
 3406SOL    HW221678   2.522   2.644   7.298  0.5429  1.1583 -0.9859
 3407SOL     OW21679   3.806   0.664   9.799 -0.4035  0.1613  0.1240
 3407SOL    HW121680   3.782   0.641   9.889  2.7862 -1.1569  0.6182
 3407SOL    HW221681   3.723   0.696   9.764 -0.6256 -1.3119 -0.7237
 3408SOL     OW21682   3.281   0.151   1.980 -0.1020  0.1791 -0.2582
 3408SOL    HW121683   3.255   0.124   2.068  0.9703  1.2100  0.3616
 3408SOL    HW221684   3.374   0.168   1.995 -0.6723  1.0860  2.2005
 3409SOL     OW21685   1.862   2.643   7.670 -0.2368 -0.9593  0.0176
 3409SOL    HW121686   1.919   2.621   7.596 -0.1858  1.8718 -0.7950
 3409SOL    HW221687   1.780   2.637   7.622 -0.2769 -2.2765  0.2457
 3410SOL     OW21688   3.929   2.994  13.464 -0.3114 -0.3236  0.4264
 3410SOL    HW121689   3.853   2.943  13.491  0.8137 -0.5400  3.1149
 3410SOL    HW221690   3.875   3.066  13.432 -0.0611 -0.1344  0.4312
 3411SOL     OW21691   2.692   3.547   3.533  0.0784  0.3797 -0.2955
 3411SOL    HW121692   2.707   3.565   3.626  1.6271  0.8178 -0.6279
 3411SOL    HW221693   2.653   3.459   3.537  1.3469 -0.1652  0.1281
 3412SOL     OW21694   1.544   2.445   5.894  0.0738 -0.2282  0.5058
 3412SOL    HW121695   1.462   2.443   5.944 -0.8881  0.8662 -0.9947
 3412SOL    HW221696   1.507   2.484   5.814 -1.2543 -0.6484  0.9108
 3413SOL     OW21697   0.205   3.904   2.924 -0.1801  0.3181 -0.3229
 3413SOL    HW121698   0.179   3.926   2.834 -0.0422  0.9572 -0.2038
 3413SOL    HW221699   0.221   3.811   2.912  0.4181  0.2114  1.3972
 3414SOL     OW21700   1.180   4.455  12.139 -0.9221 -0.1961 -0.1164
 3414SOL    HW121701   1.144   4.533  12.096 -0.0096 -0.6049 -1.6598
 3414SOL    HW221702   1.271   4.483  12.150 -1.9149  2.5327  0.9989
 3415SOL     OW21703   3.068   0.763   6.735  0.7061  0.4402 -0.8312
 3415SOL    HW121704   3.007   0.809   6.677  1.0989  0.0565 -1.5605
 3415SOL    HW221705   3.147   0.808   6.702  1.2419  0.4104  0.4312
 3416SOL     OW21706   0.178   4.028   7.341 -0.4097  0.2499 -0.0315
 3416SOL    HW121707   0.144   4.057   7.257  0.4761  2.9470  0.5292
 3416SOL    HW221708   0.168   3.935   7.321  3.0785 -0.0032 -0.5860
 3417SOL     OW21709   0.441   1.476  15.689  0.5487 -0.6934  0.8755
 3417SOL    HW121710   0.529   1.514  15.691 -0.4232  1.4990  1.9021
 3417SOL    HW221711   0.406   1.499  15.775  1.5726 -2.6866  1.8169
 3418SOL     OW21712   3.678   2.129   7.441  0.3525  0.5645  0.0410
 3418SOL    HW121713   3.704   2.082   7.520  1.8974 -1.5861 -1.7550
 3418SOL    HW221714   3.621   2.197   7.477  0.8624  1.9058 -1.6839
 3419SOL     OW21715   2.949   0.701  17.542  0.2889 -0.3918 -1.1371
 3419SOL    HW121716   2.947   0.750  17.460 -1.7792  2.8474  0.8626
 3419SOL    HW221717   2.971   0.774  17.601 -0.0700 -1.1270 -0.0997
 3420SOL     OW21718   0.137   1.618  11.358 -0.1246  0.2688  0.0414
 3420SOL    HW121719   0.133   1.645  11.450  1.0955 -0.0805  0.1913
 3420SOL    HW221720   0.067   1.671  11.319  0.7802  0.7159 -0.9993
 3421SOL     OW21721   0.026   0.925   2.480 -0.0079  0.3338  0.5891
 3421SOL    HW121722   4.704   0.962   2.559 -1.8009  2.3221 -1.2518
 3421SOL    HW221723   0.069   0.849   2.517  0.3101  0.0683 -0.3244
 3422SOL     OW21724   0.189   1.546  10.723 -0.0880 -0.1039  0.9622
 3422SOL    HW121725   0.242   1.484  10.773 -0.3268 -0.2440  1.0412
 3422SOL    HW221726   0.152   1.600  10.793 -0.8751 -0.1462  0.5808
 3423SOL     OW21727   1.686   2.052   3.256  0.0951  0.0890  0.4991
 3423SOL    HW121728   1.646   1.982   3.205  1.6248 -1.1602  1.0215
 3423SOL    HW221729   1.640   2.042   3.339  1.1986 -1.8650  0.8688
 3424SOL     OW21730   3.473   2.047   4.087  0.3577 -0.2560  0.0429
 3424SOL    HW121731   3.383   2.038   4.119  0.5217  1.3695  0.9746
 3424SOL    HW221732   3.511   2.091   4.163 -2.0273  1.2528  0.3555
 3425SOL     OW21733   3.160   0.532   6.627  0.0586  0.1276 -0.5602
 3425SOL    HW121734   3.145   0.618   6.668 -2.2084 -0.4442 -0.1860
 3425SOL    HW221735   3.253   0.519   6.642 -0.0254  0.7943  0.5237
 3426SOL     OW21736   3.611   4.098   0.717 -0.1780  0.2156  0.0729
 3426SOL    HW121737   3.557   4.022   0.696 -0.3134  0.8058 -1.7583
 3426SOL    HW221738   3.630   4.100   0.810 -2.2300 -1.8891  0.5560
 3427SOL     OW21739   4.546   3.357  12.092 -0.4062 -0.5340 -0.5177
 3427SOL    HW121740   4.571   3.372  12.001 -1.4908 -0.2166 -0.7606
 3427SOL    HW221741   4.533   3.443  12.131  1.4037 -0.2487 -0.5183
 3428SOL     OW21742   0.189   3.465   8.100 -0.4114  0.8598  0.5318
 3428SOL    HW121743   0.237   3.396   8.147 -0.1522 -1.4641 -3.1361
 3428SOL    HW221744   0.202   3.542   8.155 -0.0639 -0.8717  2.8967
 3429SOL     OW21745   0.004   0.426   6.240 -0.2908  0.0210 -0.0685
 3429SOL    HW121746   0.046   0.512   6.238 -1.1700  0.4449 -0.3460
 3429SOL    HW221747   4.639   0.433   6.286  0.5547  0.3464  1.4262
 3430SOL     OW21748   4.365   2.908   7.589  0.0299 -0.1198  0.5540
 3430SOL    HW121749   4.295   2.925   7.651 -0.5010  0.1994 -0.1315
 3430SOL    HW221750   4.441   2.878   7.639  2.2164  2.7565 -0.9782
 3431SOL     OW21751   2.873   3.377  16.733 -0.2682 -0.3089  0.2647
 3431SOL    HW121752   2.909   3.350  16.818  4.1931 -0.5569 -1.6593
 3431SOL    HW221753   2.840   3.467  16.742 -2.9708 -1.3928  1.0000
 3432SOL     OW21754   0.701   3.250  13.088  0.7987  0.7377  0.3249
 3432SOL    HW121755   0.639   3.316  13.116 -0.0498 -0.3040  0.9041
 3432SOL    HW221756   0.779   3.303  13.071  0.8481  0.5523 -0.0281
 3433SOL     OW21757   4.045   2.356   6.594  0.3489 -0.2980  0.1243
 3433SOL    HW121758   4.116   2.405   6.637 -0.0602 -0.1921  0.6801
 3433SOL    HW221759   4.052   2.272   6.639 -0.9557 -0.1635  0.5679
 3434SOL     OW21760   4.219   0.350   1.601  0.5176 -0.2383  0.4138
 3434SOL    HW121761   4.175   0.370   1.684  1.0332 -0.6862  0.8024
 3434SOL    HW221762   4.258   0.433   1.576 -2.2758 -0.1941 -3.7234
 3435SOL     OW21763   0.771   1.328   5.550  0.0477 -0.2637  0.1170
 3435SOL    HW121764   0.861   1.313   5.580  0.6270  2.4006 -0.2329
 3435SOL    HW221765   0.737   1.366   5.631 -0.3183 -0.0387 -0.1418
 3436SOL     OW21766   1.046   2.113   1.635  0.1329  0.5551  0.0636
 3436SOL    HW121767   1.082   2.192   1.675 -1.0461  0.3438  1.5474
 3436SOL    HW221768   1.078   2.044   1.692  0.2217  0.4900 -0.0660
 3437SOL     OW21769   1.781   0.456   2.897  0.2911 -0.0109 -0.3805
 3437SOL    HW121770   1.819   0.537   2.865 -2.2979  2.1169  1.8960
 3437SOL    HW221771   1.845   0.404   2.849  1.9793  0.8220  0.9705
 3438SOL     OW21772   0.346   1.405   5.734 -0.2703 -0.0585 -0.1229
 3438SOL    HW121773   0.409   1.333   5.739  0.7023  0.9143  1.7184
 3438SOL    HW221774   0.326   1.418   5.827  1.9822  0.0212  0.3571
 3439SOL     OW21775   2.229   2.981  17.622  0.3346  0.7259 -0.4619
 3439SOL    HW121776   2.154   2.947  17.574  0.8779 -2.3035  0.8676
 3439SOL    HW221777   2.204   2.958   0.031 -1.1248  0.3384 -0.9637
 3440SOL     OW21778   2.484   1.381   4.906 -0.0439  0.0698  0.1646
 3440SOL    HW121779   2.461   1.469   4.874  0.0455 -0.0287 -0.1693
 3440SOL    HW221780   2.522   1.354   4.822  0.0594  0.2753  0.1454
 3441SOL     OW21781   3.069   3.589  17.261 -0.5459  0.4076 -0.3739
 3441SOL    HW121782   3.119   3.511  17.281 -1.4924 -0.0395  0.2441
 3441SOL    HW221783   3.071   3.649  17.336  0.4049  2.2927 -1.9005
 3442SOL     OW21784   3.160   2.245  17.417 -0.6148  0.6003 -0.3451
 3442SOL    HW121785   3.157   2.150  17.424 -0.9601  0.5187 -1.5826
 3442SOL    HW221786   3.116   2.265  17.334  0.6031 -1.1931 -1.4247
 3443SOL     OW21787   0.092   2.278   9.272 -0.2410 -0.1560 -0.2738
 3443SOL    HW121788   0.061   2.347   9.331  1.1527 -0.9834  1.4182
 3443SOL    HW221789   0.131   2.220   9.337 -1.2314 -0.3807  0.1011
 3444SOL     OW21790   1.277   0.065  16.851  0.0687  0.0965  0.0632
 3444SOL    HW121791   1.318   0.083  16.936 -0.5827 -2.0173  0.8095
 3444SOL    HW221792   1.314   0.142  16.808  1.3075 -0.4482  0.1566
 3445SOL     OW21793   3.933   3.789   1.456  0.6023 -0.1532  0.2217
 3445SOL    HW121794   3.945   3.807   1.363 -1.0594 -0.5171 -0.0674
 3445SOL    HW221795   4.012   3.749   1.492 -0.2387 -1.9809  0.0123
 3446SOL     OW21796   2.767   1.829   8.365 -0.2129 -0.3091  0.5522
 3446SOL    HW121797   2.863   1.836   8.361 -0.3188  0.2296 -0.9750
 3446SOL    HW221798   2.743   1.856   8.277 -1.6865 -0.3238  0.9578
 3447SOL     OW21799   2.312   4.581  12.569 -0.0627 -0.0962 -0.3174
 3447SOL    HW121800   2.365   4.581  12.649  0.0274 -0.5797 -0.3772
 3447SOL    HW221801   2.229   4.620  12.597 -0.2776  1.2654 -2.8819
 3448SOL     OW21802   0.319   3.994   7.824  0.0471 -0.0862 -0.2021
 3448SOL    HW121803   0.245   3.942   7.792  1.3210 -2.2889  0.4679
 3448SOL    HW221804   0.369   3.928   7.873 -1.3778 -0.7908  0.3115
 3449SOL     OW21805   0.314   2.631   1.311  0.0660  0.0679  0.2256
 3449SOL    HW121806   0.310   2.614   1.405  0.0802 -2.7078 -0.2854
 3449SOL    HW221807   0.371   2.708   1.307 -0.6322  0.5722  0.0061
 3450SOL     OW21808   0.508   1.407   3.971  0.5159  0.0455  0.1898
 3450SOL    HW121809   0.460   1.427   3.890 -0.5423 -1.2272  0.5101
 3450SOL    HW221810   0.442   1.354   4.014  1.1546 -0.9918 -0.1218
 3451SOL     OW21811   0.858   1.900   5.715  0.4653  0.3918  0.6435
 3451SOL    HW121812   0.807   1.982   5.718  0.6999  0.7005 -3.3560
 3451SOL    HW221813   0.803   1.844   5.660  0.3924  1.0103  0.0767
 3452SOL     OW21814   4.188   3.586   2.935 -0.4228  0.0464  0.2746
 3452SOL    HW121815   4.278   3.617   2.924 -0.6040  0.6399  0.4425
 3452SOL    HW221816   4.215   3.498   2.961  0.9726  0.2202 -0.5569
 3453SOL     OW21817   0.414   1.650   5.637  0.5726 -0.2134 -0.0610
 3453SOL    HW121818   0.384   1.567   5.674  1.9205  0.2673  2.1559
 3453SOL    HW221819   0.354   1.700   5.692  0.9567 -2.4113  2.3854
 3454SOL     OW21820   1.652   1.700   0.752 -0.3264  0.1092 -0.0860
 3454SOL    HW121821   1.746   1.718   0.763 -0.0839 -1.9134  1.0118
 3454SOL    HW221822   1.609   1.748   0.823 -0.9616  0.3237 -0.6074
 3455SOL     OW21823   0.439   2.058   7.392  0.5937 -0.1092 -0.4599
 3455SOL    HW121824   0.422   2.126   7.327  2.6579 -1.3976 -2.3664
 3455SOL    HW221825   0.411   1.986   7.336  1.1547 -1.6712  1.2617
 3456SOL     OW21826   0.402   0.235   5.971 -0.2672  0.9714  0.1584
 3456SOL    HW121827   0.496   0.248   5.984 -0.1936  1.6561 -1.1068
 3456SOL    HW221828   0.365   0.273   6.051 -1.1266  1.8406 -0.6559
 3457SOL     OW21829   1.397   2.802   0.205 -0.1892 -0.1616 -0.0592
 3457SOL    HW121830   1.407   2.718   0.160 -2.0266 -0.2516 -0.3365
 3457SOL    HW221831   1.470   2.805   0.266 -1.0705 -0.6692  1.0256
 3458SOL     OW21832   0.391   0.889   2.649 -0.0446  0.6633  0.2059
 3458SOL    HW121833   0.487   0.886   2.657 -0.0009  0.5048 -0.3915
 3458SOL    HW221834   0.387   0.906   2.555  2.5822  1.1418  0.1812
 3459SOL     OW21835   4.637   1.568   6.417 -0.3379  0.3709 -0.0195
 3459SOL    HW121836   4.629   1.513   6.340 -2.9085 -0.3539  0.7601
 3459SOL    HW221837   4.583   1.643   6.392  1.4342  1.0566 -1.7791
 3460SOL     OW21838   0.090   3.068   9.126  0.0826  0.0254  0.8190
 3460SOL    HW121839   0.035   3.095   9.200 -0.9306  0.6948 -0.1698
 3460SOL    HW221840   0.115   3.155   9.096  1.6809 -0.2711  1.3203
 3461SOL     OW21841   2.447   3.417   7.048 -0.0111 -0.3498  0.2311
 3461SOL    HW121842   2.411   3.333   7.076  0.1409 -0.5336 -0.1177
 3461SOL    HW221843   2.531   3.395   7.008  0.4714  2.3318 -0.2824
 3462SOL     OW21844   2.075   1.446   4.776  0.8013 -0.0872 -0.4540
 3462SOL    HW121845   2.094   1.511   4.707  2.3122 -0.1985 -0.1446
 3462SOL    HW221846   2.044   1.499   4.849 -0.2545  1.6891 -2.1770
 3463SOL     OW21847   3.291   4.086   4.335  0.1150 -0.0245  0.0146
 3463SOL    HW121848   3.214   4.137   4.358 -0.2369  0.5247 -2.4584
 3463SOL    HW221849   3.332   4.089   4.422  1.6196 -0.5946 -0.6614
 3464SOL     OW21850   1.594   0.153  17.289 -0.5100 -0.3576  0.4088
 3464SOL    HW121851   1.599   0.166  17.384  1.7502  0.5989  0.1708
 3464SOL    HW221852   1.679   0.175  17.250 -0.4819 -1.7353 -0.3215
 3465SOL     OW21853   1.143   4.084   3.283 -0.5408  0.3961  0.0592
 3465SOL    HW121854   1.221   4.031   3.266 -2.0890 -1.9353  0.2940
 3465SOL    HW221855   1.150   4.143   3.208 -0.7973  0.1618 -0.1489
 3466SOL     OW21856   2.104   2.423  11.853 -0.3110  0.3732 -0.0443
 3466SOL    HW121857   2.136   2.371  11.780 -1.1808  0.4083 -0.4498
 3466SOL    HW221858   2.092   2.506  11.807 -2.9439  0.0825  0.1537
 3467SOL     OW21859   0.790   2.707   6.163 -0.0224 -0.2263 -0.2036
 3467SOL    HW121860   0.695   2.691   6.163 -0.1903  0.8019  0.3360
 3467SOL    HW221861   0.796   2.799   6.187 -0.6845 -0.1115 -0.4763
 3468SOL     OW21862   0.166   1.752   6.333 -0.0724 -0.3872  0.2059
 3468SOL    HW121863   0.141   1.836   6.370  1.5979  0.7290 -1.1919
 3468SOL    HW221864   0.128   1.688   6.394 -0.7159 -1.2501 -1.1127
 3469SOL     OW21865   4.673   1.459   5.073 -0.6344  0.7720  0.5686
 3469SOL    HW121866   4.648   1.487   5.161  0.9479  1.6212  0.7347
 3469SOL    HW221867   4.634   1.525   5.015  2.4104  1.1012 -1.1045
 3470SOL     OW21868   2.985   2.458   4.988 -0.4716  0.3028  0.4990
 3470SOL    HW121869   2.934   2.413   5.055  2.1391  0.8865  2.9074
 3470SOL    HW221870   3.028   2.520   5.048  0.3308  1.0004 -0.7972
 3471SOL     OW21871   1.377   0.716  12.627 -0.0004 -0.0291 -0.0247
 3471SOL    HW121872   1.311   0.721  12.696  0.3729 -0.4853  0.3637
 3471SOL    HW221873   1.353   0.800  12.588  0.8319  0.7702  1.1934
 3472SOL     OW21874   1.620   0.210   5.750  0.2691 -0.6086 -0.3304
 3472SOL    HW121875   1.657   0.291   5.714 -1.0638  0.2208  0.1465
 3472SOL    HW221876   1.528   0.236   5.750  0.5089  0.2874  1.8437
 3473SOL     OW21877   4.537   4.242   1.216  0.1697  0.0736 -0.0512
 3473SOL    HW121878   4.591   4.321   1.217  0.9244 -0.4453  0.0699
 3473SOL    HW221879   4.590   4.181   1.164  0.1119 -0.6886  0.7859
 3474SOL     OW21880   1.392   2.162   6.265  0.2329 -0.4128  0.2159
 3474SOL    HW121881   1.337   2.234   6.296 -0.4950 -2.3123  3.3311
 3474SOL    HW221882   1.392   2.173   6.170  2.0323 -1.0682  0.1282
 3475SOL     OW21883   0.405   1.438   1.729 -0.1171  0.3408  0.2179
 3475SOL    HW121884   0.396   1.400   1.642  1.0705  1.3172 -0.3264
 3475SOL    HW221885   0.369   1.526   1.716  2.4843  1.0867 -1.7792
 3476SOL     OW21886   1.311   3.624   1.890 -0.5605 -0.0753 -0.3854
 3476SOL    HW121887   1.368   3.697   1.863 -2.2219  1.5967  0.6282
 3476SOL    HW221888   1.341   3.560   1.826  0.6696 -0.3281  0.4368
 3477SOL     OW21889   0.692   0.283   7.713 -0.0816  0.1204  0.3488
 3477SOL    HW121890   0.642   0.334   7.777  1.0175  3.1154 -1.1658
 3477SOL    HW221891   0.654   0.315   7.631 -1.2611 -1.4980  0.2804
 3478SOL     OW21892   1.624   2.441  15.426 -0.3488  0.3049  0.6187
 3478SOL    HW121893   1.675   2.519  15.408 -0.2223 -0.5098 -2.6873
 3478SOL    HW221894   1.624   2.451  15.521 -2.3414  0.0283  0.6417
 3479SOL     OW21895   0.935   1.578  17.571 -0.7642 -0.2401 -0.5039
 3479SOL    HW121896   0.968   1.630  17.644  0.7637  0.7796 -1.9322
 3479SOL    HW221897   0.984   1.612  17.497 -1.3759  1.0911 -0.2846
 3480SOL     OW21898   3.950   0.441   4.051 -0.1473  0.0265 -0.1659
 3480SOL    HW121899   3.889   0.403   4.114  0.0301  0.3686  0.2125
 3480SOL    HW221900   4.025   0.445   4.111  0.6357 -2.7387 -0.9512
 3481SOL     OW21901   3.999   0.308  17.484 -0.4409 -0.1892  0.1749
 3481SOL    HW121902   4.005   0.399  17.456 -2.2790 -0.0419  0.3117
 3481SOL    HW221903   3.905   0.300  17.475 -0.4272 -0.9478  0.6536
 3482SOL     OW21904   2.196   3.932   4.651 -0.5688  0.3404  0.7181
 3482SOL    HW121905   2.163   3.890   4.572  0.2728  0.8853  0.0764
 3482SOL    HW221906   2.120   3.979   4.685 -0.7230  0.4317  0.2425
 3483SOL     OW21907   3.004   0.739   5.226  0.6177 -0.0685  0.1761
 3483SOL    HW121908   3.044   0.652   5.230  2.3039  0.5905 -2.5280
 3483SOL    HW221909   2.924   0.723   5.277  0.4722 -2.2526 -0.7025
 3484SOL     OW21910   3.986   4.156   0.402  0.8752  0.5321  0.0745
 3484SOL    HW121911   3.993   4.085   0.466 -0.3426 -0.9001 -1.4030
 3484SOL    HW221912   3.974   4.108   0.320 -0.8089  1.7276 -0.3993
 3485SOL     OW21913   3.611   2.260   2.591 -0.2436 -0.0837  0.4854
 3485SOL    HW121914   3.690   2.309   2.568  0.3229 -1.0863  0.2784
 3485SOL    HW221915   3.639   2.221   2.674 -2.2320  0.6947  1.4998
 3486SOL     OW21916   0.319   1.612   4.726  0.3310  0.4001 -0.2525
 3486SOL    HW121917   0.398   1.633   4.677 -0.3764  0.2461 -1.4544
 3486SOL    HW221918   0.282   1.549   4.664  1.7398 -0.5070 -0.1642
 3487SOL     OW21919   3.200   1.608   3.343  0.4669  0.4158  0.1370
 3487SOL    HW121920   3.169   1.694   3.315 -0.8652 -0.1108 -0.0514
 3487SOL    HW221921   3.138   1.543   3.309 -0.3346  1.5735 -0.5786
 3488SOL     OW21922   1.853   4.185   4.458 -0.6578 -0.1752  0.3507
 3488SOL    HW121923   1.810   4.107   4.493 -0.2689  0.2785  1.8702
 3488SOL    HW221924   1.782   4.249   4.452 -0.7806 -0.1360  2.0908
 3489SOL     OW21925   2.047   1.948   5.761 -0.2208  0.1197  0.6544
 3489SOL    HW121926   2.021   2.040   5.752 -1.2954 -0.1964  0.6101
 3489SOL    HW221927   2.080   1.921   5.676 -1.4228 -0.5103  0.3910
 3490SOL     OW21928   3.438   1.190   3.405 -0.1616 -0.1188  0.0320
 3490SOL    HW121929   3.343   1.178   3.410 -0.7179  3.8895 -0.5695
 3490SOL    HW221930   3.452   1.275   3.446 -0.1936 -1.4590  2.8375
 3491SOL     OW21931   1.908   4.034   3.392 -0.5529  0.9508 -0.0703
 3491SOL    HW121932   1.976   4.078   3.341  1.9618 -2.0811  0.6637
 3491SOL    HW221933   1.839   4.100   3.390  0.7782  2.2617 -2.4778
 3492SOL     OW21934   4.166   0.562   3.415  0.2292 -0.1327 -0.0098
 3492SOL    HW121935   4.086   0.528   3.457  0.3590  0.4008  0.6677
 3492SOL    HW221936   4.208   0.482   3.383  0.8703 -0.1997  1.0102
 3493SOL     OW21937   2.713   2.881   4.815  0.4038 -0.5232  0.3620
 3493SOL    HW121938   2.795   2.855   4.775  0.3966  0.0419 -0.0074
 3493SOL    HW221939   2.727   2.921   4.901  1.8609 -0.1712 -0.0451
 3494SOL     OW21940   0.262   4.505  10.870  0.0962  0.1259  0.0786
 3494SOL    HW121941   0.173   4.490  10.837  0.4437 -0.7717 -0.4630
 3494SOL    HW221942   0.294   4.416  10.862 -1.9861 -0.7818  2.1624
 3495SOL     OW21943   2.760   3.492   6.293  0.4433 -0.6706  0.4130
 3495SOL    HW121944   2.822   3.427   6.259  2.4216  0.8831  1.0894
 3495SOL    HW221945   2.683   3.481   6.236 -0.0667 -0.4664  1.0688
 3496SOL     OW21946   3.115   2.241   8.120  0.0379  0.1796 -0.2060
 3496SOL    HW121947   3.144   2.298   8.191 -2.0954  1.1328 -0.1163
 3496SOL    HW221948   3.160   2.160   8.146 -0.7537  0.8316  3.2639
 3497SOL     OW21949   3.727   2.325   0.654  0.8363 -0.9215  0.2045
 3497SOL    HW121950   3.725   2.413   0.691  0.4353 -0.8059 -0.0859
 3497SOL    HW221951   3.681   2.270   0.717  1.2860  0.0929  1.4312
 3498SOL     OW21952   3.704   1.985   3.297  0.4704  0.4858 -0.0663
 3498SOL    HW121953   3.707   1.893   3.272 -1.2570  0.2518  0.6044
 3498SOL    HW221954   3.799   1.995   3.310  0.0404  3.7084  0.5637
 3499SOL     OW21955   3.640   2.495  14.063  0.1907 -0.1632  0.3265
 3499SOL    HW121956   3.703   2.423  14.069 -1.1214 -1.1846  1.9094
 3499SOL    HW221957   3.598   2.464  13.983  2.1585  0.3761 -0.8988
 3500SOL     OW21958   2.289   1.296   3.141 -0.0035 -0.4404 -0.0391
 3500SOL    HW121959   2.356   1.365   3.142 -0.1561 -0.2837 -0.4291
 3500SOL    HW221960   2.215   1.342   3.180 -1.2115 -3.3813  1.1143
 3501SOL     OW21961   2.532   2.880   2.618 -0.7444  0.5520 -0.2271
 3501SOL    HW121962   2.590   2.894   2.543  0.8727  0.2589  0.9694
 3501SOL    HW221963   2.453   2.843   2.578 -0.3183  0.9933 -1.4888
 3502SOL     OW21964   0.554   3.684  12.657 -0.2949  0.2235 -0.0175
 3502SOL    HW121965   0.587   3.649  12.740 -1.2751  2.2453  1.2215
 3502SOL    HW221966   0.606   3.632  12.596 -0.3243  0.8197 -0.5436
 3503SOL     OW21967   1.891   0.079   6.564  0.1934  0.5438  0.1749
 3503SOL    HW121968   1.897   0.069   6.659 -1.4987 -1.0692  0.1138
 3503SOL    HW221969   1.973   0.050   6.524  1.3497  2.1632  1.3937
 3504SOL     OW21970   1.236   1.848  13.975  0.1063  0.5896 -0.0667
 3504SOL    HW121971   1.322   1.888  13.957 -0.4080  0.6679 -2.3571
 3504SOL    HW221972   1.233   1.862  14.070  1.3586  0.3134  0.0167
 3505SOL     OW21973   0.717   1.045   8.168 -0.7388  0.2334  0.1849
 3505SOL    HW121974   0.688   1.134   8.191 -2.2429 -0.1184 -0.3517
 3505SOL    HW221975   0.764   1.016   8.246 -0.6739  0.2782  0.1625
 3506SOL     OW21976   3.455   3.655   9.914  0.6662  0.0289 -0.0442
 3506SOL    HW121977   3.465   3.703   9.832  0.6135 -0.1425 -0.1505
 3506SOL    HW221978   3.368   3.683   9.941  1.0065 -2.2452  3.4470
 3507SOL     OW21979   4.288   0.484   8.268 -0.0303  0.0919 -0.5344
 3507SOL    HW121980   4.267   0.448   8.354  0.9194  1.5289  0.2887
 3507SOL    HW221981   4.383   0.481   8.281 -0.1756 -1.5214  0.1711
 3508SOL     OW21982   3.408   4.307   4.829 -0.0194 -0.0709  0.1274
 3508SOL    HW121983   3.364   4.237   4.878 -3.1126  0.5188 -1.7835
 3508SOL    HW221984   3.374   4.387   4.868  0.0240 -0.4674  0.9833
 3509SOL     OW21985   4.098   2.677   3.403  0.1442  0.1718 -0.0146
 3509SOL    HW121986   4.192   2.657   3.394  0.2076  0.1969  0.5970
 3509SOL    HW221987   4.103   2.750   3.342  0.3456 -0.0898 -0.3155
 3510SOL     OW21988   3.195   4.115  11.949 -0.3987 -0.4292  0.0403
 3510SOL    HW121989   3.112   4.134  11.992  0.5826  0.4205  1.5496
 3510SOL    HW221990   3.219   4.030  11.985 -1.3895 -0.4271  0.7081
 3511SOL     OW21991   2.470   4.183  16.512  0.5034 -0.0629  0.2186
 3511SOL    HW121992   2.424   4.209  16.592  0.8285  0.8694  0.1015
 3511SOL    HW221993   2.502   4.270  16.490 -0.3568 -0.1594 -1.4103
 3512SOL     OW21994   2.241   2.293   6.220  0.1144  0.0861  0.1151
 3512SOL    HW121995   2.237   2.208   6.265  1.0563 -0.1087 -0.1504
 3512SOL    HW221996   2.156   2.331   6.240  0.1031  0.9357 -1.5740
 3513SOL     OW21997   0.529   0.885   2.099 -0.0946  0.3857  0.4500
 3513SOL    HW121998   0.619   0.862   2.125  0.2422  1.3141  0.1243
 3513SOL    HW221999   0.546   0.960   2.041  0.9721  0.2251  0.5579
 3514SOL     OW22000   3.695   2.791   6.995 -0.1855 -0.1266 -0.4495
 3514SOL    HW122001   3.724   2.881   6.983  1.4965 -0.8272 -1.5536
 3514SOL    HW222002   3.760   2.757   7.056 -1.9820 -2.0409  0.4298
 3515SOL     OW22003   4.541   2.960   1.416  0.0678 -0.5011 -0.7028
 3515SOL    HW122004   4.535   3.055   1.413  0.5507 -0.3437  2.7869
 3515SOL    HW222005   4.597   2.933   1.490 -0.7429 -0.3363 -0.0352
 3516SOL     OW22006   1.146   3.899   5.677 -0.1703 -0.1583 -0.3691
 3516SOL    HW122007   1.162   3.886   5.583  0.9434  0.9234 -0.3346
 3516SOL    HW222008   1.095   3.980   5.676  0.3213  0.1528 -0.3048
 3517SOL     OW22009   4.637   0.302   8.592 -0.1244  0.3975 -0.0075
 3517SOL    HW122010   4.657   0.208   8.588 -0.6808  0.3207 -0.9499
 3517SOL    HW222011   4.690   0.340   8.662 -0.9742  1.2841  0.1635
 3518SOL     OW22012   4.310   2.745  13.282  0.0659 -0.1104 -0.5893
 3518SOL    HW122013   4.290   2.826  13.329  1.2697 -0.7365  1.0369
 3518SOL    HW222014   4.240   2.697  13.326  0.4106 -0.3411 -0.2933
 3519SOL     OW22015   1.218   0.090   8.969 -0.7637  0.4348 -0.0097
 3519SOL    HW122016   1.291   0.139   9.007  1.4436 -0.0067 -3.6118
 3519SOL    HW222017   1.194   0.025   9.034 -0.7384 -1.0553 -1.4874
 3520SOL     OW22018   3.093   1.841   6.366 -0.2760  0.0871  0.8627
 3520SOL    HW122019   3.103   1.779   6.438 -2.1829 -1.5116 -0.2221
 3520SOL    HW222020   3.023   1.893   6.405 -1.8096 -1.0631 -0.3355
 3521SOL     OW22021   0.117   2.434  12.642  0.5600  0.4752  0.1745
 3521SOL    HW122022   0.118   2.522  12.604 -0.4909  0.6258  0.4989
 3521SOL    HW222023   0.201   2.396  12.615  0.4463  0.4067 -0.0813
 3522SOL     OW22024   0.617   1.267   1.048  0.1918 -0.7678 -0.1453
 3522SOL    HW122025   0.712   1.279   1.054  0.4191 -1.6586 -1.9687
 3522SOL    HW222026   0.581   1.355   1.064 -0.4087 -0.7561 -1.5950
 3523SOL     OW22027   2.622   4.617   9.605 -0.2678 -0.4312 -0.1353
 3523SOL    HW122028   2.705   4.606   9.559 -0.5136 -2.7887  0.0180
 3523SOL    HW222029   2.567   4.548   9.568  0.5410 -1.1126 -0.0569
 3524SOL     OW22030   3.381   0.387   7.839  0.5500 -0.9408 -0.2596
 3524SOL    HW122031   3.430   0.468   7.850 -0.0530 -0.6360  0.1474
 3524SOL    HW222032   3.443   0.324   7.874  0.8533 -1.8857 -2.4712
 3525SOL     OW22033   1.407   0.780   1.550  0.1852 -0.4873  0.3455
 3525SOL    HW122034   1.313   0.786   1.565  0.0229 -0.8558 -0.5785
 3525SOL    HW222035   1.433   0.852   1.608  1.0067  0.5226 -1.2695
 3526SOL     OW22036   1.241   1.437   6.444 -0.5916  0.1759 -0.3041
 3526SOL    HW122037   1.331   1.470   6.450 -1.1159  1.1313  2.1167
 3526SOL    HW222038   1.255   1.347   6.473  1.2281 -0.0492 -1.8735
 3527SOL     OW22039   0.164   0.848  10.271 -0.1061 -0.4147 -0.0754
 3527SOL    HW122040   0.085   0.866  10.220 -0.5756  2.1824  1.5977
 3527SOL    HW222041   0.139   0.887  10.354  0.1094  0.9960 -0.6649
 3528SOL     OW22042   3.205   1.056   8.162  0.0204  0.3664  0.0543
 3528SOL    HW122043   3.244   1.064   8.249 -0.4860  0.7382  0.2504
 3528SOL    HW222044   3.244   1.132   8.118  0.2508 -0.7767 -1.6782
 3529SOL     OW22045   4.101   0.386   5.820  0.5922  0.8010  0.3498
 3529SOL    HW122046   4.193   0.399   5.798 -0.2143  3.5397 -1.4324
 3529SOL    HW222047   4.114   0.397   5.915 -0.2853  1.6094  0.3802
 3530SOL     OW22048   2.903   0.082   5.210 -0.1322  0.0426  0.3806
 3530SOL    HW122049   2.990   0.042   5.207 -0.1687  0.0286 -0.4832
 3530SOL    HW222050   2.918   0.162   5.160  1.9040 -0.5467  0.0509
 3531SOL     OW22051   1.609   4.359   1.712 -0.1698 -0.3645 -0.1952
 3531SOL    HW122052   1.648   4.436   1.670  0.2890 -0.3638  0.2260
 3531SOL    HW222053   1.533   4.343   1.657 -0.4444  0.9152 -0.1795
 3532SOL     OW22054   0.804   3.854  11.699 -0.1830 -0.2216  0.3427
 3532SOL    HW122055   0.804   3.781  11.762 -0.8466  0.0766  0.6866
 3532SOL    HW222056   0.729   3.824  11.649  0.0563 -1.0221  0.4570
 3533SOL     OW22057   3.809   0.758   8.656 -0.1778  0.2588  0.3381
 3533SOL    HW122058   3.757   0.677   8.652  0.6470 -0.3571  1.9423
 3533SOL    HW222059   3.857   0.754   8.574 -2.4565 -0.9203 -0.9308
 3534SOL     OW22060   2.297   0.090   3.623 -0.1876 -0.8752  0.0721
 3534SOL    HW122061   2.339   0.021   3.676 -1.6978 -0.9765  1.1381
 3534SOL    HW222062   2.309   0.169   3.676  0.9407 -0.1343 -1.2860
 3535SOL     OW22063   0.676   3.191   7.475  0.1709  0.2006  0.7259
 3535SOL    HW122064   0.728   3.241   7.412 -0.9416  1.1575  0.5810
 3535SOL    HW222065   0.674   3.240   7.557  0.6384  1.0515  0.2218
 3536SOL     OW22066   0.894   0.215  10.762 -0.1978  0.3059  0.2705
 3536SOL    HW122067   0.845   0.134  10.775 -0.7138  0.8496  1.7617
 3536SOL    HW222068   0.826   0.268  10.720  1.1659  0.0868 -2.1933
 3537SOL     OW22069   2.464   2.901   6.959 -0.0487 -0.1120  0.2368
 3537SOL    HW122070   2.559   2.912   6.956 -0.0987  0.7274  1.4301
 3537SOL    HW222071   2.449   2.985   6.915  0.4213 -0.2921 -0.2637
 3538SOL     OW22072   0.753   1.882   7.273 -0.4394  0.2452  0.0961
 3538SOL    HW122073   0.671   1.891   7.225 -0.4376 -1.4719 -0.2245
 3538SOL    HW222074   0.786   1.973   7.275  1.9712 -0.5700 -1.9920
 3539SOL     OW22075   0.562   0.362   7.246  0.1406 -0.9559 -0.5028
 3539SOL    HW122076   0.638   0.311   7.272 -0.3761 -0.8965  1.1002
 3539SOL    HW222077   0.503   0.292   7.217  0.0365 -1.4041  0.7851
 3540SOL     OW22078   2.253   2.411   7.309 -0.3395  0.4427  0.1039
 3540SOL    HW122079   2.337   2.412   7.354  0.5975 -1.3309 -1.6288
 3540SOL    HW222080   2.278   2.450   7.225 -2.1662  0.3278 -0.4838
 3541SOL     OW22081   3.828   1.233   2.792 -0.2385 -0.4867 -0.2887
 3541SOL    HW122082   3.903   1.211   2.737 -1.3547 -0.2411 -1.9014
 3541SOL    HW222083   3.764   1.261   2.726 -0.1911  1.3724  0.4575
 3542SOL     OW22084   2.421   1.704   3.092  0.4744 -0.2938  0.0789
 3542SOL    HW122085   2.508   1.672   3.070  0.1554 -1.1069  0.0015
 3542SOL    HW222086   2.422   1.732   3.183 -0.2217  0.0134 -0.0108
 3543SOL     OW22087   3.207   1.973  10.455 -0.3088 -0.3730  0.4101
 3543SOL    HW122088   3.288   1.926  10.436 -0.1077  0.3720 -0.5905
 3543SOL    HW222089   3.169   1.926  10.529 -0.7103 -0.5294  0.0989
 3544SOL     OW22090   2.207   3.107   5.211 -0.0182  0.1826 -0.5709
 3544SOL    HW122091   2.157   3.181   5.176 -1.9724 -1.2082 -0.7615
 3544SOL    HW222092   2.211   3.123   5.305  2.7298 -1.9450 -0.3236
 3545SOL     OW22093   0.088   1.865  17.396 -0.3027 -0.2414 -0.2439
 3545SOL    HW122094   0.085   1.890  17.304 -0.5167 -2.0141 -0.7208
 3545SOL    HW222095   0.107   1.948  17.440  0.7721 -1.0061  0.7493
 3546SOL     OW22096   4.159   0.771   3.245 -0.2382  0.3413 -0.8884
 3546SOL    HW122097   4.066   0.784   3.259 -0.3338  0.3591 -1.5445
 3546SOL    HW222098   4.174   0.692   3.296  3.4374  0.0934 -2.3290
 3547SOL     OW22099   1.013   0.284   8.938  0.1945  0.0556 -0.3101
 3547SOL    HW122100   1.076   0.213   8.951  1.3464  1.1275 -0.0435
 3547SOL    HW222101   0.989   0.281   8.846  1.3735 -1.8695 -0.5786
 3548SOL     OW22102   2.204   3.945   2.328 -0.4949  0.6248  0.2021
 3548SOL    HW122103   2.152   3.908   2.399 -0.9180  0.7022 -0.0646
 3548SOL    HW222104   2.283   3.971   2.375 -1.2146  0.4111  1.5329
 3549SOL     OW22105   3.870   1.235   9.334 -0.3162  0.8635 -0.4019
 3549SOL    HW122106   3.938   1.298   9.358  0.1093  0.1884  0.1682
 3549SOL    HW222107   3.915   1.184   9.266  0.6721 -1.5079  2.0102
 3550SOL     OW22108   3.701   4.049   0.980 -0.3213  0.6716  0.2332
 3550SOL    HW122109   3.778   3.993   0.969 -1.6845 -0.8776 -1.3127
 3550SOL    HW222110   3.735   4.132   1.013  0.9152  0.4062 -0.3733
 3551SOL     OW22111   2.116   0.132   8.053 -0.1708 -0.4011  0.2423
 3551SOL    HW122112   2.157   0.136   7.966 -0.5482  3.8584  0.2583
 3551SOL    HW222113   2.095   0.225   8.057 -0.0185 -0.2555 -2.2989
 3552SOL     OW22114   1.428   4.172   3.743  0.4989 -0.1302  0.1432
 3552SOL    HW122115   1.485   4.128   3.679  2.9905  1.1459  1.4824
 3552SOL    HW222116   1.358   4.174   3.678  1.5003 -0.1346 -0.9345
 3553SOL     OW22117   1.331   0.611   0.441 -0.1025  0.2936  0.4234
 3553SOL    HW122118   1.348   0.540   0.378  1.1320  0.7581  0.2408
 3553SOL    HW222119   1.360   0.688   0.393  1.9790  0.4331  1.9059
 3554SOL     OW22120   4.059   3.198  15.148 -0.5031 -0.1721  0.1592
 3554SOL    HW122121   4.126   3.130  15.158  1.6600  1.8244 -0.6398
 3554SOL    HW222122   4.096   3.259  15.084 -0.8486 -0.1245  0.0039
 3555SOL     OW22123   1.303   2.623   1.732  0.2403  0.6250  0.0790
 3555SOL    HW122124   1.351   2.619   1.649  0.9541 -0.5535  0.5379
 3555SOL    HW222125   1.352   2.562   1.787  1.2012  2.5625  1.3530
 3556SOL     OW22126   3.667   3.016  13.162 -0.4957  0.4428  0.0881
 3556SOL    HW122127   3.647   3.106  13.191 -1.7208 -0.2224  1.3142
 3556SOL    HW222128   3.755   3.005  13.199  0.4454  2.7378 -1.4403
 3557SOL     OW22129   0.501   1.575   0.720  0.8347  0.3343  0.3072
 3557SOL    HW122130   0.527   1.506   0.659 -0.7191 -1.2843  1.5011
 3557SOL    HW222131   0.471   1.635   0.651  1.4063  0.5673  0.2563
 3558SOL     OW22132   2.107   1.859   6.828 -0.5459  0.0913  0.2779
 3558SOL    HW122133   2.194   1.887   6.857 -0.7746  0.5376  0.5395
 3558SOL    HW222134   2.066   1.835   6.911 -1.8372  1.5103  0.0419
 3559SOL     OW22135   2.174   2.608   8.910 -0.0097 -0.3214 -0.6231
 3559SOL    HW122136   2.188   2.554   8.987  0.1164 -0.1809 -0.5481
 3559SOL    HW222137   2.113   2.677   8.936 -0.9814 -1.3904 -0.0547
 3560SOL     OW22138   3.039   0.784   4.832 -0.0457  0.1520 -0.1155
 3560SOL    HW122139   2.963   0.763   4.887  1.1223 -2.1292  0.6402
 3560SOL    HW222140   3.007   0.860   4.784 -1.2046  0.3990  1.0201
 3561SOL     OW22141   1.098   3.855   4.469 -0.0999 -0.5395  0.6273
 3561SOL    HW122142   1.184   3.833   4.503  0.6961  1.3275 -0.2174
 3561SOL    HW222143   1.105   3.943   4.434 -1.9235 -0.3599  0.7054
 3562SOL     OW22144   4.487   1.074   8.185 -0.4883 -0.4864 -0.5169
 3562SOL    HW122145   4.456   1.025   8.109 -1.2795 -1.2931  0.3269
 3562SOL    HW222146   4.450   1.025   8.258 -1.4970 -1.7845 -1.8792
 3563SOL     OW22147   2.963   1.959  17.201  0.3076  0.3295  0.0849
 3563SOL    HW122148   2.981   2.032  17.142 -0.0823  0.9283  0.7082
 3563SOL    HW222149   3.045   1.909  17.208  1.0951  1.5143 -0.8398
 3564SOL     OW22150   3.933   4.149   5.014  0.3228 -0.0339  0.1953
 3564SOL    HW122151   3.989   4.080   5.051 -1.1481 -0.7315  1.1248
 3564SOL    HW222152   3.843   4.123   5.035  0.3725 -0.9211 -0.6958
 3565SOL     OW22153   3.054   1.199  15.243  0.4857  0.1358  0.2995
 3565SOL    HW122154   3.089   1.247  15.318 -0.1499 -2.1151  2.0238
 3565SOL    HW222155   3.052   1.112  15.281  0.0457  0.5564  1.2404
 3566SOL     OW22156   3.169   4.076   0.015 -0.4314 -0.1725 -0.0414
 3566SOL    HW122157   3.104   4.097   0.083 -0.5385  3.3988 -1.3057
 3566SOL    HW222158   3.231   4.018   0.059  3.8439  3.6049 -1.1332
 3567SOL     OW22159   0.858   3.701   1.192  0.2299  0.0275  0.0297
 3567SOL    HW122160   0.827   3.615   1.222 -0.9144  0.1628 -0.7571
 3567SOL    HW222161   0.946   3.688   1.225 -0.8205 -1.3042  2.3092
 3568SOL     OW22162   1.136   2.441   0.539 -0.2844 -0.8252  0.2388
 3568SOL    HW122163   1.217   2.415   0.495  0.3216 -0.4780  1.1556
 3568SOL    HW222164   1.074   2.431   0.466 -0.0765 -0.2009 -0.0193
 3569SOL     OW22165   3.893   0.452   3.451  0.4405  0.6886 -0.1568
 3569SOL    HW122166   3.867   0.375   3.501  1.0802  0.4919 -0.1261
 3569SOL    HW222167   3.912   0.415   3.365  0.8744 -0.0736  0.2736
 3570SOL     OW22168   2.155   0.828   7.126  0.1000 -0.2298  0.2848
 3570SOL    HW122169   2.092   0.838   7.197  0.8997  2.0751  0.6652
 3570SOL    HW222170   2.231   0.884   7.142  0.6414 -0.6914 -0.6239
 3571SOL     OW22171   4.567   4.683   1.959  0.0266 -0.2461  0.1072
 3571SOL    HW122172   4.621   4.658   2.034 -2.3149 -2.5831  0.9957
 3571SOL    HW222173   4.599   4.622   1.892 -1.0310 -0.8570  0.1638
 3572SOL     OW22174   0.035   0.072  17.600  0.2231  0.6799 -0.3893
 3572SOL    HW122175   0.012   0.042   0.008  2.5346 -0.6835 -0.2594
 3572SOL    HW222176   0.123   0.110  17.606  0.4591  0.1969 -0.7941
 3573SOL     OW22177   3.030   0.920   0.015 -0.7235  0.2912 -0.1852
 3573SOL    HW122178   3.107   0.964  17.659  0.6504 -0.6801  1.5243
 3573SOL    HW222179   3.021   0.965   0.099 -0.5596  0.4943 -0.2768
 3574SOL     OW22180   4.572   1.941   0.650  0.1407 -0.1888  0.1010
 3574SOL    HW122181   4.476   1.944   0.651  0.2068  3.2938 -1.0475
 3574SOL    HW222182   4.602   1.955   0.560 -2.9304 -1.1312 -1.0918
 3575SOL     OW22183   0.564   3.554   2.717  0.0624  0.2488  0.8037
 3575SOL    HW122184   0.566   3.596   2.803  2.7085  1.3692  0.1920
 3575SOL    HW222185   0.617   3.475   2.733 -1.0999 -1.3418 -3.2008
 3576SOL     OW22186   1.127   1.483   3.893  0.2853  0.1708 -0.0207
 3576SOL    HW122187   1.143   1.389   3.882 -0.9793  0.1621 -1.6525
 3576SOL    HW222188   1.145   1.485   3.987 -1.5321 -1.9671  0.3751
 3577SOL     OW22189   3.096   3.221   7.421  0.6152 -0.4201  0.6340
 3577SOL    HW122190   3.089   3.308   7.459  1.6219 -0.2403  0.4180
 3577SOL    HW222191   3.036   3.217   7.346 -2.0025  0.0751  2.7281
 3578SOL     OW22192   0.080   1.467  13.228  0.5863  0.2086 -0.3056
 3578SOL    HW122193   0.131   1.526  13.173  2.8470 -0.7395  0.7774
 3578SOL    HW222194   0.133   1.476  13.308  1.4542 -0.5281 -0.8015
 3579SOL     OW22195   2.303   4.497   0.077  0.3818  0.2442 -0.3058
 3579SOL    HW122196   2.314   4.462   0.166 -3.8494 -0.7980 -0.1730
 3579SOL    HW222197   2.233   4.439   0.048  1.0461 -0.3400 -0.7386
 3580SOL     OW22198   4.592   0.753   9.550 -0.4290 -0.3925 -0.0975
 3580SOL    HW122199   4.558   0.680   9.602  0.4603  0.4693  1.6832
 3580SOL    HW222200   4.644   0.704   9.486  0.9898 -0.5955  1.2370
 3581SOL     OW22201   2.274   2.413   9.111 -0.0395  0.0176  0.1298
 3581SOL    HW122202   2.216   2.419   9.187 -1.3728 -0.9984 -0.7946
 3581SOL    HW222203   2.242   2.334   9.067  0.5486 -0.7461  1.0864
 3582SOL     OW22204   4.486   0.627   9.285  0.6192  0.2704 -0.6565
 3582SOL    HW122205   4.574   0.618   9.321  0.4398  0.0789 -0.2572
 3582SOL    HW222206   4.433   0.566   9.337 -0.6871  0.6597 -1.5489
 3583SOL     OW22207   2.227   4.555   8.655 -0.5736  0.1636  1.0935
 3583SOL    HW122208   2.315   4.574   8.689  0.2757 -1.3175 -0.2999
 3583SOL    HW222209   2.239   4.460   8.654  1.9938  0.4808  0.9750
 3584SOL     OW22210   2.162   4.633   5.765 -0.1343 -0.0604 -0.1866
 3584SOL    HW122211   2.170   4.705   5.703  0.8225 -1.1107 -1.2652
 3584SOL    HW222212   2.167   4.681   5.848  0.4769  0.2449 -0.3983
 3585SOL     OW22213   3.997   2.279   7.356 -0.0504 -0.4642 -0.1032
 3585SOL    HW122214   3.940   2.354   7.373  1.3236  0.2013  1.5675
 3585SOL    HW222215   3.943   2.218   7.306 -0.0753 -0.3654 -0.1980
 3586SOL     OW22216   2.237   0.744   8.813  0.2386  0.3137  0.2192
 3586SOL    HW122217   2.198   0.798   8.744  1.3702 -0.0786 -0.7387
 3586SOL    HW222218   2.319   0.739   8.763  0.7780 -0.3130  1.1679
 3587SOL     OW22219   3.099   1.087   9.034 -0.2697 -0.5802  0.0429
 3587SOL    HW122220   3.105   1.063   8.941 -0.4897 -0.5216  0.0138
 3587SOL    HW222221   3.190   1.114   9.046  0.5252 -1.4264 -3.9852
 3588SOL     OW22222   4.405   2.711   6.968  0.4520  0.6243  0.1400
 3588SOL    HW122223   4.386   2.780   6.905  2.4773  1.1463  0.1337
 3588SOL    HW222224   4.447   2.757   7.040 -3.7388  1.0511  2.3476
 3589SOL     OW22225   0.646   4.074   7.686 -0.0945  0.4221  0.3134
 3589SOL    HW122226   0.634   3.986   7.652 -0.4670  0.0910  1.3238
 3589SOL    HW222227   0.557   4.103   7.667  0.7495  2.4975 -0.4954
 3590SOL     OW22228   3.528   3.323  13.113 -0.2390 -0.0759 -0.1111
 3590SOL    HW122229   3.480   3.320  13.196  0.1156  2.1655  0.1728
 3590SOL    HW222230   3.575   3.406  13.123 -0.1099  0.1814 -2.8494
 3591SOL     OW22231   3.340   2.274   5.797  0.7824  0.8367  0.2803
 3591SOL    HW122232   3.302   2.278   5.885 -1.3365 -0.9711 -0.5440
 3591SOL    HW222233   3.354   2.180   5.793  0.8098  0.9842 -3.2730
 3592SOL     OW22234   1.589   1.789   4.576 -0.3037 -0.6706  0.1451
 3592SOL    HW122235   1.576   1.819   4.486  0.0065  1.2827  0.7454
 3592SOL    HW222236   1.664   1.733   4.556  1.6527  2.0837 -0.2557
 3593SOL     OW22237   2.679   0.191   5.408  0.4034 -0.2267 -0.0309
 3593SOL    HW122238   2.627   0.114   5.386 -0.8548  0.3610  0.8793
 3593SOL    HW222239   2.766   0.172   5.372  0.0384  0.4566 -1.2699
 3594SOL     OW22240   3.528   3.815   4.625  0.1855  0.1912  0.1107
 3594SOL    HW122241   3.549   3.845   4.536  0.5958  0.8037  0.4110
 3594SOL    HW222242   3.441   3.775   4.622  1.7451 -3.2824  0.8626
 3595SOL     OW22243   0.819   2.157   5.550 -0.5105  0.1111  0.2219
 3595SOL    HW122244   0.746   2.135   5.492  0.2628  1.2681 -1.1926
 3595SOL    HW222245   0.770   2.168   5.631  0.5634  1.5231  0.6808
 3596SOL     OW22246   4.048   0.751   3.789  0.2023  0.0587  0.4420
 3596SOL    HW122247   3.958   0.721   3.805  0.6846 -2.1787 -0.9516
 3596SOL    HW222248   4.024   0.842   3.777 -0.4378  0.0624  1.7517
 3597SOL     OW22249   1.582   3.288  16.395  0.1549  0.0437 -0.0406
 3597SOL    HW122250   1.598   3.236  16.316 -0.2253 -1.4529  0.8757
 3597SOL    HW222251   1.656   3.261  16.449 -0.5494 -1.3835  0.1985
 3598SOL     OW22252   4.193   0.924   2.309  0.0490 -0.8246  0.3095
 3598SOL    HW122253   4.247   0.859   2.264  2.2258  1.4885 -0.4123
 3598SOL    HW222254   4.102   0.912   2.282 -0.0762 -0.3449  0.5257
 3599SOL     OW22255   3.508   4.420   4.439  0.8880  0.2589 -0.1214
 3599SOL    HW122256   3.560   4.476   4.497 -0.2402  1.6607 -0.4805
 3599SOL    HW222257   3.476   4.353   4.499 -0.0088  1.3306  0.5952
 3600SOL     OW22258   1.159   0.447   4.209  0.1091 -0.1538 -0.3321
 3600SOL    HW122259   1.243   0.481   4.180  1.0104 -1.3888  0.8093
 3600SOL    HW222260   1.127   0.405   4.129 -2.9268  1.4548  0.0487
 3601SOL     OW22261   1.357   0.215   7.344  0.0666 -0.1140  0.1269
 3601SOL    HW122262   1.335   0.300   7.307 -0.8759 -1.4388 -2.4455
 3601SOL    HW222263   1.313   0.225   7.428 -0.7671 -1.8608 -0.0762
 3602SOL     OW22264   3.619   1.886   3.541  0.5401 -0.2448  0.5102
 3602SOL    HW122265   3.524   1.889   3.531  0.3563 -2.3498  1.7080
 3602SOL    HW222266   3.648   1.911   3.453 -1.2119  0.6627  0.1951
 3603SOL     OW22267   0.759   3.486  16.146 -0.0229 -0.3709 -0.0235
 3603SOL    HW122268   0.728   3.450  16.229  0.9833 -0.3751  0.3505
 3603SOL    HW222269   0.806   3.417  16.099  0.0025  1.0603 -2.1093
 3604SOL     OW22270   0.844   3.817   4.523  0.6853 -0.4766 -0.1174
 3604SOL    HW122271   0.802   3.793   4.440 -1.0099  2.3165 -0.0844
 3604SOL    HW222272   0.933   3.845   4.501 -0.2573  0.3164 -2.9025
 3605SOL     OW22273   1.927   1.782   3.548  0.5412  0.5048 -0.1350
 3605SOL    HW122274   1.988   1.800   3.619  0.0594  0.4760  0.2808
 3605SOL    HW222275   1.854   1.835   3.579  0.7579  0.7614 -0.0691
 3606SOL     OW22276   0.072   1.568   8.812 -0.2214  0.4027  0.1734
 3606SOL    HW122277   0.061   1.482   8.772  2.2167 -0.2569  0.9529
 3606SOL    HW222278   0.152   1.545   8.859  1.3630  2.4296 -1.5717
 3607SOL     OW22279   2.067   2.748   3.493  0.0883  0.3498 -0.2581
 3607SOL    HW122280   2.124   2.782   3.424  2.0614  0.7256  1.5766
 3607SOL    HW222281   2.039   2.827   3.539 -1.8278 -1.0530  0.9688
 3608SOL     OW22282   1.733   3.875   4.284 -0.2765  0.0443  0.3081
 3608SOL    HW122283   1.721   3.966   4.256  2.3299  0.6487  1.0641
 3608SOL    HW222284   1.798   3.845   4.221 -0.5283  1.5441 -0.6712
 3609SOL     OW22285   0.668   2.266   8.090 -0.2711  0.1376  0.6588
 3609SOL    HW122286   0.661   2.329   8.019  1.6976  0.4462  0.7384
 3609SOL    HW222287   0.623   2.309   8.163  1.6208 -1.5667  2.8562
 3610SOL     OW22288   4.175   0.282   3.060 -0.5398  0.1738  0.2730
 3610SOL    HW122289   4.227   0.353   3.023 -0.9856  0.6195  0.5000
 3610SOL    HW222290   4.235   0.219   3.100 -0.9849  0.1470  0.9019
 3611SOL     OW22291   0.249   3.650  14.805  0.1823 -0.4894  0.1052
 3611SOL    HW122292   0.248   3.564  14.762 -0.3504  0.4377 -1.7293
 3611SOL    HW222293   0.228   3.717  14.740 -2.4593 -1.6632 -0.2310
 3612SOL     OW22294   3.646   3.379   0.595 -0.3466 -0.4781  0.0445
 3612SOL    HW122295   3.598   3.361   0.675 -0.8362  0.2805 -0.0791
 3612SOL    HW222296   3.694   3.461   0.609 -0.7731 -0.1217 -0.5740
 3613SOL     OW22297   3.949   3.162   3.136  0.3806 -0.4852  0.5734
 3613SOL    HW122298   3.891   3.239   3.131  0.0320 -0.7036  1.1999
 3613SOL    HW222299   4.033   3.197   3.165 -0.5854  1.8308  0.6145
 3614SOL     OW22300   1.658   1.687   8.884  0.5246  0.5766 -0.0126
 3614SOL    HW122301   1.668   1.632   8.806  0.3525 -1.1604  1.1695
 3614SOL    HW222302   1.688   1.628   8.954 -0.3892 -0.3868 -0.4204
 3615SOL     OW22303   2.101   4.621   7.367  0.1755 -0.2304  0.2513
 3615SOL    HW122304   2.020   4.612   7.416 -0.0067  0.6324  0.1086
 3615SOL    HW222305   2.086   4.589   7.278 -0.0338  2.3023 -0.6060
 3616SOL     OW22306   3.175   3.565  16.855 -0.1631  0.2564 -0.2077
 3616SOL    HW122307   3.088   3.542  16.888 -0.3812 -0.3945 -1.2352
 3616SOL    HW222308   3.177   3.518  16.772  0.5650 -0.0313 -0.0356
 3617SOL     OW22309   4.158   3.241   2.364  0.1421  0.2978 -0.2751
 3617SOL    HW122310   4.180   3.164   2.417  0.0583  0.7944  0.4717
 3617SOL    HW222311   4.108   3.292   2.427  1.4776  0.5937  0.5464
 3618SOL     OW22312   4.633   0.103   6.254 -0.7949  0.3251 -0.1459
 3618SOL    HW122313   4.660   0.016   6.224 -0.2860  0.0983  0.9526
 3618SOL    HW222314   4.695   0.160   6.208 -0.3374 -1.3932 -1.6686
 3619SOL     OW22315   0.382   2.965   4.264 -0.0555  0.7424 -0.7782
 3619SOL    HW122316   0.376   2.938   4.356  2.4315 -1.5909 -1.3045
 3619SOL    HW222317   0.476   2.974   4.249  0.3502 -0.8615  0.8012
 3620SOL     OW22318   0.361   2.289   4.432  0.2840  0.1135 -0.3364
 3620SOL    HW122319   0.332   2.358   4.491 -0.2667  1.5002 -2.2341
 3620SOL    HW222320   0.302   2.309   4.360 -2.0546  1.5928  1.9923
 3621SOL     OW22321   4.146   4.134   3.998  0.0341 -0.3471  0.1777
 3621SOL    HW122322   4.124   4.153   3.907 -0.9086  0.2836  0.5280
 3621SOL    HW222323   4.126   4.218   4.039  3.4689  1.4917 -1.9197
 3622SOL     OW22324   2.827   2.673  13.093  0.0643 -0.2000  0.8932
 3622SOL    HW122325   2.822   2.765  13.122  0.2343  0.1608 -0.2156
 3622SOL    HW222326   2.895   2.689  13.028  0.1527 -0.9690  0.7979
 3623SOL     OW22327   3.956   3.187   4.720 -0.0736  0.1129 -0.5620
 3623SOL    HW122328   4.017   3.197   4.647 -1.9133  2.2168 -1.8351
 3623SOL    HW222329   3.881   3.239   4.689 -1.0693 -1.3683 -0.6305
 3624SOL     OW22330   3.060   3.368   5.073  0.0501 -0.3008  0.1271
 3624SOL    HW122331   2.974   3.360   5.033 -0.2153 -0.1066  0.6593
 3624SOL    HW222332   3.073   3.281   5.109  0.5723 -0.4922 -0.5235
 3625SOL     OW22333   0.308   4.494   0.259 -0.6553  0.2927 -0.4349
 3625SOL    HW122334   0.264   4.418   0.220  1.7691 -0.8703 -0.9158
 3625SOL    HW222335   0.268   4.484   0.345 -1.6975 -0.9918 -1.0606
 3626SOL     OW22336   3.313   3.200  10.568  0.3710 -0.2799  0.1795
 3626SOL    HW122337   3.362   3.182  10.648  2.4394  0.9960 -0.8109
 3626SOL    HW222338   3.295   3.112  10.535  0.0470  0.1358 -0.7486
 3627SOL     OW22339   2.338   1.261  14.728  0.0268  0.0294 -0.0649
 3627SOL    HW122340   2.365   1.172  14.753 -0.8458 -0.3639 -0.5306
 3627SOL    HW222341   2.366   1.320  14.798 -1.3481 -1.7537  1.9875
 3628SOL     OW22342   0.139   2.052   0.936  0.0679  0.1612 -0.5380
 3628SOL    HW122343   0.225   2.062   0.975 -0.6383 -0.1055  1.1032
 3628SOL    HW222344   0.157   2.074   0.844 -2.3340 -1.7362 -1.4770
 3629SOL     OW22345   1.702   2.723   5.215  0.3020  0.6827  0.0364
 3629SOL    HW122346   1.710   2.793   5.151 -0.9585  0.6373 -0.1602
 3629SOL    HW222347   1.627   2.678   5.177  0.4456  0.9688 -0.5758
 3630SOL     OW22348   3.857   3.236   2.404 -0.7456  0.9238  0.1369
 3630SOL    HW122349   3.808   3.299   2.458 -3.0242 -1.6776  1.1034
 3630SOL    HW222350   3.836   3.258   2.313 -0.4324  0.2162 -0.1035
 3631SOL     OW22351   2.053   2.619   1.897  0.2666  0.3145  0.5455
 3631SOL    HW122352   2.025   2.703   1.862  1.0642  0.9971  1.5600
 3631SOL    HW222353   2.144   2.639   1.918  1.1027 -1.8611 -0.9156
 3632SOL     OW22354   1.146   3.026  15.839  0.0370  0.3275  0.0861
 3632SOL    HW122355   1.222   3.079  15.813 -1.1525  1.4613 -1.0672
 3632SOL    HW222356   1.136   2.973  15.760 -0.4103  1.7434 -0.8012
 3633SOL     OW22357   0.836   0.202   0.328 -0.3114 -0.2399  0.3925
 3633SOL    HW122358   0.901   0.257   0.372 -0.8058  0.9204 -0.3365
 3633SOL    HW222359   0.816   0.139   0.398 -1.1621 -1.0025 -0.5265
 3634SOL     OW22360   0.399   3.922   6.083 -0.4220  0.4567  0.0970
 3634SOL    HW122361   0.335   3.904   6.014 -2.7830  2.7274  1.7322
 3634SOL    HW222362   0.354   3.996   6.123 -1.7774 -0.3239  0.0203
 3635SOL     OW22363   2.316   2.048  12.915 -0.4712 -0.4163 -0.4831
 3635SOL    HW122364   2.362   2.126  12.945  1.4341 -2.3161  1.5019
 3635SOL    HW222365   2.231   2.059  12.957 -1.3450  1.9111 -2.8771
 3636SOL     OW22366   3.610   3.946   6.159 -0.1038 -0.1302 -0.0250
 3636SOL    HW122367   3.694   3.910   6.189 -0.0157  0.7495  0.7877
 3636SOL    HW222368   3.556   3.915   6.231  1.6073  1.6222  2.0147
 3637SOL     OW22369   3.704   4.627  16.935 -0.2667  0.2125 -0.2297
 3637SOL    HW122370   3.673   4.695  16.876  1.9929  2.1678  0.8307
 3637SOL    HW222371   3.656   4.639  17.017 -0.6874 -1.0163 -0.2975
 3638SOL     OW22372   1.333   4.511   4.314  0.0441  0.6407 -0.3391
 3638SOL    HW122373   1.278   4.568   4.259  0.4621  1.9298  0.6028
 3638SOL    HW222374   1.338   4.437   4.254 -5.1996 -0.4130  0.5068
 3639SOL     OW22375   1.430   0.160  17.049 -0.2762 -0.3474  0.3644
 3639SOL    HW122376   1.466   0.142  17.135 -1.7387  3.9534  1.8986
 3639SOL    HW222377   1.442   0.255  17.045  1.2593 -0.3525  4.9207
 3640SOL     OW22378   2.752   4.279  14.744 -0.3471 -0.2653  0.6253
 3640SOL    HW122379   2.678   4.221  14.763 -1.3794  0.6868 -0.5045
 3640SOL    HW222380   2.754   4.292  14.649  1.6109 -0.6416  0.6130
 3641SOL     OW22381   1.603   1.361   1.638 -0.4555 -0.5074 -0.4989
 3641SOL    HW122382   1.692   1.392   1.621 -0.1661 -0.7394  0.6098
 3641SOL    HW222383   1.573   1.404   1.718 -0.6416 -0.3266 -0.6692
 3642SOL     OW22384   2.595   2.959   8.977 -0.4970  0.4183  0.3415
 3642SOL    HW122385   2.617   2.950   8.884 -0.9161  0.1565  0.2667
 3642SOL    HW222386   2.604   3.052   8.999 -0.0454  0.8136 -1.4948
 3643SOL     OW22387   3.883   1.586   9.126 -0.7084  0.7768 -0.5395
 3643SOL    HW122388   3.976   1.589   9.148 -0.3824  0.3623 -1.8634
 3643SOL    HW222389   3.860   1.679   9.128 -2.3483  0.3849 -0.8784
 3644SOL     OW22390   4.373   1.805  11.233  0.2882 -0.3538  0.1126
 3644SOL    HW122391   4.463   1.810  11.200  0.5675 -2.8822  0.4770
 3644SOL    HW222392   4.395   1.812  11.325  0.6129 -0.4193  0.0407
 3645SOL     OW22393   2.482   3.045  16.426 -0.4672 -0.0279 -0.0210
 3645SOL    HW122394   2.518   3.104  16.360 -0.0972 -2.0063 -1.6062
 3645SOL    HW222395   2.390   3.047  16.402 -0.2166  0.7160 -0.9285
 3646SOL     OW22396   2.888   2.201   1.787  0.3932 -0.0460  0.4965
 3646SOL    HW122397   2.935   2.198   1.704 -0.2580 -0.0881  0.1275
 3646SOL    HW222398   2.941   2.142   1.840  1.6606  0.9818  0.3618
 3647SOL     OW22399   2.165   2.364  11.563  0.1812  0.4513 -0.3181
 3647SOL    HW122400   2.238   2.323  11.518  1.0442 -0.4766  1.9636
 3647SOL    HW222401   2.085   2.353  11.511  0.2806 -0.8496 -0.1807
 3648SOL     OW22402   4.196   1.295   9.018 -0.1632  0.1835 -0.0598
 3648SOL    HW122403   4.290   1.284   9.008 -0.2519  0.4116 -1.2214
 3648SOL    HW222404   4.181   1.356   8.945  1.1314  0.6380  0.0530
 3649SOL     OW22405   2.439   3.027   3.168 -0.3037 -0.0594 -0.0163
 3649SOL    HW122406   2.396   3.111   3.161 -0.1712  0.0439  0.4429
 3649SOL    HW222407   2.529   3.060   3.172  0.3105 -1.3730 -2.5847
 3650SOL     OW22408   3.436   2.312   7.047  1.1374  0.1689 -0.1326
 3650SOL    HW122409   3.375   2.339   7.116  0.9397  2.1202 -1.0413
 3650SOL    HW222410   3.421   2.383   6.984  0.2025  2.2858  2.4682
 3651SOL     OW22411   1.898   0.327   7.737  0.2562  0.9472  0.1040
 3651SOL    HW122412   1.889   0.246   7.786 -0.5236  0.0640 -1.5036
 3651SOL    HW222413   1.924   0.297   7.650  2.2246 -0.4153  1.1826
 3652SOL     OW22414   0.083   0.205   7.650  0.6411  0.2619 -0.4386
 3652SOL    HW122415   0.017   0.140   7.626  1.4124  0.0572 -1.9983
 3652SOL    HW222416   0.066   0.206   7.744  1.2270  4.5591 -0.3565
 3653SOL     OW22417   1.472   3.816   8.395  0.2594  0.1435 -0.1955
 3653SOL    HW122418   1.481   3.895   8.342  0.9428  1.2933  1.6428
 3653SOL    HW222419   1.554   3.821   8.443  1.4795 -0.2120 -2.2464
 3654SOL     OW22420   2.435   2.036   3.660  0.1850  0.6073 -0.0258
 3654SOL    HW122421   2.426   2.068   3.571  1.1902  1.0196  0.0164
 3654SOL    HW222422   2.496   2.095   3.704 -0.9838  1.5929  0.2742
 3655SOL     OW22423   3.287   3.670   3.364 -0.5594 -0.4026 -0.3120
 3655SOL    HW122424   3.256   3.719   3.288 -1.1637  1.0707  0.8806
 3655SOL    HW222425   3.377   3.699   3.374 -0.4088 -0.3055 -1.9694
 3656SOL     OW22426   1.250   2.514   6.612 -0.3159  0.1218 -0.2248
 3656SOL    HW122427   1.337   2.486   6.643  0.1039 -0.0085 -1.5185
 3656SOL    HW222428   1.195   2.468   6.675  0.1839  0.6397  0.6109
 3657SOL     OW22429   3.316   2.235   0.225 -0.4169 -0.3806 -0.8762
 3657SOL    HW122430   3.402   2.246   0.185  0.7313 -3.5776  0.7682
 3657SOL    HW222431   3.268   2.296   0.168  0.7817  1.5421  0.1727
 3658SOL     OW22432   3.505   3.052   3.564  0.1189 -0.0628  0.3216
 3658SOL    HW122433   3.514   3.088   3.653 -0.7603  2.2211 -0.4959
 3658SOL    HW222434   3.501   2.960   3.590  2.2360 -0.3983 -0.5042
 3659SOL     OW22435   3.523   2.875   9.047  0.1593 -1.0105  0.0878
 3659SOL    HW122436   3.483   2.882   9.134 -0.8591  0.4298 -0.4926
 3659SOL    HW222437   3.616   2.871   9.069 -0.1555 -1.4248  1.3845
 3660SOL     OW22438   2.897   0.006   2.778  0.2607 -0.9504 -0.0376
 3660SOL    HW122439   2.968   0.070   2.784 -1.3918  0.7823  0.9673
 3660SOL    HW222440   2.954   4.649   2.783  2.6816  0.8768  0.0608
 3661SOL     OW22441   3.449   1.251  15.671  0.1098  0.2738 -0.2598
 3661SOL    HW122442   3.493   1.311  15.611 -0.0384  1.6214  0.9948
 3661SOL    HW222443   3.493   1.167  15.659 -0.6415 -0.4872  2.3686
 3662SOL     OW22444   3.118   3.695   4.357  0.4085  0.1003 -0.4065
 3662SOL    HW122445   3.069   3.691   4.274 -0.5726  2.1780  0.0632
 3662SOL    HW222446   3.060   3.755   4.403  0.5822 -2.3684  3.0081
 3663SOL     OW22447   1.557   1.531   8.698  0.0906  0.6802 -0.0801
 3663SOL    HW122448   1.544   1.590   8.623  1.4365  2.5659  1.1546
 3663SOL    HW222449   1.477   1.546   8.749  1.0766  1.2069  1.3205
 3664SOL     OW22450   1.198   2.960   3.185  0.0658  0.0556  0.0529
 3664SOL    HW122451   1.159   2.872   3.185 -1.4317  0.7370 -1.0183
 3664SOL    HW222452   1.269   2.957   3.250  1.8877  2.6106 -1.8178
 3665SOL     OW22453   4.297   4.689   6.703 -0.0432 -0.0607 -0.0160
 3665SOL    HW122454   4.265   4.717   6.789 -1.1184  0.7507 -0.6843
 3665SOL    HW222455   4.308   4.597   6.727 -1.9820 -0.5873 -1.1267
 3666SOL     OW22456   4.517   3.449   5.964 -0.0293 -0.7511 -0.1207
 3666SOL    HW122457   4.517   3.536   6.005 -1.1419 -1.4165  1.2993
 3666SOL    HW222458   4.467   3.397   6.027 -1.6479 -0.6569 -1.3318
 3667SOL     OW22459   2.685   3.669  14.737  0.1227 -0.4842  0.0076
 3667SOL    HW122460   2.650   3.615  14.666  1.2857 -0.8826 -0.2585
 3667SOL    HW222461   2.618   3.738  14.733  0.4913 -0.3477 -3.1230
 3668SOL     OW22462   4.130   4.199   4.508  0.4821 -0.2584 -0.0923
 3668SOL    HW122463   4.150   4.287   4.475  1.4051 -0.7608 -0.8664
 3668SOL    HW222464   4.081   4.221   4.587  0.0676  0.0840 -0.4425
 3669SOL     OW22465   3.790   0.976   7.592 -0.2185 -0.4004 -0.4134
 3669SOL    HW122466   3.860   1.031   7.557 -0.6993  0.8278  0.5707
 3669SOL    HW222467   3.748   0.951   7.509 -0.5166 -0.3507 -0.2770
 3670SOL     OW22468   0.106   1.717   6.989  0.4219  0.6870 -0.3592
 3670SOL    HW122469   0.110   1.645   7.052 -0.5346 -0.3637 -1.4852
 3670SOL    HW222470   0.140   1.668   6.914  2.3577  4.3240 -1.8339
 3671SOL     OW22471   3.070   4.028   9.779  0.0349 -0.5865  0.4513
 3671SOL    HW122472   3.029   4.109   9.810 -0.1873 -0.9893  1.1967
 3671SOL    HW222473   3.032   3.972   9.846  0.4512  0.3299  1.4486
 3672SOL     OW22474   0.399   0.038   1.590 -0.0907 -0.6730 -0.2739
 3672SOL    HW122475   0.432   0.021   1.678  1.4846  1.6849 -0.4138
 3672SOL    HW222476   0.320   0.086   1.612  1.8962  1.9451  1.1261
 3673SOL     OW22477   0.108   2.004   8.423 -0.1908  0.0355 -0.2593
 3673SOL    HW122478   0.146   1.949   8.491 -2.4721  1.1855  1.9688
 3673SOL    HW222479   0.036   2.043   8.473  1.4590  0.4727  1.7556
 3674SOL     OW22480   4.620   1.630  11.097  0.0870  0.5081  0.4396
 3674SOL    HW122481   4.598   1.549  11.052 -2.1767  1.6586 -0.5551
 3674SOL    HW222482   4.705   1.649  11.059 -0.4761  2.5910  0.2042
 3675SOL     OW22483   1.229   2.427  16.361 -0.4663 -0.4228  0.2878
 3675SOL    HW122484   1.141   2.454  16.387 -0.0458  0.5943  0.6367
 3675SOL    HW222485   1.219   2.353  16.301  0.8544  0.2343 -0.7121
 3676SOL     OW22486   2.917   3.426   4.017 -0.4505 -0.2304 -0.3137
 3676SOL    HW122487   2.923   3.459   3.927  0.0550 -0.1251 -0.2399
 3676SOL    HW222488   2.825   3.403   4.026 -0.0656 -0.9237  1.9263
 3677SOL     OW22489   4.415   0.963   0.587  0.2644  0.8121  0.1086
 3677SOL    HW122490   4.458   0.985   0.504  0.6404 -0.4036 -0.0093
 3677SOL    HW222491   4.486   0.999   0.641 -0.7106  1.0287  1.2235
 3678SOL     OW22492   0.006   2.193   7.067  0.5509 -0.4246 -0.3244
 3678SOL    HW122493   4.686   2.163   7.149  0.1507 -1.5170 -0.9219
 3678SOL    HW222494   4.681   2.277   7.052  0.6799 -0.1759  0.6612
 3679SOL     OW22495   1.171   1.839   7.939  0.0000  0.3431 -0.2569
 3679SOL    HW122496   1.131   1.768   7.990 -1.6714  0.3903 -1.4804
 3679SOL    HW222497   1.190   1.896   8.014 -0.9464 -0.9567  0.9825
 3680SOL     OW22498   3.077   0.777   0.319 -0.1655  0.3933  0.4877
 3680SOL    HW122499   3.008   0.711   0.326 -1.5524  2.0623  2.7515
 3680SOL    HW222500   3.142   0.730   0.371  1.0201  3.3311  1.6098
 3681SOL     OW22501   3.325   3.174   6.476 -0.3383  0.2555  0.2449
 3681SOL    HW122502   3.335   3.248   6.417  1.5242 -0.4869 -0.3910
 3681SOL    HW222503   3.319   3.214   6.562 -2.0859  0.6507 -0.0789
 3682SOL     OW22504   4.171   1.124   3.325  0.0138 -0.1658 -0.0622
 3682SOL    HW122505   4.203   1.212   3.346 -0.8092 -0.2939  1.7352
 3682SOL    HW222506   4.107   1.103   3.394 -0.7661  2.1663 -0.0913
 3683SOL     OW22507   3.791   3.774   2.742  0.1101  0.5103 -0.2729
 3683SOL    HW122508   3.831   3.690   2.764  3.5203  1.6284 -1.9986
 3683SOL    HW222509   3.730   3.740   2.677  0.4208  0.1776 -0.3896
 3684SOL     OW22510   0.264   4.343   6.853 -0.6724 -0.4330  0.6212
 3684SOL    HW122511   0.189   4.338   6.912 -1.0427 -1.8048  0.0456
 3684SOL    HW222512   0.335   4.315   6.911  0.3970 -0.1545 -0.5462
 3685SOL     OW22513   4.018   0.093   4.645  0.3196 -0.0722 -0.4742
 3685SOL    HW122514   4.006   4.717   4.652 -0.5540  0.1358  0.8513
 3685SOL    HW222515   4.112   0.100   4.628  0.0595  2.9735 -0.6257
 3686SOL     OW22516   1.015   3.263   2.806  0.6659  0.0216  0.3859
 3686SOL    HW122517   0.964   3.227   2.879 -0.7331 -0.7171 -0.9430
 3686SOL    HW222518   1.058   3.334   2.854 -0.0781  1.0014 -0.4033
 3687SOL     OW22519   1.602   1.223  14.838  0.9372  0.4190  0.6014
 3687SOL    HW122520   1.604   1.304  14.889  0.3332  1.1572 -0.5691
 3687SOL    HW222521   1.612   1.162  14.911  2.1838 -0.0896  0.0035
 3688SOL     OW22522   2.424   1.796   3.786  0.4798  0.0424  0.0786
 3688SOL    HW122523   2.402   1.863   3.722 -0.7555 -0.9640 -0.5694
 3688SOL    HW222524   2.359   1.730   3.759 -2.2006  2.7712 -0.1346
 3689SOL     OW22525   3.596   1.695   4.132 -0.3275 -0.4890 -0.4167
 3689SOL    HW122526   3.652   1.704   4.054 -1.9164  1.1891 -1.3640
 3689SOL    HW222527   3.515   1.657   4.099  0.3843 -1.9804 -0.4294
 3690SOL     OW22528   2.996   4.074   0.995  0.0812  0.0059  0.1432
 3690SOL    HW122529   2.919   4.059   1.051  0.3309 -1.7860  0.0016
 3690SOL    HW222530   2.990   4.005   0.930  0.0993  0.2142 -0.0802
 3691SOL     OW22531   1.103   1.054  15.757  0.1508 -0.2026  0.5238
 3691SOL    HW122532   1.057   1.094  15.684  3.0200 -1.2024 -1.8087
 3691SOL    HW222533   1.146   0.983  15.710  3.3694  4.5379 -3.6502
 3692SOL     OW22534   0.486   3.621   7.264  0.1089 -0.0688  0.1264
 3692SOL    HW122535   0.463   3.589   7.177  1.4078  1.4070 -0.7672
 3692SOL    HW222536   0.406   3.672   7.281 -0.7626 -1.6487  0.8026
 3693SOL     OW22537   2.929   1.630  14.755  0.1457  0.3936  0.6643
 3693SOL    HW122538   3.008   1.615  14.807 -0.5110 -0.7721  1.3119
 3693SOL    HW222539   2.857   1.610  14.814 -0.7433  1.0520 -0.1970
 3694SOL     OW22540   2.573   4.545   9.864 -0.1062 -0.4539  0.0276
 3694SOL    HW122541   2.559   4.581   9.776 -1.4162 -1.2095 -0.0714
 3694SOL    HW222542   2.647   4.601   9.888  0.0172  0.4639 -2.5096
 3695SOL     OW22543   1.539   2.566   1.559 -0.2893  0.0538  0.2930
 3695SOL    HW122544   1.547   2.536   1.468 -0.6942 -2.9947  1.2919
 3695SOL    HW222545   1.567   2.493   1.613  1.4568 -0.3534 -1.1546
 3696SOL     OW22546   1.850   4.317   7.969  0.1487  0.0077  0.5113
 3696SOL    HW122547   1.839   4.271   7.886  0.8428  3.2542 -1.4018
 3696SOL    HW222548   1.925   4.376   7.959 -0.2873  0.4399 -0.3049
 3697SOL     OW22549   3.904   2.378  17.101 -0.0815 -0.0156 -0.2715
 3697SOL    HW122550   3.966   2.349  17.167  0.1633 -3.2744 -1.9323
 3697SOL    HW222551   3.927   2.470  17.091  0.3904 -0.3150 -1.9977
 3698SOL     OW22552   1.115   3.625   2.563 -0.1285  0.0122 -0.2324
 3698SOL    HW122553   1.023   3.605   2.547  0.0792  2.0034 -3.7758
 3698SOL    HW222554   1.152   3.626   2.475  0.9736  0.6909  0.2329
 3699SOL     OW22555   1.191   0.354   1.532  0.0459  0.2282 -0.9651
 3699SOL    HW122556   1.273   0.349   1.581  0.4415  0.8759 -1.5650
 3699SOL    HW222557   1.215   0.289   1.466  2.2487  0.9210 -0.8407
 3700SOL     OW22558   2.360   1.925   6.918 -0.3800  0.2751 -0.3978
 3700SOL    HW122559   2.442   1.886   6.950 -0.5440  1.4929  1.4989
 3700SOL    HW222560   2.401   1.959   6.838 -1.1016 -1.0542 -1.3318
 3701SOL     OW22561   2.521   4.412  10.799 -0.1954 -0.3821 -0.2103
 3701SOL    HW122562   2.487   4.420  10.710 -2.4262  0.9942  0.7814
 3701SOL    HW222563   2.493   4.323  10.818  0.4756 -0.4523  0.4344
 3702SOL     OW22564   1.162   1.669   5.789  0.3860 -0.1352 -0.2454
 3702SOL    HW122565   1.082   1.682   5.840 -0.9187 -4.0146 -1.2580
 3702SOL    HW222566   1.182   1.759   5.765  0.5857 -0.5191 -1.5132
 3703SOL     OW22567   2.371   0.248   4.865  0.1706  0.5793  0.3517
 3703SOL    HW122568   2.292   0.278   4.821 -0.5064 -1.1372  0.4064
 3703SOL    HW222569   2.335   0.212   4.946 -1.7963  0.9500 -0.3526
 3704SOL     OW22570   3.473   2.819   3.732 -0.5998  0.6426  0.9398
 3704SOL    HW122571   3.465   2.751   3.799 -2.1319 -1.3608 -1.2424
 3704SOL    HW222572   3.567   2.827   3.749 -0.3708 -0.4438  0.1974
 3705SOL     OW22573   0.524   4.481  15.865 -0.0784  0.6530 -0.2402
 3705SOL    HW122574   0.590   4.425  15.826 -0.7119 -0.9139  0.9176
 3705SOL    HW222575   0.537   4.569  15.830  0.9166  0.7091  0.2867
 3706SOL     OW22576   3.045   4.131   7.878  0.4476  0.4136 -0.3437
 3706SOL    HW122577   3.131   4.136   7.921  0.2087  2.2261 -0.0612
 3706SOL    HW222578   3.080   4.078   7.806  1.0484  2.8947 -1.8887
 3707SOL     OW22579   3.071   2.069   4.868  0.2500 -0.2275  0.1237
 3707SOL    HW122580   3.153   2.044   4.825  0.6270 -2.8338  2.3442
 3707SOL    HW222581   3.016   2.000   4.830  1.6079 -1.1210 -0.2200
 3708SOL     OW22582   0.222   0.552   8.371  0.8135 -0.4845 -0.6667
 3708SOL    HW122583   0.312   0.549   8.338  0.6035  0.4475 -1.3101
 3708SOL    HW222584   0.205   0.641   8.400  1.6058 -0.9823  1.3741
 3709SOL     OW22585   1.614   4.612   1.866  0.1443 -0.2430  0.8377
 3709SOL    HW122586   1.636   4.680   1.802 -0.3475  0.2079  1.1557
 3709SOL    HW222587   1.701   4.572   1.868  1.4022  2.4230 -0.6208
 3710SOL     OW22588   4.002   4.440   8.170  0.0650  0.2113 -0.4546
 3710SOL    HW122589   4.082   4.488   8.147 -1.0321  2.5547  0.5593
 3710SOL    HW222590   3.934   4.475   8.113 -0.1367  0.0234 -0.3252
 3711SOL     OW22591   1.673   1.729   4.857  0.5556 -0.1622 -0.0818
 3711SOL    HW122592   1.639   1.722   4.768 -0.7917  0.6386  0.3635
 3711SOL    HW222593   1.616   1.799   4.890 -0.1889 -0.5336 -0.5897
 3712SOL     OW22594   2.072   4.189   4.267  0.3700  0.0514 -0.2214
 3712SOL    HW122595   2.016   4.210   4.193 -1.3098 -2.2966  0.3624
 3712SOL    HW222596   2.004   4.185   4.335  0.3661 -3.0065 -0.4089
 3713SOL     OW22597   2.768   4.034   8.480  0.3292 -0.2241  0.2647
 3713SOL    HW122598   2.827   3.991   8.542 -0.4744 -1.6367  0.0717
 3713SOL    HW222599   2.758   4.118   8.524 -3.4025 -0.6187  0.1280
 3714SOL     OW22600   4.063   4.394   2.024  0.2812 -0.2138  0.4706
 3714SOL    HW122601   4.064   4.412   2.118 -0.8560 -0.8561  0.6021
 3714SOL    HW222602   4.128   4.325   2.007  0.0384 -0.2674 -0.2732
 3715SOL     OW22603   3.697   2.067   2.187  0.0848 -0.3952 -0.3129
 3715SOL    HW122604   3.674   1.977   2.163  0.7415 -0.6691  0.1108
 3715SOL    HW222605   3.670   2.115   2.108 -0.6946  0.2622  0.3464
 3716SOL     OW22606   4.607   3.328   8.268  0.7519 -0.1541  0.7596
 3716SOL    HW122607   4.689   3.292   8.235 -0.1141 -0.2596 -1.2972
 3716SOL    HW222608   4.581   3.271   8.340  0.9053 -1.2582 -0.0703
 3717SOL     OW22609   1.338   3.972   2.836 -0.6640 -0.5297  0.1644
 3717SOL    HW122610   1.409   3.908   2.828 -0.5834 -0.0881 -2.9463
 3717SOL    HW222611   1.271   3.914   2.799  0.0597 -1.1247 -0.2294
 3718SOL     OW22612   2.736   1.292   5.294 -0.1186  0.1390  0.0138
 3718SOL    HW122613   2.645   1.312   5.318 -0.3001  2.2175 -2.4567
 3718SOL    HW222614   2.782   1.330   5.369  2.6985 -0.5632 -1.3725
 3719SOL     OW22615   1.418   1.591   4.810  0.5742  0.3877 -0.3179
 3719SOL    HW122616   1.392   1.512   4.858 -0.3707  1.9030  1.6943
 3719SOL    HW222617   1.511   1.600   4.829  0.3915 -0.9518  1.2497
 3720SOL     OW22618   0.192   0.544  17.600  0.0206  0.7145  0.3336
 3720SOL    HW122619   0.139   0.623  17.603  0.3713  0.8937  1.6207
 3720SOL    HW222620   0.271   0.580  17.561 -1.1224  1.9163 -0.8916
 3721SOL     OW22621   3.864   4.230   2.590  0.0190 -0.4578  0.3475
 3721SOL    HW122622   3.823   4.233   2.677 -1.1079  3.2498 -0.3296
 3721SOL    HW222623   3.785   4.208   2.541 -0.4033  0.7976  0.4658
 3722SOL     OW22624   1.710   3.546  10.000  0.1870 -0.5828 -0.3005
 3722SOL    HW122625   1.681   3.636  10.011 -1.6661 -0.9706 -2.0836
 3722SOL    HW222626   1.663   3.500  10.069 -2.1490  1.6912 -0.3925
 3723SOL     OW22627   4.572   4.048   7.143 -0.4151 -0.4797 -0.1177
 3723SOL    HW122628   4.522   4.124   7.112 -2.0619 -0.8266  1.6678
 3723SOL    HW222629   4.617   4.100   7.209  2.2268 -1.4074 -1.2048
 3724SOL     OW22630   4.578   2.813   1.186 -0.6667  0.0638  0.2153
 3724SOL    HW122631   4.597   2.890   1.132 -0.7537 -1.4532 -1.9675
 3724SOL    HW222632   4.531   2.858   1.257 -0.1337 -1.6381  1.6472
 3725SOL     OW22633   4.694   0.994  12.965  0.4489 -0.2719 -0.0944
 3725SOL    HW122634   4.604   1.017  12.989  0.3662 -1.2728  0.5255
 3725SOL    HW222635   0.024   1.018  13.044  0.1443 -1.8243  0.5662
 3726SOL     OW22636   1.850   0.645  11.025  0.2246 -0.5509  0.9096
 3726SOL    HW122637   1.927   0.595  11.052  0.3761 -0.1286  1.2650
 3726SOL    HW222638   1.798   0.574  10.987  0.7991 -0.4685 -0.0340
 3727SOL     OW22639   0.424   4.674   7.045  0.0233  0.1867 -0.1441
 3727SOL    HW122640   0.504   4.683   6.993 -0.1687  1.3560 -0.2259
 3727SOL    HW222641   0.427   4.590   7.091 -2.7405  1.0238  1.5891
 3728SOL     OW22642   2.897   2.391   8.034 -0.5876 -0.4128  0.4413
 3728SOL    HW122643   2.949   2.471   8.024 -1.5389  0.1849  0.2960
 3728SOL    HW222644   2.971   2.332   8.052  0.0294  0.4057  0.6095
 3729SOL     OW22645   4.332   2.225   1.048 -0.2766  0.0084 -0.4426
 3729SOL    HW122646   4.368   2.158   0.991  4.4707  1.3574  1.0009
 3729SOL    HW222647   4.401   2.291   1.046 -0.1383 -0.0267  2.5952
 3730SOL     OW22648   4.463   1.271  11.638  0.3552  0.0971  0.3437
 3730SOL    HW122649   4.499   1.292  11.552 -2.5488 -0.5860 -1.0762
 3730SOL    HW222650   4.503   1.344  11.684  0.6095 -0.1336  0.4855
 3731SOL     OW22651   0.029   3.396   7.900  0.1109 -0.3149 -0.3212
 3731SOL    HW122652   0.088   3.433   7.966  1.4511 -0.4122 -1.4549
 3731SOL    HW222653   4.665   3.397   7.946  1.5104  2.1468  2.1392
 3732SOL     OW22654   2.217   0.845   3.659 -0.0355 -0.0836  0.0786
 3732SOL    HW122655   2.259   0.889   3.733  1.1948 -0.5258 -0.3427
 3732SOL    HW222656   2.130   0.823   3.691  0.4998 -2.3836 -0.0281
 3733SOL     OW22657   1.715   3.771   3.042  0.9977  0.2220  0.2116
 3733SOL    HW122658   1.640   3.790   2.985  0.4846  1.7744  1.3818
 3733SOL    HW222659   1.709   3.676   3.050  1.1367  0.0173 -2.1273
 3734SOL     OW22660   1.119   3.827  13.793  0.1134 -0.3283  0.0588
 3734SOL    HW122661   1.084   3.770  13.862  1.4288  1.2326  2.0033
 3734SOL    HW222662   1.116   3.913  13.834  1.4332  0.6542 -1.9125
 3735SOL     OW22663   3.566   0.478   2.756  0.4105 -0.5667 -0.0350
 3735SOL    HW122664   3.600   0.443   2.674  1.1397 -1.0397  0.4745
 3735SOL    HW222665   3.558   0.399   2.809  1.3691  1.3238  2.9586
 3736SOL     OW22666   3.478   3.325   7.623 -0.5145  0.1880 -0.5323
 3736SOL    HW122667   3.537   3.376   7.567  0.1529  1.1625  1.0576
 3736SOL    HW222668   3.455   3.393   7.687 -0.3497 -0.8318  0.6116
 3737SOL     OW22669   2.154   1.931   6.547 -0.5600 -0.1577 -0.5980
 3737SOL    HW122670   2.069   1.887   6.548 -0.8558  0.4533  2.0901
 3737SOL    HW222671   2.210   1.876   6.601 -1.3581 -0.2174  0.1769
 3738SOL     OW22672   0.336   1.621  15.456 -0.2782  0.0584  0.0720
 3738SOL    HW122673   0.338   1.597  15.548  1.6160  0.0622  0.0271
 3738SOL    HW222674   0.396   1.559  15.416 -0.4906  0.5678 -1.0623
 3739SOL     OW22675   2.145   1.110   3.988  0.0592 -0.3660  0.2639
 3739SOL    HW122676   2.069   1.068   3.948 -1.4933  1.9744  0.7714
 3739SOL    HW222677   2.210   1.103   3.918  0.3011 -1.2577  0.5714
 3740SOL     OW22678   2.290   2.380   8.665 -0.0088  0.1095 -0.4427
 3740SOL    HW122679   2.233   2.377   8.589 -0.0980  1.4589 -0.4356
 3740SOL    HW222680   2.332   2.465   8.652  1.6325 -0.4061  1.4986
 3741SOL     OW22681   4.017   3.962   0.581  0.2716 -0.1762 -0.1951
 3741SOL    HW122682   4.054   4.011   0.654  2.7309 -0.0083 -1.5459
 3741SOL    HW222683   4.023   3.871   0.611 -0.6254 -0.5240 -1.0727
 3742SOL     OW22684   4.073   0.024   2.356 -0.0713 -0.2206  0.2717
 3742SOL    HW122685   3.993   4.702   2.389 -1.0515  0.7138 -0.9280
 3742SOL    HW222686   4.034   0.085   2.293  2.2996  1.2341  0.1967
 3743SOL     OW22687   4.452   1.656   3.751  0.3172  0.6382 -0.5609
 3743SOL    HW122688   4.421   1.743   3.729  0.8842  0.3846 -2.3420
 3743SOL    HW222689   4.543   1.676   3.775  0.3734 -0.9940  0.5915
 3744SOL     OW22690   3.892   3.415   6.370 -0.6298 -0.9556  0.3190
 3744SOL    HW122691   3.866   3.448   6.284  1.1259 -1.3941 -0.3808
 3744SOL    HW222692   3.832   3.342   6.378 -1.7614  0.0616  0.9690
 3745SOL     OW22693   2.527   3.883   6.436  0.1560 -0.2088 -0.9481
 3745SOL    HW122694   2.453   3.831   6.466  0.8804  0.3687  1.8759
 3745SOL    HW222695   2.556   3.824   6.367  0.6006  0.0863 -1.0133
 3746SOL     OW22696   3.846   2.524   7.401  0.0135  0.3740 -0.1642
 3746SOL    HW122697   3.794   2.597   7.367 -0.4321  0.2563  0.2811
 3746SOL    HW222698   3.923   2.578   7.420  0.2390 -0.0268  0.0477
 3747SOL     OW22699   0.561   2.161   8.609  0.2188  0.7822  0.1479
 3747SOL    HW122700   0.651   2.131   8.617 -0.1331  0.0021  1.2173
 3747SOL    HW222701   0.507   2.099   8.658  0.8380  1.5284  1.7731
 3748SOL     OW22702   4.524   0.192   1.562 -0.6292  0.2197  0.5604
 3748SOL    HW122703   4.589   0.128   1.588  1.6537  1.8607 -1.1170
 3748SOL    HW222704   4.562   0.276   1.589 -1.6475  0.4680  1.2358
 3749SOL     OW22705   0.098   3.747   8.171 -0.2345  0.0032  0.0524
 3749SOL    HW122706   0.137   3.734   8.257 -0.9020 -0.7146  0.2521
 3749SOL    HW222707   0.022   3.690   8.185 -0.2174 -0.5939 -2.3312
 3750SOL     OW22708   3.698   4.197   4.545 -0.1005  0.6142  0.1727
 3750SOL    HW122709   3.775   4.143   4.526 -1.2323 -0.0564 -2.5379
 3750SOL    HW222710   3.710   4.277   4.492 -0.4126 -1.3875 -2.9362
 3751SOL     OW22711   0.571   2.390   2.814  0.2498  0.6366 -0.3766
 3751SOL    HW122712   0.558   2.406   2.720 -1.2473  1.2176 -0.0771
 3751SOL    HW222713   0.480   2.367   2.836  0.6228 -2.4331 -2.1350
 3752SOL     OW22714   0.333   1.697   1.602  0.7355  0.0323 -0.1558
 3752SOL    HW122715   0.247   1.705   1.560  0.1885  2.6854  1.4714
 3752SOL    HW222716   0.375   1.653   1.528 -2.0217 -0.1082 -1.6301
 3753SOL     OW22717   1.093   3.243   9.089  0.1739 -0.6542 -0.2274
 3753SOL    HW122718   1.068   3.304   9.020 -0.9087  0.1569  0.8884
 3753SOL    HW222719   1.130   3.171   9.038  0.7885  0.5954 -1.5515
 3754SOL     OW22720   3.537   4.007   3.144 -0.5955 -0.2469  0.0192
 3754SOL    HW122721   3.627   4.040   3.138 -0.5742 -0.5940 -1.7148
 3754SOL    HW222722   3.505   4.065   3.075  0.6646 -0.8466 -1.0768
 3755SOL     OW22723   1.748   0.614   7.482 -0.8261  0.4183  0.6573
 3755SOL    HW122724   1.765   0.702   7.516 -2.3659  1.0168 -0.1343
 3755SOL    HW222725   1.743   0.560   7.561 -2.7817 -0.5168 -0.1025
 3756SOL     OW22726   3.471   4.006   7.553 -0.3542 -0.1463 -0.0540
 3756SOL    HW122727   3.541   4.061   7.520 -0.8730  1.2024  1.0741
 3756SOL    HW222728   3.439   3.975   7.468 -2.3040 -1.1747  1.0471
 3757SOL     OW22729   2.417   3.479   0.826  0.3246 -0.8035 -0.7006
 3757SOL    HW122730   2.443   3.422   0.899 -0.7085  0.2665  0.4923
 3757SOL    HW222731   2.467   3.555   0.855 -1.5881  0.2375 -0.1628
 3758SOL     OW22732   0.774   3.904   5.884  0.3471 -0.3700  0.1813
 3758SOL    HW122733   0.725   3.876   5.961 -0.8260 -1.5003 -0.9768
 3758SOL    HW222734   0.865   3.918   5.912  0.0808  1.3533  0.1733
 3759SOL     OW22735   2.534   2.364   4.462  0.7230  0.1982 -0.4171
 3759SOL    HW122736   2.498   2.316   4.537 -1.5843  0.6674 -1.2036
 3759SOL    HW222737   2.457   2.406   4.424 -1.4949 -1.7914  1.8400
 3760SOL     OW22738   0.471   1.377   4.328 -0.1620 -0.5777 -0.0739
 3760SOL    HW122739   0.512   1.322   4.395 -2.4739 -1.2616  0.8019
 3760SOL    HW222740   0.385   1.335   4.318 -0.5140  0.2855 -0.7382
 3761SOL     OW22741   1.870   3.556   5.526 -0.2006 -0.1257 -0.0250
 3761SOL    HW122742   1.933   3.487   5.506 -2.0367 -1.4482 -1.3414
 3761SOL    HW222743   1.893   3.559   5.619  3.3342  0.1943 -0.9308
 3762SOL     OW22744   1.104   0.677  11.209 -0.8660  0.6408  0.3432
 3762SOL    HW122745   1.013   0.650  11.219 -0.7231  0.0085 -0.0888
 3762SOL    HW222746   1.146   0.595  11.182  1.6681  2.4963 -1.4068
 3763SOL     OW22747   3.099   3.880   1.191  0.2956 -0.1273 -0.6760
 3763SOL    HW122748   3.103   3.943   1.119  0.2039  1.1744  0.4619
 3763SOL    HW222749   3.149   3.930   1.255 -0.0954  0.6288 -0.9582
 3764SOL     OW22750   1.294   4.100   8.434 -0.1606  0.0584 -0.2209
 3764SOL    HW122751   1.245   4.179   8.408  2.6677  1.6245 -0.8467
 3764SOL    HW222752   1.377   4.138   8.463 -0.0446  0.5157 -1.1653
 3765SOL     OW22753   2.194   0.975  13.580  0.2234  0.2119  0.0778
 3765SOL    HW122754   2.120   1.031  13.553  0.4816  0.0096 -1.0739
 3765SOL    HW222755   2.234   1.027  13.649  2.1130  0.7583 -1.4356
 3766SOL     OW22756   2.871   1.854   3.736 -0.4008 -0.1398 -0.5172
 3766SOL    HW122757   2.823   1.877   3.657  0.9862 -1.0688 -1.6264
 3766SOL    HW222758   2.826   1.771   3.755  1.2401 -1.5892 -3.0064
 3767SOL     OW22759   2.583   3.425  16.953 -0.8154 -0.4294  0.5407
 3767SOL    HW122760   2.615   3.344  16.914 -0.1736 -0.2034  0.5956
 3767SOL    HW222761   2.564   3.381  17.036 -0.5973 -1.5654 -0.0133
 3768SOL     OW22762   1.136   0.821   1.936 -0.4691  0.7326 -0.2589
 3768SOL    HW122763   1.212   0.769   1.964  0.3228  2.7324  1.3412
 3768SOL    HW222764   1.182   0.889   1.886 -0.5632  1.3500  0.4965
 3769SOL     OW22765   3.464   0.695  16.190  0.0755 -0.2346 -0.2976
 3769SOL    HW122766   3.386   0.641  16.175 -0.1702  0.6929 -2.3949
 3769SOL    HW222767   3.459   0.758  16.118 -1.5778  0.4902  0.4421
 3770SOL     OW22768   3.039   2.247   7.657 -0.0520 -0.1722 -0.1665
 3770SOL    HW122769   3.109   2.259   7.593 -1.2523  0.4458 -1.3490
 3770SOL    HW222770   3.021   2.339   7.678 -2.3462 -0.3340 -1.4494
 3771SOL     OW22771   1.421   3.352  15.761  0.1125 -0.1519  0.0938
 3771SOL    HW122772   1.409   3.367  15.667  2.5014  1.2916  0.0302
 3771SOL    HW222773   1.331   3.372  15.787  0.3529  0.7568  0.2182
 3772SOL     OW22774   1.494   2.301   6.902 -0.3274  0.0237 -0.5607
 3772SOL    HW122775   1.399   2.297   6.898 -0.3480  0.4894 -0.6043
 3772SOL    HW222776   1.521   2.236   6.837 -0.0843 -0.7544  0.3218
 3773SOL     OW22777   3.460   0.716   3.336  0.2074 -0.4682  0.5294
 3773SOL    HW122778   3.465   0.785   3.271 -0.1383  0.7416  1.7927
 3773SOL    HW222779   3.532   0.662   3.305  1.8255  1.8915  0.2183
 3774SOL     OW22780   1.959   0.098   5.151 -0.0263  0.5319 -0.0151
 3774SOL    HW122781   1.983   0.071   5.239 -2.0278 -2.1338 -0.2969
 3774SOL    HW222782   1.916   0.181   5.174 -1.4378 -0.4123  0.7376
 3775SOL     OW22783   2.681   0.585   6.356 -0.0694 -0.1953  0.0666
 3775SOL    HW122784   2.759   0.542   6.391  1.0845  2.0280  0.2324
 3775SOL    HW222785   2.628   0.511   6.326 -1.8303  1.0433  0.1118
 3776SOL     OW22786   0.862   4.567   9.267  0.2787  0.5398 -0.0592
 3776SOL    HW122787   0.909   4.550   9.185  0.4040  0.7171 -0.0235
 3776SOL    HW222788   0.825   4.479   9.274  0.4402  0.2671 -2.5907
 3777SOL     OW22789   0.730   4.464   1.522 -0.2208 -0.2142  0.0484
 3777SOL    HW122790   0.735   4.368   1.525  0.0721 -0.2670 -2.5754
 3777SOL    HW222791   0.645   4.477   1.479 -0.3826  0.7988  0.6713
 3778SOL     OW22792   3.593   0.781   9.676 -0.1103 -0.1433  1.1489
 3778SOL    HW122793   3.533   0.706   9.673  0.7443 -0.8430  1.6805
 3778SOL    HW222794   3.554   0.846   9.617  0.9607 -0.0280  0.5645
 3779SOL     OW22795   0.129   3.315  12.200  0.1328  0.0440 -0.2815
 3779SOL    HW122796   0.182   3.276  12.130 -0.8125 -1.1137 -0.3501
 3779SOL    HW222797   0.044   3.321  12.156 -0.5509  1.5495  1.2340
 3780SOL     OW22798   2.143   0.695   6.901 -0.2641  0.0871  0.4337
 3780SOL    HW122799   2.183   0.749   6.833  0.1938  0.7508  1.2190
 3780SOL    HW222800   2.172   0.738   6.982 -1.9935  0.4521  0.8592
 3781SOL     OW22801   1.306   1.174   0.920 -0.2497 -0.0907  0.8626
 3781SOL    HW122802   1.319   1.222   0.838  1.9111 -0.4618  0.9898
 3781SOL    HW222803   1.390   1.178   0.966 -1.0766  3.0949  2.1081
 3782SOL     OW22804   4.225   0.914   7.348 -0.3856 -0.1252 -0.1331
 3782SOL    HW122805   4.200   0.991   7.297 -0.8947 -1.4579 -1.8642
 3782SOL    HW222806   4.314   0.898   7.319  0.6043  2.0438  1.6994
 3783SOL     OW22807   1.723   3.051  15.179  0.4126  0.6756 -0.3078
 3783SOL    HW122808   1.813   3.031  15.206  0.8361  2.5349 -0.3902
 3783SOL    HW222809   1.684   2.970  15.214  0.6601  0.8267  0.3243
 3784SOL     OW22810   4.239   3.152  16.200 -0.4078 -0.0565  0.1849
 3784SOL    HW122811   4.172   3.091  16.233 -0.7662 -0.1315 -0.6811
 3784SOL    HW222812   4.231   3.232  16.251  0.9644 -0.0038  0.3234
 3785SOL     OW22813   4.244   2.768   4.535  0.7026 -0.5141  0.2465
 3785SOL    HW122814   4.153   2.786   4.508  1.1353 -0.8305 -1.4471
 3785SOL    HW222815   4.292   2.778   4.453  1.1893 -1.2154  0.4451
 3786SOL     OW22816   0.414   2.714   4.874 -0.3699  0.1128 -0.1307
 3786SOL    HW122817   0.348   2.783   4.877  2.3615  2.6619  0.4531
 3786SOL    HW222818   0.442   2.699   4.964  1.8138 -1.6815 -1.1099
 3787SOL     OW22819   2.412   1.909   5.713 -0.9769 -0.3322 -0.1442
 3787SOL    HW122820   2.390   1.948   5.798 -0.0932  1.9663 -0.9688
 3787SOL    HW222821   2.383   1.819   5.724 -1.0962 -0.5932 -2.6022
 3788SOL     OW22822   4.251   1.946   5.006  0.2728  0.6772  0.2873
 3788SOL    HW122823   4.262   2.034   4.968  0.6106  0.6991  0.4346
 3788SOL    HW222824   4.196   1.975   5.078  3.4190  2.2555  2.0582
 3789SOL     OW22825   3.645   0.762   2.158  0.2096  0.1398  0.4370
 3789SOL    HW122826   3.559   0.797   2.178 -0.2356 -0.1216 -1.0175
 3789SOL    HW222827   3.652   0.807   2.074  0.2553  1.8903  1.3782
 3790SOL     OW22828   1.904   3.016   4.388 -0.3906 -0.3220 -0.2184
 3790SOL    HW122829   1.979   2.958   4.404 -0.8824 -0.6312  0.9931
 3790SOL    HW222830   1.903   3.073   4.466  0.0629 -1.1928  0.4194
 3791SOL     OW22831   1.547   0.893   2.076  0.0375 -0.1085  0.5555
 3791SOL    HW122832   1.567   0.958   2.009  0.6507 -1.6582 -0.7584
 3791SOL    HW222833   1.580   0.934   2.156 -3.0350  1.1415  1.2136
 3792SOL     OW22834   4.374   3.222   3.500  0.4542 -0.1174 -0.0192
 3792SOL    HW122835   4.353   3.162   3.572  3.5598 -0.0533  0.9455
 3792SOL    HW222836   4.296   3.277   3.514  0.1722 -0.5008 -0.0945
 3793SOL     OW22837   2.737   3.983   1.203  0.3565 -0.0440 -0.7032
 3793SOL    HW122838   2.713   3.920   1.134 -0.3094 -0.8366  0.2536
 3793SOL    HW222839   2.786   3.930   1.265  0.1077 -1.3551 -1.6079
 3794SOL     OW22840   0.103   1.687  11.640 -0.4263  0.3175 -0.7214
 3794SOL    HW122841   0.181   1.706  11.691 -1.0382  0.2110  0.2535
 3794SOL    HW222842   0.054   1.769  11.633 -0.4619  0.4445  0.9895
 3795SOL     OW22843   3.914   3.563   4.787  0.2503  0.1873  0.2953
 3795SOL    HW122844   3.849   3.528   4.849  0.9507 -2.1325 -0.2814
 3795SOL    HW222845   3.979   3.493   4.788  0.4594  0.4197  3.2177
 3796SOL     OW22846   0.079   4.192  11.301 -0.0658  0.4451  0.6804
 3796SOL    HW122847   4.712   4.206  11.341  0.0660  0.9378  0.7896
 3796SOL    HW222848   0.081   4.102  11.269 -0.4510  0.2348  1.2352
 3797SOL     OW22849   3.149   4.472   8.327 -0.4067 -0.2217 -0.0259
 3797SOL    HW122850   3.096   4.444   8.252  1.3900  0.3431 -1.4805
 3797SOL    HW222851   3.223   4.521   8.291  0.1703 -0.6479  0.5787
 3798SOL     OW22852   0.466   0.009  12.545 -0.2076 -0.2366  0.2994
 3798SOL    HW122853   0.432   0.034  12.630 -0.4559 -0.6492  0.3171
 3798SOL    HW222854   0.413   0.046  12.474  0.0248  0.6206  0.5748
 3799SOL     OW22855   3.956   2.660  17.095 -0.0599  0.1236  0.3224
 3799SOL    HW122856   3.990   2.726  17.034  0.5332  1.1119  1.7470
 3799SOL    HW222857   4.036   2.633  17.139 -0.4310 -2.2019 -0.4042
 3800SOL     OW22858   1.704   2.128   0.957 -0.6847  0.4929  0.7218
 3800SOL    HW122859   1.666   2.085   0.881 -3.2141  0.4544  2.0259
 3800SOL    HW222860   1.794   2.112   0.929 -0.5489 -0.6021  1.7980
 3801SOL     OW22861   3.224   2.131   9.068 -0.1169  0.2271 -0.2561
 3801SOL    HW122862   3.250   2.143   9.159 -0.7105  1.4723 -0.2446
 3801SOL    HW222863   3.166   2.055   9.066 -0.7232  0.6052  3.2493
 3802SOL     OW22864   1.342   0.758  11.891 -0.5635 -0.1956  0.5829
 3802SOL    HW122865   1.346   0.675  11.844 -0.4730 -0.0578  0.3516
 3802SOL    HW222866   1.247   0.757  11.903 -0.5259  0.4990  0.9122
 3803SOL     OW22867   4.188   3.423   8.709 -0.1430  0.1015 -0.0395
 3803SOL    HW122868   4.253   3.474   8.757  0.0497 -0.1084 -0.0805
 3803SOL    HW222869   4.112   3.468   8.747  0.3946  1.1520 -0.2123
 3804SOL     OW22870   0.157   0.270   8.411  0.0987 -0.0471 -0.1792
 3804SOL    HW122871   0.152   0.355   8.454  0.5140 -0.3079  0.3851
 3804SOL    HW222872   0.246   0.273   8.376  0.5811  2.2701  1.2597
 3805SOL     OW22873   4.675   2.530   9.459  0.0265  0.5085 -0.1507
 3805SOL    HW122874   4.670   2.500   9.549  0.4551 -0.4857 -0.4657
 3805SOL    HW222875   4.582   2.524   9.435 -0.1201  1.3487  0.1830
 3806SOL     OW22876   2.430   3.564   4.162 -0.7643 -0.3536 -0.1010
 3806SOL    HW122877   2.505   3.622   4.179 -0.6919 -0.6730  0.6847
 3806SOL    HW222878   2.450   3.476   4.194  2.7283  0.3521 -0.3253
 3807SOL     OW22879   1.729   4.369   5.208  0.2443 -0.1031 -0.8959
 3807SOL    HW122880   1.785   4.349   5.282  0.6224 -1.0935 -1.4573
 3807SOL    HW222881   1.674   4.292   5.219 -0.9355  0.9802  0.8590
 3808SOL     OW22882   1.158   4.353   7.666 -0.4249 -0.3410 -0.3963
 3808SOL    HW122883   1.235   4.325   7.616  0.0905 -0.0720  0.2593
 3808SOL    HW222884   1.099   4.287   7.630 -2.3243  1.6665 -0.9871
 3809SOL     OW22885   0.263   1.852   3.910  0.3185  0.1998 -0.4557
 3809SOL    HW122886   0.283   1.884   3.997  2.4346  0.0555 -0.8912
 3809SOL    HW222887   0.249   1.759   3.926 -0.9423  1.1815  4.0094
 3810SOL     OW22888   0.863   2.587  16.688  0.1260  0.8259 -0.3598
 3810SOL    HW122889   0.827   2.636  16.762  0.8138 -0.0095  0.5379
 3810SOL    HW222890   0.790   2.585  16.626  1.5811  2.1563 -2.1009
 3811SOL     OW22891   2.239   1.603   9.666  0.0769  0.1189 -0.3418
 3811SOL    HW122892   2.266   1.522   9.707  1.0545  0.1737 -0.8718
 3811SOL    HW222893   2.309   1.663   9.692 -0.9448  2.0661 -2.0641
 3812SOL     OW22894   0.155   0.802   0.381  0.1694 -0.0976 -0.3270
 3812SOL    HW122895   0.138   0.852   0.301 -1.6261 -0.5937 -0.2589
 3812SOL    HW222896   0.248   0.782   0.372  0.7195  2.5968 -0.7455
 3813SOL     OW22897   0.614   3.713   6.720  0.1752 -0.0867  0.1408
 3813SOL    HW122898   0.598   3.661   6.642  0.9352 -1.4364  0.8880
 3813SOL    HW222899   0.636   3.639   6.776 -0.4654  1.0372  1.9045
 3814SOL     OW22900   2.520   4.442  16.465 -0.4436 -0.1476 -0.8126
 3814SOL    HW122901   2.456   4.507  16.435 -0.0573 -0.1932 -1.7365
 3814SOL    HW222902   2.603   4.474  16.429 -0.0377 -1.4630 -1.0513
 3815SOL     OW22903   2.289   0.896   6.490  0.1213  0.1676 -0.3520
 3815SOL    HW122904   2.236   0.820   6.469  1.7859 -1.0690 -0.1156
 3815SOL    HW222905   2.219   0.961   6.496  0.5897  0.7103 -0.6935
 3816SOL     OW22906   1.766   3.354  13.093 -0.0535 -1.0915  0.2669
 3816SOL    HW122907   1.800   3.330  13.180  2.3310 -1.3752 -0.7274
 3816SOL    HW222908   1.807   3.296  13.028 -0.3844  0.3458 -1.2244
 3817SOL     OW22909   1.641   1.547   1.920  0.6467  0.3390 -0.3810
 3817SOL    HW122910   1.707   1.483   1.949  2.0029  3.5074  3.4581
 3817SOL    HW222911   1.687   1.631   1.927  0.9769 -0.0890  2.4686
 3818SOL     OW22912   4.537   0.223   9.387  0.1209  0.0313 -0.2450
 3818SOL    HW122913   4.583   0.173   9.455 -1.2202  0.8931  1.2923
 3818SOL    HW222914   4.608   0.277   9.353  2.0396 -3.3663 -1.6483
 3819SOL     OW22915   2.398   0.580   4.123 -0.2190 -0.0753  0.0552
 3819SOL    HW122916   2.309   0.575   4.088  0.4344 -1.4246 -1.3898
 3819SOL    HW222917   2.388   0.651   4.187 -0.3300 -2.0470  2.2306
 3820SOL     OW22918   0.936   3.178  15.737  0.3105 -0.1806 -0.2849
 3820SOL    HW122919   1.023   3.157  15.771 -0.7019 -3.5473  0.2757
 3820SOL    HW222920   0.908   3.093  15.702  0.6987 -1.2414  1.9941
 3821SOL     OW22921   3.797   3.919   3.156  0.1830 -0.0132 -0.2425
 3821SOL    HW122922   3.849   3.955   3.228  3.3401  0.9379 -3.0110
 3821SOL    HW222923   3.867   3.870   3.113 -1.2423 -0.3933 -2.1393
 3822SOL     OW22924   2.100   0.135   2.492  0.3890  0.9134 -0.2796
 3822SOL    HW122925   2.035   0.199   2.462  0.4162  1.0065 -0.1382
 3822SOL    HW222926   2.117   0.085   2.413 -1.2397 -1.3039  0.7552
 3823SOL     OW22927   0.939   3.659   8.313  0.0190 -0.1269 -0.1090
 3823SOL    HW122928   0.965   3.744   8.278 -0.3727  1.4016  3.3098
 3823SOL    HW222929   0.919   3.688   8.402 -0.3952 -2.2080  0.4719
 3824SOL     OW22930   3.031   0.483   9.625  0.6777  0.0988  0.6935
 3824SOL    HW122931   3.003   0.464   9.714  3.0400 -2.4604  0.8964
 3824SOL    HW222932   3.105   0.424   9.609  0.8543  0.2648  0.9000
 3825SOL     OW22933   4.019   0.924   5.443  0.0490  0.1157  0.1558
 3825SOL    HW122934   3.932   0.959   5.424 -0.1884 -0.9322 -0.7016
 3825SOL    HW222935   4.001   0.834   5.417 -1.7524 -0.3926  3.2035
 3826SOL     OW22936   2.771   3.023   2.171 -0.3911  0.1533 -0.2936
 3826SOL    HW122937   2.830   3.097   2.184  0.4835 -0.3188 -1.5924
 3826SOL    HW222938   2.696   3.058   2.121  1.0875  0.6849 -2.1463
 3827SOL     OW22939   1.129   3.602   6.110 -0.3540 -0.1750  0.3151
 3827SOL    HW122940   1.193   3.609   6.182 -1.6603  0.4629  1.4190
 3827SOL    HW222941   1.163   3.537   6.048  1.9376  2.0620 -0.7703
 3828SOL     OW22942   0.293   1.729   5.201 -0.0611  1.0570 -0.1484
 3828SOL    HW122943   0.278   1.812   5.157  1.8310  0.9297 -1.0454
 3828SOL    HW222944   0.352   1.690   5.136 -2.2616  1.1692 -2.1977
 3829SOL     OW22945   0.455   4.363   7.890 -0.1104  0.0949  0.1306
 3829SOL    HW122946   0.479   4.418   7.815  2.2759  2.1259  2.4032
 3829SOL    HW222947   0.363   4.351   7.868  0.1723  1.0655 -1.5805
 3830SOL     OW22948   2.066   1.935  14.992  0.6899  0.3131 -0.0700
 3830SOL    HW122949   2.161   1.934  14.985  0.6773 -0.0512 -0.1851
 3830SOL    HW222950   2.052   2.029  14.979  0.9715  0.4863  0.8693
 3831SOL     OW22951   3.027   2.465   6.460  0.7554  0.1895  0.4532
 3831SOL    HW122952   2.971   2.388   6.447  1.2155 -0.2443  1.0236
 3831SOL    HW222953   3.084   2.459   6.384  0.4880  1.6666  0.1365
 3832SOL     OW22954   0.706   0.514  16.018  0.0249  0.1134 -0.0608
 3832SOL    HW122955   0.792   0.516  15.975 -0.0138 -1.3644 -0.2068
 3832SOL    HW222956   0.646   0.551  15.953 -0.0957 -0.3483 -0.2104
 3833SOL     OW22957   1.785   2.946  13.802  0.2325  0.1171 -0.2422
 3833SOL    HW122958   1.807   3.036  13.823 -1.5667 -0.0386  2.2410
 3833SOL    HW222959   1.772   2.936  13.707  0.2597 -0.5487 -0.1765
 3834SOL     OW22960   3.819   3.421   3.410  0.1348  0.0817  0.8288
 3834SOL    HW122961   3.768   3.361   3.464  0.3751  1.4192  2.5406
 3834SOL    HW222962   3.786   3.404   3.322  1.1319 -0.1958  0.5148
 3835SOL     OW22963   1.976   1.050   2.901  0.2730  0.1603 -0.2002
 3835SOL    HW122964   1.918   1.126   2.902 -1.3505 -1.0677 -1.1725
 3835SOL    HW222965   2.062   1.081   2.872 -0.2776  1.4895 -0.4464
 3836SOL     OW22966   2.710   1.788   9.535  0.4131 -0.0779 -0.0725
 3836SOL    HW122967   2.720   1.798   9.630  2.2207 -1.3089 -0.1354
 3836SOL    HW222968   2.766   1.858   9.501  0.6877  1.1189  2.8396
 3837SOL     OW22969   2.579   0.254   0.645 -0.0205 -0.1824 -0.1211
 3837SOL    HW122970   2.578   0.214   0.558 -1.1518  3.5730 -1.8663
 3837SOL    HW222971   2.670   0.252   0.674 -0.3466  1.6627  1.0278
 3838SOL     OW22972   1.338   2.829   2.014 -0.3473 -0.5775 -0.4504
 3838SOL    HW122973   1.270   2.783   1.965 -2.5915 -1.0158  3.0659
 3838SOL    HW222974   1.381   2.759   2.064 -1.9052 -0.7557  0.6191
 3839SOL     OW22975   2.467   3.477   7.365 -0.0764  0.6018 -0.3183
 3839SOL    HW122976   2.505   3.532   7.433  0.3228  1.3118 -1.1164
 3839SOL    HW222977   2.433   3.539   7.301 -1.3046  1.4133  1.1223
 3840SOL     OW22978   1.121   0.942  14.410 -0.1247 -0.6686 -0.1514
 3840SOL    HW122979   1.089   0.952  14.499 -1.4833  0.1276 -0.7313
 3840SOL    HW222980   1.208   0.982  14.408  0.3078 -1.6149 -0.2607
 3841SOL     OW22981   2.392   1.949   0.059 -0.1289 -1.2514 -0.1212
 3841SOL    HW122982   2.389   1.866   0.107 -2.0880  0.2854  2.4057
 3841SOL    HW222983   2.456   1.921  17.674  0.4548  0.0311 -0.0933
 3842SOL     OW22984   1.633   1.563   7.995 -0.1796  0.5290  0.8278
 3842SOL    HW122985   1.703   1.512   7.954 -0.7077  0.6178 -0.1853
 3842SOL    HW222986   1.690   1.621   8.045  0.2411  2.0749 -1.4365
 3843SOL     OW22987   1.266   1.557  10.861 -0.3133  0.1057 -0.4402
 3843SOL    HW122988   1.272   1.464  10.883 -3.8041  0.5011  2.1630
 3843SOL    HW222989   1.242   1.595  10.945 -1.1357 -0.3822 -0.4577
 3844SOL     OW22990   2.920   4.463   5.927  0.0691  0.2483 -0.3514
 3844SOL    HW122991   2.877   4.548   5.918 -0.3349 -0.1306 -2.1146
 3844SOL    HW222992   2.840   4.411   5.916 -0.3759  0.8439  0.0347
 3845SOL     OW22993   0.347   2.498   0.839  0.2461  0.1472  0.1384
 3845SOL    HW122994   0.379   2.468   0.924  1.5009  0.6971 -0.1444
 3845SOL    HW222995   0.432   2.522   0.802 -0.8951 -0.0555 -2.6159
 3846SOL     OW22996   3.234   4.584   1.371 -0.1466 -0.1294 -0.0781
 3846SOL    HW122997   3.254   4.491   1.367 -1.5078 -0.4230 -0.1228
 3846SOL    HW222998   3.321   4.624   1.364 -0.1549 -0.1864 -0.4825
 3847SOL     OW22999   3.742   0.927   3.262  0.2386  0.2117 -0.3974
 3847SOL    HW123000   3.794   0.947   3.184 -2.0194  1.6575 -1.5311
 3847SOL    HW223001   3.786   0.851   3.300  1.3505 -0.4344 -2.9416
 3848SOL     OW23002   3.205   0.135   8.409 -0.2420  0.3739 -0.0954
 3848SOL    HW123003   3.169   0.195   8.343 -1.7874 -0.7012 -0.2213
 3848SOL    HW223004   3.271   0.094   8.353 -0.2053 -4.5129  3.5998
 3849SOL     OW23005   0.838   0.251   4.359 -0.9749 -0.4687 -0.0260
 3849SOL    HW123006   0.854   0.270   4.267  0.3436 -0.3102  0.2293
 3849SOL    HW223007   0.841   0.337   4.402 -1.4300 -0.0134 -0.9002
 3850SOL     OW23008   0.898   2.113  17.419  0.6218 -0.0499 -0.3505
 3850SOL    HW123009   0.802   2.112  17.421  0.6419  0.7659  0.8401
 3850SOL    HW223010   0.925   2.051  17.352 -1.5427  0.7228 -1.9149
 3851SOL     OW23011   2.976   2.932   2.513  0.6048  0.3980 -0.1005
 3851SOL    HW123012   2.947   3.021   2.533  0.3564  0.3602 -0.2946
 3851SOL    HW223013   3.068   2.937   2.539  1.2014 -2.8502 -1.5091
 3852SOL     OW23014   3.475   2.443  11.796  0.2366  0.1366  0.3295
 3852SOL    HW123015   3.468   2.424  11.703 -0.3677 -0.8626  0.5780
 3852SOL    HW223016   3.560   2.408  11.823 -0.5982 -2.3190 -0.2650
 3853SOL     OW23017   2.362   1.080   7.929 -0.2994  0.6297 -0.7900
 3853SOL    HW123018   2.438   1.032   7.897  0.7538  0.6256  1.6557
 3853SOL    HW223019   2.387   1.164   7.890  4.0520  0.4756  1.7003
 3854SOL     OW23020   3.111   2.970   7.985 -0.6967  0.2842 -0.0311
 3854SOL    HW123021   3.079   3.023   7.912  1.5901  0.1536 -1.1417
 3854SOL    HW223022   3.202   2.993   8.000 -0.6769  1.2038 -1.5557
 3855SOL     OW23023   3.188   4.015   3.764 -0.5794 -0.3425 -1.0481
 3855SOL    HW123024   3.182   4.063   3.681  0.5407  0.6564 -0.5550
 3855SOL    HW223025   3.161   3.927   3.737  0.3977 -0.9896  0.0771
 3856SOL     OW23026   0.430   4.323   0.016 -0.3766  0.5210  0.5152
 3856SOL    HW123027   0.480   4.244  17.678  0.2885  0.8507  0.9004
 3856SOL    HW223028   0.447   4.365  17.612  2.9251 -2.0179 -0.1016
 3857SOL     OW23029   3.661   2.529  10.679 -0.6701 -0.0143  0.9221
 3857SOL    HW123030   3.681   2.542  10.771  2.1704 -0.7851  0.4282
 3857SOL    HW223031   3.630   2.439  10.683 -0.5538 -0.1311 -0.6117
 3858SOL     OW23032   1.088   4.153  11.036 -0.7342  0.3285  0.3932
 3858SOL    HW123033   1.042   4.234  11.017 -1.8263 -0.3366  0.1992
 3858SOL    HW223034   1.020   4.102  11.079  0.0732 -0.2919  0.9334
 3859SOL     OW23035   4.384   4.485   1.680  0.0851 -0.8147  0.5612
 3859SOL    HW123036   4.372   4.401   1.725  0.3455  0.4677  3.0148
 3859SOL    HW223037   4.477   4.487   1.661  0.3498  0.0119  1.9961
 3860SOL     OW23038   3.469   0.914   5.379 -0.4504  0.0033  0.2092
 3860SOL    HW123039   3.422   0.934   5.459  0.3821 -2.3075  1.2687
 3860SOL    HW223040   3.451   0.988   5.321  0.7292  0.8238  0.9030
 3861SOL     OW23041   3.199   3.355   0.516  0.2402  0.0649  0.0096
 3861SOL    HW123042   3.244   3.272   0.529  0.3036  0.2279  0.8232
 3861SOL    HW223043   3.277   3.408   0.501  1.8289 -2.5119 -0.8449
 3862SOL     OW23044   2.419   4.096  13.736  0.7387  0.1396 -0.4261
 3862SOL    HW123045   2.424   4.183  13.696  0.2480  1.3937  2.1873
 3862SOL    HW223046   2.403   4.130  13.825 -0.2494  0.4911 -0.7429
 3863SOL     OW23047   2.417   2.221  12.327  0.5333 -0.2228 -0.0307
 3863SOL    HW123048   2.428   2.126  12.320 -1.3082 -0.4973  0.9139
 3863SOL    HW223049   2.498   2.265  12.301 -1.2140  1.3895 -2.6909
 3864SOL     OW23050   3.022   3.036   5.829 -0.0924 -0.0911 -0.7021
 3864SOL    HW123051   3.080   3.017   5.756 -0.9275  1.5310 -1.7808
 3864SOL    HW223052   2.992   2.948   5.853  2.5921 -0.7278  0.3237
 3865SOL     OW23053   1.143   0.791  17.167 -0.5406  0.6486  0.3142
 3865SOL    HW123054   1.076   0.858  17.159 -0.2231  0.9640  0.2695
 3865SOL    HW223055   1.202   0.836  17.227  0.1537  0.3997 -0.1786
 3866SOL     OW23056   0.297   1.851   3.118  0.2372 -0.0111  1.0541
 3866SOL    HW123057   0.235   1.913   3.081  0.3643 -0.3361  0.3010
 3866SOL    HW223058   0.373   1.860   3.061  2.1209  0.8409  3.6698
 3867SOL     OW23059   3.686   3.699   3.541 -0.1908 -0.7698  0.1039
 3867SOL    HW123060   3.727   3.624   3.584  0.5964  0.6273  1.7650
 3867SOL    HW223061   3.720   3.770   3.594 -1.9983 -0.8262  1.3407
 3868SOL     OW23062   3.741   1.733   6.252  0.5104  0.0505 -0.0619
 3868SOL    HW123063   3.761   1.821   6.219 -0.7370  1.0746  1.9228
 3868SOL    HW223064   3.646   1.742   6.263  0.5304  1.1086 -0.7039
 3869SOL     OW23065   3.854   0.412   1.988 -0.0565  0.2262  0.1886
 3869SOL    HW123066   3.811   0.358   1.921  1.4242  2.0602 -2.2164
 3869SOL    HW223067   3.777   0.428   2.043 -1.6325 -0.6614 -1.7373
 3870SOL     OW23068   4.392   4.099  15.253  0.8845 -0.1153 -0.6954
 3870SOL    HW123069   4.453   4.027  15.236  1.6943  0.2171  0.8032
 3870SOL    HW223070   4.313   4.050  15.231 -0.0105  1.4527 -0.9585
 3871SOL     OW23071   4.567   0.853   9.169  0.4585 -0.0169 -0.3710
 3871SOL    HW123072   4.488   0.904   9.190  0.5920 -0.1636  0.4719
 3871SOL    HW223073   4.543   0.772   9.213  1.8616 -1.5704 -2.4822
 3872SOL     OW23074   1.052   0.282   7.282  0.0285 -0.0373  0.3739
 3872SOL    HW123075   1.100   0.239   7.210 -0.6470  1.1061 -0.7631
 3872SOL    HW223076   0.997   0.211   7.314 -0.4116 -0.1497 -0.6120
 3873SOL     OW23077   1.747   1.649  14.081  0.1238  0.1807  0.0682
 3873SOL    HW123078   1.715   1.697  14.158 -0.1757 -1.5464  1.0122
 3873SOL    HW223079   1.672   1.607  14.039 -0.9186  1.8602  0.2481
 3874SOL     OW23080   2.514   0.382   3.546  0.5209 -0.0841 -0.7009
 3874SOL    HW123081   2.544   0.463   3.588 -0.0313  1.4472 -3.2069
 3874SOL    HW223082   2.465   0.420   3.472  1.0743 -0.7607 -1.4174
 3875SOL     OW23083   1.046   3.945  17.371  0.8622 -0.1663  0.7812
 3875SOL    HW123084   1.088   4.031  17.369 -1.0802  0.7669  0.5171
 3875SOL    HW223085   1.086   3.897  17.444  0.3790 -1.7836 -0.0253
 3876SOL     OW23086   3.729   3.397   3.149 -0.0540  0.0024  0.1785
 3876SOL    HW123087   3.770   3.453   3.083 -1.2881  1.3271  0.5228
 3876SOL    HW223088   3.670   3.345   3.095 -1.9552  2.3372 -0.0030
 3877SOL     OW23089   3.607   0.705   0.040  0.4951  0.4306  0.4724
 3877SOL    HW123090   3.674   0.639   0.058 -0.1545 -0.6189 -0.9099
 3877SOL    HW223091   3.660   0.776   0.003 -0.5873  0.1732 -1.5877
 3878SOL     OW23092   2.757   0.847   5.677  0.7618  1.0469 -0.6064
 3878SOL    HW123093   2.674   0.894   5.685  0.4021  0.4816 -1.0665
 3878SOL    HW223094   2.807   0.877   5.753  0.0575  0.9151 -0.0846
 3879SOL     OW23095   3.388   2.227   7.695 -0.2132  0.5801  0.1186
 3879SOL    HW123096   3.471   2.181   7.702 -0.4275  0.6139  2.8254
 3879SOL    HW223097   3.414   2.293   7.630  1.8075 -0.6428 -0.3147
 3880SOL     OW23098   0.437   1.659   8.710 -0.3623 -0.2372 -0.2192
 3880SOL    HW123099   0.477   1.715   8.776 -1.1512 -0.5141  0.4967
 3880SOL    HW223100   0.514   1.637   8.657 -0.2980  3.1226 -1.4989
 3881SOL     OW23101   3.161   0.738   0.876  0.0456 -0.6879 -0.1515
 3881SOL    HW123102   3.139   0.720   0.785  0.5200  1.1029 -0.6190
 3881SOL    HW223103   3.226   0.669   0.889 -2.0374 -2.7443 -0.6498
 3882SOL     OW23104   1.497   3.932   4.879 -0.4044  0.0640 -0.3899
 3882SOL    HW123105   1.427   3.889   4.928  0.4785 -2.7823 -1.5989
 3882SOL    HW223106   1.443   3.983   4.819  0.1848  1.4609  0.2824
 3883SOL     OW23107   2.425   0.871  10.161  0.2970  0.1514 -0.3434
 3883SOL    HW123108   2.377   0.929  10.220 -2.4787 -4.1327  1.6559
 3883SOL    HW223109   2.512   0.872  10.200  0.0507  2.2801  0.1371
 3884SOL     OW23110   1.956   2.951   5.436  0.0992  0.2225  0.1479
 3884SOL    HW123111   2.029   2.925   5.494 -0.0712 -1.3736 -0.3455
 3884SOL    HW223112   1.917   2.863   5.438  0.9473 -0.1678 -0.1914
 3885SOL     OW23113   0.863   4.024   8.870  0.6266 -0.4567 -0.2655
 3885SOL    HW123114   0.799   3.961   8.904  1.3621 -0.4166  1.1785
 3885SOL    HW223115   0.836   4.017   8.778  0.0670  0.6894 -0.1855
 3886SOL     OW23116   3.294   3.230  17.019 -0.0626  0.0280  0.0720
 3886SOL    HW123117   3.258   3.157  16.968 -0.9784 -1.7413  3.2531
 3886SOL    HW223118   3.277   3.192  17.105 -0.9078  0.6512  0.1792
 3887SOL     OW23119   4.542   4.208  12.162  0.2000  0.0175  0.5772
 3887SOL    HW123120   4.550   4.226  12.069  1.7009 -2.2051  0.2651
 3887SOL    HW223121   4.552   4.113  12.165 -0.0363  0.0194  1.3833
 3888SOL     OW23122   4.664   4.103   5.382 -0.0678  0.7150  0.6677
 3888SOL    HW123123   0.021   4.158   5.401  0.9754  0.7968 -3.7996
 3888SOL    HW223124   4.592   4.138   5.434  0.9580  3.5746  0.1736
 3889SOL     OW23125   0.213   4.669   6.199  0.8251  0.6607  0.6139
 3889SOL    HW123126   0.297   4.702   6.169  0.7201  0.6089  0.2595
 3889SOL    HW223127   0.228   4.666   6.294  4.0567  0.5108  0.0913
 3890SOL     OW23128   0.223   0.338  10.977 -0.9139 -0.0879  0.3798
 3890SOL    HW123129   0.268   0.391  10.911 -0.6881 -0.8457 -0.0797
 3890SOL    HW223130   0.297   0.283  11.003 -1.1227 -1.1809 -1.3169
 3891SOL     OW23131   3.578   3.555   2.812  0.6329  0.4598 -0.0796
 3891SOL    HW123132   3.662   3.516   2.785 -0.2631  0.6771 -3.1729
 3891SOL    HW223133   3.581   3.564   2.907  1.6534 -0.7610  0.0146
 3892SOL     OW23134   4.104   2.717   2.937 -0.2152  0.3147  0.2216
 3892SOL    HW123135   4.059   2.678   3.012 -0.5595 -0.8912 -0.6234
 3892SOL    HW223136   4.154   2.794   2.965  0.3873 -0.0581  0.1543
 3893SOL     OW23137   2.010   3.627  13.389  0.1113  0.4560 -0.2237
 3893SOL    HW123138   2.016   3.583  13.474  1.0475 -1.7059 -1.4163
 3893SOL    HW223139   1.929   3.677  13.398 -0.4525 -0.5356  0.1901
 3894SOL     OW23140   4.219   2.495   9.403 -0.1982  1.1703 -0.3509
 3894SOL    HW123141   4.154   2.441   9.449 -0.3883  2.4868  0.9175
 3894SOL    HW223142   4.170   2.501   9.321  0.9044  3.2969 -0.8539
 3895SOL     OW23143   3.693   3.172   5.673 -0.5148  0.4396  0.4946
 3895SOL    HW123144   3.741   3.252   5.695  0.8571 -0.2825  0.1331
 3895SOL    HW223145   3.614   3.201   5.628 -0.5474 -1.5528 -0.6973
 3896SOL     OW23146   2.971   1.381  14.671  0.2168  0.1876  0.4676
 3896SOL    HW123147   2.882   1.348  14.682  0.6303 -1.8013 -2.0001
 3896SOL    HW223148   2.958   1.472  14.696  1.8665  0.3301  0.8338
 3897SOL     OW23149   2.503   4.184  13.267  0.4627  0.0281 -0.3401
 3897SOL    HW123150   2.499   4.276  13.295  3.1992  0.1966 -0.4825
 3897SOL    HW223151   2.411   4.158  13.274  1.1084 -1.8687  1.1378
 3898SOL     OW23152   4.661   0.832  17.358  0.4754  0.1227  0.2860
 3898SOL    HW123153   4.688   0.843  17.267  2.0180  1.0709  0.8433
 3898SOL    HW223154   4.603   0.907  17.368 -1.2762 -0.9783 -1.6098
 3899SOL     OW23155   0.541   3.331   2.304 -0.1169 -0.0174 -0.4323
 3899SOL    HW123156   0.468   3.284   2.264  0.2374 -0.6900 -0.2915
 3899SOL    HW223157   0.500   3.364   2.384 -0.1797 -1.9030  0.3253
 3900SOL     OW23158   3.803   3.216   2.032 -0.2275 -0.1167 -0.5721
 3900SOL    HW123159   3.720   3.180   2.002 -0.7003 -0.0497  0.6494
 3900SOL    HW223160   3.796   3.303   2.073  0.0020  0.5016 -1.8498
 3901SOL     OW23161   2.901   0.781  15.200  0.4884  0.1237 -0.0017
 3901SOL    HW123162   2.954   0.717  15.152  0.2095 -0.0826 -0.0369
 3901SOL    HW223163   2.969   0.834  15.242  1.1595  0.5814 -1.6499
 3902SOL     OW23164   3.646   2.148   1.943  0.6593 -0.0470 -0.2518
 3902SOL    HW123165   3.664   2.070   1.890  0.8924 -0.7578  0.8888
 3902SOL    HW223166   3.551   2.154   1.929  0.3693  1.7586  2.4768
 3903SOL     OW23167   0.289   4.228  12.685  0.5320  0.2102  0.3085
 3903SOL    HW123168   0.278   4.313  12.642 -2.8486 -0.6896 -0.5855
 3903SOL    HW223169   0.291   4.253  12.777  0.9545  1.5025 -0.0463
 3904SOL     OW23170   1.231   4.325   8.249  0.3671  0.1080 -0.2159
 3904SOL    HW123171   1.227   4.414   8.213  0.7120  0.9774  1.9098
 3904SOL    HW223172   1.309   4.285   8.210 -0.6000  1.2163 -3.2818
 3905SOL     OW23173   0.892   0.105   5.979  0.2985  0.7222 -0.2921
 3905SOL    HW123174   0.927   0.018   5.996  1.9020  1.5662  0.7053
 3905SOL    HW223175   0.973   0.145   5.946  1.3675 -1.4374 -0.2427
 3906SOL     OW23176   3.658   2.207   5.806  0.0710 -0.1128 -0.0158
 3906SOL    HW123177   3.683   2.297   5.827 -2.3381  0.6574 -0.3748
 3906SOL    HW223178   3.626   2.207   5.715 -0.3429 -0.0154  0.1283
 3907SOL     OW23179   2.218   2.774   2.925  0.0940 -0.0579  0.5918
 3907SOL    HW123180   2.136   2.823   2.935  0.6930  0.6730  1.9358
 3907SOL    HW223181   2.198   2.741   2.837 -0.7807  0.2360  0.6841
 3908SOL     OW23182   1.240   0.150   8.686  0.3166  0.1407 -0.2725
 3908SOL    HW123183   1.237   0.143   8.781 -0.3053  1.3759 -0.1967
 3908SOL    HW223184   1.331   0.175   8.665  1.3159 -1.1250  2.5463
 3909SOL     OW23185   3.171   3.957   7.686 -0.4761  0.1820  0.2628
 3909SOL    HW123186   3.158   3.975   7.593 -2.7325 -0.8941  0.3699
 3909SOL    HW223187   3.265   3.938   7.688 -0.0762  1.9656 -1.5137
 3910SOL     OW23188   1.681   4.524   5.470  0.4304 -0.3341  0.1358
 3910SOL    HW123189   1.770   4.539   5.503  1.5048  0.8400 -3.2923
 3910SOL    HW223190   1.680   4.578   5.391  0.1982  0.2960  0.5658
 3911SOL     OW23191   1.974   3.999   9.022 -0.4067 -0.1267  0.0233
 3911SOL    HW123192   1.905   4.061   9.044  0.4100  0.3551  1.2423
 3911SOL    HW223193   1.922   3.948   8.960  0.0710 -0.4219 -0.1337
 3912SOL     OW23194   1.293   1.877   9.950 -0.1412  0.2495  0.6562
 3912SOL    HW123195   1.254   1.820  10.017 -0.5536 -0.9532 -0.6036
 3912SOL    HW223196   1.383   1.872   9.984 -0.2357 -3.8930  0.3245
 3913SOL     OW23197   1.704   0.897  16.863 -0.1575 -0.7775  0.1928
 3913SOL    HW123198   1.664   0.984  16.858  1.0838 -0.2483 -0.3130
 3913SOL    HW223199   1.732   0.906  16.954 -0.8437 -0.8336  0.4147
 3914SOL     OW23200   3.873   0.210   2.617  0.0141 -0.2076 -0.3887
 3914SOL    HW123201   3.953   0.249   2.581  0.4489  0.0696  0.8588
 3914SOL    HW223202   3.826   0.192   2.536  0.8272  0.0133 -0.9072
 3915SOL     OW23203   1.612   2.937   7.699  0.1410 -0.2527  0.2237
 3915SOL    HW123204   1.612   3.030   7.677 -0.2308 -1.1568 -3.7347
 3915SOL    HW223205   1.538   2.928   7.759  0.4954 -2.1835  0.3813
 3916SOL     OW23206   0.898   1.717   5.921  0.1399 -0.3008  0.5755
 3916SOL    HW123207   0.872   1.786   5.859 -1.3745 -0.0675  1.4614
 3916SOL    HW223208   0.913   1.762   6.004  0.5907 -1.6856  1.2404
 3917SOL     OW23209   4.579   2.585  14.728  0.0348 -0.0128  0.2346
 3917SOL    HW123210   4.516   2.638  14.679  1.5858  1.2205 -0.4126
 3917SOL    HW223211   4.532   2.594  14.811 -0.6921 -3.3931  0.1834
 3918SOL     OW23212   2.773   3.441   6.957 -0.2069  0.1747 -0.4146
 3918SOL    HW123213   2.833   3.464   7.029 -0.6689 -2.7834  0.8822
 3918SOL    HW223214   2.743   3.528   6.932 -1.0544  0.4953  1.7311
 3919SOL     OW23215   3.651   0.694   4.192 -0.2185  0.0466 -0.3230
 3919SOL    HW123216   3.678   0.756   4.260  2.4903 -1.3708 -0.0886
 3919SOL    HW223217   3.567   0.671   4.231  0.2260 -1.1017 -0.0243
 3920SOL     OW23218   0.877   0.883   1.995  0.3596  0.1085 -0.5271
 3920SOL    HW123219   0.862   0.855   2.086  0.5352  1.5114 -0.0601
 3920SOL    HW223220   0.968   0.859   1.979  0.2910 -1.2095  1.0364
 3921SOL     OW23221   1.373   1.447   5.058 -0.0156  0.3217  0.3172
 3921SOL    HW123222   1.324   1.472   5.136 -3.5825  0.8600 -2.0757
 3921SOL    HW223223   1.445   1.509   5.068 -1.0042  1.2521  1.8237
 3922SOL     OW23224   4.625   3.685   2.198  0.0359  0.3562 -0.4186
 3922SOL    HW123225   4.591   3.734   2.122 -1.2011  2.2379  1.3502
 3922SOL    HW223226   4.611   3.600   2.155 -0.5737  0.4292 -0.3764
 3923SOL     OW23227   1.551   4.238  14.047 -0.3444  0.6160  0.0925
 3923SOL    HW123228   1.520   4.149  14.030 -0.4404  0.8699 -1.0127
 3923SOL    HW223229   1.628   4.221  14.102  1.0407  2.5760 -1.2447
 3924SOL     OW23230   0.463   1.904  13.626  0.0030  0.0538  0.1652
 3924SOL    HW123231   0.512   1.888  13.707  0.4757 -1.8641 -0.5237
 3924SOL    HW223232   0.382   1.856  13.639  0.1403  0.1105  1.2399
 3925SOL     OW23233   0.958   2.160   3.196  0.0462 -1.0520 -0.3979
 3925SOL    HW123234   0.938   2.172   3.289 -0.7972  2.0643 -1.0008
 3925SOL    HW223235   0.903   2.228   3.158  1.2340  0.5085  0.6763
 3926SOL     OW23236   2.332   4.501   5.563  0.4292  0.5095  0.5930
 3926SOL    HW123237   2.410   4.554   5.547  0.5446  0.2667  0.3543
 3926SOL    HW223238   2.292   4.530   5.645  1.2902 -1.9630  1.9078
 3927SOL     OW23239   0.344   1.499   3.015 -0.3138 -0.6220 -0.2058
 3927SOL    HW123240   0.258   1.497   2.973  0.9416  0.9113 -2.8191
 3927SOL    HW223241   0.340   1.410   3.052  1.4764 -1.6171 -2.4121
 3928SOL     OW23242   0.286   2.425   9.159  0.1930  0.1918 -0.1117
 3928SOL    HW123243   0.199   2.396   9.186 -0.0337 -0.5495 -1.6562
 3928SOL    HW223244   0.269   2.519   9.152  0.7269  0.2011 -1.3706
 3929SOL     OW23245   1.567   1.259  10.407 -0.2986 -0.0612 -0.0591
 3929SOL    HW123246   1.479   1.273  10.373  0.2390  1.9837 -0.5968
 3929SOL    HW223247   1.552   1.216  10.491  2.3871  0.6117  0.7754
 3930SOL     OW23248   0.916   3.076  14.960 -0.1007 -0.5980 -0.0957
 3930SOL    HW123249   0.863   3.121  14.894  0.5793 -1.1811 -1.0526
 3930SOL    HW223250   0.999   3.124  14.957 -0.3026 -0.3192 -1.3334
 3931SOL     OW23251   1.108   4.576  14.274 -0.3844  0.4168 -0.4243
 3931SOL    HW123252   1.090   4.655  14.223  0.0649 -0.5096 -2.0135
 3931SOL    HW223253   1.198   4.557  14.249 -0.2499  0.5512 -0.0468
 3932SOL     OW23254   4.006   2.029   7.999 -0.2157 -0.2140  0.8264
 3932SOL    HW123255   4.005   1.991   7.912  1.8700  1.9926 -0.1634
 3932SOL    HW223256   3.994   2.122   7.981  1.8771 -0.0723  0.1167
 3933SOL     OW23257   4.204   3.649   6.653  0.2062 -1.0108  0.4049
 3933SOL    HW123258   4.288   3.650   6.606 -1.1506  0.3407 -1.9608
 3933SOL    HW223259   4.234   3.634   6.743 -0.6015  1.5156  1.0792
 3934SOL     OW23260   1.040   0.179   5.010 -0.6065 -0.3294  0.0784
 3934SOL    HW123261   1.062   0.132   4.929  0.3086 -1.8359  1.1839
 3934SOL    HW223262   1.038   0.113   5.080 -0.4017 -0.1559  0.2491
 3935SOL     OW23263   0.611   4.445   2.539 -0.2115  0.2928 -0.2470
 3935SOL    HW123264   0.602   4.438   2.444  1.4790 -0.6046 -0.3491
 3935SOL    HW223265   0.562   4.369   2.570  2.5128 -1.7363 -0.9013
 3936SOL     OW23266   0.369   2.890   9.062 -0.4359 -0.5303  0.0048
 3936SOL    HW123267   0.442   2.923   9.114  0.0713 -1.6518  0.0142
 3936SOL    HW223268   0.376   2.945   8.984  0.1539  1.0043  1.1639
 3937SOL     OW23269   3.303   3.361   2.168  0.2543  0.0893  0.3541
 3937SOL    HW123270   3.331   3.448   2.140 -0.9277  0.9695  1.8437
 3937SOL    HW223271   3.387   3.317   2.181 -0.5343 -1.1723  1.2387
 3938SOL     OW23272   3.061   3.793   3.938 -0.0029 -0.0853 -0.5386
 3938SOL    HW123273   3.137   3.845   3.965  0.7099 -0.6151 -1.4934
 3938SOL    HW223274   3.110   3.746   3.869 -0.4310  1.1319 -1.6744
 3939SOL     OW23275   3.539   4.475   7.056  0.1059  0.5677  0.2512
 3939SOL    HW123276   3.593   4.396   7.056  1.6936  1.6550  0.1778
 3939SOL    HW223277   3.602   4.541   7.083  1.5683 -1.0784  0.8972
 3940SOL     OW23278   1.661   0.243  13.082 -0.6976  0.1801 -0.3321
 3940SOL    HW123279   1.749   0.208  13.095 -0.1939  1.6917  0.2638
 3940SOL    HW223280   1.687   0.328  13.045 -0.5346 -0.1063 -0.8701
 3941SOL     OW23281   3.198   1.868  17.058 -0.0057  0.3520  0.4741
 3941SOL    HW123282   3.176   1.814  16.983 -1.0418 -1.2085  1.9106
 3941SOL    HW223283   3.175   1.812  17.132 -3.3396  1.9301  0.6411
 3942SOL     OW23284   1.299   2.674   6.387 -0.1584  0.2543  0.4588
 3942SOL    HW123285   1.248   2.642   6.461  0.8490  1.3002  1.5989
 3942SOL    HW223286   1.248   2.655   6.308  0.1136 -3.2829  1.1356
 3943SOL     OW23287   3.031   0.595   8.679  0.3996  0.1969  0.5183
 3943SOL    HW123288   3.008   0.502   8.685 -1.4897  0.5140 -1.4833
 3943SOL    HW223289   2.942   0.624   8.656  1.0925  1.4545 -0.5676
 3944SOL     OW23290   3.771   2.002   6.625 -0.0572 -0.2675 -0.2174
 3944SOL    HW123291   3.678   1.992   6.603 -0.7321  5.6340  0.0035
 3944SOL    HW223292   3.762   1.981   6.718 -3.4022 -0.1541 -0.5073
 3945SOL     OW23293   4.417   1.373   8.820  0.4851 -0.3803  0.9966
 3945SOL    HW123294   4.453   1.374   8.732  0.6508 -1.4677  1.0477
 3945SOL    HW223295   4.477   1.438   8.857 -0.5474 -0.0841  2.1434
 3946SOL     OW23296   0.507   2.621   6.191  0.4310  0.3693 -0.0942
 3946SOL    HW123297   0.505   2.550   6.255  1.4673 -1.0118 -1.6113
 3946SOL    HW223298   0.462   2.687   6.244 -1.0368 -0.5627 -0.1793
 3947SOL     OW23299   3.651   0.327  13.277 -0.3591 -0.2923 -0.4729
 3947SOL    HW123300   3.575   0.338  13.334  2.6478  1.1610  3.2827
 3947SOL    HW223301   3.725   0.356  13.330  2.6381 -1.9440 -3.8081
 3948SOL     OW23302   2.179   4.624  13.770 -0.4507  0.0697  0.1893
 3948SOL    HW123303   2.141   4.580  13.694 -0.7276 -1.3588  1.1470
 3948SOL    HW223304   2.109   4.642  13.833  0.6404 -0.3729  1.5454
 3949SOL     OW23305   3.443   4.587   3.416 -0.7789 -0.4131  0.0285
 3949SOL    HW123306   3.412   4.581   3.506 -1.6415 -0.0604 -0.2480
 3949SOL    HW223307   3.405   4.670   3.388 -0.3203 -0.2740 -0.1934
 3950SOL     OW23308   0.598   3.987  17.046  0.7198 -0.4095  0.1617
 3950SOL    HW123309   0.521   3.960  17.096  0.9967 -2.2115 -0.3873
 3950SOL    HW223310   0.667   3.973  17.111  3.4222 -1.5133 -2.9704
 3951SOL     OW23311   2.979   0.985   9.246  0.3947 -0.7198 -0.1848
 3951SOL    HW123312   2.941   0.901   9.219 -1.9671  0.9188 -1.9252
 3951SOL    HW223313   3.030   1.018   9.172  1.0348 -0.3141  0.4412
 3952SOL     OW23314   2.272   4.453   0.627 -0.0658  0.2432 -0.6706
 3952SOL    HW123315   2.365   4.472   0.642 -0.4834  2.1721 -0.5202
 3952SOL    HW223316   2.268   4.439   0.532 -0.2468  1.3923 -0.8355
 3953SOL     OW23317   2.812   3.271   4.968 -0.1368 -0.2639  0.3818
 3953SOL    HW123318   2.818   3.286   4.874 -0.0452 -0.5906  0.3357
 3953SOL    HW223319   2.726   3.310   4.984  0.2835  0.1358  1.7261
 3954SOL     OW23320   2.839   2.932   9.072 -0.9180  0.4032 -0.2495
 3954SOL    HW123321   2.817   3.025   9.069 -0.9615  0.3826 -0.6070
 3954SOL    HW223322   2.780   2.904   9.002 -0.1744  0.3027 -0.8354
 3955SOL     OW23323   4.684   1.847   8.870 -0.1497  0.3659 -0.4197
 3955SOL    HW123324   0.007   1.889   8.946 -1.4998 -0.1523  0.6235
 3955SOL    HW223325   0.016   1.767   8.859 -2.1487 -1.1920  1.5002
 3956SOL     OW23326   0.646   1.804   4.208 -0.1603 -0.2040 -0.2733
 3956SOL    HW123327   0.732   1.768   4.187 -1.0150 -0.7699 -2.8594
 3956SOL    HW223328   0.602   1.728   4.247 -1.3769 -0.1608 -1.5463
 3957SOL     OW23329   0.813   0.562   7.432 -0.2347 -0.1563 -0.3846
 3957SOL    HW123330   0.767   0.596   7.355 -0.6697 -0.7936 -0.4092
 3957SOL    HW223331   0.809   0.469   7.412 -0.2974  0.3380 -2.6970
 3958SOL     OW23332   1.060   0.758   4.789 -0.7718 -0.2304 -0.3557
 3958SOL    HW123333   1.010   0.681   4.816 -0.7455 -0.7161 -1.7110
 3958SOL    HW223334   0.995   0.828   4.777 -0.1090  0.2161 -1.3540
 3959SOL     OW23335   0.166   0.083   8.972  0.1522 -0.1022 -0.7638
 3959SOL    HW123336   0.202   0.121   8.891 -0.5532  2.1819 -0.0103
 3959SOL    HW223337   0.225   0.010   8.993 -0.3195  0.0932  1.2246
 3960SOL     OW23338   1.817   1.857   9.142 -0.8073  0.0040 -0.0788
 3960SOL    HW123339   1.848   1.835   9.230  3.4880  3.1430 -0.8539
 3960SOL    HW223340   1.749   1.789   9.135 -0.7721 -0.0109 -0.2768
 3961SOL     OW23341   4.278   3.012   2.855  0.2113  0.3843 -0.0306
 3961SOL    HW123342   4.206   3.036   2.796 -0.0569  0.8558  0.4932
 3961SOL    HW223343   4.346   2.967   2.806 -0.1324 -1.4894  1.1869
 3962SOL     OW23344   3.105   2.164   1.339  0.3544  0.1096  0.7546
 3962SOL    HW123345   3.105   2.254   1.306  2.8526  0.1502  0.9003
 3962SOL    HW223346   3.115   2.113   1.259  2.4237 -0.8551  1.6432
 3963SOL     OW23347   2.156   1.006  14.347  0.1059 -0.8041 -0.1527
 3963SOL    HW123348   2.105   1.083  14.323  0.0439 -0.1594  2.0233
 3963SOL    HW223349   2.219   1.039  14.411 -1.1633 -2.1506  1.8136
 3964SOL     OW23350   3.621   2.150   0.854 -0.3219  0.2401 -0.1584
 3964SOL    HW123351   3.640   2.201   0.933  3.6217 -0.9433 -0.3729
 3964SOL    HW223352   3.682   2.077   0.864 -1.1596 -0.2478  1.5818
 3965SOL     OW23353   1.497   0.248   4.970 -0.0726 -0.2881 -0.1255
 3965SOL    HW123354   1.492   0.153   4.963  0.7190 -0.2210 -1.6398
 3965SOL    HW223355   1.475   0.280   4.882  0.1923 -0.2937 -0.1936
 3966SOL     OW23356   0.349   1.967  17.518  0.1931 -0.0332  0.3544
 3966SOL    HW123357   0.366   2.050  17.474  1.0329  0.3888  1.4898
 3966SOL    HW223358   0.399   1.907  17.463  1.2848 -1.8455  3.3436
 3967SOL     OW23359   4.406   3.683   6.451 -0.7210  0.2323  0.0401
 3967SOL    HW123360   4.389   3.729   6.369  0.0400 -0.6017 -0.5867
 3967SOL    HW223361   4.456   3.609   6.417  0.0041 -0.3331  2.3124
 3968SOL     OW23362   4.287   0.061   6.955  0.0090  0.2263  0.8818
 3968SOL    HW123363   4.207   0.105   6.926  0.1880 -0.8416 -1.2730
 3968SOL    HW223364   4.322   0.120   7.021  1.1124 -0.8870  1.3065
 3969SOL     OW23365   0.986   4.423   9.045 -0.9504  0.1789  0.4253
 3969SOL    HW123366   0.902   4.410   9.001  0.5857 -0.5711 -2.3472
 3969SOL    HW223367   1.005   4.340   9.088  0.0047 -0.1964 -0.7247
 3970SOL     OW23368   3.830   1.550   7.543  0.1506 -0.0728 -0.2430
 3970SOL    HW123369   3.895   1.486   7.571  3.5431  2.4090 -2.4373
 3970SOL    HW223370   3.883   1.591   7.475 -1.2726  0.3173 -1.1153
 3971SOL     OW23371   2.679   4.668  10.827  0.3038  0.0205 -0.2159
 3971SOL    HW123372   2.769   4.636  10.837  0.1465 -0.0149  1.0810
 3971SOL    HW223373   2.624   4.590  10.823  2.8788 -1.8455  0.4065
 3972SOL     OW23374   4.252   2.752   8.040 -0.0119 -0.4363 -0.6769
 3972SOL    HW123375   4.224   2.774   8.128 -3.6581 -1.4822 -1.5662
 3972SOL    HW223376   4.167   2.725   8.005  0.2980  0.4533 -2.1174
 3973SOL     OW23377   4.364   4.348   3.991  0.0829 -0.6547 -0.7749
 3973SOL    HW123378   4.384   4.290   4.065 -0.6249 -0.0369 -0.0971
 3973SOL    HW223379   4.450   4.390   3.990 -0.8477  1.2714 -0.0314
 3974SOL     OW23380   4.317   2.101   2.124  0.1878 -0.2783 -0.3550
 3974SOL    HW123381   4.373   2.127   2.197 -1.5523 -0.3728  1.0247
 3974SOL    HW223382   4.272   2.182   2.101  0.3405 -0.0893  0.0103
 3975SOL     OW23383   3.987   1.740   6.757  0.0667 -0.1840 -0.0997
 3975SOL    HW123384   3.935   1.739   6.677 -1.7204 -3.1006  1.0868
 3975SOL    HW223385   3.948   1.812   6.806 -1.6527 -0.4339 -1.0849
 3976SOL     OW23386   4.386   0.270   8.959  0.1464 -0.5335 -0.0723
 3976SOL    HW123387   4.334   0.296   9.034  1.7405  1.2281  0.4332
 3976SOL    HW223388   4.465   0.257   9.011 -2.2226 -3.0772  2.8434
 3977SOL     OW23389   0.653   4.442   4.385 -0.3580 -0.4829 -0.1367
 3977SOL    HW123390   0.675   4.484   4.302 -0.0150  0.0438  0.2187
 3977SOL    HW223391   0.712   4.493   4.441 -0.9847  1.5744 -1.3626
 3978SOL     OW23392   2.553   2.702   8.583 -0.1190 -0.2384  0.0585
 3978SOL    HW123393   2.511   2.726   8.501 -0.0516  0.6193  0.2790
 3978SOL    HW223394   2.478   2.669   8.632 -1.6761  1.4030 -1.2343
 3979SOL     OW23395   3.444   2.118   4.562 -0.4264  0.3625  0.0317
 3979SOL    HW123396   3.417   2.142   4.473 -0.1969 -0.5898 -0.2915
 3979SOL    HW223397   3.493   2.038   4.544  1.8392  1.7174  0.1377
 3980SOL     OW23398   2.123   1.512  10.270  0.3136  0.3999 -0.5770
 3980SOL    HW123399   2.096   1.596  10.308 -2.9379 -0.4957 -0.9512
 3980SOL    HW223400   2.180   1.483  10.341  1.6380  1.6258 -1.1147
 3981SOL     OW23401   2.757   0.941  15.026  0.6424 -0.6684  0.3627
 3981SOL    HW123402   2.670   0.904  15.043  1.4159 -2.9942 -0.7865
 3981SOL    HW223403   2.800   0.907  15.104  0.0492 -0.4727  0.7773
 3982SOL     OW23404   0.667   3.985   6.150 -0.7106 -0.1672  0.4876
 3982SOL    HW123405   0.711   3.922   6.207 -0.2721 -0.4735 -0.2032
 3982SOL    HW223406   0.576   3.956   6.158 -0.5297  0.2940  4.1346
 3983SOL     OW23407   0.643   2.105  17.407 -0.3372 -0.1549  0.1144
 3983SOL    HW123408   0.636   2.020  17.364 -2.3648  0.6804 -1.1706
 3983SOL    HW223409   0.554   2.137  17.391  0.1817  0.7681 -0.8869
 3984SOL     OW23410   0.391   0.163   4.423 -0.2395 -0.3172 -0.5195
 3984SOL    HW123411   0.483   0.141   4.431 -0.1506  0.0505 -0.4974
 3984SOL    HW223412   0.381   0.194   4.333  2.0733 -0.1297 -0.7039
 3985SOL     OW23413   0.141   1.183   0.788  0.4000 -0.5670 -0.2751
 3985SOL    HW123414   0.182   1.204   0.704 -0.5676 -0.0632 -0.6274
 3985SOL    HW223415   0.201   1.117   0.823  2.0295  0.9390 -0.2598
 3986SOL     OW23416   1.663   0.386   6.342 -0.2798 -0.3135 -0.4702
 3986SOL    HW123417   1.754   0.373   6.315  0.2145  0.0968  1.0080
 3986SOL    HW223418   1.627   0.304   6.308  0.7253 -0.7898 -0.3970
 3987SOL     OW23419   3.477   2.964   4.119  0.4372 -0.1066 -0.0574
 3987SOL    HW123420   3.413   3.025   4.083 -1.5685 -0.1438  3.4534
 3987SOL    HW223421   3.424   2.885   4.113  2.3107 -1.3157 -0.4607
 3988SOL     OW23422   3.396   0.780   1.442 -0.0075 -0.0495 -0.1416
 3988SOL    HW123423   3.481   0.774   1.485 -0.1249  1.2866  0.2994
 3988SOL    HW223424   3.406   0.721   1.368 -0.2822  0.0928 -0.2912
 3989SOL     OW23425   0.967   0.364   7.996  0.0601  0.0795 -0.0827
 3989SOL    HW123426   0.881   0.340   8.029 -0.9187  0.8555 -2.0692
 3989SOL    HW223427   1.006   0.279   7.975 -0.3669  0.3201 -1.8797
 3990SOL     OW23428   2.622   4.458   7.049 -0.0747  0.5503 -0.2936
 3990SOL    HW123429   2.580   4.411   7.121  0.1454  1.2817  0.3114
 3990SOL    HW223430   2.617   4.386   6.986  1.0069  1.5693 -1.5412
 3991SOL     OW23431   4.634   3.591   6.941  0.6845  0.2753 -0.4712
 3991SOL    HW123432   4.563   3.565   7.000 -0.2879  1.1415 -1.2467
 3991SOL    HW223433   4.636   3.522   6.874  0.1170 -0.5202  0.3313
 3992SOL     OW23434   0.126   0.309   1.027 -0.3858  0.4254 -0.0158
 3992SOL    HW123435   0.118   0.267   1.112  1.8314 -2.1701 -1.1009
 3992SOL    HW223436   0.198   0.367   1.051  0.5390 -0.8317  0.2812
 3993SOL     OW23437   2.014   3.690   1.782  0.0303 -0.3272  0.1701
 3993SOL    HW123438   2.036   3.781   1.763 -0.8157  0.1116  1.3070
 3993SOL    HW223439   1.985   3.650   1.700  1.4557 -2.3832  0.6535
 3994SOL     OW23440   2.348   3.411  10.737 -0.2000  0.4402 -0.1539
 3994SOL    HW123441   2.293   3.332  10.731 -1.6801  1.3666  1.2453
 3994SOL    HW223442   2.397   3.399  10.819 -1.0073  1.8188  0.5252
 3995SOL     OW23443   3.955   3.983   2.584 -1.0051  0.4229 -0.0879
 3995SOL    HW123444   3.894   3.922   2.626 -0.3121  1.1428  1.9293
 3995SOL    HW223445   3.912   4.067   2.600 -1.6089  0.4666 -1.8662
 3996SOL     OW23446   1.354   2.031   6.870  0.3804 -0.5199 -0.3295
 3996SOL    HW123447   1.426   2.027   6.932  1.7833 -0.1247 -1.9352
 3996SOL    HW223448   1.287   1.972   6.904  1.9840 -0.1265  3.4726
 3997SOL     OW23449   1.822   4.187   5.706 -0.1455 -0.3034  0.2538
 3997SOL    HW123450   1.821   4.201   5.801 -0.1043  0.7768  0.0881
 3997SOL    HW223451   1.854   4.271   5.675 -2.8690  0.8944  0.7127
 3998SOL     OW23452   1.534   4.647  16.950  0.2284 -0.3988  0.0200
 3998SOL    HW123453   1.624   4.650  16.917 -0.0621 -2.6477 -1.0205
 3998SOL    HW223454   1.535   0.017  16.984  0.9888 -0.0318 -0.9585
 3999SOL     OW23455   2.166   1.091   3.397  0.1636  0.3810  0.7032
 3999SOL    HW123456   2.088   1.126   3.355  1.0328  1.4829  0.0392
 3999SOL    HW223457   2.150   1.088   3.492 -0.7146 -1.8206  0.5029
 4000SOL     OW23458   1.004   1.403   5.032  0.1012  0.0966  0.1520
 4000SOL    HW123459   0.943   1.470   5.063  1.1808  1.1510 -0.0068
 4000SOL    HW223460   1.046   1.365   5.110  0.9132  0.2911 -0.1881
 4001SOL     OW23461   1.214   1.375   2.772  0.2493 -0.0799 -0.2994
 4001SOL    HW123462   1.162   1.406   2.845  2.4184 -0.4176  1.3714
 4001SOL    HW223463   1.143   1.329   2.727 -0.4701  0.1901  0.5654
 4002SOL     OW23464   2.918   4.684   3.281 -0.3520  0.8337 -0.0418
 4002SOL    HW123465   2.983   4.660   3.347 -0.3826  2.5722  0.6263
 4002SOL    HW223466   2.914   4.602   3.231  0.1467  0.6154  0.2785
 4003SOL     OW23467   2.632   3.136   5.365 -0.1363  0.1180 -0.2183
 4003SOL    HW123468   2.591   3.102   5.286 -2.1291  1.0537  0.4238
 4003SOL    HW223469   2.718   3.154   5.325 -0.3864  2.0645  0.1021
 4004SOL     OW23470   0.284   0.891   7.975  0.2126  0.1119  0.4118
 4004SOL    HW123471   0.375   0.883   8.003  0.0165  0.6226  1.1958
 4004SOL    HW223472   0.289   0.926   7.886  2.3250  2.2943  1.3937
 4005SOL     OW23473   4.255   0.393  11.506 -0.5721  0.2702 -0.1304
 4005SOL    HW123474   4.309   0.360  11.435  0.7601  1.0829  0.5109
 4005SOL    HW223475   4.168   0.397  11.465 -1.9203 -1.7225  2.5613
 4006SOL     OW23476   4.216   1.521   7.293 -0.0955 -0.3016 -0.2244
 4006SOL    HW123477   4.241   1.430   7.304 -0.6653 -0.6886 -2.1554
 4006SOL    HW223478   4.157   1.512   7.218  0.3245 -2.6685 -0.2590
 4007SOL     OW23479   1.532   3.665   6.052 -0.6809 -0.2097 -0.5338
 4007SOL    HW123480   1.463   3.730   6.059 -0.1086  0.7051 -3.3815
 4007SOL    HW223481   1.591   3.694   6.121 -0.9795  0.1569 -0.4376
 4008SOL     OW23482   4.697   2.827   1.643  0.7046 -0.0537  0.0346
 4008SOL    HW123483   4.614   2.783   1.663  1.6927 -1.3846  1.1356
 4008SOL    HW223484   0.029   2.796   1.717  0.4567 -0.8197 -0.1180
 4009SOL     OW23485   0.324   2.489   9.526  0.1521  0.7125 -0.3798
 4009SOL    HW123486   0.246   2.435   9.511 -1.1108  1.7848  2.2575
 4009SOL    HW223487   0.289   2.553   9.589 -1.9315  1.1143 -1.9572
 4010SOL     OW23488   0.967   3.711   7.789 -0.0371 -0.0975 -0.2439
 4010SOL    HW123489   0.926   3.796   7.804  0.4866 -0.1205  1.2835
 4010SOL    HW223490   1.000   3.688   7.875  0.2101  0.0676 -0.2949
 4011SOL     OW23491   0.557   0.353  12.746  0.0024  0.0720  0.5329
 4011SOL    HW123492   0.490   0.287  12.728  0.7843 -0.4696 -0.3845
 4011SOL    HW223493   0.549   0.398  12.662  0.0498  0.8151  0.9221
 4012SOL     OW23494   4.290   1.283   2.895  0.7897  0.3589 -0.0749
 4012SOL    HW123495   4.232   1.350   2.931  0.0410  0.9332 -2.3430
 4012SOL    HW223496   4.345   1.262   2.971 -0.9916 -0.9877  0.8321
 4013SOL     OW23497   2.357   1.247  11.583 -0.0916  0.4839  0.4062
 4013SOL    HW123498   2.264   1.267  11.593 -0.2662  0.6922 -1.8091
 4013SOL    HW223499   2.361   1.239  11.488  4.1373  0.0168  0.6099
 4014SOL     OW23500   3.039   0.728   4.351  0.2132  0.6454  0.3762
 4014SOL    HW123501   3.048   0.713   4.257 -1.8720  0.9296  0.1326
 4014SOL    HW223502   2.995   0.646   4.374  1.0039 -0.5780 -2.4495
 4015SOL     OW23503   3.349   1.028   3.936 -0.6344 -0.5786  0.0817
 4015SOL    HW123504   3.395   1.034   3.852  1.0046  1.4682  1.1347
 4015SOL    HW223505   3.347   1.118   3.967 -0.1978  0.1738 -2.0997
 4016SOL     OW23506   4.102   0.793   1.984  0.7148  0.1029  0.2807
 4016SOL    HW123507   4.119   0.883   1.958  0.6458 -0.6271 -2.3163
 4016SOL    HW223508   4.188   0.765   2.015  0.5227  0.1592  0.8676
 4017SOL     OW23509   0.675   0.548  12.363  0.1953 -0.0963 -0.0895
 4017SOL    HW123510   0.613   0.620  12.348 -1.3320 -0.7180  3.3723
 4017SOL    HW223511   0.633   0.504  12.437 -1.7582 -0.0665 -1.1902
 4018SOL     OW23512   0.614   3.007   2.710  0.3438 -0.0567 -0.4148
 4018SOL    HW123513   0.642   2.964   2.791 -0.5790 -1.5519 -0.9034
 4018SOL    HW223514   0.594   2.925   2.666  0.0598 -1.2980  2.0442
 4019SOL     OW23515   2.405   3.914   6.128 -0.2368 -0.0680  0.0881
 4019SOL    HW123516   2.411   3.908   6.033  1.2434 -1.2166  0.2542
 4019SOL    HW223517   2.350   3.839   6.152 -1.8884  1.3737  0.7742
 4020SOL     OW23518   1.497   4.462  11.064 -0.5084  0.0590  0.2309
 4020SOL    HW123519   1.570   4.517  11.089 -0.7987  0.0555  1.1093
 4020SOL    HW223520   1.490   4.393  11.130  0.1335 -0.7358 -0.5289
 4021SOL     OW23521   0.965   2.145   7.467 -0.0634 -0.2893 -0.1675
 4021SOL    HW123522   0.886   2.165   7.417 -0.2079 -1.5289 -0.4251
 4021SOL    HW223523   0.945   2.142   7.560 -0.7472  1.2475 -0.2722
 4022SOL     OW23524   3.441   3.602   6.916  0.3118 -0.5221 -0.9537
 4022SOL    HW123525   3.366   3.661   6.929 -0.2788 -1.5847  0.5057
 4022SOL    HW223526   3.513   3.664   6.909 -1.5297  1.8815  1.9090
 4023SOL     OW23527   2.834   2.654   7.143  0.1727  0.1798  0.1394
 4023SOL    HW123528   2.916   2.694   7.173  0.4687  0.2257 -0.7110
 4023SOL    HW223529   2.786   2.653   7.226 -3.6888 -1.4956 -2.1388
 4024SOL     OW23530   3.735   4.646   6.850 -0.7520  0.0268 -0.7987
 4024SOL    HW123531   3.680   4.697   6.909  0.6940 -0.8149  1.2983
 4024SOL    HW223532   3.691   4.643   6.765  0.8282  2.9509 -1.6932
 4025SOL     OW23533   2.497   3.044   5.149 -0.6553 -0.3791 -0.1360
 4025SOL    HW123534   2.407   3.017   5.166 -0.7820  0.7111  0.9058
 4025SOL    HW223535   2.489   3.088   5.065  0.0176  0.3574  0.1885
 4026SOL     OW23536   1.879   3.897   8.180  0.0781 -0.2388  0.2124
 4026SOL    HW123537   1.949   3.892   8.115  0.6787 -0.8718  0.9116
 4026SOL    HW223538   1.913   3.946   8.255 -1.1454 -0.2148  0.7532
 4027SOL     OW23539   1.655   1.517   4.224 -0.1554 -0.1540 -0.4600
 4027SOL    HW123540   1.600   1.442   4.200 -0.6729 -0.5204  1.9151
 4027SOL    HW223541   1.594   1.582   4.190 -0.4318 -0.5657 -0.7574
 4028SOL     OW23542   3.211   1.706   3.689 -0.3384 -0.0936 -0.2369
 4028SOL    HW123543   3.157   1.766   3.740 -0.4705 -1.3207  1.0850
 4028SOL    HW223544   3.178   1.626   3.730 -0.8486  0.7840  1.0768
 4029SOL     OW23545   1.798   3.550   7.748 -0.5926 -0.0255 -0.1101
 4029SOL    HW123546   1.840   3.536   7.663  0.2976  1.0968  0.1343
 4029SOL    HW223547   1.877   3.556   7.803 -0.2079 -1.7090 -0.4839
 4030SOL     OW23548   4.492   3.255  16.801  0.5086 -0.3262  0.5981
 4030SOL    HW123549   4.463   3.169  16.772 -0.7517  0.0756  0.6857
 4030SOL    HW223550   4.574   3.270  16.755 -2.8189  1.2934 -4.7592
 4031SOL     OW23551   0.431   2.923   3.692 -0.2123 -0.5680  0.1523
 4031SOL    HW123552   0.402   2.927   3.601 -2.0988  0.9285  0.8016
 4031SOL    HW223553   0.360   2.875   3.736  0.4208 -2.3968 -0.8318
 4032SOL     OW23554   1.152   1.166  11.726 -0.0291 -0.1076  0.1712
 4032SOL    HW123555   1.235   1.123  11.747 -0.0911  0.2468  1.1589
 4032SOL    HW223556   1.095   1.135  11.797  2.6136 -2.0298  1.4539
 4033SOL     OW23557   2.133   1.850   7.895  0.0722 -0.3107  0.4038
 4033SOL    HW123558   2.095   1.933   7.923  1.2508  0.5986 -0.6814
 4033SOL    HW223559   2.174   1.881   7.815 -4.7052  1.3109 -1.3675
 4034SOL     OW23560   0.741   0.266   8.981 -0.4355 -0.1338  0.0662
 4034SOL    HW123561   0.735   0.221   9.065  1.4857  0.4244  0.4902
 4034SOL    HW223562   0.834   0.289   8.977 -0.5055  0.3101  0.9256
 4035SOL     OW23563   0.060   1.699   6.657 -0.4009 -0.0347  0.1524
 4035SOL    HW123564   4.684   1.697   6.646 -0.4890  1.0669  0.6926
 4035SOL    HW223565   0.069   1.606   6.673 -0.4827 -0.1464 -0.4397
 4036SOL     OW23566   3.690   0.361   9.730  0.2691  0.0535  0.4464
 4036SOL    HW123567   3.671   0.329   9.818 -0.1737 -0.2107  0.2534
 4036SOL    HW223568   3.785   0.366   9.732  0.3325 -0.3141 -1.4561
 4037SOL     OW23569   3.368   2.706   1.439  0.0014 -0.4626 -1.0061
 4037SOL    HW123570   3.443   2.743   1.486 -1.1645 -0.0153  0.5150
 4037SOL    HW223571   3.330   2.778   1.389 -2.1555 -0.0355  1.2411
 4038SOL     OW23572   1.364   3.541   4.182 -0.1735  0.3270  0.4480
 4038SOL    HW123573   1.318   3.622   4.162  2.5562  1.1724 -2.4754
 4038SOL    HW223574   1.299   3.493   4.232 -0.6263  0.1656 -0.2990
 4039SOL     OW23575   2.090   4.159   2.201 -0.0175  0.1637 -0.0345
 4039SOL    HW123576   2.183   4.179   2.191  0.0385 -0.0421  0.0849
 4039SOL    HW223577   2.104   4.081   2.255  1.6094  0.4340 -0.0580
 4040SOL     OW23578   0.644   3.970   3.540 -0.4100  0.2872 -0.3516
 4040SOL    HW123579   0.631   3.968   3.635 -0.5887  3.4357 -0.3099
 4040SOL    HW223580   0.679   4.058   3.528  0.5039  0.0628  0.5682
 4041SOL     OW23581   2.819   3.235   6.399 -0.3903 -0.5932  0.4428
 4041SOL    HW123582   2.850   3.250   6.488 -0.4912 -2.4001  0.7818
 4041SOL    HW223583   2.903   3.238   6.354 -0.4311 -1.1990  0.3260
 4042SOL     OW23584   2.692   3.956   9.371 -0.4053  0.8486  0.2029
 4042SOL    HW123585   2.756   4.006   9.320  0.0432  0.0505 -0.0261
 4042SOL    HW223586   2.608   3.993   9.345  0.2116  2.1009 -0.0520
 4043SOL     OW23587   1.435   1.785   2.148  0.1138  0.6599  0.4209
 4043SOL    HW123588   1.407   1.829   2.068 -0.0839 -0.5028 -0.1474
 4043SOL    HW223589   1.489   1.857   2.179  1.3743 -0.1939  0.2080
 4044SOL     OW23590   4.400   1.092   6.912 -0.1406  0.0383  0.4917
 4044SOL    HW123591   4.449   1.013   6.887  0.2052  0.2292  0.5693
 4044SOL    HW223592   4.334   1.087   6.843  1.2820  2.9130 -1.0707
 4045SOL     OW23593   0.712   0.727   6.337 -0.1147 -0.0424 -0.2280
 4045SOL    HW123594   0.663   0.648   6.360  1.1294 -0.2517  1.6539
 4045SOL    HW223595   0.802   0.696   6.347 -0.0559  0.3520  0.4347
 4046SOL     OW23596   0.904   2.182   3.781 -0.2603 -0.1009 -0.4065
 4046SOL    HW123597   0.848   2.252   3.814  0.4284 -0.0318  0.6305
 4046SOL    HW223598   0.959   2.176   3.859 -0.7619 -0.8524 -0.1118
 4047SOL     OW23599   2.685   1.685   6.829 -0.2636 -0.0332 -0.0060
 4047SOL    HW123600   2.721   1.630   6.898 -0.9475  0.6893  0.9377
 4047SOL    HW223601   2.725   1.660   6.746 -0.5829  0.5645 -0.3422
 4048SOL     OW23602   3.884   0.683  13.524 -0.3632  0.2863 -0.0395
 4048SOL    HW123603   3.951   0.703  13.459  0.1068 -2.5495 -0.4250
 4048SOL    HW223604   3.947   0.680  13.596  0.9194 -0.2868 -1.1814
 4049SOL     OW23605   2.114   1.438   5.327  0.3368 -0.0321 -0.2320
 4049SOL    HW123606   2.044   1.389   5.284 -0.0676 -0.0567  0.4531
 4049SOL    HW223607   2.168   1.467   5.253  1.1649 -0.6590  0.1287
 4050SOL     OW23608   2.598   2.660   1.160  0.0795 -0.3741 -0.3296
 4050SOL    HW123609   2.519   2.608   1.144  0.2015 -0.8989  0.7737
 4050SOL    HW223610   2.556   2.745   1.175  1.8747  0.7915 -1.9978
 4051SOL     OW23611   2.922   2.219   6.370  0.2381  0.4064 -0.4489
 4051SOL    HW123612   2.944   2.132   6.403 -0.3154  0.7906  0.9285
 4051SOL    HW223613   2.850   2.194   6.312  0.5233  0.5355 -0.8603
 4052SOL     OW23614   2.893   3.208   6.921  0.4117 -0.2400 -1.1233
 4052SOL    HW123615   2.857   3.295   6.933 -0.3340 -0.3882 -2.3167
 4052SOL    HW223616   2.911   3.211   6.827 -2.4374 -0.2934 -1.6724
 4053SOL     OW23617   0.197   0.027   2.640 -0.3702  0.0387 -0.8372
 4053SOL    HW123618   0.269   0.008   2.580 -0.8446 -1.2667 -0.9856
 4053SOL    HW223619   0.219   4.687   2.713 -0.7244  0.6484 -0.2415
 4054SOL     OW23620   4.116   2.475   5.400 -0.1112 -0.0193 -0.3762
 4054SOL    HW123621   4.139   2.552   5.348  0.0958 -1.2991 -2.1733
 4054SOL    HW223622   4.146   2.495   5.489  0.0414  1.3386 -0.7393
 4055SOL     OW23623   0.468   2.345   0.036  0.4106  0.7383  0.1177
 4055SOL    HW123624   0.562   2.360   0.052  0.6108  1.7822 -1.9846
 4055SOL    HW223625   0.438   2.315   0.121  0.7698 -2.0061 -0.7131
 4056SOL     OW23626   1.128   0.794   8.594 -0.2341  0.2166 -0.1928
 4056SOL    HW123627   1.214   0.835   8.594 -0.1946  0.1257  0.4167
 4056SOL    HW223628   1.073   0.858   8.639 -0.2030 -1.0541  1.6770
 4057SOL     OW23629   2.989   1.480   8.233  0.8047  0.7510  0.0569
 4057SOL    HW123630   2.926   1.551   8.223 -2.9578 -2.5608  0.4876
 4057SOL    HW223631   3.065   1.520   8.189  0.6221  1.3386  0.2717
 4058SOL     OW23632   1.983   1.262   6.465 -0.1012 -0.4818  0.0714
 4058SOL    HW123633   1.971   1.355   6.444  2.9949 -0.0912  0.1635
 4058SOL    HW223634   2.070   1.246   6.430  0.1961  0.7388  0.2633
 4059SOL     OW23635   1.804   0.649  16.744  0.3060  0.7466 -0.0081
 4059SOL    HW123636   1.757   0.723  16.783 -0.2750 -0.3194  1.3070
 4059SOL    HW223637   1.753   0.576  16.779  1.3835  0.2910  0.6103
 4060SOL     OW23638   0.278   2.436   2.795 -0.0159  0.3311 -0.3531
 4060SOL    HW123639   0.202   2.469   2.746 -1.5497 -2.3599  0.2402
 4060SOL    HW223640   0.290   2.350   2.754 -2.2904  0.5080 -1.3995
 4061SOL     OW23641   1.761   0.746   2.856 -0.3214  0.4099  0.5807
 4061SOL    HW123642   1.743   0.803   2.931 -1.6684  1.0925 -0.2468
 4061SOL    HW223643   1.682   0.757   2.803  0.3489  0.1803 -0.4695
 4062SOL     OW23644   1.116   4.083   7.979  0.6797 -0.2412 -0.3450
 4062SOL    HW123645   1.030   4.043   7.966  0.3727  0.5513 -0.7406
 4062SOL    HW223646   1.110   4.170   7.939  0.3392 -0.3925 -0.6269
 4063SOL     OW23647   4.636   0.297   6.523  0.0242 -0.0985 -0.3242
 4063SOL    HW123648   4.601   0.259   6.443  0.8471  0.2616 -0.8565
 4063SOL    HW223649   4.697   0.231   6.557 -0.7503  0.1133  1.4879
 4064SOL     OW23650   4.700   3.977   8.173 -0.3119  0.0897 -0.6482
 4064SOL    HW123651   0.027   3.993   8.255 -3.0974 -0.1734  0.9825
 4064SOL    HW223652   0.031   3.902   8.140  0.5151  0.1504  0.4820
 4065SOL     OW23653   1.359   1.834  13.688  0.1576 -0.3120 -0.5169
 4065SOL    HW123654   1.353   1.929  13.696  1.4776 -0.3527  0.8037
 4065SOL    HW223655   1.295   1.807  13.622  1.7461 -1.5152 -1.5636
 4066SOL     OW23656   1.198   0.170   5.281 -0.1764  0.2236  0.0589
 4066SOL    HW123657   1.228   0.254   5.247 -0.0899 -0.2611 -1.0514
 4066SOL    HW223658   1.277   0.116   5.282 -1.0274 -1.0281  0.5837
 4067SOL     OW23659   2.571   1.632   5.320 -0.6076  0.7142  0.2013
 4067SOL    HW123660   2.601   1.722   5.315 -2.7390  1.2833 -2.3109
 4067SOL    HW223661   2.640   1.605   5.380 -1.6107 -0.8712  0.6481
 4068SOL     OW23662   3.300   4.312   8.495 -0.1220  0.1931 -0.4812
 4068SOL    HW123663   3.308   4.349   8.582  0.4071  0.2367 -0.5464
 4068SOL    HW223664   3.219   4.354   8.468 -0.0532  0.2995 -0.5256
 4069SOL     OW23665   2.975   2.278   5.757  0.5663 -0.8736 -0.4485
 4069SOL    HW123666   3.043   2.326   5.710  0.1466 -1.9161 -2.1196
 4069SOL    HW223667   3.002   2.276   5.849 -1.1598  4.6072  0.1944
 4070SOL     OW23668   2.456   4.304  13.594 -0.1382  0.2228  0.3004
 4070SOL    HW123669   2.463   4.353  13.676 -0.5104  0.7836 -0.0059
 4070SOL    HW223670   2.529   4.345  13.548 -1.4580  1.5211 -0.6253
 4071SOL     OW23671   3.399   1.231   9.351 -0.2631  0.2941  0.5120
 4071SOL    HW123672   3.336   1.269   9.412 -0.6312  0.5240 -0.0111
 4071SOL    HW223673   3.474   1.203   9.404  1.2504 -0.2663 -1.9095
 4072SOL     OW23674   0.215   2.818   6.705 -0.1628 -1.0084 -0.0041
 4072SOL    HW123675   0.260   2.880   6.763 -2.7524  1.0070 -0.1474
 4072SOL    HW223676   0.128   2.825   6.744 -0.3783 -0.4663 -0.5828
 4073SOL     OW23677   0.740   2.938  16.024  0.6267  0.3128 -0.3529
 4073SOL    HW123678   0.832   2.962  16.033  0.5942  0.2318  0.1648
 4073SOL    HW223679   0.737   2.844  16.044 -0.2753  0.0757 -1.5852
 4074SOL     OW23680   0.609   2.664   7.803 -0.0877 -0.6290  0.1282
 4074SOL    HW123681   0.702   2.688   7.808 -0.6422  0.8384  3.4184
 4074SOL    HW223682   0.578   2.675   7.893 -0.2332 -2.0515  0.2629
 4075SOL     OW23683   3.277   3.718   4.575  0.1751  0.1256 -0.0739
 4075SOL    HW123684   3.272   3.622   4.577  1.0214  0.1227  2.0684
 4075SOL    HW223685   3.234   3.739   4.492 -0.9925 -0.5774  0.3424
 4076SOL     OW23686   1.194   0.477   3.674 -0.2953  0.3256 -0.1648
 4076SOL    HW123687   1.166   0.568   3.666  1.4095  0.8998  0.3221
 4076SOL    HW223688   1.134   0.430   3.617 -2.2570  1.2026  1.2063
 4077SOL     OW23689   0.172   1.568   1.208  0.2986  0.0187  0.0349
 4077SOL    HW123690   0.143   1.655   1.178  0.8281 -0.4297 -1.7472
 4077SOL    HW223691   0.104   1.536   1.267 -2.1902  0.9418 -2.2770
 4078SOL     OW23692   3.043   3.812   8.598  0.2266 -0.3750 -0.1395
 4078SOL    HW123693   3.121   3.864   8.579 -1.3157  2.2972  0.8394
 4078SOL    HW223694   3.021   3.841   8.687  0.8788 -2.5510  0.7373
 4079SOL     OW23695   2.199   3.950   5.364 -1.0984  0.1167  0.5918
 4079SOL    HW123696   2.197   3.865   5.321  2.2945 -0.7146  2.0581
 4079SOL    HW223697   2.186   4.011   5.291  0.1451 -1.3196 -0.8349
 4080SOL     OW23698   3.681   3.452  11.043 -0.1151  0.0628  0.4418
 4080SOL    HW123699   3.689   3.491  11.130  0.6774 -0.8411  0.7711
 4080SOL    HW223700   3.748   3.504  10.999 -1.3926  0.7194 -0.7195
 4081SOL     OW23701   1.585   0.314   2.609 -0.0490 -0.0304  0.4310
 4081SOL    HW123702   1.647   0.385   2.624  0.7186 -0.3364 -1.2933
 4081SOL    HW223703   1.632   0.257   2.549  0.5794  1.2043 -0.2483
 4082SOL     OW23704   1.393   2.423   1.877  0.6576 -0.2262  0.4839
 4082SOL    HW123705   1.428   2.334   1.876 -0.0401 -0.4623 -3.4577
 4082SOL    HW223706   1.447   2.455   1.949 -0.8235  0.0116  1.4658
 4083SOL     OW23707   2.204   0.329   5.360 -0.1834  0.1935 -0.0880
 4083SOL    HW123708   2.294   0.325   5.327 -1.2208 -0.3948 -2.8123
 4083SOL    HW223709   2.159   0.374   5.289  0.2072 -0.0406 -0.4869
 4084SOL     OW23710   1.436   4.574  12.238  0.2307  0.8365  0.3369
 4084SOL    HW123711   1.401   4.634  12.304 -1.9104  1.2406 -1.1702
 4084SOL    HW223712   1.527   4.570  12.269 -0.9394  2.0313  3.8360
 4085SOL     OW23713   1.139   2.720   8.531 -0.0335  0.3992  0.6533
 4085SOL    HW123714   1.155   2.627   8.549 -1.5165  0.2722  1.2987
 4085SOL    HW223715   1.057   2.705   8.485  0.9599 -0.1797 -0.9239
 4086SOL     OW23716   0.593   2.621   0.559  0.1921 -0.4315  0.9283
 4086SOL    HW123717   0.574   2.550   0.498  1.9154 -0.0155 -0.0854
 4086SOL    HW223718   0.664   2.666   0.513  0.0373 -2.5848 -1.4197
 4087SOL     OW23719   2.409   1.502   6.032  0.2681  0.1069 -0.5206
 4087SOL    HW123720   2.368   1.542   5.955  0.1430 -3.2659 -2.1968
 4087SOL    HW223721   2.330   1.460   6.066  0.9153 -1.5864 -1.1494
 4088SOL     OW23722   2.628   0.182  13.627  0.6992 -0.0228  0.1497
 4088SOL    HW123723   2.589   0.151  13.545  0.8606  2.2872 -0.7929
 4088SOL    HW223724   2.662   0.269  13.605  0.9723 -0.3132 -0.5915
 4089SOL     OW23725   3.943   0.059   1.824 -0.4844 -0.3367 -0.2725
 4089SOL    HW123726   4.020   0.069   1.880 -0.5050 -2.7396  0.1741
 4089SOL    HW223727   3.923   4.686   1.838  2.8472 -1.0765 -0.5501
 4090SOL     OW23728   3.991   3.597   3.580  0.1995 -0.3005  0.0192
 4090SOL    HW123729   3.946   3.531   3.526  0.5523 -0.2338 -0.3546
 4090SOL    HW223730   4.078   3.587   3.542 -0.2848 -0.0103 -1.1885
 4091SOL     OW23731   3.701   2.073   0.114 -0.5449  0.5756 -0.3403
 4091SOL    HW123732   3.667   2.026   0.190 -1.2217  1.6071 -0.0041
 4091SOL    HW223733   3.652   2.156   0.108  0.7883  1.4063  0.2026
 4092SOL     OW23734   3.389   2.576   7.670 -0.3381  0.0975 -0.4885
 4092SOL    HW123735   3.480   2.573   7.641 -0.4511 -1.0809 -0.7453
 4092SOL    HW223736   3.377   2.509   7.737  1.5491 -1.0862 -1.3519
 4093SOL     OW23737   3.782   0.673   2.809  0.4755 -0.1214  0.3460
 4093SOL    HW123738   3.692   0.643   2.804  0.2376  0.6417  0.0817
 4093SOL    HW223739   3.804   0.635   2.723 -1.1783  0.5214 -0.3558
 4094SOL     OW23740   1.374   3.905   6.672 -0.2811 -0.7882 -0.0689
 4094SOL    HW123741   1.425   3.883   6.750 -1.1001  1.7064  1.1512
 4094SOL    HW223742   1.296   3.930   6.721 -0.1207 -1.0284  0.3090
 4095SOL     OW23743   0.583   4.178   8.030 -0.2751  0.3014 -0.1881
 4095SOL    HW123744   0.557   4.219   7.948  3.3254  2.3859 -0.3062
 4095SOL    HW223745   0.495   4.165   8.065 -0.5981  0.2551 -1.0389
 4096SOL     OW23746   3.305   1.762  15.327 -0.1167  0.1265 -0.2690
 4096SOL    HW123747   3.390   1.748  15.370 -0.1365 -1.0393 -0.6056
 4096SOL    HW223748   3.318   1.851  15.294 -4.0015  0.9639  0.4897
 4097SOL     OW23749   1.476   3.494   7.469  0.0239 -0.3363 -0.0512
 4097SOL    HW123750   1.538   3.553   7.512 -0.3793  0.3789 -0.4448
 4097SOL    HW223751   1.407   3.557   7.447 -0.3944 -0.1271  1.7903
 4098SOL     OW23752   2.060   1.783   1.997  0.4676 -0.3979 -0.0177
 4098SOL    HW123753   2.094   1.868   1.969 -0.0118 -0.4540 -0.7607
 4098SOL    HW223754   2.138   1.748   2.040  1.2305  1.7476  0.3672
 4099SOL     OW23755   2.946   0.424   5.921  0.2805  0.0873 -0.0463
 4099SOL    HW123756   2.989   0.453   6.001 -2.7882 -1.3111  2.1331
 4099SOL    HW223757   2.856   0.455   5.934  0.4613  1.9931 -3.2072
 4100SOL     OW23758   0.281   3.152   6.571  0.0628  0.3008  0.6296
 4100SOL    HW123759   0.359   3.199   6.599 -0.0964  0.6476  0.4949
 4100SOL    HW223760   0.315   3.118   6.489 -0.5949 -0.8286  0.8287
 4101SOL     OW23761   2.329   0.893  13.878 -0.7721  0.4965 -0.6215
 4101SOL    HW123762   2.380   0.940  13.812 -0.4808 -0.7085 -1.2694
 4101SOL    HW223763   2.292   0.828  13.817 -1.5802  2.0719 -1.8065
 4102SOL     OW23764   4.365   1.309  14.036 -0.3716 -0.1651  0.4058
 4102SOL    HW123765   4.438   1.252  14.008  0.0667 -0.2345  1.7022
 4102SOL    HW223766   4.400   1.355  14.112 -2.8189  0.3744  1.1837
 4103SOL     OW23767   2.745   1.917   3.116 -0.2766 -0.1619 -0.3275
 4103SOL    HW123768   2.734   1.970   3.037 -0.7798  1.1884  0.6491
 4103SOL    HW223769   2.751   1.828   3.081 -1.0727  0.0184 -0.9229
 4104SOL     OW23770   3.142   2.657  16.657 -0.0767 -0.2075  0.1213
 4104SOL    HW123771   3.069   2.640  16.717 -0.4741  0.1421 -0.2696
 4104SOL    HW223772   3.172   2.571  16.626 -0.9524 -0.1621 -0.8472
 4105SOL     OW23773   0.505   0.516   4.330  0.1644  0.2322  0.0616
 4105SOL    HW123774   0.553   0.570   4.268 -0.2099 -0.9541 -1.2620
 4105SOL    HW223775   0.490   0.434   4.283 -0.9351  1.3964 -1.6344
 4106SOL     OW23776   0.616   1.653   2.645  0.3507  0.0653  0.0660
 4106SOL    HW123777   0.648   1.731   2.690  0.0727  0.4194 -0.3458
 4106SOL    HW223778   0.562   1.598   2.702 -1.6517  1.7592 -0.1985
 4107SOL     OW23779   1.053   2.369   1.146 -0.4758  0.3341  0.0999
 4107SOL    HW123780   1.059   2.437   1.214 -1.7520  0.7384 -0.1869
 4107SOL    HW223781   1.046   2.432   1.074  1.4390  0.1618 -0.2383
 4108SOL     OW23782   0.713   3.316   8.101  0.2022  0.3849 -0.2708
 4108SOL    HW123783   0.747   3.331   8.189 -0.7068  1.3822 -0.0891
 4108SOL    HW223784   0.768   3.372   8.046 -1.3801  2.2163  0.0214
 4109SOL     OW23785   3.312   1.784  11.659 -0.2440  0.1573  0.5279
 4109SOL    HW123786   3.278   1.805  11.746 -1.0087 -0.0193  0.2758
 4109SOL    HW223787   3.238   1.829  11.618 -1.9183 -1.6141  1.6305
 4110SOL     OW23788   2.063   1.794   5.544 -0.1463  0.2490 -0.5981
 4110SOL    HW123789   2.059   1.809   5.450  0.2194 -2.6668 -1.0919
 4110SOL    HW223790   2.152   1.758   5.546 -0.5135 -0.6783 -1.0797
 4111SOL     OW23791   3.013   4.492   0.050 -0.2678  0.0190  0.2128
 4111SOL    HW123792   2.973   4.559   0.105  0.4717 -0.1933  1.0196
 4111SOL    HW223793   3.096   4.477   0.097  0.2270 -0.5305 -0.8472
 4112SOL     OW23794   0.159   2.497   1.575  0.2470 -0.0282 -0.1526
 4112SOL    HW123795   0.254   2.486   1.582  0.3801 -0.0486 -2.1193
 4112SOL    HW223796   0.141   2.540   1.659  2.3578  0.0774  0.2563
 4113SOL     OW23797   2.274   4.372   7.690  0.4837  0.1630 -0.5471
 4113SOL    HW123798   2.333   4.298   7.677  2.1363  1.6223 -1.3650
 4113SOL    HW223799   2.319   4.443   7.644  1.2777 -0.0676 -0.1124
 4114SOL     OW23800   2.048   1.875   4.185  0.2608 -0.2061  0.3099
 4114SOL    HW123801   2.049   1.782   4.210  0.7528 -0.6410 -1.3100
 4114SOL    HW223802   2.022   1.871   4.094 -0.4993 -0.0779  0.5236
 4115SOL     OW23803   4.157   3.662   0.871  0.2145  0.2489  0.6837
 4115SOL    HW123804   4.123   3.600   0.936  1.2543  0.1412  1.1325
 4115SOL    HW223805   4.115   3.643   0.787  1.2227  0.9138  0.0268
 4116SOL     OW23806   1.238   1.060   4.569 -0.0259 -0.0938 -0.1783
 4116SOL    HW123807   1.280   0.986   4.525  1.2502 -0.6022  1.9163
 4116SOL    HW223808   1.175   1.088   4.503  1.4047  0.6776 -1.2194
 4117SOL     OW23809   2.920   4.256   6.755 -0.0992  0.0459 -0.3431
 4117SOL    HW123810   2.841   4.263   6.702  1.2147 -2.2003 -2.5691
 4117SOL    HW223811   2.947   4.348   6.764 -0.0393 -0.1169  1.0604
 4118SOL     OW23812   3.236   2.594   7.063  0.2824  0.3091 -0.5127
 4118SOL    HW123813   3.188   2.674   7.088  1.3095  1.2213 -1.4435
 4118SOL    HW223814   3.273   2.613   6.977  1.3416 -0.2686 -0.1827
 4119SOL     OW23815   4.122   1.564   3.314 -0.4736  0.2439 -0.2447
 4119SOL    HW123816   4.053   1.573   3.379  1.4926 -1.5639  2.1255
 4119SOL    HW223817   4.174   1.496   3.359  2.0645  0.9033 -2.1664
 4120SOL     OW23818   2.088   3.858   9.260  0.1102 -0.4452 -0.0208
 4120SOL    HW123819   2.065   3.891   9.173 -0.1702  1.4547  0.7703
 4120SOL    HW223820   2.181   3.882   9.258 -0.2191  0.8349 -0.1638
 4121SOL     OW23821   0.556   0.097   3.490  0.2101 -0.0999  0.9238
 4121SOL    HW123822   0.610   0.143   3.426 -2.1572 -0.5484 -1.3532
 4121SOL    HW223823   0.570   0.006   3.464  1.9889  1.3238 -3.1776
 4122SOL     OW23824   3.876   2.566   3.493 -0.4881 -0.0457 -0.0803
 4122SOL    HW123825   3.966   2.583   3.464 -0.4028  1.3062  0.9563
 4122SOL    HW223826   3.827   2.616   3.428 -0.8027 -0.8389 -0.4440
 4123SOL     OW23827   0.179   0.027   4.481 -0.1584 -0.0899  0.4931
 4123SOL    HW123828   0.217   4.661   4.499 -0.5223 -0.2566  0.4771
 4123SOL    HW223829   0.262   0.074   4.473 -0.9350  0.6301 -3.0387
 4124SOL     OW23830   2.298   1.595   6.525 -0.0891 -0.4094 -0.6917
 4124SOL    HW123831   2.317   1.525   6.588 -2.1881 -2.6682 -2.6016
 4124SOL    HW223832   2.363   1.656   6.560  0.2728 -1.5959  0.6880
 4125SOL     OW23833   1.414   4.284   4.736 -0.3935 -0.3113  0.2546
 4125SOL    HW123834   1.382   4.197   4.758  2.0140 -1.0212  1.0257
 4125SOL    HW223835   1.362   4.286   4.656  1.0844 -1.4225 -0.7281
 4126SOL     OW23836   3.871   1.865  13.109  0.1806 -0.0325  0.1930
 4126SOL    HW123837   3.813   1.843  13.036 -0.3044  2.8673 -0.3048
 4126SOL    HW223838   3.876   1.789  13.167 -4.2330 -1.4231 -1.2540
 4127SOL     OW23839   3.126   1.271   2.370  0.2354 -0.1017 -1.2539
 4127SOL    HW123840   3.180   1.333   2.420 -0.2958  1.5767 -2.7822
 4127SOL    HW223841   3.186   1.255   2.297 -1.9514 -1.7704 -2.6743
 4128SOL     OW23842   2.394   3.890   0.133 -0.3828 -0.5967  0.7244
 4128SOL    HW123843   2.400   3.906   0.227  0.8071  3.3593 -0.0151
 4128SOL    HW223844   2.357   3.976   0.110 -2.1523 -0.8062  2.8018
 4129SOL     OW23845   0.970   1.745  11.846  0.2029  0.2605  0.3705
 4129SOL    HW123846   0.879   1.726  11.828  0.3734 -0.7778  0.6216
 4129SOL    HW223847   0.984   1.713  11.935  2.9974 -0.3375 -0.2635
 4130SOL     OW23848   3.845   2.759   6.399 -0.3424 -0.1841 -0.1966
 4130SOL    HW123849   3.872   2.839   6.443  0.6630 -0.9114  0.4898
 4130SOL    HW223850   3.833   2.799   6.313  0.3021  0.2319 -0.0883
 4131SOL     OW23851   0.961   3.552   6.501 -0.3281 -0.4975 -0.2275
 4131SOL    HW123852   1.047   3.591   6.483 -1.2703  0.8163 -1.8528
 4131SOL    HW223853   0.913   3.567   6.420  2.3302  0.2594 -1.6469
 4132SOL     OW23854   1.982   1.388   5.882 -0.0559 -0.0853  0.6687
 4132SOL    HW123855   2.011   1.428   5.800  2.8935 -1.4946  1.0379
 4132SOL    HW223856   1.892   1.358   5.864 -0.2993  1.9060 -1.4355
 4133SOL     OW23857   2.840   3.627   1.256  0.0347  0.6329  0.5019
 4133SOL    HW123858   2.867   3.699   1.312  1.6514 -0.9353  1.7259
 4133SOL    HW223859   2.880   3.642   1.170 -1.1196  0.3280 -0.0815
 4134SOL     OW23860   1.418   3.637   3.231  0.4173 -0.2725 -0.1291
 4134SOL    HW123861   1.402   3.730   3.218 -0.9746 -0.5337 -0.2156
 4134SOL    HW223862   1.345   3.623   3.291 -0.5786 -0.9551 -1.5148
 4135SOL     OW23863   2.575   1.032   8.993 -0.1976  0.2578 -0.1191
 4135SOL    HW123864   2.626   0.952   8.982 -1.2235 -0.5768  1.2447
 4135SOL    HW223865   2.635   1.103   8.968  0.5800 -0.4280 -0.1756
 4136SOL     OW23866   3.099   0.222   6.030 -0.7635  0.5990 -0.3175
 4136SOL    HW123867   3.170   0.281   6.054 -0.9219  0.4759  0.4370
 4136SOL    HW223868   3.047   0.271   5.965 -1.4452  0.3899  0.0680
 4137SOL     OW23869   1.574   0.512   7.798 -0.2462 -0.0292  0.0299
 4137SOL    HW123870   1.524   0.587   7.767  0.8514  1.1811  1.2163
 4137SOL    HW223871   1.509   0.471   7.855 -1.3291 -1.2780 -2.0494
 4138SOL     OW23872   1.670   0.486   4.269 -0.4447  0.1082  0.2628
 4138SOL    HW123873   1.681   0.391   4.272 -0.9075 -0.0293 -2.2042
 4138SOL    HW223874   1.762   0.514   4.271 -0.3073 -0.3885  1.3940
 4139SOL     OW23875   2.020   3.571   5.045  0.1599 -0.0912  0.7393
 4139SOL    HW123876   1.931   3.582   5.011  0.4207 -0.6992 -0.1403
 4139SOL    HW223877   2.008   3.509   5.117 -0.5002 -0.4780  0.2986
 4140SOL     OW23878   0.178   1.583   8.387 -0.2193 -0.1579  0.1098
 4140SOL    HW123879   0.182   1.609   8.295 -2.9977 -2.3738 -0.6505
 4140SOL    HW223880   0.263   1.540   8.395 -0.1685  0.2792  1.8901
 4141SOL     OW23881   2.890   3.190   5.269  0.7310  0.1895  0.0293
 4141SOL    HW123882   2.957   3.255   5.294  0.0826 -0.5680  3.7933
 4141SOL    HW223883   2.932   3.137   5.202 -1.9327 -2.8610  0.7889
 4142SOL     OW23884   0.620   2.711   2.251 -0.4081 -0.5650  0.3547
 4142SOL    HW123885   0.699   2.678   2.295  0.9981  2.0184 -0.2572
 4142SOL    HW223886   0.615   2.804   2.272  1.0756 -0.1450 -1.1711
 4143SOL     OW23887   2.190   2.033   8.302  0.2594  0.1316  0.2835
 4143SOL    HW123888   2.158   2.008   8.389  1.3877 -1.6993  0.1751
 4143SOL    HW223889   2.256   1.968   8.277 -0.4137 -0.4286 -0.0429
 4144SOL     OW23890   0.448   1.814   5.439 -0.0365  0.0610  0.1619
 4144SOL    HW123891   0.398   1.788   5.362 -0.1975  0.5088  0.1126
 4144SOL    HW223892   0.451   1.735   5.493 -1.3040  1.5322  2.4169
 4145SOL     OW23893   4.061   2.232   5.357  0.0959 -0.0868  0.6999
 4145SOL    HW123894   4.090   2.322   5.372 -0.2979 -0.2966  2.7331
 4145SOL    HW223895   3.970   2.257   5.371 -0.3404 -1.5758  0.5555
 4146SOL     OW23896   3.117   0.904   1.388 -0.1197  0.0253 -0.0989
 4146SOL    HW123897   3.128   0.892   1.294 -1.0738 -0.0331 -0.2036
 4146SOL    HW223898   3.199   0.869   1.423  0.9528  3.0867  0.3779
 4147SOL     OW23899   1.737   4.609   7.771  0.5956  0.0263 -0.1260
 4147SOL    HW123900   1.800   4.662   7.819  2.1350 -1.6154 -0.3125
 4147SOL    HW223901   1.659   4.601   7.827  0.8404 -0.9052  0.0919
 4148SOL     OW23902   0.856   1.818   2.024  0.5150  0.7196 -0.0705
 4148SOL    HW123903   0.925   1.764   1.987 -0.8938 -1.4069  0.4188
 4148SOL    HW223904   0.779   1.777   1.984  2.1262 -0.0268 -2.4217
 4149SOL     OW23905   4.660   4.493  10.835  0.0940 -0.0632 -0.5872
 4149SOL    HW123906   4.596   4.443  10.784 -0.2481 -1.7356  1.4770
 4149SOL    HW223907   4.693   4.427  10.896 -1.8534 -0.3454  0.1762
 4150SOL     OW23908   2.431   4.006   8.797 -0.0657  0.1115 -0.1218
 4150SOL    HW123909   2.406   4.016   8.705 -1.5532 -0.0988  0.2549
 4150SOL    HW223910   2.350   4.031   8.840  0.8230  1.3824  0.7975
 4151SOL     OW23911   0.555   1.216   4.540 -0.3946 -0.0346 -0.0126
 4151SOL    HW123912   0.601   1.185   4.618 -0.4841 -2.7137 -1.0188
 4151SOL    HW223913   0.477   1.160   4.543 -0.9913  0.8317  0.6949
 4152SOL     OW23914   0.095   2.337  14.453  0.6671 -0.3892 -0.1683
 4152SOL    HW123915   0.076   2.250  14.488  0.3732  0.7983  2.6339
 4152SOL    HW223916   0.121   2.383  14.532 -1.8719  1.6439 -0.5261
 4153SOL     OW23917   3.204   3.499   8.442  0.2458 -0.3121  0.3332
 4153SOL    HW123918   3.243   3.573   8.489  2.0076 -1.3678  0.5203
 4153SOL    HW223919   3.257   3.421   8.459 -0.1682 -0.7475 -0.3860
 4154SOL     OW23920   3.756   0.037   5.614 -0.0351 -0.1606 -0.0659
 4154SOL    HW123921   3.821   0.100   5.646  1.3095 -1.3356 -0.4773
 4154SOL    HW223922   3.777   4.671   5.653  1.5342  0.1626 -0.2033
 4155SOL     OW23923   0.959   1.874   3.640  0.1940 -0.2726 -0.3742
 4155SOL    HW123924   0.897   1.837   3.577  0.3017  0.0852 -0.6913
 4155SOL    HW223925   0.978   1.809   3.708  0.4333 -1.4117 -1.5409
 4156SOL     OW23926   1.153   3.226   4.709  0.2815  0.0128 -0.0907
 4156SOL    HW123927   1.084   3.177   4.753  0.7080 -0.1581  0.3827
 4156SOL    HW223928   1.105   3.294   4.661  0.1981 -0.1245 -0.2010
 4157SOL     OW23929   4.084   2.076   6.707 -0.0150  0.1692  0.2983
 4157SOL    HW123930   4.118   2.020   6.638 -3.4019 -0.6385 -0.6916
 4157SOL    HW223931   3.990   2.059   6.711  0.2554 -1.2340  0.4275
 4158SOL     OW23932   1.240   2.652   6.007  0.4209 -0.2312  0.2312
 4158SOL    HW123933   1.192   2.664   6.089 -2.2118 -0.6158 -1.2529
 4158SOL    HW223934   1.183   2.698   5.946 -0.8051 -0.0216  1.5387
 4159SOL     OW23935   3.898   2.962   4.865 -0.2851 -0.4011 -0.0373
 4159SOL    HW123936   3.986   2.982   4.896 -0.4810  0.8554 -0.2571
 4159SOL    HW223937   3.899   3.013   4.783 -1.3190 -0.4142 -0.0561
 4160SOL     OW23938   4.480   3.001   0.782  0.1114  0.1924  0.2753
 4160SOL    HW123939   4.415   3.044   0.726  0.2485  0.5708  0.4040
 4160SOL    HW223940   4.567   2.998   0.743 -0.4807  0.6367 -1.1030
 4161SOL     OW23941   2.899   1.039   5.493  0.3158  0.1619 -0.0681
 4161SOL    HW123942   2.898   0.992   5.577  0.4172  0.8826  0.3357
 4161SOL    HW223943   2.875   1.123   5.532  1.7146  0.7833 -0.5627
 4162SOL     OW23944   3.219   3.323  16.677 -0.0306 -1.0970 -0.0537
 4162SOL    HW123945   3.243   3.349  16.588 -1.1524  1.9144  0.5481
 4162SOL    HW223946   3.283   3.254  16.697  0.2031 -0.9720 -0.3762
 4163SOL     OW23947   3.044   4.254   8.695 -0.4381  0.1982 -0.5178
 4163SOL    HW123948   3.017   4.224   8.782  0.8944  1.7101  0.4159
 4163SOL    HW223949   2.956   4.265   8.660 -0.6015 -1.1336 -0.5246
 4164SOL     OW23950   2.073   3.878   2.562 -0.0686 -0.4786  0.4111
 4164SOL    HW123951   2.104   3.816   2.629  1.9120  0.0486 -0.0175
 4164SOL    HW223952   2.004   3.819   2.531 -0.1731 -0.0145 -0.2170
 4165SOL     OW23953   3.900   4.378   3.452  0.6045 -0.2819  0.2322
 4165SOL    HW123954   3.841   4.438   3.405  0.0971 -0.1123  1.0845
 4165SOL    HW223955   3.981   4.397   3.404 -0.0941 -1.0221 -1.2625
 4166SOL     OW23956   3.638   0.042   3.656 -0.0696 -0.4246 -0.0502
 4166SOL    HW123957   3.674   4.683   3.698  1.3205  0.7195  0.9137
 4166SOL    HW223958   3.550   0.050   3.693  0.6380  2.3743  1.0232
 4167SOL     OW23959   3.174   2.369   5.604  0.4141  0.4541  0.5637
 4167SOL    HW123960   3.180   2.302   5.537 -0.2728  1.1738 -0.2207
 4167SOL    HW223961   3.245   2.339   5.660  1.6366  2.0486 -0.1465
 4168SOL     OW23962   4.548   1.384   2.782  0.5604 -0.3047 -0.5252
 4168SOL    HW123963   4.495   1.431   2.718  1.7693 -0.1650 -1.4150
 4168SOL    HW223964   4.477   1.350   2.837  1.6216 -1.6616  0.0082
 4169SOL     OW23965   2.782   4.268   8.649  0.2386 -0.5322 -0.4134
 4169SOL    HW123966   2.726   4.334   8.609  1.8257  0.9678 -0.1073
 4169SOL    HW223967   2.738   4.251   8.733 -1.5180 -0.4960 -1.3333
 4170SOL     OW23968   2.244   2.288   6.888  0.4892  0.3360  0.2001
 4170SOL    HW123969   2.195   2.255   6.963  1.3005 -0.1813  0.5026
 4170SOL    HW223970   2.208   2.240   6.813  0.4916  1.1868 -0.3572
 4171SOL     OW23971   0.278   2.437   4.642 -0.1077 -0.4354 -0.6482
 4171SOL    HW123972   0.192   2.395   4.646 -0.6378  0.4507 -2.4414
 4171SOL    HW223973   0.298   2.431   4.735 -0.9560 -1.9023 -0.5553
 4172SOL     OW23974   4.595   1.770   7.644  0.2167 -0.6903  0.3808
 4172SOL    HW123975   4.607   1.859   7.679 -0.9426 -0.4832  0.2298
 4172SOL    HW223976   4.506   1.747   7.670  0.0129 -0.5582 -0.1989
 4173SOL     OW23977   2.131   2.729   2.206 -0.2162 -0.4068 -0.0613
 4173SOL    HW123978   2.088   2.643   2.206  0.5291 -0.7751 -1.6440
 4173SOL    HW223979   2.209   2.708   2.156  0.2103 -2.0974  1.3409
 4174SOL     OW23980   3.639   0.160  16.802  0.6243  0.0818 -0.6364
 4174SOL    HW123981   3.666   0.247  16.831 -1.3045  0.4385  0.1217
 4174SOL    HW223982   3.620   0.179  16.710  2.7809  0.5062 -0.9844
 4175SOL     OW23983   2.314   2.308   0.408 -0.1817  0.5310 -0.2832
 4175SOL    HW123984   2.386   2.293   0.347  1.0484  0.9933  1.0645
 4175SOL    HW223985   2.328   2.394   0.447  0.5532 -0.8441  2.4434
 4176SOL     OW23986   2.538   3.098   3.707 -0.1241  0.0368  0.1434
 4176SOL    HW123987   2.534   3.062   3.796 -1.0484  0.1313  0.1445
 4176SOL    HW223988   2.626   3.067   3.686  0.2076  1.4959 -0.6377
 4177SOL     OW23989   3.722   3.174  13.432 -0.6940  0.2305 -0.5626
 4177SOL    HW123990   3.717   3.270  13.436 -0.7258  0.2562 -1.2980
 4177SOL    HW223991   3.628   3.160  13.437 -0.4251 -1.3811  0.0821
 4178SOL     OW23992   0.332   0.215  17.049  0.4602  0.3888 -0.3665
 4178SOL    HW123993   0.300   0.265  17.124  3.5060 -2.1250  2.6421
 4178SOL    HW223994   0.329   0.280  16.979 -0.4585 -0.3627 -1.0305
 4179SOL     OW23995   4.487   4.654   8.384 -0.1026  0.2338 -0.7586
 4179SOL    HW123996   4.477   4.675   8.477  0.7644  1.8742 -1.0246
 4179SOL    HW223997   4.583   4.647   8.377 -0.0393 -0.1634  0.5309
 4180SOL     OW23998   4.017   2.341  11.060 -0.3148  0.3822 -0.5419
 4180SOL    HW123999   3.997   2.398  11.134  0.5785  0.1088 -0.0848
 4180SOL    HW224000   3.983   2.257  11.093  1.1917 -0.1913 -0.4667
 4181SOL     OW24001   4.210   0.767   5.813 -0.8345 -0.3174  0.0827
 4181SOL    HW124002   4.130   0.729   5.775 -1.4177 -1.8275  2.8794
 4181SOL    HW224003   4.206   0.732   5.902  0.2780 -3.9424 -1.2985
 4182SOL     OW24004   0.388   2.449   1.133  0.2138  0.3671  0.0936
 4182SOL    HW124005   0.345   2.518   1.183  0.1246 -0.9559  1.8418
 4182SOL    HW224006   0.365   2.373   1.186 -0.1149  0.8890  0.6926
 4183SOL     OW24007   1.893   3.593   2.494  0.3158 -0.1668  0.2837
 4183SOL    HW124008   1.887   3.593   2.398  1.9045 -0.5058  0.1840
 4183SOL    HW224009   1.973   3.542   2.502 -0.1309 -0.5295  2.2755
 4184SOL     OW24010   1.213   0.398  10.220  0.0774 -0.3052  0.0210
 4184SOL    HW124011   1.176   0.486  10.216  1.5978  0.3528  0.4546
 4184SOL    HW224012   1.209   0.371  10.129 -1.6664  0.9183 -0.2766
 4185SOL     OW24013   1.886   0.489   9.113  0.2530 -0.0031 -0.2248
 4185SOL    HW124014   1.919   0.560   9.058 -1.0037 -1.0672 -2.3568
 4185SOL    HW224015   1.894   0.531   9.198 -1.1996  1.6791 -0.9276
 4186SOL     OW24016   0.381   1.391   0.404 -0.0566 -0.3995  0.0672
 4186SOL    HW124017   0.358   1.341   0.483  0.1074 -1.8203 -0.7941
 4186SOL    HW224018   0.295   1.431   0.386 -0.4407 -1.2720 -0.0454
 4187SOL     OW24019   4.127   3.624   5.769 -0.7338 -0.1155 -0.1329
 4187SOL    HW124020   4.168   3.697   5.722 -0.2423 -1.0628 -1.1712
 4187SOL    HW224021   4.044   3.668   5.786 -1.6000 -0.7267 -2.8245
 4188SOL     OW24022   0.882   3.551   5.801 -0.3198  0.4167  0.1482
 4188SOL    HW124023   0.894   3.509   5.887  0.9498  0.7873  0.1464
 4188SOL    HW224024   0.788   3.562   5.792 -0.2938 -0.4296 -1.1254
 4189SOL     OW24025   1.625   4.423   3.032 -0.2809  0.1556  0.0761
 4189SOL    HW124026   1.539   4.400   2.996  0.6182  0.9271 -2.5391
 4189SOL    HW224027   1.606   4.498   3.089  0.9465  2.4022 -2.5095
 4190SOL     OW24028   3.892   3.903   2.282 -0.5322 -0.5331 -0.0004
 4190SOL    HW124029   3.917   3.931   2.370 -2.9806 -1.6642  1.0612
 4190SOL    HW224030   3.859   3.987   2.250 -1.3796 -0.9438 -0.2138
 4191SOL     OW24031   1.111   4.378  15.297  0.0735 -0.2569  0.0836
 4191SOL    HW124032   1.194   4.358  15.255 -0.8248 -0.3619 -1.6508
 4191SOL    HW224033   1.055   4.320  15.245  0.0406  0.5775 -0.8123
 4192SOL     OW24034   2.720   2.223  13.896  0.2298  0.4291 -0.5910
 4192SOL    HW124035   2.640   2.171  13.894 -1.2623  2.6996  0.6519
 4192SOL    HW224036   2.743   2.240  13.805 -0.0181 -2.3899 -1.1833
 4193SOL     OW24037   4.429   1.705   9.943 -0.0535  0.0446  1.0752
 4193SOL    HW124038   4.495   1.642   9.974 -0.3842  0.0160  1.7343
 4193SOL    HW224039   4.417   1.765  10.017  1.3182  0.7481  0.7216
 4194SOL     OW24040   2.358   0.522   8.529  0.2494  0.2305  0.3662
 4194SOL    HW124041   2.289   0.557   8.473  0.9816  0.5137 -0.3688
 4194SOL    HW224042   2.383   0.443   8.482  0.8086  1.3440 -1.2385
 4195SOL     OW24043   1.644   3.895   0.926 -0.1920  0.1379  0.3091
 4195SOL    HW124044   1.676   3.834   0.860 -0.0124  1.5105 -0.8800
 4195SOL    HW224045   1.605   3.841   0.995  0.3191 -0.2002  0.3296
 4196SOL     OW24046   0.834   3.675   2.766  0.2064  0.7279  0.1253
 4196SOL    HW124047   0.842   3.671   2.670 -1.2866 -1.1874  0.0652
 4196SOL    HW224048   0.806   3.587   2.793  0.0256  0.4478 -0.9502
 4197SOL     OW24049   0.663   0.255   5.849  0.2479 -0.0775 -0.2534
 4197SOL    HW124050   0.729   0.191   5.877  0.6443  0.0010 -1.0143
 4197SOL    HW224051   0.703   0.281   5.766 -0.1950 -0.4810 -0.5911
 4198SOL     OW24052   0.435   1.590   2.161  0.1359 -0.4281 -0.2338
 4198SOL    HW124053   0.490   1.609   2.237 -0.5157  0.9913 -0.1269
 4198SOL    HW224054   0.406   1.680   2.147 -1.1226 -0.8338 -0.2088
 4199SOL     OW24055   0.457   2.227   7.196  0.2351  0.2545  0.4904
 4199SOL    HW124056   0.507   2.185   7.126 -1.8760  1.3995 -1.6712
 4199SOL    HW224057   0.424   2.306   7.154 -0.5512 -0.3757 -0.0519
 4200SOL     OW24058   3.066   2.862   9.838 -0.4954 -0.1233  0.0399
 4200SOL    HW124059   3.127   2.928   9.868  0.7160 -1.3216  0.2172
 4200SOL    HW224060   3.115   2.840   9.758 -0.3876 -0.0303  0.0817
 4201SOL     OW24061   1.041   2.065   4.638  0.0508 -0.1689  0.5793
 4201SOL    HW124062   0.981   2.100   4.705 -1.5427 -2.5412  0.3890
 4201SOL    HW224063   0.991   2.078   4.558  1.2387  0.8615  0.0055
 4202SOL     OW24064   0.759   3.598   3.932  0.0373 -0.0969 -0.8061
 4202SOL    HW124065   0.768   3.510   3.967 -0.9371 -0.3478 -1.1910
 4202SOL    HW224066   0.669   3.587   3.903 -0.2768 -0.4752  0.3118
 4203SOL     OW24067   3.338   1.152   9.714 -0.2648 -0.1390 -0.2166
 4203SOL    HW124068   3.410   1.159   9.777 -0.3320 -2.4623  0.1265
 4203SOL    HW224069   3.341   1.232   9.662  0.5261  0.8043  1.2977
 4204SOL     OW24070   3.432   2.040  13.838 -0.1503  0.1042 -0.2291
 4204SOL    HW124071   3.376   2.058  13.762 -0.1657  0.7904 -0.0511
 4204SOL    HW224072   3.376   2.055  13.914  0.9662  0.1725  0.5849
 4205SOL     OW24073   4.671   0.470   3.810 -0.4382 -0.1234  0.3144
 4205SOL    HW124074   4.626   0.448   3.892 -2.5924  1.7418 -0.3712
 4205SOL    HW224075   4.595   0.513   3.772  0.9763  2.5749  0.5341
 4206SOL     OW24076   1.371   2.438   8.239  0.3495  0.3689  0.0504
 4206SOL    HW124077   1.467   2.440   8.228  0.3155  1.8842 -0.0737
 4206SOL    HW224078   1.366   2.455   8.333 -1.6137  3.5179 -0.6200
 4207SOL     OW24079   4.417   0.316   9.762  0.2944 -0.4966 -0.0191
 4207SOL    HW124080   4.383   0.305   9.851  1.1728 -2.4286  0.0706
 4207SOL    HW224081   4.335   0.288   9.719 -0.2608 -0.8200  1.2528
 4208SOL     OW24082   1.263   1.615  11.128  0.4686  0.0958 -0.0077
 4208SOL    HW124083   1.296   1.592  11.215  0.7915 -2.1864 -0.7148
 4208SOL    HW224084   1.172   1.623  11.157  0.3141  0.7135 -0.6586
 4209SOL     OW24085   3.659   4.654   9.359  0.3372 -0.6349 -0.2849
 4209SOL    HW124086   3.670   4.662   9.264 -1.2150  0.4135 -0.3831
 4209SOL    HW224087   3.740   4.694   9.390 -0.4019  2.4395 -2.3033
 4210SOL     OW24088   1.227   2.618   3.773  0.1833  0.1129  0.0252
 4210SOL    HW124089   1.147   2.667   3.791 -0.9063 -2.4293  2.1157
 4210SOL    HW224090   1.285   2.676   3.724 -0.8852 -0.3636 -1.8152
 4211SOL     OW24091   2.152   1.873   4.829  0.2938 -0.2141 -0.0012
 4211SOL    HW124092   2.172   1.803   4.891  1.1374 -0.4468 -0.5474
 4211SOL    HW224093   2.075   1.835   4.787 -0.2009  1.5681 -0.7172
 4212SOL     OW24094   3.834   0.137   2.136  0.1733  0.0358 -0.2135
 4212SOL    HW124095   3.742   0.157   2.122  0.4679 -0.8800 -3.3898
 4212SOL    HW224096   3.875   0.214   2.098 -1.7587 -0.4920 -3.3477
 4213SOL     OW24097   0.391   2.791   0.650  0.3086  0.4745  0.0120
 4213SOL    HW124098   0.469   2.740   0.627 -0.9501 -1.9499  0.9929
 4213SOL    HW224099   0.405   2.808   0.743 -0.7687 -3.4725  0.9333
 4214SOL     OW24100   0.468   3.915  11.008 -0.1093  0.1985  0.2755
 4214SOL    HW124101   0.509   3.843  11.055 -0.8178 -0.5390 -0.2425
 4214SOL    HW224102   0.544   3.950  10.961 -1.0867  2.2192  0.1662
 4215SOL     OW24103   3.425   0.218  12.091  0.6237 -0.5171 -0.2356
 4215SOL    HW124104   3.508   0.170  12.089  1.2836  0.6413 -0.2708
 4215SOL    HW224105   3.455   0.307  12.109  2.8942 -0.9983 -1.5659
 4216SOL     OW24106   2.255   2.460  15.667 -0.4688 -0.2779 -0.2267
 4216SOL    HW124107   2.334   2.412  15.642 -0.5330 -1.9849  2.8350
 4216SOL    HW224108   2.298   2.531  15.715 -1.2646  0.0235  0.0356
 4217SOL     OW24109   4.579   2.365   3.938  0.4153  0.2560  0.3477
 4217SOL    HW124110   4.659   2.321   3.966  0.5881  0.7792  0.6802
 4217SOL    HW224111   4.608   2.455   3.922  1.5845  0.2723  2.5454
 4218SOL     OW24112   3.873   4.239  14.301 -0.0379 -0.1511  0.1847
 4218SOL    HW124113   3.811   4.210  14.234  0.3230 -0.8991  0.1820
 4218SOL    HW224114   3.878   4.155  14.345 -2.1844 -1.2154 -1.5791
 4219SOL     OW24115   3.247   2.082   4.293  0.4334 -0.3740  0.1461
 4219SOL    HW124116   3.293   2.000   4.313 -0.3075 -0.5149  1.3145
 4219SOL    HW224117   3.176   2.075   4.358  0.3202  1.0259  0.1706
 4220SOL     OW24118   2.422   1.801   3.337  0.3177  0.0980 -0.0087
 4220SOL    HW124119   2.445   1.734   3.401  1.3388  1.1398  0.7118
 4220SOL    HW224120   2.359   1.852   3.388  1.6902  0.6684  1.0954
 4221SOL     OW24121   3.361   2.374   5.214  0.2503  0.7317  0.3386
 4221SOL    HW124122   3.276   2.339   5.239  1.6419 -2.2056  0.9877
 4221SOL    HW224123   3.373   2.437   5.285 -0.6560  0.8909  0.3501
 4222SOL     OW24124   2.513   0.632   2.199  0.1135 -0.0091 -0.7984
 4222SOL    HW124125   2.500   0.727   2.192  3.1186  0.3216 -2.0583
 4222SOL    HW224126   2.472   0.613   2.283  3.2587  0.0458  0.7665
 4223SOL     OW24127   3.019   3.517   9.233 -0.5514 -1.2401 -0.1926
 4223SOL    HW124128   2.957   3.550   9.298 -0.9582 -0.7587 -0.8301
 4223SOL    HW224129   3.099   3.510   9.284 -0.8958  0.6262  0.5743
 4224SOL     OW24130   1.212   2.751   4.552 -0.4175  0.1897  0.4649
 4224SOL    HW124131   1.215   2.787   4.640 -0.9769 -1.6169  1.2110
 4224SOL    HW224132   1.209   2.656   4.566 -0.9917  0.5369  2.6425
 4225SOL     OW24133   0.390   2.996  10.744  0.2533 -0.3045 -0.1028
 4225SOL    HW124134   0.338   3.003  10.664 -0.1324 -2.0312 -0.0037
 4225SOL    HW224135   0.318   2.964  10.798  0.0659 -0.3814 -0.3948
 4226SOL     OW24136   3.312   4.074   8.994 -0.4132 -0.1676  0.0196
 4226SOL    HW124137   3.259   4.146   8.959  0.6751  0.2677 -0.7824
 4226SOL    HW224138   3.344   4.115   9.074 -0.2421  0.9888 -0.6397
 4227SOL     OW24139   2.049   3.389   6.130  0.5765  0.5260  0.6156
 4227SOL    HW124140   2.072   3.453   6.062  1.9822  1.7284  2.2168
 4227SOL    HW224141   2.071   3.304   6.094  1.2027  1.8945 -2.2380
 4228SOL     OW24142   3.137   2.524  16.286 -0.0798 -0.0605 -0.0502
 4228SOL    HW124143   3.143   2.504  16.379  2.0051 -0.6253 -0.3062
 4228SOL    HW224144   3.153   2.438  16.247 -0.5947 -0.1663 -0.0218
 4229SOL     OW24145   3.895   1.622   5.818 -0.3437  0.1352  0.0188
 4229SOL    HW124146   3.831   1.692   5.806 -0.9695 -0.4892 -0.2970
 4229SOL    HW224147   3.916   1.583   5.734  0.1936  0.7869 -0.1434
 4230SOL     OW24148   3.720   1.287   3.130 -0.0042  0.5635 -0.1606
 4230SOL    HW124149   3.640   1.235   3.121  0.9118 -0.6703 -1.0680
 4230SOL    HW224150   3.687   1.372   3.101  1.5844  0.9931 -0.6933
 4231SOL     OW24151   0.567   1.586   2.911 -0.9736  0.4960 -0.6188
 4231SOL    HW124152   0.576   1.676   2.943  1.7025 -0.6154  1.8032
 4231SOL    HW224153   0.484   1.557   2.948  0.0705 -2.5000 -0.6200
 4232SOL     OW24154   3.763   3.834  12.797  0.0001  0.1006  0.1699
 4232SOL    HW124155   3.823   3.902  12.767 -0.4508 -0.3606 -1.7546
 4232SOL    HW224156   3.680   3.869  12.764 -1.8527 -1.4748  3.0353
 4233SOL     OW24157   1.077   3.461   4.105 -0.2960  0.4619 -0.0494
 4233SOL    HW124158   0.987   3.465   4.137 -1.2601 -1.4175 -2.5232
 4233SOL    HW224159   1.104   3.553   4.109  0.7059  0.1445  0.5499
 4234SOL     OW24160   1.167   3.091  16.248 -0.2456 -0.5328  0.7492
 4234SOL    HW124161   1.222   3.057  16.318  0.9916  1.3197  0.6742
 4234SOL    HW224162   1.219   3.165  16.217 -0.4755 -0.8092 -0.3148
 4235SOL     OW24163   0.579   4.478   5.237  0.2683  0.1624  0.4876
 4235SOL    HW124164   0.554   4.554   5.183  1.6001  0.6213  0.5035
 4235SOL    HW224165   0.617   4.531   5.307  0.5802 -0.5558  0.8521
 4236SOL     OW24166   0.156   2.069   3.031 -0.2671  0.5958  0.6670
 4236SOL    HW124167   0.103   2.140   3.069 -0.8695  0.7470 -0.4730
 4236SOL    HW224168   0.085   2.018   2.993  0.1444  0.5116  0.0209
 4237SOL     OW24169   3.417   1.622   6.499 -0.1858  0.5600 -0.1963
 4237SOL    HW124170   3.486   1.586   6.555 -1.7813 -1.7080  0.2742
 4237SOL    HW224171   3.354   1.551   6.498 -0.6258  0.9273  1.1858
 4238SOL     OW24172   3.756   0.345   7.342  0.3550 -0.0296  0.1156
 4238SOL    HW124173   3.690   0.303   7.288 -0.9666  1.3527  0.6728
 4238SOL    HW224174   3.725   0.334   7.432  1.5928 -1.6643  0.3581
 4239SOL     OW24175   1.058   2.332  10.321 -0.2109  0.1922 -0.2156
 4239SOL    HW124176   1.135   2.356  10.269  1.6909 -0.3647  2.2903
 4239SOL    HW224177   1.040   2.404  10.382 -1.5187  0.6751 -1.1684
 4240SOL     OW24178   2.040   2.388   3.986 -0.2743  0.3625  0.2986
 4240SOL    HW124179   1.961   2.404   3.935 -1.2821  2.6774  2.6212
 4240SOL    HW224180   2.040   2.292   3.993 -0.1383  0.2570 -1.1695
 4241SOL     OW24181   3.476   0.474   3.740 -0.4331  0.2934  0.1789
 4241SOL    HW124182   3.511   0.417   3.809 -2.4946 -0.4898  0.5657
 4241SOL    HW224183   3.435   0.414   3.679 -1.2593  0.2922  0.7392
 4242SOL     OW24184   1.875   0.558   6.953 -0.3006  0.0107  0.1804
 4242SOL    HW124185   1.870   0.470   6.990 -1.4796  0.0341  0.0798
 4242SOL    HW224186   1.969   0.565   6.941 -0.7851  1.0964 -2.9213
 4243SOL     OW24187   3.487   3.264   3.063  0.4810  0.0043 -0.0655
 4243SOL    HW124188   3.468   3.226   3.149 -1.1094  0.6063 -0.1623
 4243SOL    HW224189   3.432   3.340   3.077  1.6899  0.9844 -0.6167
 4244SOL     OW24190   2.052   2.085   8.753 -0.4111 -0.8740  0.4376
 4244SOL    HW124191   2.044   2.180   8.764 -1.0841 -0.8007 -0.6860
 4244SOL    HW224192   1.960   2.061   8.758 -0.9455  0.8943 -0.8800
 4245SOL     OW24193   2.499   0.459  13.278 -0.0348  0.2459  0.4842
 4245SOL    HW124194   2.534   0.377  13.245 -1.7279 -0.6711  0.9394
 4245SOL    HW224195   2.407   0.433  13.281  0.5463 -1.8665 -0.3706
 4246SOL     OW24196   4.037   4.554   7.301  0.5335  0.0041 -0.0189
 4246SOL    HW124197   4.070   4.624   7.357  0.8803  1.8409 -2.4949
 4246SOL    HW224198   4.107   4.575   7.239 -1.0542  1.5106 -1.3011
 4247SOL     OW24199   2.276   3.071  10.622  0.3138  0.0714  0.1117
 4247SOL    HW124200   2.265   3.094  10.714  3.7686  1.6926  0.0896
 4247SOL    HW224201   2.371   3.070  10.611  0.2824 -0.7136 -0.1221
 4248SOL     OW24202   1.276   0.390  10.528 -0.3751  0.1186  0.3193
 4248SOL    HW124203   1.253   0.297  10.525 -0.4646  0.1404  0.3278
 4248SOL    HW224204   1.254   0.406  10.437  0.4944  2.0542  0.4637
 4249SOL     OW24205   0.742   4.114  11.638 -0.3119  0.4507  0.0041
 4249SOL    HW124206   0.756   4.169  11.561 -0.5205  0.2164 -0.1986
 4249SOL    HW224207   0.803   4.041  11.630 -1.2692 -0.2062 -1.2840
 4250SOL     OW24208   1.174   3.859   5.411 -0.4198 -0.1570  0.6676
 4250SOL    HW124209   1.245   3.815   5.366  0.1184  0.9222  0.4688
 4250SOL    HW224210   1.118   3.894   5.341  1.2930  1.9455  0.3654
 4251SOL     OW24211   0.662   0.509   2.999  0.4922  0.2725  0.1586
 4251SOL    HW124212   0.682   0.435   2.941 -0.5366 -0.4480  0.7014
 4251SOL    HW224213   0.709   0.489   3.080  0.7590  0.6148  0.0842
 4252SOL     OW24214   2.019   4.271  13.061 -0.4035  0.0479 -0.0358
 4252SOL    HW124215   1.938   4.223  13.080  0.7600 -2.0706 -0.4564
 4252SOL    HW224216   2.061   4.284  13.146 -0.1976  0.3666 -0.1841
 4253SOL     OW24217   0.530   0.416   8.555 -0.0875  0.5309 -0.5745
 4253SOL    HW124218   0.547   0.379   8.642  1.4197  0.0515 -1.0717
 4253SOL    HW224219   0.483   0.497   8.576 -0.1695  0.8873 -2.1325
 4254SOL     OW24220   2.548   0.736  13.418 -0.2754 -0.0449 -0.0952
 4254SOL    HW124221   2.618   0.742  13.353  0.7165 -0.7485  0.8916
 4254SOL    HW224222   2.512   0.652  13.389  1.5962 -0.7148 -0.4645
 4255SOL     OW24223   1.486   3.191   2.390  0.4461 -0.0693 -0.0988
 4255SOL    HW124224   1.542   3.268   2.400 -0.4291  0.8286 -2.1479
 4255SOL    HW224225   1.446   3.199   2.476  1.1015  0.6699  0.1423
 4256SOL     OW24226   1.311   0.823   3.148  0.0482  0.5731 -0.6929
 4256SOL    HW124227   1.363   0.842   3.227 -0.2171 -0.2124 -0.3252
 4256SOL    HW224228   1.257   0.746   3.166  1.9824 -0.4857  0.6303
 4257SOL     OW24229   1.494   2.272  17.045  0.2866 -0.3323  0.0504
 4257SOL    HW124230   1.408   2.252  17.009 -0.1896 -0.8556  1.4718
 4257SOL    HW224231   1.478   2.284  17.138 -1.4109  0.3348 -0.3377
 4258SOL     OW24232   1.286   2.355   7.227 -0.3639  0.1599  0.4936
 4258SOL    HW124233   1.190   2.353   7.216 -0.3589  0.1129  0.4575
 4258SOL    HW224234   1.301   2.368   7.133 -1.9300 -0.7390  0.1035
 4259SOL     OW24235   1.489   3.701   8.679 -0.0931 -0.0640 -0.4034
 4259SOL    HW124236   1.416   3.693   8.618 -0.8394  1.5539  0.2623
 4259SOL    HW224237   1.568   3.683   8.629  0.7962 -0.7750  1.2566
 4260SOL     OW24238   0.269   2.312   3.874  0.1389  0.0267  0.1471
 4260SOL    HW124239   0.198   2.265   3.918 -0.0644  0.4782  0.3047
 4260SOL    HW224240   0.235   2.394   3.839 -0.6559 -0.8075 -0.9996
 4261SOL     OW24241   2.779   1.060  11.716 -0.1544 -0.6734 -0.0647
 4261SOL    HW124242   2.804   1.028  11.629 -1.7947  1.9899 -1.5038
 4261SOL    HW224243   2.703   1.116  11.700 -1.9717 -2.5732  1.8463
 4262SOL     OW24244   0.671   0.386   6.984  0.3012 -0.7444 -0.6523
 4262SOL    HW124245   0.680   0.476   6.954  2.0326  0.0762  2.3210
 4262SOL    HW224246   0.638   0.401   7.073  3.2502  1.7306 -0.0070
 4263SOL     OW24247   1.502   1.383  10.030 -0.4853 -0.1138 -0.1218
 4263SOL    HW124248   1.525   1.442   9.958 -0.9905 -0.7777 -0.8178
 4263SOL    HW224249   1.408   1.393  10.043 -0.7789 -0.5098 -1.9107
 4264SOL     OW24250   2.418   3.428   1.788 -0.5004  0.1474  0.5704
 4264SOL    HW124251   2.472   3.504   1.808  0.2726 -0.0346 -0.8465
 4264SOL    HW224252   2.481   3.364   1.756 -2.1696 -1.4707  0.4769
 4265SOL     OW24253   3.121   0.906   1.113 -0.5776  1.0746 -0.3437
 4265SOL    HW124254   3.122   0.827   1.059 -0.1099 -0.7236  2.2875
 4265SOL    HW224255   3.099   0.978   1.054 -0.4127  1.9438  0.6380
 4266SOL     OW24256   4.371   2.741   0.889 -0.0634 -0.4280 -0.2134
 4266SOL    HW124257   4.425   2.817   0.866  0.5904 -0.6621  0.5757
 4266SOL    HW224258   4.355   2.691   0.809  0.9555  0.1672 -0.7935
 4267SOL     OW24259   0.828   3.746  16.106 -0.5361  0.0211 -0.3503
 4267SOL    HW124260   0.900   3.728  16.046 -0.4233  0.1500 -0.2513
 4267SOL    HW224261   0.823   3.656  16.138 -0.6113  1.0901  2.5576
 4268SOL     OW24262   4.234   1.370   3.439 -0.1260  0.1108  0.4075
 4268SOL    HW124263   4.245   1.404   3.528 -3.2103  1.5175  0.2646
 4268SOL    HW224264   4.323   1.390   3.412 -0.8908  2.9518 -0.0952
 4269SOL     OW24265   2.977   2.496   7.639  0.1205  0.2612  0.3424
 4269SOL    HW124266   2.970   2.568   7.576 -0.5305  0.3355  0.4990
 4269SOL    HW224267   2.985   2.545   7.720  0.6699 -0.2382  0.5915
 4270SOL     OW24268   4.507   1.297  12.861  0.2931  0.1741  0.7749
 4270SOL    HW124269   4.489   1.216  12.907 -2.5891  0.9864  1.0837
 4270SOL    HW224270   4.445   1.350  12.911 -0.2465 -0.1147  0.4104
 4271SOL     OW24271   1.730   4.378   7.158 -0.6433  0.1790 -0.2537
 4271SOL    HW124272   1.783   4.340   7.228 -1.4848  1.7996  1.2705
 4271SOL    HW224273   1.773   4.461   7.137 -0.0002  0.6265  2.8537
 4272SOL     OW24274   3.084   0.989   5.291 -0.7233 -1.1936  0.2736
 4272SOL    HW124275   3.012   1.005   5.353  0.7637 -1.1055  1.9615
 4272SOL    HW224276   3.074   0.894   5.280  2.3386 -1.3736 -0.9918
 4273SOL     OW24277   2.285   4.051   6.909 -0.4378 -0.0985  0.0307
 4273SOL    HW124278   2.204   4.067   6.861 -0.2397  0.3480 -0.1509
 4273SOL    HW224279   2.350   4.052   6.839 -1.0133  3.2332 -0.4565
 4274SOL     OW24280   2.930   3.424   3.731  0.1092  0.3355  0.3557
 4274SOL    HW124281   2.958   3.427   3.640 -2.5682 -0.7984 -0.5224
 4274SOL    HW224282   2.944   3.512   3.765 -0.7695 -0.3274  2.4870
 4275SOL     OW24283   2.435   4.370  14.506 -0.0364 -0.2845 -0.0192
 4275SOL    HW124284   2.509   4.371  14.445  0.5094  2.9895  0.7051
 4275SOL    HW224285   2.452   4.447  14.561  1.0341  0.3150 -1.1784
 4276SOL     OW24286   0.404   3.444   2.529 -0.4512 -0.0847 -0.0839
 4276SOL    HW124287   0.391   3.355   2.563  0.8730 -0.3804 -0.3436
 4276SOL    HW224288   0.471   3.479   2.587 -1.8771  0.7439  1.0519
 4277SOL     OW24289   2.126   0.223   3.128 -0.1599 -0.1980  0.3322
 4277SOL    HW124290   2.191   0.293   3.124 -0.1496 -0.1916  0.5773
 4277SOL    HW224291   2.161   0.163   3.193 -0.5077 -0.7517  0.0070
 4278SOL     OW24292   0.037   4.673   9.561 -0.3616  0.0924 -0.5285
 4278SOL    HW124293   4.672   4.704   9.593 -0.6439 -0.7933 -0.4436
 4278SOL    HW224294   0.014   4.642   9.473 -0.1427  0.5078 -0.7366
 4279SOL     OW24295   1.464   1.449   4.007  0.5261  0.0490 -0.6814
 4279SOL    HW124296   1.416   1.463   4.089  0.5923  3.4851 -1.2261
 4279SOL    HW224297   1.434   1.526   3.958  1.4225 -0.0865 -1.4523
 4280SOL     OW24298   1.722   4.301   3.515 -0.1080  0.5434 -0.3878
 4280SOL    HW124299   1.634   4.276   3.485 -0.1431  1.2162 -0.8472
 4280SOL    HW224300   1.772   4.294   3.434 -1.2120 -1.8251 -0.8669
 4281SOL     OW24301   3.009   3.194  10.121 -0.2620 -0.0636 -0.3915
 4281SOL    HW124302   2.967   3.254  10.059  0.3176  0.9305  0.1914
 4281SOL    HW224303   2.975   3.211  10.209  0.7719 -1.8809  0.3660
 4282SOL     OW24304   3.458   0.034   1.377  0.5906  0.4592  0.1023
 4282SOL    HW124305   3.447   4.716   1.464 -0.3050  1.1340  0.2760
 4282SOL    HW224306   3.550   0.006   1.375 -0.1530 -1.8502 -1.0845
 4283SOL     OW24307   4.060   2.627  10.702 -0.1253 -0.1190 -0.4226
 4283SOL    HW124308   4.014   2.552  10.740 -1.4901  0.7984 -0.2480
 4283SOL    HW224309   4.102   2.655  10.783  1.4660  1.3980 -1.7851
 4284SOL     OW24310   4.058   1.550   2.731  0.0553  0.4216 -0.4648
 4284SOL    HW124311   3.990   1.533   2.796  1.0908  1.2928  0.8350
 4284SOL    HW224312   4.116   1.613   2.775 -0.4446  0.8530 -0.4252
 4285SOL     OW24313   2.839   3.825   7.404  0.1058 -0.6325 -0.2140
 4285SOL    HW124314   2.866   3.734   7.387  0.5409 -0.7745  1.1803
 4285SOL    HW224315   2.810   3.816   7.495 -0.4391  1.2680 -0.2053
 4286SOL     OW24316   1.276   3.193   6.191 -0.1125 -0.3528  0.0173
 4286SOL    HW124317   1.332   3.117   6.177  1.7392  0.7346  1.5393
 4286SOL    HW224318   1.316   3.268   6.147  0.7085 -2.1392 -2.2428
 4287SOL     OW24319   1.947   1.052  13.410 -0.0245  0.2863  0.2549
 4287SOL    HW124320   1.938   1.143  13.381 -0.8623 -0.1000 -0.6756
 4287SOL    HW224321   1.917   1.008  13.331 -1.3638  2.3319 -0.3890
 4288SOL     OW24322   0.195   0.289  11.822  0.3213 -0.1416 -0.9047
 4288SOL    HW124323   0.254   0.313  11.751  0.6836 -0.1944 -0.6237
 4288SOL    HW224324   0.119   0.296  11.764 -0.3233  2.6265  0.2586
 4289SOL     OW24325   2.156   4.237  13.304  0.5690 -0.2710 -0.0330
 4289SOL    HW124326   2.191   4.150  13.323  0.4942 -0.3844 -0.4314
 4289SOL    HW224327   2.107   4.256  13.384  2.9263 -2.1332  1.8777
 4290SOL     OW24328   2.768   3.158   5.798  0.5042  0.0113 -0.1472
 4290SOL    HW124329   2.781   3.251   5.781 -2.4044  0.3515 -0.5096
 4290SOL    HW224330   2.854   3.133   5.834 -0.5502  1.5040  3.4245
 4291SOL     OW24331   4.505   4.438  10.497  0.0870 -0.0483 -0.6827
 4291SOL    HW124332   4.488   4.432  10.590 -0.0236 -0.4919 -0.7332
 4291SOL    HW224333   4.509   4.344  10.480 -0.0877 -0.7218  3.0094
 4292SOL     OW24334   1.354   1.751   0.080 -0.0269  0.3529 -0.1129
 4292SOL    HW124335   1.435   1.777   0.123 -0.0550  0.6786 -0.2542
 4292SOL    HW224336   1.289   1.768   0.149  2.0998  1.1797  1.6703
 4293SOL     OW24337   4.382   1.262   6.017 -0.3697 -0.6637  0.3497
 4293SOL    HW124338   4.367   1.318   5.940 -0.4520 -0.5837  0.4228
 4293SOL    HW224339   4.348   1.177   5.991  1.3615 -1.8591  2.0355
 4294SOL     OW24340   0.276   0.793   9.022  0.4345 -0.1091  0.6961
 4294SOL    HW124341   0.211   0.864   9.021  3.1598  2.3901 -1.1072
 4294SOL    HW224342   0.239   0.733   9.086  0.0960 -0.1034  0.5105
 4295SOL     OW24343   1.450   2.681   5.077 -0.4355 -0.0621 -0.5208
 4295SOL    HW124344   1.390   2.742   5.120 -0.2866  0.8449 -1.5874
 4295SOL    HW224345   1.449   2.608   5.138 -0.1830  0.6468  0.3314
 4296SOL     OW24346   4.691   2.666  12.235  0.0275  0.5741 -0.1273
 4296SOL    HW124347   4.702   2.650  12.142 -0.7970 -0.6569 -0.0178
 4296SOL    HW224348   4.682   2.574  12.261  2.3597  0.4479  0.1645
 4297SOL     OW24349   0.144   1.289   5.545  0.1955  0.7608 -0.1263
 4297SOL    HW124350   0.212   1.328   5.600  0.5929  0.8087 -0.6572
 4297SOL    HW224351   0.178   1.308   5.458 -0.9352 -0.0484 -0.7419
 4298SOL     OW24352   4.177   4.426   8.956 -0.0992  0.4279 -0.4212
 4298SOL    HW124353   4.110   4.362   8.982  1.5707 -1.0541  0.2826
 4298SOL    HW224354   4.229   4.426   9.036  0.3273  1.7732 -0.7062
 4299SOL     OW24355   3.098   1.937   0.682  0.5600  0.5359 -0.3073
 4299SOL    HW124356   3.031   1.903   0.622 -0.2881  0.4259  0.7019
 4299SOL    HW224357   3.158   1.979   0.620  1.1899  1.0777  0.6686
 4300SOL     OW24358   2.357   2.905   7.906 -0.0202 -0.1893  0.0022
 4300SOL    HW124359   2.417   2.926   7.977 -1.0950  0.8928  0.5988
 4300SOL    HW224360   2.377   2.976   7.845  1.1366 -0.4059  0.1362
 4301SOL     OW24361   4.604   2.114   6.336  0.1123 -0.3387  0.1148
 4301SOL    HW124362   4.611   2.180   6.406 -1.3506 -2.6409  2.4305
 4301SOL    HW224363   4.517   2.077   6.346 -1.5011  3.2050 -0.9809
 4302SOL     OW24364   3.027   1.958  13.734 -0.0466 -0.2727 -0.4836
 4302SOL    HW124365   2.979   1.893  13.683 -0.1995 -1.9315  1.7948
 4302SOL    HW224366   3.018   1.903  13.812  0.6046  2.3089  1.3943
 4303SOL     OW24367   1.432   1.189   8.600  0.0195  0.2180 -0.2242
 4303SOL    HW124368   1.404   1.247   8.529 -1.4341 -0.5907 -0.3092
 4303SOL    HW224369   1.358   1.176   8.659 -0.0429  0.3462 -0.2759
 4304SOL     OW24370   0.941   0.563   6.419 -0.2429 -0.1539 -0.1169
 4304SOL    HW124371   0.910   0.516   6.495 -1.6184  1.1034  0.0937
 4304SOL    HW224372   1.021   0.600   6.457 -1.1439  2.3781 -0.6387
 4305SOL     OW24373   0.869   3.188   4.219  0.0396 -0.5789  0.2820
 4305SOL    HW124374   0.811   3.227   4.285  1.2953 -1.9858  2.2239
 4305SOL    HW224375   0.865   3.097   4.250 -2.5083 -0.8737 -0.9311
 4306SOL     OW24376   3.858   1.776   4.964  0.2979  0.2570  0.3003
 4306SOL    HW124377   3.886   1.861   4.997  0.9112 -0.5677  1.8807
 4306SOL    HW224378   3.777   1.793   4.915  1.3217 -1.5922 -2.0454
 4307SOL     OW24379   4.182   0.451   8.815 -0.3724  0.4268  0.2079
 4307SOL    HW124380   4.243   0.384   8.846  0.9340  2.5890  2.2884
 4307SOL    HW224381   4.220   0.467   8.729 -1.2554  2.8078  0.2779
 4308SOL     OW24382   0.879   0.149  12.193  0.2389 -0.4638 -0.7215
 4308SOL    HW124383   0.959   0.177  12.238 -1.6299 -0.4772  2.6295
 4308SOL    HW224384   0.836   0.081  12.246 -0.1756 -1.0571 -1.8161
 4309SOL     OW24385   2.776   2.152   1.294  0.1711 -0.1003  0.5827
 4309SOL    HW124386   2.743   2.075   1.248  4.8280 -1.3380 -0.6974
 4309SOL    HW224387   2.795   2.219   1.228 -0.7389 -0.6159 -0.2098
 4310SOL     OW24388   0.039   1.966  14.212  0.2332  0.5214  0.0367
 4310SOL    HW124389   0.061   1.896  14.151  0.2234  0.4785  0.0820
 4310SOL    HW224390   4.665   1.978  14.198  0.1470  1.5399  1.5159
 4311SOL     OW24391   1.396   2.120   5.290  0.1459  0.6086 -0.0065
 4311SOL    HW124392   1.337   2.044   5.292  0.3017  0.5408  1.8260
 4311SOL    HW224393   1.354   2.171   5.221  1.7991  0.6394 -1.0039
 4312SOL     OW24394   3.241   0.515   3.211 -0.8256 -0.5649 -0.2470
 4312SOL    HW124395   3.225   0.603   3.245 -1.3902 -0.5364 -0.5925
 4312SOL    HW224396   3.336   0.518   3.197 -0.9300 -0.1298 -0.8604
 4313SOL     OW24397   1.149   2.914   4.244  0.6225  0.3936  0.1896
 4313SOL    HW124398   1.216   2.976   4.273  1.2022 -1.3791  2.7238
 4313SOL    HW224399   1.092   2.906   4.321 -0.8414 -1.1331 -1.0422
 4314SOL     OW24400   0.173   0.178   1.683 -0.3882  0.2487 -0.0660
 4314SOL    HW124401   0.177   0.132   1.767  1.8767  0.5085 -0.0267
 4314SOL    HW224402   0.116   0.253   1.700  1.6324  1.2746  2.2701
 4315SOL     OW24403   3.198   2.410  16.553  0.7004  0.5842  0.2854
 4315SOL    HW124404   3.233   2.400  16.641 -1.2284 -0.6654  0.9021
 4315SOL    HW224405   3.195   2.318  16.527 -1.3056  0.6965  0.0693
 4316SOL     OW24406   1.633   0.360  16.755 -0.1052 -0.2576  0.3782
 4316SOL    HW124407   1.597   0.364  16.844 -0.5322 -1.5522  0.2655
 4316SOL    HW224408   1.580   0.292  16.713  0.6664  0.0542 -1.0888
 4317SOL     OW24409   2.337   4.573   7.938  0.8411 -0.4952 -0.0938
 4317SOL    HW124410   2.420   4.610   7.967  1.2861 -3.0144  1.8145
 4317SOL    HW224411   2.308   4.634   7.870  2.5904  0.2806 -0.1541
 4318SOL     OW24412   1.815   3.829   7.869  0.4858 -0.3730  0.3790
 4318SOL    HW124413   1.773   3.774   7.935  1.5064 -0.2746  1.0943
 4318SOL    HW224414   1.801   3.797   7.779 -2.1211  1.3146  0.1747
 4319SOL     OW24415   1.257   4.318   4.504  0.1907  0.2529  0.2126
 4319SOL    HW124416   1.204   4.376   4.560  0.0403 -0.0112  0.3423
 4319SOL    HW224417   1.298   4.379   4.443  0.4270  1.8616  1.9667
 4320SOL     OW24418   0.208   4.645   8.232 -0.1883  0.2736 -0.2853
 4320SOL    HW124419   0.302   4.648   8.249 -0.2587 -0.5956  0.2791
 4320SOL    HW224420   0.167   4.690   8.307 -2.2065 -0.1678 -1.1371
 4321SOL     OW24421   0.811   2.388   7.334 -0.2883 -0.3830 -0.1767
 4321SOL    HW124422   0.767   2.404   7.417  1.8507  1.7735  0.5673
 4321SOL    HW224423   0.773   2.462   7.286 -1.3496 -1.6046 -1.2137
 4322SOL     OW24424   3.726   2.624   5.346  0.3566  0.6211 -0.0998
 4322SOL    HW124425   3.662   2.691   5.321 -0.5482  0.2363  1.1824
 4322SOL    HW224426   3.738   2.586   5.259  0.3646 -2.9442  1.4811
 4323SOL     OW24427   3.146   1.324   2.780  0.2865 -0.1323  0.1174
 4323SOL    HW124428   3.201   1.260   2.735 -1.9467 -3.0819  1.6113
 4323SOL    HW224429   3.120   1.374   2.702  2.8937  0.8002 -0.1779
 4324SOL     OW24430   3.532   4.022  12.770  0.4834 -0.5254  0.2983
 4324SOL    HW124431   3.534   4.092  12.704 -4.0240 -1.3146 -0.6424
 4324SOL    HW224432   3.445   3.987  12.751 -0.2900 -0.2222  3.2635
 4325SOL     OW24433   3.641   2.185   9.287 -0.0904  0.5567 -0.8097
 4325SOL    HW124434   3.650   2.145   9.373 -0.4645 -1.5248 -1.7295
 4325SOL    HW224435   3.548   2.172   9.270 -0.2861  0.4865  0.3432
 4326SOL     OW24436   3.985   0.421   3.197 -0.2473  0.1304  0.4107
 4326SOL    HW124437   3.953   0.451   3.112  0.5236  0.7006  0.3225
 4326SOL    HW224438   4.061   0.369   3.169  1.6383  3.6994 -1.0669
 4327SOL     OW24439   1.908   3.769   6.054 -0.1377 -0.5150  0.0301
 4327SOL    HW124440   1.854   3.795   5.979 -0.8153  1.2303  1.1182
 4327SOL    HW224441   1.979   3.833   6.050  0.4779 -1.0707  1.9480
 4328SOL     OW24442   4.506   3.402   9.112 -0.0482  0.1724  0.0349
 4328SOL    HW124443   4.488   3.385   9.205  0.7051 -0.1272  0.1307
 4328SOL    HW224444   4.601   3.390   9.104  0.2286  0.5804  2.6141
 4329SOL     OW24445   3.724   1.014  15.180  0.1032  0.3493  0.1828
 4329SOL    HW124446   3.708   0.962  15.101  3.6132  2.5164 -1.9666
 4329SOL    HW224447   3.709   0.954  15.253  1.0525 -0.5998 -0.4078
 4330SOL     OW24448   0.332   2.713  14.484  0.0003  0.1284 -1.0254
 4330SOL    HW124449   0.382   2.757  14.552 -0.4153  1.5877 -1.6763
 4330SOL    HW224450   0.274   2.663  14.541 -0.8810  3.4565  0.9760
 4331SOL     OW24451   4.242   3.371   5.685 -0.4189  0.1991 -0.4109
 4331SOL    HW124452   4.329   3.406   5.703  0.2702 -2.3027  1.1080
 4331SOL    HW224453   4.186   3.447   5.701 -2.2060 -1.1237 -0.4575
 4332SOL     OW24454   0.140   3.639  15.412 -0.2013 -0.2681  0.4629
 4332SOL    HW124455   0.147   3.555  15.457 -0.6610 -0.1995  0.6618
 4332SOL    HW224456   0.193   3.694  15.470  0.8848  0.3194 -1.0760
 4333SOL     OW24457   2.224   2.502   7.710  0.8292 -0.4520  0.4014
 4333SOL    HW124458   2.295   2.439   7.709  0.9191 -0.3183 -1.2476
 4333SOL    HW224459   2.203   2.516   7.618  1.2168  0.9921  0.5342
 4334SOL     OW24460   1.633   4.436   6.607 -0.1237  0.1736 -0.0116
 4334SOL    HW124461   1.702   4.388   6.560  0.9069  0.6074  1.0679
 4334SOL    HW224462   1.575   4.455   6.533  3.4866 -1.9324 -3.3966
 4335SOL     OW24463   1.300   0.714   2.171  0.0680  0.5510  0.0660
 4335SOL    HW124464   1.372   0.777   2.167 -0.1150  0.7421 -0.2162
 4335SOL    HW224465   1.331   0.670   2.250 -0.5761 -0.3706 -0.1925
 4336SOL     OW24466   0.407   0.556  12.080 -0.0368  0.1419 -0.1595
 4336SOL    HW124467   0.400   0.563  12.176 -1.6902  1.3986 -0.3699
 4336SOL    HW224468   0.347   0.485  12.062  1.2102 -0.8332 -0.4454
 4337SOL     OW24469   2.751   3.659  16.747 -0.2749 -0.3840 -0.5001
 4337SOL    HW124470   2.673   3.695  16.705 -0.9172 -1.5037 -0.2598
 4337SOL    HW224471   2.827   3.688  16.696 -0.6265  0.5002 -0.5216
 4338SOL     OW24472   0.809   0.559  16.843  0.5797 -0.1172 -0.2652
 4338SOL    HW124473   0.764   0.573  16.760  2.0166  1.2551 -0.8078
 4338SOL    HW224474   0.819   0.464  16.846  3.0013  0.1281 -0.5955
 4339SOL     OW24475   1.076   2.932   8.283 -0.6198 -0.3671  0.3344
 4339SOL    HW124476   1.001   2.917   8.226 -0.4850  0.9350 -0.1957
 4339SOL    HW224477   1.039   3.000   8.340  1.1740  1.0679 -0.2324
 4340SOL     OW24478   4.568   2.558   5.297  0.1219 -0.3237 -0.4064
 4340SOL    HW124479   4.512   2.506   5.239  1.2136 -1.2459 -0.6443
 4340SOL    HW224480   4.544   2.524   5.383  0.5768 -1.0980 -0.5842
 4341SOL     OW24481   1.322   4.594   7.935 -0.0637 -0.6109  0.4696
 4341SOL    HW124482   1.363   4.623   8.016  1.7596 -1.8819  0.0025
 4341SOL    HW224483   1.395   4.608   7.875 -1.8680 -0.2292 -1.6356
 4342SOL     OW24484   1.933   0.890   4.535 -0.0671  0.2445  0.2802
 4342SOL    HW124485   1.950   0.981   4.558  0.3264 -0.9089  4.5220
 4342SOL    HW224486   1.872   0.858   4.602 -1.4877 -1.0725 -1.6466
 4343SOL     OW24487   4.632   4.067  16.350  0.1417  0.0115  0.1709
 4343SOL    HW124488   4.569   4.136  16.368  1.7309  0.7280  2.8991
 4343SOL    HW224489   4.619   4.004  16.421 -0.2352 -2.3166 -1.9541
 4344SOL     OW24490   2.617   4.699  15.832 -0.2390  0.0466  0.1875
 4344SOL    HW124491   2.708   4.698  15.860  0.3688  2.3769 -1.7644
 4344SOL    HW224492   2.588   4.696  15.923  0.2197 -1.3135  0.2923
 4345SOL     OW24493   0.832   3.522  11.467  0.6031 -0.1899 -0.1080
 4345SOL    HW124494   0.797   3.449  11.416 -0.5355  0.2328  0.0686
 4345SOL    HW224495   0.779   3.598  11.443  0.8353 -0.3454 -1.0949
 4346SOL     OW24496   4.328   2.038   0.035  0.5239 -0.6378  0.5573
 4346SOL    HW124497   4.247   2.090   0.034  1.0327  0.2466  3.1622
 4346SOL    HW224498   4.341   2.023  17.622  0.2878 -0.8610  0.5604
 4347SOL     OW24499   0.975   3.981   3.468  0.2917  0.7321 -0.7182
 4347SOL    HW124500   1.012   4.007   3.383  0.5214 -0.1046 -0.8787
 4347SOL    HW224501   1.039   3.918   3.500  0.0148 -0.1113 -1.8067
 4348SOL     OW24502   3.220   0.915  12.198 -0.0621  0.2422 -0.1150
 4348SOL    HW124503   3.270   0.980  12.149  0.4192  0.1223  0.2193
 4348SOL    HW224504   3.218   0.946  12.288  2.7781  0.0044  0.0110
 4349SOL     OW24505   3.471   3.951   3.708 -0.0156 -0.6549  1.3120
 4349SOL    HW124506   3.380   3.922   3.714 -0.7920  1.0692 -2.1137
 4349SOL    HW224507   3.494   3.948   3.615 -0.1848  0.1253  1.2421
 4350SOL     OW24508   3.740   0.078   2.424 -0.3285  0.4640 -0.5120
 4350SOL    HW124509   3.649   0.051   2.428  0.1047 -0.7845  0.9181
 4350SOL    HW224510   3.736   0.123   2.339 -0.8316  0.5728 -0.4286
 4351SOL     OW24511   4.655   1.846   5.346  0.0614 -0.1501 -0.1556
 4351SOL    HW124512   4.574   1.800   5.369 -0.6610  1.3427  0.3022
 4351SOL    HW224513   4.711   1.772   5.324  1.2343  1.9941 -4.3161
 4352SOL     OW24514   1.265   3.004   1.540 -0.3047  0.2259  0.4365
 4352SOL    HW124515   1.327   2.938   1.509 -0.0426  1.0808 -0.8064
 4352SOL    HW224516   1.250   3.063   1.467  2.1477  1.2862  0.8205
 4353SOL     OW24517   0.292   4.128   8.076 -0.2308 -0.3894 -0.7087
 4353SOL    HW124518   0.270   4.211   8.035 -0.4697  0.7236  1.6541
 4353SOL    HW224519   0.310   4.071   8.001 -2.4458 -1.9588 -0.0315
 4354SOL     OW24520   2.809   1.955   4.120 -0.2032  0.4197 -0.6322
 4354SOL    HW124521   2.834   1.964   4.028  0.5991  1.2995 -0.3257
 4354SOL    HW224522   2.728   1.905   4.107 -0.1590  0.7263 -2.0652
 4355SOL     OW24523   1.671   1.513   7.527 -0.4382 -0.0023  0.0113
 4355SOL    HW124524   1.755   1.545   7.494  0.6744 -3.3227 -0.4432
 4355SOL    HW224525   1.672   1.521   7.622  1.3544  1.5050 -0.1274
 4356SOL     OW24526   3.192   0.719  12.881 -0.9284 -0.1109  0.0806
 4356SOL    HW124527   3.216   0.751  12.968  1.3304 -0.5961 -0.3502
 4356SOL    HW224528   3.138   0.784  12.837  0.9982  2.4977  1.5225
 4357SOL     OW24529   0.160   3.990   4.526 -0.2006  0.2604 -0.4023
 4357SOL    HW124530   0.080   3.938   4.515  1.4474 -1.9998 -1.4996
 4357SOL    HW224531   0.175   4.002   4.619 -1.7655 -2.0530  0.1541
 4358SOL     OW24532   2.507   2.382   7.458 -0.2232  0.2624 -0.4261
 4358SOL    HW124533   2.467   2.310   7.507 -1.4387  1.0510 -0.2609
 4358SOL    HW224534   2.526   2.443   7.529  3.7602 -0.0788 -1.2096
 4359SOL     OW24535   3.436   0.873   4.369  0.7184 -0.4197  0.3149
 4359SOL    HW124536   3.412   0.836   4.284  1.6296 -0.0566 -0.1022
 4359SOL    HW224537   3.386   0.813   4.425 -0.3610  1.3524  1.2440
 4360SOL     OW24538   4.169   0.297  13.448  0.1183 -0.6360 -0.4404
 4360SOL    HW124539   4.256   0.335  13.465 -0.2361 -0.7749  1.6936
 4360SOL    HW224540   4.165   0.289  13.353 -1.4257 -0.4508 -0.3963
 4361SOL     OW24541   1.044   3.203   2.154 -0.0589 -0.0759 -1.0048
 4361SOL    HW124542   1.136   3.230   2.160 -0.0463 -0.0441 -1.3371
 4361SOL    HW224543   1.022   3.210   2.246 -1.7094  0.3677 -1.4270
 4362SOL     OW24544   4.092   3.466   7.863 -0.3370 -0.0025  0.1834
 4362SOL    HW124545   4.115   3.542   7.810 -1.7433  0.2459 -0.0584
 4362SOL    HW224546   4.143   3.475   7.944 -2.8177 -3.5322  2.1402
 4363SOL     OW24547   1.293   3.299  17.488 -0.1640  0.7557 -0.6536
 4363SOL    HW124548   1.326   3.210  17.469  1.8567  1.6484 -1.3598
 4363SOL    HW224549   1.326   3.346  17.411 -2.5402 -0.6107 -2.4976
 4364SOL     OW24550   4.585   0.290  12.676  0.4097 -0.0016 -0.7266
 4364SOL    HW124551   4.528   0.341  12.734 -1.4275 -0.2864 -2.2524
 4364SOL    HW224552   4.654   0.270  12.739 -0.8483  1.4757  1.1348
 4365SOL     OW24553   2.164   1.146  14.068  0.1333  1.0651  0.3578
 4365SOL    HW124554   2.181   1.230  14.025  1.0749  0.6898 -0.0258
 4365SOL    HW224555   2.108   1.174  14.140 -0.7558  0.7441 -0.2127
 4366SOL     OW24556   1.338   2.648   4.303 -0.2403  0.4926 -0.1041
 4366SOL    HW124557   1.366   2.580   4.363 -1.6036  1.5944  1.7640
 4366SOL    HW224558   1.301   2.711   4.364  0.7433  1.9676 -1.0148
 4367SOL     OW24559   2.767   2.676  14.605  0.0101 -0.0676 -0.4550
 4367SOL    HW124560   2.840   2.665  14.544 -0.1851 -0.5364 -0.6038
 4367SOL    HW224561   2.714   2.602  14.575  0.3534  0.1154 -1.5357
 4368SOL     OW24562   3.797   0.093   9.072  0.2927  0.1768  0.3131
 4368SOL    HW124563   3.884   0.058   9.054  0.8012  1.2059  0.7445
 4368SOL    HW224564   3.814   0.187   9.064  2.3442 -0.2264  0.0102
 4369SOL     OW24565   0.131   1.174   2.248  0.3499  0.0007 -0.1929
 4369SOL    HW124566   0.132   1.149   2.340 -2.6181 -0.2122 -0.2084
 4369SOL    HW224567   0.177   1.258   2.254  0.4765 -0.4458  4.9824
 4370SOL     OW24568   2.043   0.872   5.355 -0.1680 -0.3085  0.4613
 4370SOL    HW124569   2.045   0.800   5.418  0.3008 -0.1449  0.6350
 4370SOL    HW224570   2.062   0.832   5.270  0.0482  0.2405  0.2540
 4371SOL     OW24571   2.380   1.864   8.223 -0.0349  0.4586 -0.4881
 4371SOL    HW124572   2.457   1.809   8.237 -0.2377  0.2330 -0.2701
 4371SOL    HW224573   2.414   1.929   8.161 -0.0013  1.1306  0.2452
 4372SOL     OW24574   3.351   0.103   8.004  0.2679 -0.4152  0.7331
 4372SOL    HW124575   3.375   0.051   8.081 -1.4229 -0.1793  1.4148
 4372SOL    HW224576   3.429   0.157   7.989 -0.6271  0.3153 -1.2038
 4373SOL     OW24577   0.554   1.349  10.713 -0.8079  0.6167 -0.2424
 4373SOL    HW124578   0.635   1.318  10.753 -2.7468 -3.7419  0.2885
 4373SOL    HW224579   0.491   1.290  10.753 -0.1364 -0.5678 -0.9334
 4374SOL     OW24580   3.488   1.841   2.532  0.7048  0.5798  0.0554
 4374SOL    HW124581   3.581   1.819   2.545  0.8438  0.9081 -0.4067
 4374SOL    HW224582   3.502   1.921   2.482 -0.3860 -0.0142 -1.1982
 4375SOL     OW24583   2.365   0.179   1.561 -0.7924  0.0708 -0.1707
 4375SOL    HW124584   2.341   0.087   1.572 -2.5218  0.6373  0.7938
 4375SOL    HW224585   2.309   0.225   1.624  2.1932 -0.9216  3.2242
 4376SOL     OW24586   2.475   4.024   6.712  0.0200  0.2961  0.4822
 4376SOL    HW124587   2.546   3.961   6.728  1.0524  1.2704 -0.2760
 4376SOL    HW224588   2.518   4.072   6.642 -0.6336 -0.4570 -0.4375
 4377SOL     OW24589   3.029   3.642   3.182  0.0860  0.0030  0.3184
 4377SOL    HW124590   3.006   3.611   3.270 -0.9579 -2.3023 -0.7937
 4377SOL    HW224591   2.981   3.581   3.127 -1.6343  0.7059  1.0360
 4378SOL     OW24592   3.751   2.468  10.255 -0.6061  0.5575 -0.2382
 4378SOL    HW124593   3.729   2.549  10.209  2.7825  1.2276 -0.7047
 4378SOL    HW224594   3.772   2.503  10.342  0.5152  2.2217 -1.1724
 4379SOL     OW24595   0.306   3.910   5.819  0.5792  0.3664 -0.1743
 4379SOL    HW124596   0.217   3.938   5.800  0.6076  1.4137  1.2056
 4379SOL    HW224597   0.362   3.986   5.835 -0.0132  1.2775 -2.4651
 4380SOL     OW24598   1.159   0.095   3.145 -0.0489 -0.0794  0.2403
 4380SOL    HW124599   1.247   0.070   3.114 -1.3462 -1.0501 -2.6894
 4380SOL    HW224600   1.113   0.011   3.149  0.5651 -0.5422 -2.1520
 4381SOL     OW24601   0.990   3.831   2.390  0.0304  0.3621 -0.0844
 4381SOL    HW124602   0.933   3.897   2.351  0.2728  1.3911  1.2784
 4381SOL    HW224603   0.952   3.749   2.359 -0.0957  0.6162 -0.5961
 4382SOL     OW24604   3.119   4.693   2.200 -0.5914  0.4125 -0.1742
 4382SOL    HW124605   3.172   0.042   2.240 -2.2502  0.9903  1.0621
 4382SOL    HW224606   3.038   0.025   2.202 -0.3572  0.8282 -1.4739
 4383SOL     OW24607   4.262   3.186   4.672  0.3375  0.2664  0.0980
 4383SOL    HW124608   4.226   3.272   4.652  0.6545  0.4582  0.3648
 4383SOL    HW224609   4.333   3.210   4.731 -0.2132  2.0460  0.0360
 4384SOL     OW24610   4.199   3.544   7.345  0.1478  0.3296  0.7391
 4384SOL    HW124611   4.126   3.485   7.366  0.5412 -0.5683 -0.4524
 4384SOL    HW224612   4.157   3.607   7.286 -0.1289 -0.4928  0.0616
 4385SOL     OW24613   4.512   1.081   7.487 -0.5987 -0.2684  0.2102
 4385SOL    HW124614   4.520   1.040   7.401  0.3925  0.0120  0.1719
 4385SOL    HW224615   4.525   1.001   7.538 -0.2817 -1.2855 -1.4519
 4386SOL     OW24616   3.908   0.857   2.228 -0.1226 -0.5551  0.4314
 4386SOL    HW124617   3.928   0.915   2.155  2.9453 -3.5655 -1.1181
 4386SOL    HW224618   3.842   0.794   2.198 -0.9831  1.9539 -2.9176
 4387SOL     OW24619   2.160   1.122   7.302  0.5007  0.0334  0.0821
 4387SOL    HW124620   2.204   1.062   7.362  0.4074  1.4340  1.5532
 4387SOL    HW224621   2.087   1.062   7.291  0.3770  0.0669  0.7236
 4388SOL     OW24622   1.681   1.166   3.134 -0.3510 -0.1949  0.2804
 4388SOL    HW124623   1.696   1.154   3.228 -0.5797 -0.1978  0.3167
 4388SOL    HW224624   1.689   1.261   3.123  1.6120 -0.2824  0.9243
 4389SOL     OW24625   4.662   1.121   3.074  0.2511  0.1679 -0.3024
 4389SOL    HW124626   4.716   1.094   3.149 -0.6861  1.3686  0.8009
 4389SOL    HW224627   4.636   1.042   3.027 -2.7497  1.4026 -0.7155
 4390SOL     OW24628   1.744   4.621  11.098 -0.2964 -0.2237 -0.4538
 4390SOL    HW124629   1.717   4.688  11.035  0.9291  0.5184 -0.2001
 4390SOL    HW224630   1.767   4.663  11.181  1.8621 -0.2120 -1.0775
 4391SOL     OW24631   3.810   2.117   8.665 -0.0980 -0.1584 -0.8503
 4391SOL    HW124632   3.899   2.144   8.642  0.2729  0.2749  1.1104
 4391SOL    HW224633   3.807   2.033   8.619 -0.0481 -0.5005 -0.2283
 4392SOL     OW24634   2.034   4.067  11.159 -0.5079  0.7060  0.1277
 4392SOL    HW124635   2.002   4.105  11.241 -1.1661  1.2778 -0.3871
 4392SOL    HW224636   1.956   4.019  11.130 -0.4100  0.4018  0.3672
 4393SOL     OW24637   2.669   0.823   8.505 -0.3783  0.4491  0.7000
 4393SOL    HW124638   2.744   0.820   8.446 -0.9527 -3.7714  0.1776
 4393SOL    HW224639   2.613   0.882   8.454  0.7577 -0.7715 -1.9472
 4394SOL     OW24640   0.150   0.638   0.849 -0.5398 -0.2794  0.9925
 4394SOL    HW124641   0.091   0.569   0.817 -0.9690  1.5360 -2.1555
 4394SOL    HW224642   0.206   0.597   0.915 -1.8110 -3.0575  0.3642
 4395SOL     OW24643   3.631   2.472   4.245  0.4378 -0.4695  0.4036
 4395SOL    HW124644   3.674   2.450   4.162  0.4644  0.4987  0.1585
 4395SOL    HW224645   3.643   2.567   4.249  1.5186 -0.4226 -3.4858
 4396SOL     OW24646   0.236   4.104   8.721  0.4547  0.4283  0.0221
 4396SOL    HW124647   0.212   4.100   8.814 -0.5400  0.9805 -0.2164
 4396SOL    HW224648   0.200   4.190   8.699  0.6858 -0.0720 -2.3064
 4397SOL     OW24649   0.053   4.509   2.079  0.2225 -0.3620 -0.2623
 4397SOL    HW124650   0.130   4.510   2.136  1.0520 -0.1682 -1.3927
 4397SOL    HW224651   0.102   4.496   1.998 -2.0770 -0.7447 -1.5820
 4398SOL     OW24652   2.957   0.986   8.758  0.0962  0.5089 -0.2460
 4398SOL    HW124653   2.978   0.973   8.666 -0.2578 -1.1317 -0.1003
 4398SOL    HW224654   2.916   0.900   8.769  0.4754  0.2449 -0.9650
 4399SOL     OW24655   3.612   4.592   5.938  0.3328  0.4448 -0.1181
 4399SOL    HW124656   3.550   4.661   5.960 -2.8665 -1.6454 -2.5763
 4399SOL    HW224657   3.624   4.559   6.026  2.1988  2.5693  0.4363
 4400SOL     OW24658   1.261   1.266   8.393  0.1440  0.3989 -0.2950
 4400SOL    HW124659   1.234   1.358   8.396 -1.0216  0.1013 -1.7481
 4400SOL    HW224660   1.328   1.271   8.325  2.0491 -0.1974  1.5191
 4401SOL     OW24661   0.257   2.522   7.316  0.3099  0.2085  0.1044
 4401SOL    HW124662   0.241   2.570   7.235  2.0558  0.4088 -0.1224
 4401SOL    HW224663   0.171   2.483   7.328 -0.6771  2.7225  1.2462
 4402SOL     OW24664   1.791   1.563   7.770 -0.5357  0.2925  0.4450
 4402SOL    HW124665   1.774   1.642   7.821  1.2338  0.2780  1.0488
 4402SOL    HW224666   1.875   1.584   7.730 -2.2664  0.5334 -3.0090
 4403SOL     OW24667   3.097   0.396  12.016  0.3759  0.3813 -0.2148
 4403SOL    HW124668   3.106   0.330  12.085 -3.8113 -2.0310 -1.9675
 4403SOL    HW224669   3.188   0.393  11.985  0.4917 -1.2515  0.2760
 4404SOL     OW24670   4.458   4.570   8.009  0.3517  0.5924  0.4848
 4404SOL    HW124671   4.475   4.584   7.915 -0.1685 -4.8674 -0.3809
 4404SOL    HW224672   4.537   4.579   8.061 -0.9912 -0.1938  2.6272
 4405SOL     OW24673   3.060   2.957   0.060  0.6347  0.3761 -0.3003
 4405SOL    HW124674   3.072   2.954   0.155 -1.2163 -3.0040 -0.1769
 4405SOL    HW224675   3.016   3.042   0.054 -0.7410 -0.2831  0.5627
 4406SOL     OW24676   2.638   1.989   6.501 -0.2164  0.1503  0.3585
 4406SOL    HW124677   2.731   1.996   6.521 -0.1498  0.4989 -0.0596
 4406SOL    HW224678   2.638   2.022   6.411 -0.4220 -1.1660 -0.1236
 4407SOL     OW24679   3.824   2.606  10.483 -0.3551  0.2662  0.7723
 4407SOL    HW124680   3.912   2.600  10.520 -0.3024 -0.6902  0.5010
 4407SOL    HW224681   3.766   2.601  10.559  0.3169  0.3470  1.2850
 4408SOL     OW24682   3.280   2.033   7.487  0.5750 -0.6058 -0.1251
 4408SOL    HW124683   3.283   1.943   7.520  0.0874 -0.3540  0.6105
 4408SOL    HW224684   3.278   2.083   7.568 -2.1543 -2.4850  0.9731
 4409SOL     OW24685   3.515   0.605   7.027 -0.6310  0.4561 -0.4505
 4409SOL    HW124686   3.500   0.633   7.117 -0.1309  0.2776 -0.3131
 4409SOL    HW224687   3.462   0.526   7.020 -0.9798  0.7177 -0.7600
 4410SOL     OW24688   2.802   1.249   5.033 -0.0107 -0.7574 -0.3697
 4410SOL    HW124689   2.737   1.186   4.999 -1.0926  0.2981 -0.2703
 4410SOL    HW224690   2.781   1.249   5.127  0.5176 -1.1007 -0.2529
 4411SOL     OW24691   1.129   1.667   3.115 -0.1750 -0.1477 -0.5272
 4411SOL    HW124692   1.101   1.707   3.197 -0.3008  0.0619 -0.6733
 4411SOL    HW224693   1.151   1.742   3.060 -0.3824  0.7746  0.6300
 4412SOL     OW24694   3.198   0.255  12.247 -0.3348 -0.1885  0.0539
 4412SOL    HW124695   3.269   0.231  12.188 -0.0005  0.7132  0.0900
 4412SOL    HW224696   3.190   0.171  12.293  2.0905 -0.4654 -0.0143
 4413SOL     OW24697   3.767   1.370   1.392 -0.3756 -0.2307 -0.8263
 4413SOL    HW124698   3.717   1.321   1.327  2.0945 -1.0371 -2.1271
 4413SOL    HW224699   3.850   1.328   1.369  0.3163  0.1585  0.9218
 4414SOL     OW24700   3.884   2.804  13.909 -0.0526  0.1210 -0.2019
 4414SOL    HW124701   3.859   2.880  13.963  0.0620  1.3153 -1.8184
 4414SOL    HW224702   3.929   2.745  13.969  1.5226  0.7821 -0.7139
 4415SOL     OW24703   2.778   4.653   2.378  0.2963 -0.0678  0.1216
 4415SOL    HW124704   2.720   4.621   2.446 -0.4492 -1.2856 -1.0878
 4415SOL    HW224705   2.837   4.706   2.433  0.8852  0.2483 -0.8034
 4416SOL     OW24706   0.216   3.879   3.188 -0.3675 -0.4088 -0.1786
 4416SOL    HW124707   0.139   3.822   3.197  0.6944 -1.3267  3.1827
 4416SOL    HW224708   0.222   3.886   3.092  0.6360  0.2231 -0.0649
 4417SOL     OW24709   3.123   0.528   4.924 -0.2602 -0.0398  0.1721
 4417SOL    HW124710   3.095   0.620   4.918 -0.3562 -0.1110 -0.5159
 4417SOL    HW224711   3.206   0.536   4.972  0.5406 -1.8283 -0.9043
 4418SOL     OW24712   2.667   4.095   9.739 -0.3874 -0.0240 -0.0200
 4418SOL    HW124713   2.626   4.029   9.795  0.9096  0.2847  1.3081
 4418SOL    HW224714   2.688   4.162   9.805 -0.3389  0.1194 -0.1810
 4419SOL     OW24715   2.531   4.256  13.012  0.1895 -0.2412  0.3592
 4419SOL    HW124716   2.535   4.221  13.101  0.4160 -1.9382 -0.3142
 4419SOL    HW224717   2.567   4.342  13.035  0.0429  0.0500 -0.5114
 4420SOL     OW24718   0.560   0.501   7.838 -0.0327  0.2114  0.2310
 4420SOL    HW124719   0.507   0.470   7.911  0.1866  0.5036  0.5129
 4420SOL    HW224720   0.521   0.584   7.812  0.8463  0.4983 -0.1689
 4421SOL     OW24721   3.637   3.715   6.646 -0.1561  0.6017 -0.3253
 4421SOL    HW124722   3.585   3.759   6.579  2.8035  0.9728 -2.3566
 4421SOL    HW224723   3.623   3.623   6.627 -0.8409  0.8330 -0.9496
 4422SOL     OW24724   1.704   2.641  14.155  0.3987  0.4017  0.0727
 4422SOL    HW124725   1.718   2.560  14.106 -0.5427 -1.1491  2.3941
 4422SOL    HW224726   1.609   2.634  14.164  0.2529  0.9625 -1.1176
 4423SOL     OW24727   2.480   1.359   5.376  0.6209 -0.5090  0.0045
 4423SOL    HW124728   2.472   1.321   5.464 -0.4900 -1.1992 -0.3971
 4423SOL    HW224729   2.469   1.453   5.394 -1.1218 -0.6572 -0.3785
 4424SOL     OW24730   4.462   1.245   6.482  0.4561 -0.4757 -0.1812
 4424SOL    HW124731   4.402   1.286   6.420  1.1414  0.9059  0.0536
 4424SOL    HW224732   4.536   1.237   6.422 -1.4043 -1.8779 -2.2541
 4425SOL     OW24733   0.436   1.190   3.580  0.0870 -0.0999 -0.2470
 4425SOL    HW124734   0.411   1.189   3.672 -0.4740  0.1974 -0.4014
 4425SOL    HW224735   0.351   1.168   3.542 -0.5849  0.0282  1.2056
 4426SOL     OW24736   2.712   2.896   8.738  0.2379 -0.5549 -0.0555
 4426SOL    HW124737   2.748   2.945   8.664 -0.8007  0.6586  0.2617
 4426SOL    HW224738   2.672   2.825   8.688 -0.2204 -0.2926 -0.0580
 4427SOL     OW24739   1.450   1.219  14.339  0.1948  0.2470  0.2808
 4427SOL    HW124740   1.426   1.307  14.370  0.8647  0.6844 -0.4248
 4427SOL    HW224741   1.469   1.179  14.423  1.0522 -2.4016 -1.1761
 4428SOL     OW24742   1.249   2.470  10.194  0.6685 -0.3340  0.4892
 4428SOL    HW124743   1.321   2.490  10.254 -0.5502 -2.2011  2.5606
 4428SOL    HW224744   1.270   2.535  10.126 -0.9139 -0.6367 -0.2838
 4429SOL     OW24745   4.249   2.464  11.237 -0.7043 -0.1759 -0.2517
 4429SOL    HW124746   4.195   2.535  11.200 -2.0059  0.0194  2.0485
 4429SOL    HW224747   4.334   2.509  11.237 -1.8467  2.0022  0.3746
 4430SOL     OW24748   3.651   0.498   7.795 -0.1868  0.8556  0.0760
 4430SOL    HW124749   3.707   0.575   7.782  3.6977 -2.3165 -1.9793
 4430SOL    HW224750   3.689   0.463   7.875 -1.5111 -1.4717 -0.3289
 4431SOL     OW24751   1.658   0.268  12.223 -0.2010 -0.1354 -0.4066
 4431SOL    HW124752   1.692   0.254  12.311 -1.2185 -0.6181 -0.0931
 4431SOL    HW224753   1.604   0.346  12.235  0.6407  0.2523  0.8695
 4432SOL     OW24754   2.063   4.489   4.876  0.1256  0.2196  0.0608
 4432SOL    HW124755   2.022   4.574   4.863 -0.1373  0.2339  1.0057
 4432SOL    HW224756   2.040   4.469   4.967 -0.3498 -0.1547 -0.1369
 4433SOL     OW24757   0.006   3.351   6.849 -0.5230  0.5276  0.6325
 4433SOL    HW124758   4.698   3.381   6.762  0.6408 -2.3578 -0.6980
 4433SOL    HW224759   0.028   3.264   6.817 -0.4516  0.6628  0.3120
 4434SOL     OW24760   1.839   3.214  16.505 -0.8370  0.3860  0.3753
 4434SOL    HW124761   1.908   3.215  16.439  0.1818  2.0382  1.4604
 4434SOL    HW224762   1.867   3.279  16.569  0.5029  0.8871 -0.7383
 4435SOL     OW24763   1.902   3.324  12.834 -0.5640  0.2382  0.7187
 4435SOL    HW124764   1.848   3.247  12.816  1.5212 -1.6666  2.6481
 4435SOL    HW224765   1.924   3.345  12.744  1.6930 -3.2647  0.4476
 4436SOL     OW24766   4.224   1.872   3.644 -0.6181  0.4722  0.0918
 4436SOL    HW124767   4.257   1.920   3.568  0.6615  0.6398  0.7472
 4436SOL    HW224768   4.157   1.817   3.604  1.3517 -1.7287 -0.1312
 4437SOL     OW24769   3.076   1.757   4.815 -0.3430 -1.0354 -0.1233
 4437SOL    HW124770   3.135   1.805   4.757 -0.0983  1.8994  2.5479
 4437SOL    HW224771   3.031   1.707   4.747  0.9907 -1.9651 -0.3247
 4438SOL     OW24772   3.918   2.033   2.026 -0.3774 -0.0300  0.5024
 4438SOL    HW124773   3.847   2.058   2.086 -1.3483 -1.7010  0.0481
 4438SOL    HW224774   3.951   1.976   2.094  0.0253 -1.4930 -0.9313
 4439SOL     OW24775   3.339   3.889   7.317 -0.0201  0.7056  0.6432
 4439SOL    HW124776   3.246   3.904   7.338 -0.5337 -2.1969  0.4865
 4439SOL    HW224777   3.341   3.960   7.253 -1.3896 -0.9958 -1.3215
 4440SOL     OW24778   0.487   2.689   3.094 -0.3422 -0.3128  0.7112
 4440SOL    HW124779   0.415   2.655   3.147 -1.0958 -0.0131 -0.1163
 4440SOL    HW224780   0.461   2.681   3.003  1.4898 -0.0086  0.1703
 4441SOL     OW24781   0.584   4.163   7.320  0.7132  0.0325  0.3516
 4441SOL    HW124782   0.525   4.144   7.393  0.5459 -0.7121  0.0238
 4441SOL    HW224783   0.576   4.083   7.268 -0.4964 -0.2167  0.9141
 4442SOL     OW24784   3.883   3.222   3.933 -0.6166 -0.0537 -0.1118
 4442SOL    HW124785   3.843   3.136   3.942  1.2839 -0.5890  2.9418
 4442SOL    HW224786   3.846   3.268   4.009 -0.4242  1.5755 -0.9938
 4443SOL     OW24787   2.979   1.126  15.623  0.2091  0.7967  0.0791
 4443SOL    HW124788   2.923   1.203  15.610 -1.2183 -0.6192 -2.2185
 4443SOL    HW224789   3.057   1.170  15.657  1.1639 -0.5969 -0.2904
 4444SOL     OW24790   4.196   1.413  10.155  0.2949  0.5935 -0.9345
 4444SOL    HW124791   4.254   1.456  10.218  1.6492 -1.6886 -0.6036
 4444SOL    HW224792   4.154   1.491  10.120  0.2066  0.5562 -0.9118
 4445SOL     OW24793   2.199   1.477   8.118  0.0708 -0.4772  0.2444
 4445SOL    HW124794   2.231   1.543   8.056 -0.7589 -0.5511 -0.2672
 4445SOL    HW224795   2.229   1.519   8.198  1.5001 -1.2711  0.1276
 4446SOL     OW24796   1.844   0.361   6.618 -0.1097  0.0898 -0.3294
 4446SOL    HW124797   1.881   0.274   6.631  1.2358  0.9809  1.8818
 4446SOL    HW224798   1.780   0.350   6.548  0.2025 -0.2562 -0.5603
 4447SOL     OW24799   4.099   1.531   8.305 -0.3964 -0.2755 -0.1633
 4447SOL    HW124800   4.161   1.457   8.306  0.5822  0.4939 -1.8929
 4447SOL    HW224801   4.106   1.554   8.212 -1.7238  1.4999  0.1949
 4448SOL     OW24802   4.177   0.866   2.768  0.2086  0.3322 -0.0413
 4448SOL    HW124803   4.225   0.940   2.730  2.1533 -1.1007 -0.3514
 4448SOL    HW224804   4.177   0.895   2.859  1.4441  2.6180 -0.7671
 4449SOL     OW24805   4.190   2.358  14.078 -0.2011 -0.0080  0.1013
 4449SOL    HW124806   4.172   2.446  14.044  0.0859 -0.2790 -0.7507
 4449SOL    HW224807   4.280   2.378  14.107 -0.6649  0.0383  1.5158
 4450SOL     OW24808   1.170   4.550   6.017  0.1535 -0.2653  0.0809
 4450SOL    HW124809   1.193   4.471   5.969 -2.5625 -2.2803  2.0656
 4450SOL    HW224810   1.090   4.533   6.068  0.7498 -0.5497  0.9295
 4451SOL     OW24811   2.395   2.434   2.608  0.2290 -0.4605 -0.1264
 4451SOL    HW124812   2.425   2.408   2.521 -0.0014  1.1598 -0.6954
 4451SOL    HW224813   2.473   2.478   2.641  0.0757 -0.0862 -0.2616
 4452SOL     OW24814   1.579   4.320   1.990  0.3955  0.2827  0.1668
 4452SOL    HW124815   1.557   4.368   1.911 -0.5416 -0.6580 -0.1402
 4452SOL    HW224816   1.490   4.324   2.024  1.4928  1.0749  3.0175
 4453SOL     OW24817   4.486   1.760   6.325 -0.5541 -0.0197 -0.8457
 4453SOL    HW124818   4.399   1.724   6.307 -0.3112 -0.6853 -0.6736
 4453SOL    HW224819   4.492   1.819   6.250  0.9154  0.6164 -0.2311
 4454SOL     OW24820   0.629   0.352   1.622 -0.4597  0.0055  0.3889
 4454SOL    HW124821   0.690   0.405   1.673 -1.4324  1.5866 -0.0694
 4454SOL    HW224822   0.558   0.411   1.645  0.8439  1.7749 -0.1050
 4455SOL     OW24823   1.540   0.797   2.682 -0.4953  0.0871  0.2537
 4455SOL    HW124824   1.546   0.773   2.589 -3.4203  4.6801 -1.0775
 4455SOL    HW224825   1.479   0.870   2.682  1.4452  1.6810 -0.1010
 4456SOL     OW24826   3.524   1.752  15.730 -0.6548  0.0680 -0.6836
 4456SOL    HW124827   3.541   1.724  15.640  2.8764  0.6431 -0.2291
 4456SOL    HW224828   3.516   1.666  15.771  0.8273  1.1489  1.8616
 4457SOL     OW24829   3.136   1.249   8.631  0.3225 -0.6399 -0.2161
 4457SOL    HW124830   3.139   1.323   8.571 -1.5117 -0.5785 -0.2102
 4457SOL    HW224831   3.102   1.182   8.573  0.7921 -1.3412  0.3127
 4458SOL     OW24832   3.654   2.786   8.628  0.9051  0.8987 -0.3720
 4458SOL    HW124833   3.652   2.863   8.685  0.5006 -0.5450  1.5744
 4458SOL    HW224834   3.634   2.714   8.688  2.8363 -0.7784 -1.7202
 4459SOL     OW24835   2.481   2.698   9.681  0.7297  0.4332 -0.8226
 4459SOL    HW124836   2.456   2.789   9.701 -0.4880 -0.2037  0.6185
 4459SOL    HW224837   2.545   2.679   9.750 -0.5746  0.7779  0.4823
 4460SOL     OW24838   2.738   3.032  16.026  0.0387 -0.0282  0.7743
 4460SOL    HW124839   2.774   3.114  15.992  1.5564 -0.7523  0.6409
 4460SOL    HW224840   2.812   2.974  16.011  1.8818  1.9084  2.3475
 4461SOL     OW24841   3.408   2.000   5.290 -0.0740 -0.4099 -0.1409
 4461SOL    HW124842   3.398   1.905   5.289 -1.8319 -0.2158 -1.8887
 4461SOL    HW224843   3.416   2.027   5.198  1.2499 -0.8587 -0.1438
 4462SOL     OW24844   2.776   0.860   1.989  0.2701 -0.2727  0.1646
 4462SOL    HW124845   2.776   0.832   1.898 -0.1926 -2.2011  0.7573
 4462SOL    HW224846   2.735   0.947   1.986 -0.2481 -0.5920 -2.3021
 4463SOL     OW24847   3.189   2.827   0.884 -0.4380  0.2096 -0.2458
 4463SOL    HW124848   3.161   2.754   0.827  1.6068 -1.7738  1.2953
 4463SOL    HW224849   3.282   2.807   0.893 -0.6711 -0.7825  0.0605
 4464SOL     OW24850   2.148   2.830   3.232 -0.6479  0.1697  0.1170
 4464SOL    HW124851   2.173   2.897   3.168 -2.1558  1.2839  0.7087
 4464SOL    HW224852   2.064   2.793   3.201 -0.3898 -0.0972 -0.2704
 4465SOL     OW24853   4.270   1.821   9.750  0.5590 -0.0480 -0.0045
 4465SOL    HW124854   4.330   1.791   9.817  2.3114 -0.3074 -1.6973
 4465SOL    HW224855   4.200   1.756   9.759 -0.6532  1.4411  1.3461
 4466SOL     OW24856   2.486   2.764   9.164 -0.1167  0.1075 -0.3672
 4466SOL    HW124857   2.475   2.795   9.253  0.6855  3.2351 -1.3730
 4466SOL    HW224858   2.522   2.840   9.118  1.0459 -0.2412 -0.0342
 4467SOL     OW24859   2.271   3.129   5.505  0.7646 -0.0168 -0.1946
 4467SOL    HW124860   2.187   3.135   5.551  0.4761 -1.3828 -0.5579
 4467SOL    HW224861   2.307   3.052   5.549  0.1013  0.8373  1.8571
 4468SOL     OW24862   2.951   1.883   1.583 -0.0580  0.6765  0.0235
 4468SOL    HW124863   3.015   1.954   1.576 -0.3584  0.9185 -0.2785
 4468SOL    HW224864   2.931   1.867   1.491 -1.1588 -0.2672  0.4237
 4469SOL     OW24865   3.776   4.345  15.933 -0.0280  0.1233 -0.2489
 4469SOL    HW124866   3.817   4.355  16.019  0.7177  0.0507 -0.5889
 4469SOL    HW224867   3.694   4.298  15.945 -1.0005  2.2674  1.4226
 4470SOL     OW24868   3.229   3.731   6.971  0.3688  0.4688 -0.6235
 4470SOL    HW124869   3.176   3.662   7.010  3.8256 -1.4983  0.6362
 4470SOL    HW224870   3.187   3.806   7.014 -1.9610 -1.6701  0.8184
 4471SOL     OW24871   0.378   3.378  17.136 -0.2119 -1.0155 -0.0072
 4471SOL    HW124872   0.329   3.460  17.134  0.5397 -0.4983  2.2102
 4471SOL    HW224873   0.459   3.387  17.187 -0.2681 -0.4023 -0.0233
 4472SOL     OW24874   1.659   0.101   1.406  0.2405  0.0609 -0.2698
 4472SOL    HW124875   1.738   0.084   1.355 -0.8283 -0.5580 -1.7282
 4472SOL    HW224876   1.594   0.124   1.339 -0.9368 -0.1593  0.7932
 4473SOL     OW24877   1.650   3.117   7.361  0.1903  0.0378 -0.0764
 4473SOL    HW124878   1.626   3.040   7.310 -0.0806 -0.6764  1.1343
 4473SOL    HW224879   1.623   3.192   7.308  0.9243 -1.4237 -2.5072
 4474SOL     OW24880   3.445   1.030   9.160 -0.3824  0.3139  0.6502
 4474SOL    HW124881   3.537   1.020   9.182 -0.1359  2.9373  0.7653
 4474SOL    HW224882   3.422   1.098   9.223 -0.0175  3.1531 -2.2956
 4475SOL     OW24883   4.283   0.177  13.212  0.2939 -0.4191  0.5911
 4475SOL    HW124884   4.260   0.103  13.268  0.6939 -0.8970  0.1300
 4475SOL    HW224885   4.269   0.130  13.129 -0.3670 -0.5028  0.7469
 4476SOL     OW24886   1.237   2.419   7.971  0.3967 -0.2810 -0.2733
 4476SOL    HW124887   1.211   2.327   7.968  0.8328 -0.4653  1.4699
 4476SOL    HW224888   1.286   2.415   8.053  0.7165  2.2650 -0.3292
 4477SOL     OW24889   4.501   4.033   2.338  0.4906 -0.0814 -0.2945
 4477SOL    HW124890   4.451   4.051   2.259  0.0845  3.1995  0.7311
 4477SOL    HW224891   4.593   4.041   2.316  0.6237 -0.5307  0.0969
 4478SOL     OW24892   0.725   3.069  10.267  0.2258 -0.8262 -0.4889
 4478SOL    HW124893   0.668   2.993  10.278 -0.3089 -0.2810  0.5769
 4478SOL    HW224894   0.681   3.110  10.193 -0.2488  0.3007  0.4129
 4479SOL     OW24895   2.035   3.561   7.877 -0.0632  0.6149 -0.1272
 4479SOL    HW124896   2.079   3.645   7.888  0.3721  0.3833 -0.1418
 4479SOL    HW224897   2.109   3.502   7.868  0.0364  0.8382 -0.7322
 4480SOL     OW24898   2.693   0.773   3.721  0.2861 -0.1769  0.3076
 4480SOL    HW124899   2.669   0.799   3.632  0.7819  0.3977  0.3498
 4480SOL    HW224900   2.724   0.683   3.707  2.2482  0.5278  0.1118
 4481SOL     OW24901   0.334   3.345   5.830  0.2165  0.5646 -0.4081
 4481SOL    HW124902   0.250   3.323   5.789  0.4382 -0.8707 -0.0940
 4481SOL    HW224903   0.397   3.327   5.760  0.3203 -1.6841  0.2782
 4482SOL     OW24904   4.094   4.414   4.026 -0.3910 -0.1795 -0.8193
 4482SOL    HW124905   4.064   4.486   3.970 -1.1068 -1.0785 -1.5856
 4482SOL    HW224906   4.183   4.405   3.995  0.4211  1.7217  0.9002
 4483SOL     OW24907   3.979   2.864   3.886  0.2210  0.0776 -0.3492
 4483SOL    HW124908   3.965   2.819   3.969  1.5265  1.5437  0.6563
 4483SOL    HW224909   4.007   2.948   3.921  1.8821 -1.2106  1.3849
 4484SOL     OW24910   4.325   4.429   6.866  0.1319  0.0673 -0.6030
 4484SOL    HW124911   4.401   4.371   6.862 -0.2660 -0.4532 -0.7362
 4484SOL    HW224912   4.254   4.367   6.850  1.2588 -1.7529  1.4247
 4485SOL     OW24913   4.606   0.570  17.386 -0.1209 -0.5144 -0.3181
 4485SOL    HW124914   4.610   0.546  17.478  0.3142 -2.3170 -0.8013
 4485SOL    HW224915   4.632   0.662  17.385 -3.3150  0.4015  2.7121
 4486SOL     OW24916   3.458   2.122  17.358 -0.0595  0.0678  0.2876
 4486SOL    HW124917   3.459   2.101  17.452 -1.4571  1.8478  0.7026
 4486SOL    HW224918   3.363   2.134  17.352 -0.0703 -0.0159  0.2835
 4487SOL     OW24919   2.844   3.672   7.901 -0.1800 -0.1678  0.7511
 4487SOL    HW124920   2.869   3.708   7.986 -0.3069 -0.5298  0.9424
 4487SOL    HW224921   2.807   3.589   7.933  1.0352 -0.6441  0.9127
 4488SOL     OW24922   3.143   1.658   7.090  0.4147 -0.5189  0.6681
 4488SOL    HW124923   3.226   1.614   7.109  0.3717 -0.8966 -0.0172
 4488SOL    HW224924   3.130   1.715   7.165  2.0778 -2.8739  2.7627
 4489SOL     OW24925   0.903   2.328  13.739 -0.5524 -0.1074  0.1249
 4489SOL    HW124926   0.975   2.266  13.755 -0.2643 -0.3320 -2.0181
 4489SOL    HW224927   0.843   2.301  13.809 -1.0474  0.6873  0.0052
 4490SOL     OW24928   1.651   2.378   7.586  0.2240  0.2222  0.4156
 4490SOL    HW124929   1.627   2.471   7.587 -0.4944  0.0458 -0.4811
 4490SOL    HW224930   1.624   2.354   7.497  1.3855  2.2207 -0.4798
 4491SOL     OW24931   0.079   3.359   2.807 -0.0330  0.0847  0.0578
 4491SOL    HW124932   0.111   3.436   2.759 -0.6299  1.1317  1.3139
 4491SOL    HW224933   4.705   3.372   2.794 -0.0202 -0.8556 -0.8719
 4492SOL     OW24934   1.948   1.893  15.659  0.4751  0.7167  0.2189
 4492SOL    HW124935   1.932   1.838  15.583 -0.8614  0.4433  0.6967
 4492SOL    HW224936   2.035   1.931  15.649  0.5772  1.1277  2.5022
 4493SOL     OW24937   4.578   1.319  13.202 -0.3827 -0.6178 -0.5562
 4493SOL    HW124938   4.627   1.248  13.162 -0.7210 -1.8268  1.1969
 4493SOL    HW224939   4.650   1.376  13.229  0.5402 -1.5926 -0.9536
 4494SOL     OW24940   2.204   3.612  14.845 -0.3337 -0.4185 -0.3637
 4494SOL    HW124941   2.247   3.579  14.766 -0.0176  0.9004 -0.7540
 4494SOL    HW224942   2.187   3.705  14.826 -0.7494 -0.6271 -1.0211
 4495SOL     OW24943   1.009   1.002   8.758  0.2565  0.1211 -0.2917
 4495SOL    HW124944   1.020   1.088   8.716 -1.6183  1.4042  1.8084
 4495SOL    HW224945   1.019   1.025   8.850  0.3509  0.0665 -0.2884
 4496SOL     OW24946   2.858   1.381   6.410  0.2311 -0.3808  0.1437
 4496SOL    HW124947   2.812   1.388   6.327 -1.5329  1.9581  1.3207
 4496SOL    HW224948   2.944   1.353   6.379 -0.8500 -1.5167 -1.8282
 4497SOL     OW24949   0.498   1.317   0.167  0.4875 -0.5248 -1.0092
 4497SOL    HW124950   0.447   1.380   0.117 -0.0148 -0.8901 -0.9484
 4497SOL    HW224951   0.481   1.339   0.259 -1.6256 -1.0314 -1.3011
 4498SOL     OW24952   0.095   2.760   9.390  0.1853 -0.1893  0.5250
 4498SOL    HW124953   0.125   2.803   9.470  0.8011  2.4501 -1.1318
 4498SOL    HW224954   0.069   2.671   9.417  0.0145 -0.7331 -1.3955
 4499SOL     OW24955   1.445   3.482   1.659 -0.2681  0.0484  0.6253
 4499SOL    HW124956   1.538   3.485   1.635 -0.7275  2.8147 -0.7889
 4499SOL    HW224957   1.423   3.389   1.659  1.3686 -0.3335  0.0423
 4500SOL     OW24958   2.686   4.612   7.949 -0.0003 -0.5771 -0.2462
 4500SOL    HW124959   2.647   4.700   7.944 -0.5757 -0.6879  2.0808
 4500SOL    HW224960   2.636   4.565   7.882 -2.0900  0.0659  0.8648
 4501SOL     OW24961   2.345   4.457   6.328 -0.4832  0.2846 -0.2144
 4501SOL    HW124962   2.388   4.541   6.344 -2.4423  1.6191 -1.9131
 4501SOL    HW224963   2.285   4.450   6.402 -1.8430  1.8257 -1.1626
 4502SOL     OW24964   3.986   1.604   4.090 -0.0353 -0.0941 -0.4282
 4502SOL    HW124965   3.934   1.526   4.073  1.4595 -1.2826  0.4785
 4502SOL    HW224966   3.934   1.673   4.048  0.2187  0.3891  0.0518
 4503SOL     OW24967   3.410   3.354   3.648  0.8828 -0.2417  0.2837
 4503SOL    HW124968   3.420   3.373   3.555  0.3196  1.3976  0.5476
 4503SOL    HW224969   3.428   3.444   3.677  2.3587  0.4876 -2.8295
 4504SOL     OW24970   4.493   2.288  12.500  0.2341 -0.3935 -0.1014
 4504SOL    HW124971   4.553   2.298  12.574  1.1803 -0.0819 -0.9023
 4504SOL    HW224972   4.435   2.357  12.533  0.9370  1.5888 -3.0133
 4505SOL     OW24973   0.764   0.720  10.838 -0.0440 -0.5622  0.5400
 4505SOL    HW124974   0.701   0.769  10.785  1.5647  0.8425 -0.0325
 4505SOL    HW224975   0.796   0.661  10.770 -0.6475  0.5884 -0.7302
 4506SOL     OW24976   1.907   2.111   6.949  0.2743  0.8253 -0.0513
 4506SOL    HW124977   1.846   2.081   6.882  1.2078  1.2559 -1.1007
 4506SOL    HW224978   1.850   2.167   7.000 -0.9753 -1.2326  0.8060
 4507SOL     OW24979   4.204   2.137   4.622 -0.4223  0.3446  0.0581
 4507SOL    HW124980   4.223   2.053   4.663 -2.1724 -0.0539  0.0530
 4507SOL    HW224981   4.183   2.106   4.533 -1.2515 -0.0497  0.3860
 4508SOL     OW24982   0.585   2.587   8.278  0.3667 -0.1713  0.5959
 4508SOL    HW124983   0.499   2.565   8.314 -0.9515  0.9532 -1.9072
 4508SOL    HW224984   0.632   2.504   8.290 -0.2765 -0.4649  1.0752
 4509SOL     OW24985   4.020   1.215   8.148  0.3588 -0.3507  0.0164
 4509SOL    HW124986   4.076   1.254   8.215  0.7595  0.9405 -1.0779
 4509SOL    HW224987   4.086   1.164   8.101 -0.4486 -0.7641 -0.6654
 4510SOL     OW24988   0.129   2.328   0.510 -0.1282 -0.2505  0.3940
 4510SOL    HW124989   0.109   2.237   0.532  1.0261 -0.4490  0.6312
 4510SOL    HW224990   0.112   2.362   0.598  0.8266  1.0094  0.0805
 4511SOL     OW24991   1.964   3.779   4.121  0.0480  0.4118 -0.5477
 4511SOL    HW124992   2.052   3.767   4.157 -0.2204 -1.6281 -0.5306
 4511SOL    HW224993   1.987   3.847   4.058  3.5667 -0.4122 -0.1773
 4512SOL     OW24994   1.593   2.185  14.493 -0.2861  0.3022  0.1396
 4512SOL    HW124995   1.641   2.120  14.545  1.0665  1.4678  0.3570
 4512SOL    HW224996   1.569   2.247  14.562  1.9573  1.2630  0.0455
 4513SOL     OW24997   4.498   1.981  13.621 -0.0875  0.3739  0.1024
 4513SOL    HW124998   4.513   1.995  13.715 -0.0243  0.0696  0.1378
 4513SOL    HW224999   4.496   1.887  13.605  0.4374  0.4625 -0.4965
 4514SOL     OW25000   3.542   1.161  13.290  0.1301 -0.0406  0.0287
 4514SOL    HW125001   3.636   1.158  13.307  0.4957 -0.7692 -2.1787
 4514SOL    HW225002   3.529   1.250  13.255  2.2008  0.0939 -0.4101
 4515SOL     OW25003   1.049   3.761   6.951 -0.0757  0.1560 -0.1627
 4515SOL    HW125004   1.076   3.683   6.902 -1.1582  0.0454 -0.5841
 4515SOL    HW225005   1.029   3.821   6.879  1.6831 -0.4971 -1.1928
 4516SOL     OW25006   0.076   0.876   2.005  0.0759  0.0147  0.0863
 4516SOL    HW125007   0.123   0.794   2.021 -1.6208 -0.7104  1.4015
 4516SOL    HW225008   0.075   0.875   1.909 -0.6228 -0.5761  0.0983
 4517SOL     OW25009   0.365   4.105  11.255  0.3236 -0.0665  0.2550
 4517SOL    HW125010   0.313   4.042  11.205 -0.0604  0.5863 -0.1602
 4517SOL    HW225011   0.380   4.167  11.185 -0.1248  0.6058  0.7528
 4518SOL     OW25012   3.389   2.515   6.854  0.4803  0.0221 -0.0047
 4518SOL    HW125013   3.392   2.501   6.760 -0.6737  2.5371 -0.4433
 4518SOL    HW225014   3.463   2.575   6.868 -1.0652  1.3300  2.7043
 4519SOL     OW25015   2.978   2.343   0.624 -0.1586  0.0292 -0.4087
 4519SOL    HW125016   2.886   2.335   0.600 -0.3109 -1.0286  0.5426
 4519SOL    HW225017   3.018   2.294   0.552  1.5236  0.6546  0.0971
 4520SOL     OW25018   3.407   3.455   7.847 -0.1629 -0.2555 -0.1057
 4520SOL    HW125019   3.444   3.413   7.925 -1.0700 -1.2839 -0.2301
 4520SOL    HW225020   3.320   3.478   7.879 -0.6863 -3.1492  0.5137
 4521SOL     OW25021   0.158   2.497   6.930  0.8317  0.4116  0.4501
 4521SOL    HW125022   0.075   2.506   6.978  0.9482 -0.5747  0.8303
 4521SOL    HW225023   0.148   2.406   6.903  1.3543  0.0300  1.5600
 4522SOL     OW25024   4.169   0.656   6.670 -0.0640 -0.1889  0.4692
 4522SOL    HW125025   4.130   0.569   6.674 -2.1290  0.7319  0.3864
 4522SOL    HW225026   4.153   0.690   6.758  0.0863  2.6567 -0.6002
 4523SOL     OW25027   0.337   0.026   6.767  0.0852 -0.2349 -0.0384
 4523SOL    HW125028   0.303   4.714   6.850  2.6465 -0.9547  0.7476
 4523SOL    HW225029   0.362   4.659   6.732  1.5046 -0.4184  1.4276
 4524SOL     OW25030   0.071   2.274   4.696 -0.1480  0.6539  0.6483
 4524SOL    HW125031   0.025   2.241   4.773 -1.2442 -0.1290 -0.3287
 4524SOL    HW225032   4.717   2.296   4.638 -0.3928  2.9943  1.8656
 4525SOL     OW25033   1.455   3.056   3.697 -0.5922 -0.2938  0.0998
 4525SOL    HW125034   1.474   2.963   3.708  2.2692  0.3653  0.7726
 4525SOL    HW225035   1.542   3.094   3.704 -0.0383 -1.6019  0.2689
 4526SOL     OW25036   0.275   1.832   7.671 -0.3163  0.2113 -0.8280
 4526SOL    HW125037   0.369   1.846   7.677 -0.3531 -0.3450  1.0246
 4526SOL    HW225038   0.269   1.738   7.659  2.3918  0.2355 -2.2160
 4527SOL     OW25039   0.848   0.809  12.416  0.3876 -0.3856  0.4166
 4527SOL    HW125040   0.786   0.739  12.398 -0.0194  0.6073 -2.0100
 4527SOL    HW225041   0.920   0.747  12.429  1.8417  1.1003 -0.5171
 4528SOL     OW25042   3.285   3.454  13.931 -0.2817 -0.7573  0.0363
 4528SOL    HW125043   3.371   3.434  13.969  0.3921 -0.4239 -1.3060
 4528SOL    HW225044   3.242   3.391  13.989 -0.8510 -0.7125 -0.3400
 4529SOL     OW25045   2.947   2.580  16.811  0.2622 -0.2017 -0.1218
 4529SOL    HW125046   2.863   2.623  16.826  0.9232  0.2861  2.1668
 4529SOL    HW225047   2.930   2.486  16.810 -0.7216 -0.0423  2.0246
 4530SOL     OW25048   0.210   2.186  10.494 -0.1935  0.7850 -0.1057
 4530SOL    HW125049   0.175   2.230  10.417 -1.3284  1.6718  0.9226
 4530SOL    HW225050   0.173   2.098  10.488  1.0810  0.3418 -1.4039
 4531SOL     OW25051   1.077   4.039  15.034  0.3143  0.0601  0.7263
 4531SOL    HW125052   1.138   4.026  15.107  0.8071  0.6713  0.4289
 4531SOL    HW225053   1.017   4.096  15.083  0.5229  0.4698  0.5110
 4532SOL     OW25054   4.686   0.231  10.171 -0.3352  0.5876 -0.0916
 4532SOL    HW125055   4.604   0.183  10.180 -0.2160  0.2135 -0.9838
 4532SOL    HW225056   0.008   0.199  10.091  3.2464 -0.1199  2.0402
 4533SOL     OW25057   3.571   1.187   7.115 -0.5838 -0.0241 -0.2674
 4533SOL    HW125058   3.667   1.187   7.109 -0.4521  1.6131  1.5951
 4533SOL    HW225059   3.557   1.195   7.210 -2.5506  0.8215 -0.6266
 4534SOL     OW25060   0.865   1.059  10.420 -0.1490  0.1456 -0.1129
 4534SOL    HW125061   0.791   1.110  10.385  0.9240  2.4816  1.0396
 4534SOL    HW225062   0.940   1.090  10.369  1.0950 -1.1857  0.9109
 4535SOL     OW25063   2.127   2.334   2.840  0.5354 -0.1992  0.1140
 4535SOL    HW125064   2.091   2.257   2.883  1.6228  0.4237  2.1065
 4535SOL    HW225065   2.153   2.397   2.907  0.3719  0.5443 -0.5139
 4536SOL     OW25066   0.094   1.698  10.915 -0.2151  0.3965  0.3820
 4536SOL    HW125067   0.149   1.776  10.914  0.0998  0.1640  0.0630
 4536SOL    HW225068   0.021   1.718  10.856  1.4286  3.5200 -0.5842
 4537SOL     OW25069   1.258   2.273   2.853 -0.5374  0.2317 -0.4963
 4537SOL    HW125070   1.171   2.232   2.856 -0.7030  0.6619  0.5760
 4537SOL    HW225071   1.238   2.366   2.847  2.5885  1.0092  1.1795
 4538SOL     OW25072   0.982   1.640   1.737 -0.1671 -0.5039 -0.3527
 4538SOL    HW125073   1.007   1.676   1.652  2.1595  1.4243  1.1306
 4538SOL    HW225074   0.897   1.599   1.719  0.1746 -1.2379 -0.2950
 4539SOL     OW25075   4.222   1.554   2.307 -0.1150 -0.0202 -0.2758
 4539SOL    HW125076   4.312   1.521   2.311 -0.4824 -0.8740  0.9022
 4539SOL    HW225077   4.204   1.529   2.216 -0.1766 -1.9605  0.2610
 4540SOL     OW25078   4.540   3.543  15.012 -0.0740 -0.5087  0.1292
 4540SOL    HW125079   4.559   3.570  15.102  0.1768 -1.9103  0.4904
 4540SOL    HW225080   4.583   3.607  14.956 -1.9387  0.5190 -0.1360
 4541SOL     OW25081   2.862   2.788   2.840  0.4858  0.4915 -0.7189
 4541SOL    HW125082   2.839   2.716   2.899 -0.3670  0.8372 -0.6316
 4541SOL    HW225083   2.950   2.808   2.870  0.6969 -0.9709 -0.3751
 4542SOL     OW25084   1.244   3.586   1.513 -0.0563 -0.2637 -0.2898
 4542SOL    HW125085   1.317   3.581   1.575  0.3352 -3.2510 -0.9792
 4542SOL    HW225086   1.204   3.653   1.568 -1.1620 -1.9391  0.9353
 4543SOL     OW25087   4.226   0.229   1.273 -0.1174 -0.6582 -0.3685
 4543SOL    HW125088   4.148   0.277   1.246  0.5052  0.8827  0.5623
 4543SOL    HW225089   4.287   0.243   1.200 -0.0830  0.4040 -0.1368
 4544SOL     OW25090   0.212   4.610   3.155 -0.1311 -0.4180  0.0591
 4544SOL    HW125091   0.205   4.568   3.241 -1.2235  0.2151  0.2807
 4544SOL    HW225092   0.304   4.602   3.128 -0.1658 -0.0785 -0.1659
 4545SOL     OW25093   2.082   3.280   7.566 -0.2707  0.2126  0.7914
 4545SOL    HW125094   2.160   3.231   7.541 -1.1266 -1.3283  1.1301
 4545SOL    HW225095   2.057   3.245   7.652 -0.1418  0.1662  0.8108
 4546SOL     OW25096   3.821   3.712   8.689 -0.3856 -0.0875 -0.5800
 4546SOL    HW125097   3.807   3.736   8.781 -1.4595  1.4206 -1.1290
 4546SOL    HW225098   3.790   3.790   8.643 -0.7008  0.8241  1.1939
 4547SOL     OW25099   0.294   3.594   3.992  0.0730  0.7251  0.2639
 4547SOL    HW125100   0.371   3.590   3.935  0.6373 -2.2384  1.2135
 4547SOL    HW225101   0.237   3.525   3.957 -1.7791  1.3654  2.0008
 4548SOL     OW25102   2.281   2.030   4.246  0.2991 -0.0471  0.4545
 4548SOL    HW125103   2.219   1.971   4.204 -0.8648  0.8569  0.9328
 4548SOL    HW225104   2.299   1.980   4.325  2.1416 -1.5026 -0.8487
 4549SOL     OW25105   1.623   4.016   3.226  0.2756  0.2830 -0.1344
 4549SOL    HW125106   1.677   4.079   3.179  0.9847 -1.4160 -1.5794
 4549SOL    HW225107   1.664   3.936   3.194 -1.0359  0.3167 -1.9300
 4550SOL     OW25108   1.872   0.341   5.558 -0.2600 -0.2821 -0.0778
 4550SOL    HW125109   1.787   0.384   5.566  0.8964  2.3217 -1.8467
 4550SOL    HW225110   1.904   0.365   5.645 -1.9164  2.0766 -0.1209
 4551SOL     OW25111   2.767   3.437   5.344 -0.1322 -0.2249 -0.3800
 4551SOL    HW125112   2.746   3.393   5.262  0.3641  1.5629 -1.4739
 4551SOL    HW225113   2.778   3.530   5.323 -0.0263  0.0623  0.9436
 4552SOL     OW25114   0.235   0.632   7.901  0.2994 -0.3401  0.6424
 4552SOL    HW125115   0.256   0.713   7.948  0.4692  0.2351 -0.4461
 4552SOL    HW225116   0.298   0.639   7.830 -0.2615  0.7106  0.2524
 4553SOL     OW25117   4.605   4.551   4.990 -0.0319 -0.0393  0.5662
 4553SOL    HW125118   4.650   4.474   4.955 -2.8577 -1.1730 -0.5597
 4553SOL    HW225119   4.559   4.513   5.066 -0.6575 -0.3419  0.0309
 4554SOL     OW25120   1.045   4.665  12.034 -0.4534 -0.7165  0.5829
 4554SOL    HW125121   1.015   4.694  12.121  0.6797  0.4876  0.5662
 4554SOL    HW225122   0.963   4.621  12.011  1.0409 -2.8179 -0.6283
 4555SOL     OW25123   0.556   0.721   2.450 -0.0102 -0.3695  0.6959
 4555SOL    HW125124   0.508   0.643   2.477  1.1914 -1.0520  0.8895
 4555SOL    HW225125   0.584   0.712   2.359  1.5945  1.2430  1.0304
 4556SOL     OW25126   0.932   4.373   5.507  0.3662  0.6375 -0.7697
 4556SOL    HW125127   0.957   4.287   5.473 -0.4256 -0.5664  1.7003
 4556SOL    HW225128   0.904   4.351   5.595 -0.1059  2.5332 -0.4389
 4557SOL     OW25129   2.986   3.167   6.067 -0.2185  0.0577 -0.0542
 4557SOL    HW125130   3.014   3.120   5.989  0.3573  1.6628 -0.8038
 4557SOL    HW225131   2.984   3.103   6.139 -2.7849 -2.8847 -2.7567
 4558SOL     OW25132   3.841   2.361   1.890 -0.1653 -0.2078  0.3484
 4558SOL    HW125133   3.765   2.312   1.922 -1.0863  0.2548 -1.0941
 4558SOL    HW225134   3.900   2.287   1.898  0.1517  0.0756  0.6025
 4559SOL     OW25135   4.532   3.705   4.905  0.2980  0.2596  1.1109
 4559SOL    HW125136   4.567   3.790   4.878 -0.5712  0.6073  1.0928
 4559SOL    HW225137   4.614   3.664   4.934  1.0262  0.9395  0.0305
 4560SOL     OW25138   1.180   0.918   7.424 -0.0515 -0.2444  0.1725
 4560SOL    HW125139   1.245   0.949   7.487  0.2372 -0.1278 -0.1830
 4560SOL    HW225140   1.238   0.883   7.357 -0.7299  1.9745 -1.5561
 4561SOL     OW25141   3.463   2.872   9.941  0.3341  0.5728  0.1569
 4561SOL    HW125142   3.551   2.892   9.910  0.5822 -1.4445 -0.4329
 4561SOL    HW225143   3.472   2.785   9.978  0.1439  0.3869 -0.2290
 4562SOL     OW25144   4.126   0.431   8.517 -0.3265 -0.0025  0.9843
 4562SOL    HW125145   4.076   0.351   8.496  0.4028 -0.1722 -0.1307
 4562SOL    HW225146   4.212   0.390   8.516 -0.0907  0.5799 -1.6246
 4563SOL     OW25147   1.427   4.467  16.527 -0.1982 -0.6891  0.2884
 4563SOL    HW125148   1.424   4.376  16.555 -1.0233 -1.2577 -1.6414
 4563SOL    HW225149   1.467   4.445  16.443 -2.5866  0.6240 -1.2290
 4564SOL     OW25150   3.180   0.056  11.943 -0.4833 -0.2349 -0.3655
 4564SOL    HW125151   3.258   0.004  11.923 -1.1893 -0.8664 -1.5646
 4564SOL    HW225152   3.191   0.118  11.870  2.1280  1.5881  1.6117
 4565SOL     OW25153   3.799   2.355   5.405  0.3075 -0.6871 -0.4289
 4565SOL    HW125154   3.795   2.344   5.500  2.8443  0.7325 -0.1587
 4565SOL    HW225155   3.770   2.446   5.404  2.2806 -0.0699  0.5086
 4566SOL     OW25156   0.513   0.773   2.967 -0.0505  0.1909 -0.0004
 4566SOL    HW125157   0.436   0.722   2.942  0.9832 -1.2179 -0.3343
 4566SOL    HW225158   0.578   0.703   2.972  0.6703  0.7854 -1.0683
 4567SOL     OW25159   0.118   2.035   9.027 -0.3385  0.0500 -0.0471
 4567SOL    HW125160   0.158   2.012   9.110  0.6015  1.4498 -0.1143
 4567SOL    HW225161   0.070   2.110   9.061  0.6005  1.3242 -1.5283
 4568SOL     OW25162   2.202   3.537  10.085 -0.5354  0.1352 -0.0795
 4568SOL    HW125163   2.115   3.537  10.125 -0.8927 -0.0268 -0.8458
 4568SOL    HW225164   2.178   3.508   9.996  0.1841  2.5925 -1.0674
 4569SOL     OW25165   0.572   3.742  12.304 -0.1798 -0.1966  0.3526
 4569SOL    HW125166   0.579   3.773  12.394  0.5351  3.2371 -0.9091
 4569SOL    HW225167   0.511   3.805  12.266  2.1168  1.6156 -0.3315
 4570SOL     OW25168   2.060   3.570   7.197 -0.1842  0.0511  0.1937
 4570SOL    HW125169   2.040   3.489   7.150 -0.8778  0.7859 -0.7919
 4570SOL    HW225170   2.141   3.588   7.148 -0.5117 -2.3295 -1.2077
 4571SOL     OW25171   2.311   0.383   7.702 -0.0275 -0.2642 -0.7182
 4571SOL    HW125172   2.315   0.412   7.793  2.1337 -1.1455 -0.5257
 4571SOL    HW225173   2.252   0.308   7.695 -1.7700  0.9955  0.3179
 4572SOL     OW25174   2.599   3.083   7.182  0.3708 -0.0937  0.0427
 4572SOL    HW125175   2.660   3.019   7.146  0.6935  0.6255 -0.6802
 4572SOL    HW225176   2.588   3.139   7.105 -0.9807 -1.7362 -0.9590
 4573SOL     OW25177   4.387   3.149   5.883  0.5505 -0.0087  0.2897
 4573SOL    HW125178   4.446   3.086   5.925  0.9238  0.4874  0.5148
 4573SOL    HW225179   4.300   3.128   5.916  0.3540  1.8821  0.9546
 4574SOL     OW25180   3.404   2.036  17.108 -0.3062 -0.3477 -0.8961
 4574SOL    HW125181   3.419   2.065  17.198  0.7358 -2.7774 -0.2838
 4574SOL    HW225182   3.331   1.974  17.113 -0.8500  0.2263 -1.6588
 4575SOL     OW25183   1.409   1.301   2.445 -0.1683  0.1540 -0.1488
 4575SOL    HW125184   1.349   1.369   2.476  1.3883  1.6595 -0.4477
 4575SOL    HW225185   1.472   1.351   2.394  1.1011 -1.2892 -0.0106
 4576SOL     OW25186   1.952   0.946   7.290 -0.1812 -0.4274  0.6545
 4576SOL    HW125187   1.896   1.022   7.306 -1.7892 -1.5436  0.4142
 4576SOL    HW225188   1.881   0.884   7.273  0.7070 -1.2555  0.0118
 4577SOL     OW25189   3.796   3.166   0.500 -0.1525 -0.4430 -0.2214
 4577SOL    HW125190   3.721   3.213   0.535  0.9311  0.1220  1.3417
 4577SOL    HW225191   3.782   3.075   0.527  1.2661 -1.3114 -2.3776
 4578SOL     OW25192   1.172   3.795   4.790 -0.2885 -0.4860  0.6349
 4578SOL    HW125193   1.092   3.743   4.799  0.9857 -2.2773  1.7194
 4578SOL    HW225194   1.240   3.727   4.782  0.0097 -0.0798 -0.2483
 4579SOL     OW25195   4.117   3.814   2.175  0.2571  0.2811 -0.3246
 4579SOL    HW125196   4.151   3.903   2.187  0.5483 -0.1632  2.1479
 4579SOL    HW225197   4.024   3.835   2.180  0.4629  1.0384  0.3680
 4580SOL     OW25198   1.736   1.238  15.110  0.3612  0.1430 -0.2420
 4580SOL    HW125199   1.788   1.160  15.092 -0.9888 -0.4805 -1.4550
 4580SOL    HW225200   1.716   1.219  15.202 -1.3541  1.6599 -0.3020
 4581SOL     OW25201   0.568   3.696  11.190  0.7709 -0.2834  0.1784
 4581SOL    HW125202   0.523   3.656  11.265  1.8838 -0.0207  0.9960
 4581SOL    HW225203   0.647   3.738  11.224  1.2203  1.8134 -3.4071
 4582SOL     OW25204   1.143   2.605   3.115 -0.3100  0.2123  0.2808
 4582SOL    HW125205   1.190   2.547   3.055  0.7530  1.2267  0.1384
 4582SOL    HW225206   1.155   2.548   3.191 -0.9131 -0.3635 -0.0491
 4583SOL     OW25207   2.438   4.509  12.835  0.3312 -0.4375 -0.0135
 4583SOL    HW125208   2.515   4.457  12.809 -0.4762 -1.8923  0.5086
 4583SOL    HW225209   2.375   4.464  12.891 -0.9331  1.4403  0.0229
 4584SOL     OW25210   2.688   2.720   5.933 -0.0291 -0.3193 -0.2319
 4584SOL    HW125211   2.632   2.772   5.876 -0.2680 -1.3975 -0.9809
 4584SOL    HW225212   2.746   2.675   5.871  1.1692  0.7513  0.1042
 4585SOL     OW25213   3.185   3.650   7.905  0.5357  0.6814  0.2896
 4585SOL    HW125214   3.171   3.650   7.810 -0.7888 -1.2694  0.4856
 4585SOL    HW225215   3.095   3.653   7.939  0.4242 -0.5152  0.0888
 4586SOL     OW25216   1.451   0.038  13.812  0.1028  0.7651 -0.3342
 4586SOL    HW125217   1.508   4.691  13.851 -0.6084  2.0673  2.9945
 4586SOL    HW225218   1.428   0.000  13.728 -0.4239  0.7375 -0.1771
 4587SOL     OW25219   0.029   0.415  13.492  0.2586 -0.2537  0.3859
 4587SOL    HW125220   0.079   0.337  13.468  0.3714 -0.1791  0.3793
 4587SOL    HW225221   0.074   0.427  13.576  1.2244 -0.1754 -0.1419
 4588SOL     OW25222   4.661   2.007   8.663 -0.0273 -0.4472 -0.1341
 4588SOL    HW125223   4.611   2.076   8.705 -1.1243 -0.5036 -1.3701
 4588SOL    HW225224   4.663   1.939   8.730  0.7538 -0.7859 -0.4910
 4589SOL     OW25225   3.556   1.778   2.903  0.5205  0.2167 -0.0947
 4589SOL    HW125226   3.527   1.835   2.831  0.4622  0.1764 -0.1034
 4589SOL    HW225227   3.525   1.835   2.973  0.4329  0.4651 -0.3358
 4590SOL     OW25228   1.465   0.495   5.372 -0.0367 -0.5563  0.4203
 4590SOL    HW125229   1.404   0.450   5.313  0.8086  0.8928 -1.5516
 4590SOL    HW225230   1.520   0.542   5.309 -0.7225  1.6033  1.4600
 4591SOL     OW25231   2.493   0.091   2.688 -0.3166  0.4810  0.0817
 4591SOL    HW125232   2.411   0.135   2.664  0.5351 -0.6783 -4.9642
 4591SOL    HW225233   2.558   0.152   2.653  1.9192  0.4513  4.2103
 4592SOL     OW25234   1.257   2.041   0.586  0.4804 -0.5352  0.0648
 4592SOL    HW125235   1.249   2.080   0.673 -2.0107 -0.3475 -0.2502
 4592SOL    HW225236   1.203   1.962   0.597  2.5246 -1.8100  1.0872
 4593SOL     OW25237   0.643   2.263   4.672 -0.2269  0.0378  0.8223
 4593SOL    HW125238   0.659   2.353   4.646  1.9370 -0.4704  0.4270
 4593SOL    HW225239   0.729   2.239   4.707  0.1181 -0.4989 -0.3982
 4594SOL     OW25240   4.571   3.939  12.105 -0.3155  0.2062  0.2961
 4594SOL    HW125241   4.620   3.869  12.148 -0.1406 -1.7072 -3.0393
 4594SOL    HW225242   4.623   3.966  12.030 -1.9763  1.7519 -0.2970
 4595SOL     OW25243   0.366   0.610   6.963 -0.3411  0.4576 -0.7747
 4595SOL    HW125244   0.404   0.577   6.881  1.0238 -0.7035  0.3209
 4595SOL    HW225245   0.339   0.527   7.002 -0.3825  0.6118 -0.4731
 4596SOL     OW25246   1.678   3.593   4.794 -0.3569  0.4032 -0.3956
 4596SOL    HW125247   1.599   3.644   4.777 -0.8377 -1.4121 -3.6520
 4596SOL    HW225248   1.667   3.562   4.883 -2.2862  0.1093 -0.7513
 4597SOL     OW25249   0.988   0.312   5.735 -0.5798  0.0262  0.0121
 4597SOL    HW125250   0.998   0.252   5.661  0.1821 -1.1881  1.0970
 4597SOL    HW225251   0.909   0.351   5.695  0.4055  1.1356 -0.8688
 4598SOL     OW25252   1.920   1.968   0.875 -0.1034  0.2251 -0.5707
 4598SOL    HW125253   1.910   1.888   0.823  0.3828 -0.1035 -0.1551
 4598SOL    HW225254   1.954   1.935   0.958 -1.7572  1.1242  0.4671
 4599SOL     OW25255   2.636   3.378   4.035  0.2834  0.0064  0.1342
 4599SOL    HW125256   2.612   3.318   4.105  0.1833 -1.9435 -1.5705
 4599SOL    HW225257   2.600   3.337   3.957 -1.5310  0.8923  0.5032
 4600SOL     OW25258   3.409   0.578   0.970 -0.3132 -0.1824 -0.3242
 4600SOL    HW125259   3.380   0.574   1.061 -1.1913  1.0790 -0.5448
 4600SOL    HW225260   3.489   0.629   0.987  1.4170 -2.7727 -0.7485
 4601SOL     OW25261   3.761   1.896  17.171  0.8883 -0.0510 -0.1334
 4601SOL    HW125262   3.724   1.847  17.098  0.1662 -0.2373  0.3556
 4601SOL    HW225263   3.744   1.984  17.138  0.6693  0.2674  0.8178
 4602SOL     OW25264   0.687   1.312   7.451 -0.0550  0.3638 -0.3801
 4602SOL    HW125265   0.766   1.364   7.435  0.8888 -1.1972 -0.7520
 4602SOL    HW225266   0.672   1.294   7.359 -0.8212 -0.7193 -0.0465
 4603SOL     OW25267   0.489   1.600   7.196 -0.2886  0.1673  0.2050
 4603SOL    HW125268   0.469   1.509   7.175 -0.0317  1.0014 -3.7369
 4603SOL    HW225269   0.576   1.613   7.157 -0.3726 -2.8005 -1.0074
 4604SOL     OW25270   1.636   2.577  14.532  0.0881 -0.7393  0.1658
 4604SOL    HW125271   1.547   2.564  14.500  1.0479  0.2666 -2.9990
 4604SOL    HW225272   1.659   2.492  14.568  0.6527 -2.0291 -3.2432
 4605SOL     OW25273   0.062   2.271   1.944 -0.2564  0.2618 -0.2238
 4605SOL    HW125274   0.095   2.359   1.927  0.7871 -0.1848 -0.4681
 4605SOL    HW225275   0.033   2.253   1.855  1.1792  1.1979 -0.8737
 4606SOL     OW25276   1.878   1.161   5.593  0.4199  0.0266  0.4370
 4606SOL    HW125277   1.790   1.195   5.608  1.5901  3.0489  0.3998
 4606SOL    HW225278   1.880   1.143   5.499  0.2724  3.0353 -0.1184
 4607SOL     OW25279   1.755   0.029   6.118  0.2942 -0.2617 -0.0968
 4607SOL    HW125280   1.802   0.046   6.200  1.3749 -2.2970 -0.3044
 4607SOL    HW225281   1.664   0.046   6.141  1.0126  2.1936  0.9435
 4608SOL     OW25282   4.434   1.340   3.952  0.2518 -0.8123  0.2439
 4608SOL    HW125283   4.486   1.405   3.998 -0.2871 -0.3513  0.2037
 4608SOL    HW225284   4.490   1.263   3.963  0.4083 -0.7557 -0.1639
 4609SOL     OW25285   0.214   3.407   3.784  0.4625 -1.0163  0.0247
 4609SOL    HW125286   0.182   3.426   3.696  0.5438  0.2504  0.2690
 4609SOL    HW225287   0.302   3.374   3.766  0.1991 -0.5718 -2.0523
 4610SOL     OW25288   1.770   1.980   3.682 -0.0880  0.2668  0.4546
 4610SOL    HW125289   1.686   2.003   3.642  1.0437  2.4530 -0.6884
 4610SOL    HW225290   1.757   1.998   3.775 -0.0176  2.6610  0.0108
 4611SOL     OW25291   4.261   1.051  11.643 -0.1246  0.3295 -0.2867
 4611SOL    HW125292   4.188   1.099  11.682  0.0890  0.7540 -0.4179
 4611SOL    HW225293   4.332   1.114  11.628  0.3051 -0.1287 -0.2000
 4612SOL     OW25294   0.036   2.644   1.338 -0.2329  0.4777  0.3154
 4612SOL    HW125295   4.717   2.710   1.279 -2.2684 -0.0015  1.0888
 4612SOL    HW225296   0.129   2.664   1.330 -0.3706  1.6384  1.6307
 4613SOL     OW25297   0.073   1.103   5.701 -0.2750  0.0582 -0.1480
 4613SOL    HW125298   0.069   1.168   5.631  2.2017  0.6247  0.2367
 4613SOL    HW225299   0.117   1.040   5.645 -0.7552  1.7655 -2.4428
 4614SOL     OW25300   4.335   4.121   3.422 -0.2731 -0.5747  0.2136
 4614SOL    HW125301   4.277   4.140   3.348 -1.0881  0.5588  1.1386
 4614SOL    HW225302   4.419   4.131   3.377 -0.8046 -0.0037 -0.6518
 4615SOL     OW25303   0.808   0.036   9.467 -0.1941 -0.3089 -0.6306
 4615SOL    HW125304   0.719   0.016   9.440 -1.5939  2.1330  2.2281
 4615SOL    HW225305   0.860   4.705   9.404  1.1623 -2.4461  2.1662
 4616SOL     OW25306   2.002   3.977   0.393  0.1878  0.7825 -0.3561
 4616SOL    HW125307   2.018   3.884   0.408  1.2898  1.0077 -0.1867
 4616SOL    HW225308   2.087   4.013   0.417  1.0330 -1.2153 -0.4057
 4617SOL     OW25309   2.427   3.981   4.433 -0.2863 -0.1964  0.2940
 4617SOL    HW125310   2.373   3.952   4.360 -0.5056  1.9893 -0.4157
 4617SOL    HW225311   2.375   4.042   4.486  0.6536  1.0772 -0.2428
 4618SOL     OW25312   1.664   1.451  16.829  0.2961 -0.1639  0.0169
 4618SOL    HW125313   1.671   1.497  16.912  0.4578 -2.6747  1.4044
 4618SOL    HW225314   1.720   1.498  16.767  1.2082 -0.2763  0.7541
 4619SOL     OW25315   2.485   1.207   4.009 -0.1353  0.3568 -0.4645
 4619SOL    HW125316   2.439   1.181   3.929 -0.5570  1.2468 -0.5111
 4619SOL    HW225317   2.424   1.278   4.030  1.5760  1.8776 -0.5798
 4620SOL     OW25318   2.475   2.953   9.370  0.2649  0.2415 -0.1022
 4620SOL    HW125319   2.475   3.041   9.333 -1.3406  0.0468 -0.5451
 4620SOL    HW225320   2.533   2.963   9.447  0.0718  1.1078 -0.0675
 4621SOL     OW25321   2.465   4.138   9.513 -0.3526  0.0423 -0.4524
 4621SOL    HW125322   2.392   4.146   9.575  1.1820 -0.5888  1.4373
 4621SOL    HW225323   2.542   4.111   9.564  0.6693  0.2972 -1.8512
 4622SOL     OW25324   1.349   4.064   6.923  0.3779 -0.4862  0.1835
 4622SOL    HW125325   1.367   4.027   7.009  0.8549 -0.4935  0.0818
 4622SOL    HW225326   1.421   4.125   6.907 -1.8232  1.4215 -2.5310
 4623SOL     OW25327   1.662   2.029   3.936  0.1690 -0.0514 -0.4493
 4623SOL    HW125328   1.638   1.953   3.990  0.3595  0.4130  0.2921
 4623SOL    HW225329   1.575   2.070   3.936 -0.0117 -0.4254  0.0304
 4624SOL     OW25330   4.443   4.619   4.398  0.1449  0.4735 -0.0448
 4624SOL    HW125331   4.512   4.578   4.345 -1.2179 -0.6913 -0.9349
 4624SOL    HW225332   4.495   4.670   4.459 -0.0366 -1.3639  1.6660
 4625SOL     OW25333   3.600   2.231   3.906  0.4247 -0.0127  0.1947
 4625SOL    HW125334   3.627   2.224   3.814  0.1247 -0.3282  0.1336
 4625SOL    HW225335   3.514   2.191   3.891 -0.5417  2.0623  0.1963
 4626SOL     OW25336   2.995   4.620   7.460 -0.2621 -0.1101  0.1814
 4626SOL    HW125337   3.085   4.640   7.487 -0.2132 -2.3670  1.7190
 4626SOL    HW225338   2.945   4.691   7.500 -1.1337 -1.9878  2.4752
 4627SOL     OW25339   0.966   2.967   4.047 -0.4716  0.5083 -0.1629
 4627SOL    HW125340   1.045   2.947   4.098  1.0513 -1.2667 -3.1871
 4627SOL    HW225341   0.952   3.061   4.054  2.1060  1.0092 -1.8446
 4628SOL     OW25342   1.495   2.970  12.514  0.9022 -0.2329  0.2005
 4628SOL    HW125343   1.551   3.047  12.508 -2.1092  1.8136 -1.7565
 4628SOL    HW225344   1.411   3.010  12.538 -1.0381 -2.4925 -2.8499
 4629SOL     OW25345   0.288   1.829   4.463 -0.0002 -0.4133 -0.5872
 4629SOL    HW125346   0.364   1.782   4.498  0.0365  1.7089  2.2132
 4629SOL    HW225347   0.307   1.914   4.503 -4.1592  0.5626 -0.6432
 4630SOL     OW25348   1.447   3.054  11.394  0.1251  0.3781 -0.1182
 4630SOL    HW125349   1.354   3.035  11.402  0.0842  0.2831 -0.8275
 4630SOL    HW225350   1.490   3.010  11.468 -0.0899 -0.5525 -0.5503
 4631SOL     OW25351   0.972   1.911   4.210  0.3879  0.2282  0.2493
 4631SOL    HW125352   1.063   1.892   4.229 -0.5250 -4.8986 -0.5500
 4631SOL    HW225353   0.940   1.821   4.200  0.3936  0.1050  1.4262
 4632SOL     OW25354   2.786   3.511   2.371 -0.5426 -0.4528  0.1554
 4632SOL    HW125355   2.841   3.532   2.447 -1.2285  1.5432  0.1075
 4632SOL    HW225356   2.849   3.508   2.300 -0.6408  1.2731 -0.0097
 4633SOL     OW25357   1.508   1.072  12.442  0.2198  0.3407 -0.0475
 4633SOL    HW125358   1.456   1.099  12.366 -4.4015 -1.7842  2.3661
 4633SOL    HW225359   1.582   1.131  12.431  2.9193 -3.0351  0.1876
 4634SOL     OW25360   0.281   1.431   3.795  0.0855  0.0644 -0.2265
 4634SOL    HW125361   0.192   1.429   3.830 -0.6645  1.0006 -2.0717
 4634SOL    HW225362   0.254   1.431   3.703  3.9072  3.0801 -1.3564
 4635SOL     OW25363   3.517   1.917   8.703  0.3713  0.6816  0.6174
 4635SOL    HW125364   3.560   1.897   8.620  0.7667  0.9484  0.7605
 4635SOL    HW225365   3.428   1.922   8.667  0.2780 -0.5186  0.6528
 4636SOL     OW25366   0.835   3.933  10.336  0.2648 -0.2104  0.6022
 4636SOL    HW125367   0.755   3.916  10.286  0.1643  0.0918  0.6596
 4636SOL    HW225368   0.884   3.993  10.279 -1.2209  0.6772  0.2648
 4637SOL     OW25369   0.964   0.233   2.474  0.0361 -0.3278 -0.1693
 4637SOL    HW125370   1.035   0.246   2.536 -0.3982  1.4952 -0.0736
 4637SOL    HW225371   0.965   0.137   2.468  1.2006 -0.2272 -1.5701
 4638SOL     OW25372   3.604   4.653   6.588  0.0868  0.3101 -0.0384
 4638SOL    HW125373   3.555   4.579   6.554  0.7882  1.1729 -2.8825
 4638SOL    HW225374   3.553   4.689   6.661  0.3166  0.7091 -0.0739
 4639SOL     OW25375   2.791   2.569   6.895  0.0987  0.2478  0.2232
 4639SOL    HW125376   2.702   2.603   6.882 -0.1326 -0.0083  1.1376
 4639SOL    HW225377   2.799   2.589   6.988 -0.2259 -1.9594  0.7218
 4640SOL     OW25378   3.238   0.170   4.769  0.3095 -0.0611  0.2261
 4640SOL    HW125379   3.293   0.111   4.718  0.2473  0.5634 -0.5730
 4640SOL    HW225380   3.291   0.168   4.848 -1.5520  1.5165  1.5231
 4641SOL     OW25381   4.668   4.203   7.812 -0.4038 -0.2949  0.2586
 4641SOL    HW125382   4.591   4.153   7.840  0.1640  0.3043  2.8208
 4641SOL    HW225383   4.679   4.159   7.728 -0.4435 -0.0120  0.1054
 4642SOL     OW25384   2.422   0.976   2.634 -0.1090 -0.2539 -0.3532
 4642SOL    HW125385   2.419   0.976   2.730 -1.4004 -0.4378 -0.3889
 4642SOL    HW225386   2.510   0.948   2.610 -0.3227 -0.0968 -1.3123
 4643SOL     OW25387   1.181   1.727   4.524 -0.1628 -0.5540 -0.1521
 4643SOL    HW125388   1.153   1.810   4.486 -0.4013  0.1956  1.6337
 4643SOL    HW225389   1.105   1.705   4.578 -0.6056 -1.0958 -1.0173
 4644SOL     OW25390   4.457   0.690   5.226  0.6156 -0.6438  0.1374
 4644SOL    HW125391   4.473   0.783   5.208  2.5854 -1.6649 -3.4001
 4644SOL    HW225392   4.419   0.703   5.312 -1.0371  2.1011 -0.9897
 4645SOL     OW25393   1.191   2.303   3.185 -0.2619  0.2924  0.7750
 4645SOL    HW125394   1.245   2.233   3.150 -0.3671  0.3567  0.4796
 4645SOL    HW225395   1.106   2.260   3.177 -0.2505  0.4449 -0.0865
 4646SOL     OW25396   1.870   3.114   1.734  0.5066  0.1914  0.7949
 4646SOL    HW125397   1.843   3.190   1.787  1.4043  1.6197 -0.7893
 4646SOL    HW225398   1.794   3.096   1.677  2.3348 -2.1547 -0.8955
 4647SOL     OW25399   4.658   4.566   8.181  0.4934  0.6090  0.2508
 4647SOL    HW125400   4.675   4.475   8.205  0.7851  1.0466  1.7350
 4647SOL    HW225401   0.028   4.595   8.163  1.0251 -2.6151 -2.1922
 4648SOL     OW25402   3.852   4.169   5.972  0.0550  0.7412 -0.1265
 4648SOL    HW125403   3.882   4.083   6.004 -0.8002  0.2372 -0.6870
 4648SOL    HW225404   3.927   4.227   5.988 -0.0806  0.5855  1.0499
 4649SOL     OW25405   1.561   1.400   3.594  0.5564 -0.2216  0.4264
 4649SOL    HW125406   1.594   1.489   3.601 -0.3831  0.0352  1.4622
 4649SOL    HW225407   1.544   1.399   3.500  0.0228  0.5299  0.5164
 4650SOL     OW25408   0.629   4.140   5.492 -0.3865 -0.7336 -0.2962
 4650SOL    HW125409   0.674   4.055   5.499  0.0481 -0.4144  0.7594
 4650SOL    HW225410   0.680   4.196   5.550 -0.1117  1.5728 -2.7493
 4651SOL     OW25411   2.283   1.482   1.996  0.6029  0.9213  0.7443
 4651SOL    HW125412   2.311   1.531   1.919  1.9978  0.2870  0.8528
 4651SOL    HW225413   2.345   1.502   2.067 -2.0150 -0.2744  3.3716
 4652SOL     OW25414   3.505   4.556  16.001  0.0858 -0.5802  0.0890
 4652SOL    HW125415   3.559   4.590  16.072 -3.5166  0.6178  2.2521
 4652SOL    HW225416   3.448   4.629  15.973  0.7480  0.7532  2.2526
 4653SOL     OW25417   0.347   0.400  14.501  0.1251 -0.4061  0.4851
 4653SOL    HW125418   0.332   0.306  14.490 -0.5341  0.1454 -3.3348
 4653SOL    HW225419   0.439   0.410  14.477 -0.7581  0.7903 -2.3837
 4654SOL     OW25420   1.785   1.946   8.843 -0.1349  0.3113 -0.2157
 4654SOL    HW125421   1.760   1.857   8.867 -0.0979  0.4689  0.4089
 4654SOL    HW225422   1.834   1.974   8.920  1.1473 -2.1780 -0.1351
 4655SOL     OW25423   3.972   0.889   9.701  0.2211  0.3352 -0.1764
 4655SOL    HW125424   3.904   0.835   9.741 -1.7217  1.6654 -1.6790
 4655SOL    HW225425   4.033   0.886   9.774 -2.2081 -1.7299  1.7579
 4656SOL     OW25426   0.797   3.036  16.356  0.1179 -0.2255  0.2572
 4656SOL    HW125427   0.703   3.039  16.337 -0.0052  1.4533  1.1592
 4656SOL    HW225428   0.818   2.958  16.306  1.8986 -1.6464  3.2413
 4657SOL     OW25429   0.233   2.456  11.164 -0.0235  0.0474  0.1235
 4657SOL    HW125430   0.215   2.387  11.227 -3.5167  1.5753  0.7998
 4657SOL    HW225431   0.150   2.462  11.117  0.9261  0.0778 -1.5681
 4658SOL     OW25432   1.358   1.922   8.623  0.4622  0.0434  0.0614
 4658SOL    HW125433   1.384   1.891   8.709  1.8295 -0.2852 -0.4656
 4658SOL    HW225434   1.401   1.857   8.568  0.3738 -0.5821  0.7393
 4659SOL     OW25435   1.476   3.271   2.688  0.4165 -0.4564 -0.1221
 4659SOL    HW125436   1.383   3.252   2.678  0.4376  0.5179 -2.2527
 4659SOL    HW225437   1.476   3.324   2.768  1.6823  0.6666 -0.8698
 4660SOL     OW25438   3.855   3.006   3.516  0.2822  0.8142 -0.3292
 4660SOL    HW125439   3.795   2.989   3.443 -0.2728 -0.1802  0.3687
 4660SOL    HW225440   3.937   3.002   3.467  0.2892 -0.9106 -0.1693
 4661SOL     OW25441   0.473   0.650   6.686  0.0039 -0.2423 -0.2216
 4661SOL    HW125442   0.424   0.729   6.662 -0.3176 -0.4466 -0.2373
 4661SOL    HW225443   0.440   0.589   6.620 -0.8011 -1.5715  1.4224
 4662SOL     OW25444   1.480   0.040   5.323  1.2555  0.1775  0.2140
 4662SOL    HW125445   1.527   0.008   5.246  0.7175  0.7948 -0.3638
 4662SOL    HW225446   1.507   0.131   5.312 -1.0365  0.8098 -0.0022
 4663SOL     OW25447   1.748   3.098   5.748  0.6963  0.1839 -0.1325
 4663SOL    HW125448   1.746   3.005   5.774  0.1467  0.4677  0.8370
 4663SOL    HW225449   1.719   3.089   5.657  0.2853  0.8769 -0.0656
 4664SOL     OW25450   0.043   4.433   2.905 -0.1473  0.0456 -0.6202
 4664SOL    HW125451   0.102   4.507   2.889  2.5812 -1.8750  0.5956
 4664SOL    HW225452   4.679   4.453   2.862 -1.9022 -1.0301  2.2946
 4665SOL     OW25453   0.822   2.184   0.369 -0.1299  0.0995  0.3050
 4665SOL    HW125454   0.816   2.257   0.431  1.0614  0.2003  0.3149
 4665SOL    HW225455   0.732   2.152   0.368  0.0038 -0.2690 -0.0137
 4666SOL     OW25456   2.671   0.712  17.017  0.6398  0.6311 -0.5619
 4666SOL    HW125457   2.647   0.731  16.926  0.4267 -1.5665 -0.9476
 4666SOL    HW225458   2.667   0.798  17.058 -0.0511  0.3702 -0.1020
 4667SOL     OW25459   0.739   4.598   3.903 -0.0267 -0.7577 -0.8738
 4667SOL    HW125460   0.709   4.612   3.813  5.0099 -0.2872 -2.5039
 4667SOL    HW225461   0.783   4.514   3.890 -1.2822 -1.3680 -1.1838
 4668SOL     OW25462   0.179   0.409   8.708  0.0646  0.1627  0.5801
 4668SOL    HW125463   0.256   0.465   8.697 -1.1688  1.4098 -1.6235
 4668SOL    HW225464   0.128   0.442   8.781 -1.5642 -1.6073  0.2321
 4669SOL     OW25465   0.848   1.483   7.319  0.3851 -0.1553  0.0072
 4669SOL    HW125466   0.916   1.546   7.343 -1.7680  2.3127 -0.4141
 4669SOL    HW225467   0.864   1.475   7.224  0.2469 -1.0638  0.0618
 4670SOL     OW25468   0.951   2.949   2.620 -0.3574 -0.2563  0.4022
 4670SOL    HW125469   1.029   2.910   2.659  0.1451 -1.0548 -1.3844
 4670SOL    HW225470   0.920   3.000   2.695 -0.7468  1.3770 -0.8639
 4671SOL     OW25471   0.021   3.116  16.585 -0.6089 -0.3214 -0.8775
 4671SOL    HW125472   0.034   3.126  16.490  1.2758 -0.1814 -0.6193
 4671SOL    HW225473   0.015   3.020  16.581  2.0588 -0.5991  1.9186
 4672SOL     OW25474   0.495   0.219   6.657  0.3284  0.0406  0.4073
 4672SOL    HW125475   0.526   0.172   6.580  1.1370  1.7048 -0.2593
 4672SOL    HW225476   0.463   0.144   6.708 -3.1683  0.9731 -0.4339
 4673SOL     OW25477   2.310   0.798   4.272  0.3863 -0.0616 -0.3462
 4673SOL    HW125478   2.225   0.775   4.311  1.7518  0.2097  2.7736
 4673SOL    HW225479   2.318   0.889   4.301  0.6612  0.9190 -3.4721
 4674SOL     OW25480   2.574   0.200   3.906 -0.2649 -0.5637  0.3056
 4674SOL    HW125481   2.512   0.266   3.876  1.1226 -0.2540 -1.8926
 4674SOL    HW225482   2.610   0.171   3.822 -2.4385 -1.2068 -0.3949
 4675SOL     OW25483   2.854   2.512   3.356 -0.1136 -0.1661  0.0040
 4675SOL    HW125484   2.830   2.437   3.301 -0.2255 -0.6212  0.6784
 4675SOL    HW225485   2.792   2.577   3.320 -2.6500 -3.2004 -1.1220
 4676SOL     OW25486   2.477   2.069   6.713  1.2562  0.4317 -0.0242
 4676SOL    HW125487   2.526   2.046   6.634 -0.9369 -0.4640 -1.1263
 4676SOL    HW225488   2.464   2.160   6.686 -0.0421  0.1158 -0.4655
 4677SOL     OW25489   2.331   4.698   4.580  0.0483  0.0056 -0.1267
 4677SOL    HW125490   2.390   0.003   4.651 -1.3965  0.0206  1.0594
 4677SOL    HW225491   2.384   4.654   4.514  1.4056  1.2909  0.1089
 4678SOL     OW25492   4.053   0.815   4.825 -0.0476 -0.3204  0.1499
 4678SOL    HW125493   4.148   0.805   4.814 -0.2982 -0.9139 -1.3846
 4678SOL    HW225494   4.011   0.742   4.779 -0.4598 -0.6907  1.1037
 4679SOL     OW25495   0.179   2.266  10.010 -0.9931 -0.9233 -0.0572
 4679SOL    HW125496   0.125   2.276   9.931  0.0382 -1.4928 -0.8339
 4679SOL    HW225497   0.268   2.274   9.977 -0.3111 -1.7799  1.5522
 4680SOL     OW25498   4.275   4.150  16.089  1.1830  0.2535 -0.7966
 4680SOL    HW125499   4.269   4.142  16.185  1.2598  0.0950 -0.8054
 4680SOL    HW225500   4.340   4.082  16.071 -0.8984 -1.1815 -2.9363
 4681SOL     OW25501   1.702   0.204   8.149 -0.4434  0.2903  0.4059
 4681SOL    HW125502   1.691   0.291   8.110 -1.2128 -0.0343 -0.0898
 4681SOL    HW225503   1.684   0.225   8.241 -1.2786  0.5155  0.1953
 4682SOL     OW25504   3.754   4.587   2.205  0.0386 -0.0303  0.4364
 4682SOL    HW125505   3.794   4.529   2.140  0.5811  0.4765  0.3118
 4682SOL    HW225506   3.787   4.671   2.172 -0.5090 -0.1349 -0.3840
 4683SOL     OW25507   1.678   2.090  15.195  0.6542  0.0581 -0.4136
 4683SOL    HW125508   1.724   2.007  15.182 -2.2813 -1.9959  2.5254
 4683SOL    HW225509   1.727   2.112  15.275 -1.5637  1.1056  0.6503
 4684SOL     OW25510   1.234   2.624   2.533 -0.1859  0.0619  0.4380
 4684SOL    HW125511   1.212   2.550   2.477 -0.8858  1.4718 -1.1807
 4684SOL    HW225512   1.303   2.665   2.481  0.9024  0.0112  1.8278
 4685SOL     OW25513   2.521   3.481   3.252  0.2475 -0.6445  0.6839
 4685SOL    HW125514   2.477   3.561   3.223 -2.1822 -1.6015  1.7407
 4685SOL    HW225515   2.506   3.479   3.346 -2.0060  0.2141  0.3561
 4686SOL     OW25516   1.698   3.314  16.106  0.0302 -0.4600  0.0024
 4686SOL    HW125517   1.666   3.277  16.024 -0.2885  1.0888 -0.5672
 4686SOL    HW225518   1.761   3.243  16.118 -0.1842 -0.6625 -0.0703
 4687SOL     OW25519   0.133   3.718   5.894  0.7216 -0.5445 -0.2865
 4687SOL    HW125520   0.072   3.774   5.943  2.9619 -0.9140  2.9480
 4687SOL    HW225521   0.194   3.781   5.854 -1.8649  1.4086 -1.1953
 4688SOL     OW25522   0.730   3.456   4.854  0.0226  0.4987 -0.8004
 4688SOL    HW125523   0.818   3.493   4.859  0.8172 -0.8754 -4.0222
 4688SOL    HW225524   0.690   3.540   4.831  0.2337  0.8781  0.2227
 4689SOL     OW25525   2.857   1.640   8.692  0.4922 -0.0210 -0.0372
 4689SOL    HW125526   2.793   1.686   8.745  0.8746 -1.4170  1.6269
 4689SOL    HW225527   2.854   1.547   8.713  0.8163 -0.2292 -0.8804
 4690SOL     OW25528   4.045   4.241   5.655 -0.2355 -0.0469  0.2119
 4690SOL    HW125529   3.961   4.195   5.653 -0.9376  1.1974  1.6791
 4690SOL    HW225530   4.026   4.300   5.583  0.9916  0.2540  0.1428
 4691SOL     OW25531   1.262   1.617   3.693  0.0349  0.4581 -0.6961
 4691SOL    HW125532   1.234   1.631   3.602  0.6343  0.2008 -0.9182
 4691SOL    HW225533   1.206   1.547   3.726  0.5983  0.7314  0.8119
 4692SOL     OW25534   1.562   1.642   5.130 -0.4180 -0.3448 -0.3822
 4692SOL    HW125535   1.621   1.690   5.072  1.5532 -2.8385 -0.4667
 4692SOL    HW225536   1.611   1.611   5.207  0.8334  2.7175  0.0436
 4693SOL     OW25537   4.696   3.646  14.706 -0.1332 -0.1520  0.1748
 4693SOL    HW125538   4.698   3.607  14.619 -0.6539 -1.7149  0.8768
 4693SOL    HW225539   4.643   3.724  14.692  1.7397  0.9282 -1.0200
 4694SOL     OW25540   2.174   4.037   5.088  0.2055  0.2912  0.0136
 4694SOL    HW125541   2.159   3.949   5.054  0.5877  0.3980 -0.4173
 4694SOL    HW225542   2.102   4.091   5.057 -0.2336 -0.8956 -1.0382
 4695SOL     OW25543   1.811   1.375   4.474  0.1798 -0.6856  0.3313
 4695SOL    HW125544   1.808   1.464   4.440 -0.4303 -0.6960  0.3587
 4695SOL    HW225545   1.717   1.354   4.468 -0.5307  1.8161  2.5123
 4696SOL     OW25546   2.995   2.045   3.219  0.3372 -0.0572  0.2619
 4696SOL    HW125547   2.911   2.001   3.228  1.3757 -1.6303  2.3131
 4696SOL    HW225548   3.004   2.036   3.124  1.1216  3.7419 -0.0294
 4697SOL     OW25549   3.740   4.570   7.194 -0.0321 -0.0462 -0.6601
 4697SOL    HW125550   3.695   4.615   7.266  1.4911 -1.8290  1.4296
 4697SOL    HW225551   3.827   4.568   7.235 -0.7558 -0.4959  0.8704
 4698SOL     OW25552   4.281   4.015   6.140  0.1438 -0.5187 -0.7284
 4698SOL    HW125553   4.320   3.927   6.134 -0.8685 -1.0841  1.1887
 4698SOL    HW225554   4.269   4.029   6.234  0.2477  2.8745 -1.2126
 4699SOL     OW25555   3.155   2.767   5.147  0.3889  0.1770 -0.0770
 4699SOL    HW125556   3.196   2.691   5.106 -0.7201 -2.6358  4.0046
 4699SOL    HW225557   3.062   2.752   5.128  0.6262 -0.9109 -0.4125
 4700SOL     OW25558   2.979   0.988   2.156 -0.3958  0.3317  0.2285
 4700SOL    HW125559   3.068   0.957   2.175  0.6670  2.6416 -1.0725
 4700SOL    HW225560   2.953   0.940   2.078  1.8833  1.6360 -1.3375
 4701SOL     OW25561   0.496   0.845   3.258 -0.7344 -0.3595  0.2579
 4701SOL    HW125562   0.576   0.858   3.207 -0.4316  0.2360  0.8919
 4701SOL    HW225563   0.529   0.880   3.340  0.6749 -0.5937 -0.2086
 4702SOL     OW25564   3.421   3.633  14.187  0.1736 -0.0717  0.1014
 4702SOL    HW125565   3.375   3.583  14.255  1.7914  0.7079  1.7681
 4702SOL    HW225566   3.460   3.564  14.132  3.0207  1.3779  0.3228
 4703SOL     OW25567   4.231   3.472   5.247  0.1766 -0.1198 -0.2146
 4703SOL    HW125568   4.248   3.525   5.169 -0.5555  0.2118 -0.1445
 4703SOL    HW225569   4.304   3.501   5.301  0.2109  1.9309 -1.3791
 4704SOL     OW25570   3.807   0.446   6.051 -0.3764  0.1649  0.1367
 4704SOL    HW125571   3.857   0.367   6.071  0.5503  1.1420  1.7503
 4704SOL    HW225572   3.716   0.418   6.057  0.0338 -1.5134 -1.5827
 4705SOL     OW25573   0.656   1.616   0.152  0.4174 -0.5119  0.2211
 4705SOL    HW125574   0.693   1.703   0.163 -0.1855 -0.2328  0.0049
 4705SOL    HW225575   0.635   1.602   0.060 -1.1557 -1.3859  0.6934
 4706SOL     OW25576   4.405   2.598  13.827 -0.0269 -0.0678 -0.2139
 4706SOL    HW125577   4.491   2.557  13.834  0.7064  1.6295  0.5341
 4706SOL    HW225578   4.406   2.664  13.895 -0.8105 -0.4488  0.1640
 4707SOL     OW25579   1.472   1.924   4.951  0.0969 -0.0432  0.5704
 4707SOL    HW125580   1.440   1.904   4.864  0.6796 -0.4288  0.4465
 4707SOL    HW225581   1.496   2.017   4.949 -0.3089  0.0373 -0.3814
 4708SOL     OW25582   4.408   0.282   2.843 -0.1737 -0.5236  0.0279
 4708SOL    HW125583   4.470   0.351   2.819  0.1760  0.2359  3.0902
 4708SOL    HW225584   4.463   0.214   2.883  0.6964  0.7055  0.9476
 4709SOL     OW25585   2.612   4.346   6.585  0.5503 -0.9476 -0.6241
 4709SOL    HW125586   2.639   4.270   6.534  0.0934  0.2952 -2.7287
 4709SOL    HW225587   2.634   4.415   6.521 -1.5287 -1.3214 -1.7765
 4710SOL     OW25588   1.840   1.480   1.578  0.1969  0.3004  0.8804
 4710SOL    HW125589   1.909   1.498   1.642  0.8232  0.3721  0.1908
 4710SOL    HW225590   1.883   1.416   1.521 -1.4304 -0.1929  0.2072
 4711SOL     OW25591   1.688   3.731   6.745  0.9443 -0.0306  0.3419
 4711SOL    HW125592   1.657   3.751   6.657 -0.4222 -1.9963  0.3718
 4711SOL    HW225593   1.783   3.719   6.741  1.4242  4.3951 -0.5571
 4712SOL     OW25594   2.410   4.192   4.965  0.3252  0.1090 -0.4540
 4712SOL    HW125595   2.407   4.101   4.934 -1.4390 -1.0040  3.0557
 4712SOL    HW225596   2.388   4.242   4.887 -2.5689  1.4308  1.2220
 4713SOL     OW25597   0.677   1.791   5.096  0.0335  0.5984  0.2438
 4713SOL    HW125598   0.671   1.862   5.033 -0.0273 -0.9279 -1.4460
 4713SOL    HW225599   0.594   1.744   5.087  0.3701 -0.0847  0.7315
 4714SOL     OW25600   1.923   4.591  13.053  0.0581 -0.4345  0.0159
 4714SOL    HW125601   1.866   4.611  12.979  0.0958 -3.5555 -0.8558
 4714SOL    HW225602   1.926   4.680  13.089 -0.9668 -0.4932  0.2362
 4715SOL     OW25603   1.406   0.828   7.266 -0.4138 -0.4001  0.1391
 4715SOL    HW125604   1.474   0.868   7.321 -0.2162  1.4201 -1.4186
 4715SOL    HW225605   1.453   0.765   7.213  0.2278  0.0844  0.1296
 4716SOL     OW25606   4.102   3.891  17.621 -0.2335 -0.0054  0.2726
 4716SOL    HW125607   4.040   3.827  17.585  0.1801  0.6448 -1.5598
 4716SOL    HW225608   4.122   3.865   0.031  0.3531 -0.7412 -0.0658
 4717SOL     OW25609   1.678   1.398   2.387  0.5191  0.3662 -0.1483
 4717SOL    HW125610   1.638   1.463   2.329 -1.4545  0.9329  1.8653
 4717SOL    HW225611   1.769   1.425   2.372  1.4382 -1.6423  1.8177
 4718SOL     OW25612   0.888   4.588  12.268 -0.1572 -0.1744 -0.4382
 4718SOL    HW125613   0.821   4.575  12.336  0.7120  0.0476  0.4540
 4718SOL    HW225614   0.845   4.531  12.204 -2.2221  0.8423  0.0329
 4719SOL     OW25615   3.856   0.294   1.730 -0.4393 -0.0527  0.3197
 4719SOL    HW125616   3.889   0.205   1.744 -0.6481 -0.1034  0.4867
 4719SOL    HW225617   3.922   0.342   1.780  0.5754  0.6462 -1.6742
 4720SOL     OW25618   1.225   3.219   2.621  0.2855  0.3209 -0.3040
 4720SOL    HW125619   1.177   3.190   2.544 -0.4752 -1.5283  0.8469
 4720SOL    HW225620   1.157   3.203   2.687  0.2754  1.2049 -0.1077
 4721SOL     OW25621   2.359   0.599   3.738  0.1441 -0.3454  0.1095
 4721SOL    HW125622   2.277   0.648   3.745  1.1908  1.3435  0.4875
 4721SOL    HW225623   2.419   0.671   3.760 -2.0171  1.3273  0.5733
 4722SOL     OW25624   4.259   1.289   4.604 -0.4110  0.1722 -0.0738
 4722SOL    HW125625   4.310   1.368   4.590  1.1382 -0.6795  0.7085
 4722SOL    HW225626   4.233   1.264   4.516  1.0868 -1.0435 -0.1816
 4723SOL     OW25627   1.909   1.701   0.766 -0.4765  0.2971  0.5129
 4723SOL    HW125628   2.003   1.703   0.780 -0.1185 -2.1181 -1.4706
 4723SOL    HW225629   1.914   1.652   0.684 -1.7269 -1.0065  1.2149
 4724SOL     OW25630   3.450   3.644  10.746 -0.3619 -0.1049 -0.0954
 4724SOL    HW125631   3.413   3.610  10.665  0.0625 -1.4015  0.2532
 4724SOL    HW225632   3.487   3.570  10.795  0.2145 -0.1355 -0.5781
 4725SOL     OW25633   4.344   1.094   3.747  0.4684 -0.0474 -0.3250
 4725SOL    HW125634   4.311   1.181   3.726 -0.9024  0.3788  3.5052
 4725SOL    HW225635   4.265   1.041   3.757  0.4307  0.0042 -0.3510
 4726SOL     OW25636   3.716   0.837  16.162 -0.8236 -0.4293  0.7600
 4726SOL    HW125637   3.804   0.827  16.128 -0.1106  1.5752  2.0182
 4726SOL    HW225638   3.670   0.901  16.107 -2.7467 -1.2763  1.3582
 4727SOL     OW25639   1.495   3.500  16.067  0.0490  0.2649  0.0839
 4727SOL    HW125640   1.577   3.463  16.102  0.1685 -1.2300 -1.7719
 4727SOL    HW225641   1.518   3.543  15.985 -3.4112 -1.5265 -1.8249
 4728SOL     OW25642   2.276   2.640   8.668  0.1798  0.3229  0.0130
 4728SOL    HW125643   2.239   2.622   8.754  0.8899  0.2912  0.3111
 4728SOL    HW225644   2.198   2.686   8.635 -1.2455 -0.7635  1.8878
 4729SOL     OW25645   1.014   0.876  12.654  0.2691 -0.1562  0.3755
 4729SOL    HW125646   1.065   0.939  12.602 -1.0303  0.1044 -0.5785
 4729SOL    HW225647   1.087   0.842  12.706  0.3288 -0.3144  0.1871
 4730SOL     OW25648   2.794   1.435  13.516  0.0583  0.1758 -0.1873
 4730SOL    HW125649   2.758   1.416  13.603 -1.7823 -1.8216 -1.4075
 4730SOL    HW225650   2.764   1.524  13.496 -0.1482 -0.1516 -1.3635
 4731SOL     OW25651   3.355   1.774   0.351  0.4530  0.3455  0.2532
 4731SOL    HW125652   3.306   1.799   0.272  0.6719 -1.2652 -0.3883
 4731SOL    HW225653   3.281   1.777   0.412 -0.2351  0.9832 -0.6139
 4732SOL     OW25654   1.088   1.638   2.129 -0.5573  0.4169  0.6538
 4732SOL    HW125655   1.057   1.570   2.188  1.2439 -1.7533 -0.8759
 4732SOL    HW225656   1.126   1.583   2.060 -2.1493  2.1965 -1.6396
 4733SOL     OW25657   3.544   4.241   6.353 -0.7504 -0.2044 -0.0586
 4733SOL    HW125658   3.618   4.191   6.386  0.4157  0.7770 -1.1666
 4733SOL    HW225659   3.564   4.232   6.259  3.2975  3.8255  0.3895
 4734SOL     OW25660   4.668   3.354   3.465 -0.3019  0.0786 -0.3936
 4734SOL    HW125661   4.601   3.313   3.520  1.6714 -2.2802  0.2543
 4734SOL    HW225662   0.025   3.337   3.519 -0.5842 -3.0630 -0.9668
 4735SOL     OW25663   0.411   2.907   7.185 -0.1138  0.2220 -0.3596
 4735SOL    HW125664   0.386   2.982   7.240 -1.3024 -1.0895  0.8912
 4735SOL    HW225665   0.335   2.851   7.192 -0.2444  0.4903  0.3565
 4736SOL     OW25666   4.279   4.158  12.053  0.3521 -0.0846  0.2264
 4736SOL    HW125667   4.359   4.152  12.104  0.4729  1.7880  0.2348
 4736SOL    HW225668   4.311   4.228  11.996 -1.3608  0.4076 -0.1297
 4737SOL     OW25669   2.296   4.341   4.323 -0.0432  0.3927  0.1132
 4737SOL    HW125670   2.228   4.285   4.286 -0.0394  0.2106  0.3759
 4737SOL    HW225671   2.341   4.291   4.392  1.2851  0.5649 -0.6212
 4738SOL     OW25672   2.889   2.050   0.424  0.1090  0.0701  0.1588
 4738SOL    HW125673   2.887   1.961   0.460  1.8948  0.7302  1.8968
 4738SOL    HW225674   2.838   2.034   0.345  0.7374  0.1125 -0.2523
 4739SOL     OW25675   0.469   2.959   4.541  0.1623  0.3361 -0.6720
 4739SOL    HW125676   0.554   2.944   4.583 -0.4890 -0.5110  0.3110
 4739SOL    HW225677   0.445   2.867   4.531  0.1328  0.5687 -2.8019
 4740SOL     OW25678   3.753   2.647   5.815 -0.0328 -0.8585  0.9684
 4740SOL    HW125679   3.740   2.725   5.761  1.0805 -0.7696  0.8188
 4740SOL    HW225680   3.678   2.641   5.873 -1.2695 -0.7741 -0.6087
 4741SOL     OW25681   3.148   3.600   0.359  0.3709 -0.1253 -0.2733
 4741SOL    HW125682   3.104   3.619   0.276  1.0244  2.0653 -0.1170
 4741SOL    HW225683   3.100   3.520   0.383  0.5349 -0.2743 -0.4521
 4742SOL     OW25684   1.632   0.249   5.239 -0.7302  0.0437 -1.0381
 4742SOL    HW125685   1.604   0.318   5.179  0.2242  1.4705  0.1790
 4742SOL    HW225686   1.726   0.264   5.239 -1.2196  3.0926 -0.8660
 4743SOL     OW25687   2.384   2.726   7.702  0.7244  0.6144 -0.1433
 4743SOL    HW125688   2.331   2.647   7.708 -1.0356  1.7369 -0.8537
 4743SOL    HW225689   2.357   2.761   7.786  2.7922 -2.0315  1.6026
 4744SOL     OW25690   1.547   0.868  10.545 -0.0103  0.4938  1.0254
 4744SOL    HW125691   1.527   0.960  10.563  2.3689  1.1460  0.2886
 4744SOL    HW225692   1.609   0.869  10.472 -1.4183  0.6201 -0.1678
 4745SOL     OW25693   3.813   3.991   7.371  0.2806 -0.5962 -0.6978
 4745SOL    HW125694   3.797   3.927   7.301 -0.2954 -1.5769  0.3247
 4745SOL    HW225695   3.879   4.044   7.327  0.5877  0.1121  0.6108
 4746SOL     OW25696   0.806   3.403   3.092  0.0653 -0.3699  0.5743
 4746SOL    HW125697   0.735   3.447   3.045  3.0765  1.8209 -1.8736
 4746SOL    HW225698   0.758   3.326   3.122  0.3931 -0.7047  0.2325
 4747SOL     OW25699   0.476   1.634   9.604  0.2140 -0.6114  0.3845
 4747SOL    HW125700   0.561   1.676   9.595  1.3814 -3.0543 -0.0114
 4747SOL    HW225701   0.479   1.603   9.694 -2.1311  1.9089  1.3086
 4748SOL     OW25702   2.553   0.113  13.384  0.1842 -0.7190 -0.6640
 4748SOL    HW125703   2.589   0.161  13.310  1.8251 -0.8884  0.0327
 4748SOL    HW225704   2.503   0.048  13.334  0.6315 -0.2294 -1.7318
 4749SOL     OW25705   2.960   3.579   6.725 -0.0057 -0.2524  0.3807
 4749SOL    HW125706   2.919   3.536   6.801  0.8883 -1.3078  0.2778
 4749SOL    HW225707   2.908   3.544   6.652 -0.2449  1.4538 -0.2521
 4750SOL     OW25708   2.449   2.750   3.208 -0.1573 -0.2650 -0.0475
 4750SOL    HW125709   2.367   2.738   3.161  0.3976  0.4840 -1.2012
 4750SOL    HW225710   2.454   2.845   3.218  0.0391 -0.4367  1.4295
 4751SOL     OW25711   2.285   2.556  12.894 -0.3121  0.3821  0.8461
 4751SOL    HW125712   2.365   2.598  12.926 -0.3335  1.3072 -0.3038
 4751SOL    HW225713   2.220   2.568  12.964 -0.4445  0.5780  0.6910
 4752SOL     OW25714   3.126   1.510   7.645  0.2329  0.4133  0.0159
 4752SOL    HW125715   3.171   1.428   7.625  0.8036  1.3232 -2.3951
 4752SOL    HW225716   3.084   1.524   7.560 -3.5659  1.2736  2.0606
 4753SOL     OW25717   3.623   3.687   0.635 -0.2747  0.6372  0.3904
 4753SOL    HW125718   3.655   3.764   0.589 -1.4359  0.6316 -0.4004
 4753SOL    HW225719   3.539   3.670   0.593  0.3467  0.5472 -0.8191
 4754SOL     OW25720   2.508   1.663   4.237 -0.0214 -0.3577 -0.2417
 4754SOL    HW125721   2.520   1.709   4.154 -3.4364 -0.6410 -0.8709
 4754SOL    HW225722   2.418   1.631   4.234 -0.0109 -0.3160 -1.1292
 4755SOL     OW25723   1.844   2.502   6.882 -0.1231 -0.0836 -0.5813
 4755SOL    HW125724   1.831   2.431   6.945 -0.7346  0.9806  0.4878
 4755SOL    HW225725   1.893   2.462   6.809 -0.7291  1.1810 -1.6839
 4756SOL     OW25726   3.135   1.390  13.629  0.0938 -0.3188 -0.3019
 4756SOL    HW125727   3.147   1.408  13.536  1.1588  0.2385 -0.0598
 4756SOL    HW225728   3.197   1.322  13.654  2.0593  0.9730 -1.6266
 4757SOL     OW25729   2.160   3.526   5.921 -0.5122 -0.0090 -0.4374
 4757SOL    HW125730   2.222   3.455   5.907  0.0868  0.7548 -1.5996
 4757SOL    HW225731   2.181   3.567   5.838 -0.2334  0.5028 -0.1170
 4758SOL     OW25732   1.001   3.584  13.856  0.0774  0.2916  0.0019
 4758SOL    HW125733   0.951   3.628  13.788 -1.9927 -1.1490  0.6001
 4758SOL    HW225734   1.036   3.512  13.804 -0.8632 -1.2062  1.4834
 4759SOL     OW25735   1.975   3.513   6.817  0.0472  0.0419 -0.5804
 4759SOL    HW125736   2.010   3.445   6.873  0.9782  0.7541 -0.3044
 4759SOL    HW225737   2.046   3.577   6.810  1.8164 -1.7455  1.3007
 4760SOL     OW25738   1.157   3.192  16.648  0.0115  0.4870 -0.1670
 4760SOL    HW125739   1.083   3.202  16.589  0.4953  0.1620 -0.8333
 4760SOL    HW225740   1.134   3.130  16.717 -1.7774  1.2212 -0.1029
 4761SOL     OW25741   4.516   2.486   4.845  0.2507  0.1021  0.3623
 4761SOL    HW125742   4.424   2.484   4.871 -0.7007 -0.8020 -3.0815
 4761SOL    HW225743   4.559   2.557   4.893  0.4273 -1.5073  2.5566
 4762SOL     OW25744   3.673   2.750   4.221  0.1063  0.3000 -0.8029
 4762SOL    HW125745   3.720   2.796   4.291  1.1316 -1.0491 -0.6061
 4762SOL    HW225746   3.632   2.830   4.187  1.3335  0.9296 -0.7992
 4763SOL     OW25747   2.549   0.188   2.338  0.0070  0.5372 -0.4705
 4763SOL    HW125748   2.636   0.219   2.363  0.3759  0.3480 -1.5383
 4763SOL    HW225749   2.574   0.156   2.252  0.6620  2.7675 -1.1167
 4764SOL     OW25750   0.412   2.084   1.790  0.5841  0.0719 -0.2027
 4764SOL    HW125751   0.342   2.146   1.768  1.0786  1.1372  1.2188
 4764SOL    HW225752   0.477   2.114   1.726  0.1971  0.6533 -0.3260
 4765SOL     OW25753   0.021   3.425  13.666  0.4528  0.5666  0.5591
 4765SOL    HW125754   0.005   3.331  13.656 -0.5407  0.7852  0.0608
 4765SOL    HW225755   0.024   3.458  13.576  0.2946 -1.5894 -0.2466
 4766SOL     OW25756   1.012   4.507   7.099  0.5069  0.1060  0.4543
 4766SOL    HW125757   1.073   4.477   7.166 -1.0623 -2.5737  0.7109
 4766SOL    HW225758   0.933   4.463   7.130  0.4999 -1.4756 -1.8260
 4767SOL     OW25759   1.275   3.825  17.232 -0.2393  0.3343  0.0494
 4767SOL    HW125760   1.222   3.767  17.177  0.2682 -0.6254  0.5757
 4767SOL    HW225761   1.208   3.876  17.277 -1.0882 -1.5153  0.9204
 4768SOL     OW25762   3.476   0.362   4.150 -0.0971 -0.6898 -0.2751
 4768SOL    HW125763   3.481   0.425   4.221  0.3284  0.4715 -1.3407
 4768SOL    HW225764   3.384   0.337   4.148 -0.3476  0.2589 -0.6301
 4769SOL     OW25765   2.172   2.239   5.200  0.6123  0.0066 -0.0298
 4769SOL    HW125766   2.232   2.164   5.207  0.3603 -0.1183  0.7478
 4769SOL    HW225767   2.092   2.189   5.215  0.3539 -0.2170 -2.2121
 4770SOL     OW25768   3.138   4.110  15.178  0.1215 -0.7457  0.3435
 4770SOL    HW125769   3.087   4.135  15.102 -2.6863  0.9711  2.8116
 4770SOL    HW225770   3.137   4.014  15.174  1.9267 -0.7632  0.2985
 4771SOL     OW25771   3.074   4.022   5.419 -0.1678  0.3029 -0.7889
 4771SOL    HW125772   3.000   4.047   5.363 -1.1602  0.3228  0.5296
 4771SOL    HW225773   3.072   4.087   5.489 -0.5651  1.5712 -1.9813
 4772SOL     OW25774   3.226   4.641   6.191 -0.0936  0.1347 -0.5577
 4772SOL    HW125775   3.267   4.561   6.223  1.3800  1.3514  0.6664
 4772SOL    HW225776   3.303   4.682   6.150  1.5421 -2.2645  0.1085
 4773SOL     OW25777   1.593   2.322   3.197 -0.2291 -0.1956 -0.1624
 4773SOL    HW125778   1.616   2.236   3.233 -0.5141 -1.2980 -2.5651
 4773SOL    HW225779   1.590   2.312   3.102  0.2912  0.0072 -0.2013
 4774SOL     OW25780   3.849   1.874   7.577 -0.0651  0.7793 -0.0522
 4774SOL    HW125781   3.809   1.788   7.566  1.4475  0.1165 -0.4134
 4774SOL    HW225782   3.931   1.859   7.530  0.3294 -0.2432  0.9702
 4775SOL     OW25783   2.461   2.436   3.260  0.0370  0.2436  0.5987
 4775SOL    HW125784   2.478   2.488   3.182 -1.3298  2.0209  1.4961
 4775SOL    HW225785   2.385   2.477   3.301 -1.1795 -1.2670 -0.1720
 4776SOL     OW25786   1.778   3.375   7.230  0.0584  0.3589  0.3649
 4776SOL    HW125787   1.747   3.395   7.141 -0.5875 -0.3625  0.4260
 4776SOL    HW225788   1.860   3.328   7.215  0.0303  0.9989 -1.7971
 4777SOL     OW25789   1.764   2.469   6.078  0.0445  0.6362  0.1601
 4777SOL    HW125790   1.706   2.466   6.001 -1.4402  0.0404  1.2909
 4777SOL    HW225791   1.709   2.535   6.120 -1.3217  0.8712 -1.9799
 4778SOL     OW25792   1.936   2.317   7.690  0.0956  0.3328  0.0294
 4778SOL    HW125793   1.850   2.360   7.686 -0.3518 -0.1814  4.2672
 4778SOL    HW225794   1.975   2.366   7.618  1.5094 -0.4420  0.2747
 4779SOL     OW25795   2.951   4.423   5.562 -0.4673  0.2429 -0.2235
 4779SOL    HW125796   3.011   4.487   5.525  0.2096  0.7937  1.8170
 4779SOL    HW225797   2.873   4.477   5.553  1.2812  2.6084 -1.1717
 4780SOL     OW25798   1.673   4.351  17.527 -0.1787  0.6210 -0.2644
 4780SOL    HW125799   1.698   4.264  17.558  0.3018  1.0272  0.4851
 4780SOL    HW225800   1.687   4.333  17.434 -2.4859  0.9909 -0.6922
 4781SOL     OW25801   2.014   0.251   3.536 -0.9415 -0.2196 -0.4220
 4781SOL    HW125802   1.923   0.274   3.519 -1.0714 -2.0660 -2.2950
 4781SOL    HW225803   2.051   0.339   3.536 -1.5728  0.0479  0.3151
 4782SOL     OW25804   0.432   4.345   4.063  0.6205 -0.9953  0.3313
 4782SOL    HW125805   0.467   4.268   4.108  1.6196 -0.0507  1.1914
 4782SOL    HW225806   0.464   4.320   3.976 -0.6652  3.1292 -1.3359
 4783SOL     OW25807   0.005   3.900   6.052  0.7502  0.4826 -0.2751
 4783SOL    HW125808   0.044   3.897   6.139 -1.6760 -2.1972  0.7153
 4783SOL    HW225809   4.692   3.991   6.050 -0.8889 -0.0706  1.4760
 4784SOL     OW25810   4.448   1.493   4.545 -0.0586  0.4656 -0.3123
 4784SOL    HW125811   4.394   1.572   4.544  0.6472  0.9913  1.4796
 4784SOL    HW225812   4.506   1.520   4.617  0.9682 -3.4100  0.2703
 4785SOL     OW25813   3.912   0.928   2.473 -0.4210  0.0057  0.1115
 4785SOL    HW125814   3.906   0.909   2.380 -0.2507  0.0113  0.0994
 4785SOL    HW225815   3.840   0.872   2.500 -1.1318  0.4599 -0.8771
 4786SOL     OW25816   2.508   3.881   7.463 -0.2959 -0.2180 -0.2990
 4786SOL    HW125817   2.588   3.883   7.514 -0.4363  0.0132 -0.0886
 4786SOL    HW225818   2.550   3.893   7.378 -0.3129  1.2612 -0.0984
 4787SOL     OW25819   4.479   3.393   8.033 -0.0570  0.3250 -0.5495
 4787SOL    HW125820   4.419   3.324   8.004 -0.5802  0.8602 -0.7429
 4787SOL    HW225821   4.517   3.354   8.111 -0.6530 -1.2000 -1.0339
 4788SOL     OW25822   0.837   4.442  15.906  0.6689  0.1882  0.2524
 4788SOL    HW125823   0.831   4.347  15.913 -1.7748  0.2299 -1.2552
 4788SOL    HW225824   0.923   4.452  15.867  0.2834 -0.4139 -0.7424
 4789SOL     OW25825   3.585   1.640   3.726 -0.1854  0.2052 -0.1359
 4789SOL    HW125826   3.592   1.665   3.634 -0.7876  1.1281  0.0671
 4789SOL    HW225827   3.546   1.714   3.772  0.5091 -0.1847  1.0597
 4790SOL     OW25828   1.459   4.131  17.384  0.1181  0.0625  0.1728
 4790SOL    HW125829   1.553   4.135  17.367  0.3624 -1.6369  1.0755
 4790SOL    HW225830   1.443   4.049  17.430 -1.9630  0.9104  0.9525
 4791SOL     OW25831   1.931   2.551   2.335  0.4122 -0.0508 -0.3343
 4791SOL    HW125832   1.979   2.468   2.339 -0.2094 -0.4263 -0.5076
 4791SOL    HW225833   1.893   2.544   2.247  0.9076  0.0018 -0.5506
 4792SOL     OW25834   2.247   3.424  17.359 -0.0547  0.0086  0.2172
 4792SOL    HW125835   2.240   3.400  17.267  1.0022 -1.0761  0.4101
 4792SOL    HW225836   2.248   3.520  17.351 -1.3333  0.1129  1.2651
 4793SOL     OW25837   3.345   1.850   3.498 -0.7188 -0.6066  0.0242
 4793SOL    HW125838   3.281   1.850   3.428  0.4423 -0.3700 -1.0337
 4793SOL    HW225839   3.302   1.801   3.568 -1.3131 -2.3376 -1.5616
 4794SOL     OW25840   4.224   0.164   2.690 -0.0509 -0.3555 -0.4736
 4794SOL    HW125841   4.286   0.198   2.755 -0.2594 -1.7197  0.4458
 4794SOL    HW225842   4.207   0.239   2.634  1.0561 -0.9481 -1.5853
 4795SOL     OW25843   2.776   2.504   2.439  0.3331  0.3803  0.0668
 4795SOL    HW125844   2.767   2.457   2.522 -2.9447 -1.6086 -1.4443
 4795SOL    HW225845   2.861   2.539   2.467 -0.2793  2.5001 -0.7147
 4796SOL     OW25846   0.542   2.456   2.163  0.6289 -0.1921  0.1473
 4796SOL    HW125847   0.471   2.444   2.226 -0.7620  2.2013 -0.9688
 4796SOL    HW225848   0.587   2.538   2.183 -0.8761  0.3997  1.1080
 4797SOL     OW25849   3.226   0.082   4.297  0.3226 -0.2029 -0.4517
 4797SOL    HW125850   3.266   0.002   4.262 -1.1080 -0.4672 -1.5174
 4797SOL    HW225851   3.253   0.074   4.388 -0.9825 -0.0509 -0.0407
 4798SOL     OW25852   1.379   3.434   0.897 -0.1620 -0.3927 -0.5564
 4798SOL    HW125853   1.374   3.518   0.852 -1.3295 -0.6660 -0.9373
 4798SOL    HW225854   1.406   3.378   0.824  2.2338 -1.0314  0.8301
 4799SOL     OW25855   0.300   1.097   4.811 -0.0598  0.0996  0.8755
 4799SOL    HW125856   0.249   1.166   4.770 -0.1520  0.6971  2.0176
 4799SOL    HW225857   0.238   1.056   4.871  1.0158 -0.4370  1.6338
 4800SOL     OW25858   4.497   4.321   9.724  0.1098  0.0025 -0.2928
 4800SOL    HW125859   4.505   4.334   9.818  2.3475  0.6591 -0.5704
 4800SOL    HW225860   4.589   4.301   9.708 -0.4431 -1.8473 -1.1522
 4801SOL     OW25861   3.106   3.609  14.213  0.0453  0.3503  0.7150
 4801SOL    HW125862   3.126   3.647  14.298  1.1403  2.0838 -0.3183
 4801SOL    HW225863   3.163   3.531  14.211 -0.0944  0.2593  0.3019
 4802SOL     OW25864   1.697   0.167   9.678  0.4529 -0.6416  0.6530
 4802SOL    HW125865   1.769   0.208   9.725  0.0095 -1.6740  2.2397
 4802SOL    HW225866   1.638   0.241   9.663 -0.8554 -1.4714  1.7053
 4803SOL     OW25867   2.001   4.415   6.431 -0.2459 -0.3413 -0.3411
 4803SOL    HW125868   2.018   4.418   6.336  0.7397 -0.7900 -0.1806
 4803SOL    HW225869   1.967   4.326   6.442 -1.6907  0.1592 -0.7594
 4804SOL     OW25870   4.466   1.623   3.486  0.0454  0.0813 -0.1900
 4804SOL    HW125871   4.534   1.690   3.489 -0.6338  0.5878  3.6236
 4804SOL    HW225872   4.445   1.602   3.577 -1.5875 -0.3003 -0.6410
 4805SOL     OW25873   1.824   0.790  15.405 -1.0073  0.1245 -0.4147
 4805SOL    HW125874   1.904   0.828  15.440 -0.5193 -0.7860 -0.5375
 4805SOL    HW225875   1.808   0.724  15.472  0.0391 -0.4326 -0.6995
 4806SOL     OW25876   3.285   2.807   6.828 -0.9452  0.1925 -0.1929
 4806SOL    HW125877   3.296   2.806   6.732  0.5718  3.0973 -0.0555
 4806SOL    HW225878   3.355   2.868   6.854 -1.3618  0.8125 -0.5277
 4807SOL     OW25879   3.388   1.763   4.924 -0.1801  0.4067 -0.3400
 4807SOL    HW125880   3.328   1.763   4.999  1.5408 -0.5211  1.0163
 4807SOL    HW225881   3.323   1.744   4.856 -0.3573  2.0271 -0.6385
 4808SOL     OW25882   1.162   1.344   7.087  0.2603 -0.0173  0.1206
 4808SOL    HW125883   1.146   1.275   7.152  0.2574 -0.6124 -0.5093
 4808SOL    HW225884   1.182   1.295   7.007  0.2202  0.9339 -0.4714
 4809SOL     OW25885   4.191   1.932   8.162 -0.3726 -0.1330 -0.2092
 4809SOL    HW125886   4.142   2.003   8.121  0.3582 -0.0944 -1.0075
 4809SOL    HW225887   4.180   1.861   8.099  0.4386 -0.4331 -0.0083
 4810SOL     OW25888   1.225   3.492   8.155  0.0828  0.5586 -0.1783
 4810SOL    HW125889   1.260   3.440   8.083  2.4411  1.9292 -0.0196
 4810SOL    HW225890   1.300   3.511   8.211 -0.6011  0.1883  0.8854
 4811SOL     OW25891   3.138   1.636   2.309  0.2096  0.1077  0.4181
 4811SOL    HW125892   3.131   1.729   2.288 -2.3102 -0.1390  0.2402
 4811SOL    HW225893   3.139   1.600   2.220 -0.7591  0.2187  0.3690
 4812SOL     OW25894   2.837   1.720  17.628 -0.0530 -0.7017  1.1834
 4812SOL    HW125895   2.844   1.810  17.661 -2.9407  0.1505 -0.5899
 4812SOL    HW225896   2.889   1.725  17.548 -2.4103 -1.0656 -0.3805
 4813SOL     OW25897   2.669   0.276   7.143 -0.0728 -0.3100  0.3646
 4813SOL    HW125898   2.576   0.292   7.158 -0.1852 -0.8342  0.2516
 4813SOL    HW225899   2.709   0.315   7.221 -0.4931  0.7295  0.0507
 4814SOL     OW25900   2.628   4.360  17.321 -0.2852  0.1074  0.1613
 4814SOL    HW125901   2.687   4.285  17.318  0.5123  0.6317  2.8744
 4814SOL    HW225902   2.691   4.425  17.351 -0.1312  0.5231 -1.0507
 4815SOL     OW25903   0.315   4.181  11.501 -0.0761  0.0212 -0.3516
 4815SOL    HW125904   0.327   4.170  11.407  0.9502 -1.9584  0.0052
 4815SOL    HW225905   0.326   4.276  11.501  1.4381 -0.1449  1.7710
 4816SOL     OW25906   3.524   1.787   5.549  0.4420  0.0242  0.6672
 4816SOL    HW125907   3.437   1.752   5.530  2.2150 -4.1089  0.2452
 4816SOL    HW225908   3.551   1.830   5.468 -1.0224 -0.7035 -0.2067
 4817SOL     OW25909   0.804   4.282   9.244  0.2660 -0.8156 -0.1827
 4817SOL    HW125910   0.849   4.212   9.292  0.1371 -0.0536  1.0548
 4817SOL    HW225911   0.721   4.243   9.220 -0.1437 -1.4089  2.1735
 4818SOL     OW25912   4.133   4.421  16.100  0.5804  0.3673  0.3481
 4818SOL    HW125913   4.149   4.327  16.096  0.9117  0.4916 -1.1123
 4818SOL    HW225914   4.119   4.441  16.008 -1.7826 -1.4732  0.3110
 4819SOL     OW25915   4.681   3.991  15.938  0.1954 -0.0829  0.4120
 4819SOL    HW125916   4.632   3.987  16.021  0.8556  0.8191  0.8569
 4819SOL    HW225917   4.713   4.081  15.945  1.9323 -0.5923 -1.1586
 4820SOL     OW25918   0.664   2.009   3.664 -0.0554 -0.2284  0.8479
 4820SOL    HW125919   0.650   2.103   3.659  1.3389 -0.0496  0.2216
 4820SOL    HW225920   0.755   1.992   3.691  0.2740  4.5446  2.8429
 4821SOL     OW25921   3.145   0.822  10.184 -0.0523 -0.0403 -0.2061
 4821SOL    HW125922   3.054   0.846  10.171 -0.1715  0.4477  1.4892
 4821SOL    HW225923   3.174   0.885  10.251 -1.3708  1.0448 -0.6662
 4822SOL     OW25924   2.650   1.398   9.018  0.0772 -0.1835 -0.1581
 4822SOL    HW125925   2.604   1.401   9.102 -1.6835 -0.4026 -1.1081
 4822SOL    HW225926   2.686   1.309   9.021  1.4752  0.4643  2.3256
 4823SOL     OW25927   1.495   2.402  16.664 -0.3044  0.0425 -0.4343
 4823SOL    HW125928   1.427   2.339  16.643 -0.2091 -0.4470  0.7283
 4823SOL    HW225929   1.569   2.345  16.687  0.7910  1.3684 -0.6695
 4824SOL     OW25930   0.711   0.106   2.416  0.0385  0.3775 -0.5807
 4824SOL    HW125931   0.790   0.148   2.451  0.6300 -0.1173 -1.3451
 4824SOL    HW225932   0.754   0.057   2.347 -0.0497  0.3256 -0.5987
 4825SOL     OW25933   4.669   4.547   5.755 -0.5670  0.7694  0.2906
 4825SOL    HW125934   4.662   4.588   5.669  1.3146 -0.2170 -0.3362
 4825SOL    HW225935   4.577   4.522   5.765 -0.9379  1.8329 -0.3284
 4826SOL     OW25936   2.389   0.340   0.819 -0.7841 -0.0226  0.6132
 4826SOL    HW125937   2.346   0.390   0.749  1.7877  1.0347 -0.2077
 4826SOL    HW225938   2.453   0.289   0.768 -0.3579 -0.0443  1.1757
 4827SOL     OW25939   2.540   4.214   3.259  0.2598  0.0658  0.2905
 4827SOL    HW125940   2.542   4.161   3.179  2.8197  1.3183 -0.4988
 4827SOL    HW225941   2.578   4.158   3.327 -0.3251 -0.8590 -0.1425
 4828SOL     OW25942   4.576   4.617   9.361 -0.0816  0.0022 -0.2160
 4828SOL    HW125943   4.543   4.642   9.275 -0.5247  0.4689  0.0929
 4828SOL    HW225944   4.495   4.594   9.407  1.0301  0.5219  1.9909
 4829SOL     OW25945   2.468   0.966   2.900 -0.2519  0.1017  0.4029
 4829SOL    HW125946   2.542   0.916   2.935 -0.6919  0.3535  1.6700
 4829SOL    HW225947   2.404   0.961   2.970 -1.8080 -0.8998 -1.1113
 4830SOL     OW25948   4.537   3.404  10.157  0.3568  0.1631 -0.5338
 4830SOL    HW125949   4.594   3.330  10.135 -1.1164 -0.6727 -1.5282
 4830SOL    HW225950   4.537   3.457  10.078  1.5891  0.4488 -0.3460
 4831SOL     OW25951   1.504   1.860  15.312  0.3726  0.0109 -0.1563
 4831SOL    HW125952   1.594   1.893  15.323 -0.1002  1.4377 -0.5525
 4831SOL    HW225953   1.453   1.937  15.288 -0.9879 -1.0211 -0.5022
 4832SOL     OW25954   0.522   1.148   6.736  0.3159  0.3324  0.3664
 4832SOL    HW125955   0.466   1.185   6.668 -0.0001 -0.5341  0.1543
 4832SOL    HW225956   0.610   1.184   6.720  0.9548 -1.1789  0.4312
 4833SOL     OW25957   4.635   0.593   1.882  0.3990  0.0392 -0.7294
 4833SOL    HW125958   4.694   0.597   1.957  0.7583 -0.5093 -0.9861
 4833SOL    HW225959   4.684   0.655   1.828 -1.8040  2.0990 -0.4038
 4834SOL     OW25960   2.712   0.355   8.951 -0.0337 -0.3564  0.3624
 4834SOL    HW125961   2.788   0.413   8.954 -1.2252  1.1591  1.3811
 4834SOL    HW225962   2.660   0.391   8.879  0.4315  1.6814  1.0325
 4835SOL     OW25963   2.424   3.183   4.604  0.0844 -0.1333  0.2663
 4835SOL    HW125964   2.430   3.087   4.607 -2.0548 -0.2784 -0.0858
 4835SOL    HW225965   2.384   3.188   4.517  1.4648 -1.4198 -0.4602
 4836SOL     OW25966   0.912   3.594   7.560  0.0630  0.7384 -0.3073
 4836SOL    HW125967   0.923   3.500   7.576  0.0312  1.1128  2.0277
 4836SOL    HW225968   0.925   3.627   7.649 -0.5927 -1.8507  0.7665
 4837SOL     OW25969   3.246   3.693   5.217 -0.0550 -1.0419  0.5449
 4837SOL    HW125970   3.249   3.789   5.222  1.4282 -0.8969 -2.8689
 4837SOL    HW225971   3.317   3.678   5.280  0.8485  0.8507 -0.0112
 4838SOL     OW25972   1.328   4.328   4.139  0.1259 -0.1325  0.3158
 4838SOL    HW125973   1.373   4.249   4.111  0.3623 -0.3432  1.2911
 4838SOL    HW225974   1.289   4.343   4.052  1.4670 -2.3298 -0.6487
 4839SOL     OW25975   0.322   3.384   5.458 -0.8480  0.4362 -0.0894
 4839SOL    HW125976   0.313   3.473   5.493 -0.5092 -0.2310  1.6784
 4839SOL    HW225977   0.381   3.347   5.523 -1.6581  0.1720  0.4918
 4840SOL     OW25978   0.979   2.667  17.035 -0.0505  1.1123 -0.2549
 4840SOL    HW125979   0.943   2.580  17.018 -0.0566  1.4782 -2.1547
 4840SOL    HW225980   1.055   2.635  17.084 -0.7554 -0.8917 -0.4661
 4841SOL     OW25981   2.864   3.858   1.397 -0.0571 -0.0409 -0.6330
 4841SOL    HW125982   2.949   3.901   1.398  0.4469 -1.0557  0.5148
 4841SOL    HW225983   2.832   3.890   1.482 -0.6058  1.6931 -1.5105
 4842SOL     OW25984   2.217   0.802   6.074 -0.4714 -0.0557 -0.3472
 4842SOL    HW125985   2.216   0.895   6.053 -0.7745  0.2160  0.8602
 4842SOL    HW225986   2.205   0.802   6.169 -1.6779 -0.2859 -0.5016
 4843SOL     OW25987   2.570   4.275   6.854  0.1281 -0.3959 -0.6345
 4843SOL    HW125988   2.558   4.295   6.761 -2.4671 -0.7530 -0.3806
 4843SOL    HW225989   2.609   4.188   6.862 -0.5388 -0.6453 -0.0088
 4844SOL     OW25990   2.016   2.617   3.769 -0.2144  0.5356 -0.2210
 4844SOL    HW125991   1.934   2.568   3.771  0.1367  0.0032  1.2070
 4844SOL    HW225992   2.016   2.653   3.681 -0.1006  0.3228 -0.3071
 4845SOL     OW25993   2.278   2.061   6.351  0.6729  0.3591  0.0948
 4845SOL    HW125994   2.214   2.013   6.403  0.2647  0.3869 -0.3863
 4845SOL    HW225995   2.328   2.097   6.425 -2.2510  0.5279  2.0104
 4846SOL     OW25996   0.689   3.992   8.395 -0.3492  0.0636 -0.3266
 4846SOL    HW125997   0.755   4.060   8.381 -0.5783  0.7960  2.1609
 4846SOL    HW225998   0.685   3.984   8.491  1.6866  2.4115 -0.0439
 4847SOL     OW25999   2.603   2.186   8.298  0.2893  0.1372 -0.0152
 4847SOL    HW126000   2.670   2.222   8.356  0.7532  0.4017 -0.7202
 4847SOL    HW226001   2.543   2.143   8.359 -0.1912  1.2416  0.2880
 4848SOL     OW26002   3.681   2.041   7.714  0.2685  0.1519  0.7506
 4848SOL    HW126003   3.736   1.984   7.661 -0.7128  0.9200 -1.0998
 4848SOL    HW226004   3.629   1.977   7.762  1.7362 -2.6538 -1.3773
 4849SOL     OW26005   3.490   1.563   2.560  0.3280 -0.5167 -0.1546
 4849SOL    HW126006   3.397   1.541   2.564  0.1262 -0.0768 -2.0187
 4849SOL    HW226007   3.482   1.658   2.563  2.3037 -0.2705 -2.5742
 4850SOL     OW26008   2.366   1.679   1.378  0.0092 -0.3731 -0.1585
 4850SOL    HW126009   2.395   1.626   1.452  0.1164 -1.0133 -0.6635
 4850SOL    HW226010   2.301   1.739   1.416 -1.0612 -1.3159 -0.5186
 4851SOL     OW26011   2.543   2.065   7.209 -0.3403 -0.0063 -0.4827
 4851SOL    HW126012   2.563   2.008   7.135  0.8382 -0.8935  0.5288
 4851SOL    HW226013   2.625   2.112   7.224  1.2153 -3.4074  1.5839
 4852SOL     OW26014   3.358   0.057  15.923  0.7462 -0.0177  0.5429
 4852SOL    HW126015   3.292   0.037  15.856  0.1487 -0.3706  1.2409
 4852SOL    HW226016   3.409   0.117  15.868  0.8405  0.1440  0.8098
 4853SOL     OW26017   3.934   4.420   5.477 -0.6181  0.2287 -0.2996
 4853SOL    HW126018   3.990   4.495   5.455  0.6110 -0.3911  0.7614
 4853SOL    HW226019   3.870   4.468   5.529 -0.9440  0.0916 -0.5743
 4854SOL     OW26020   0.592   1.417   5.999  0.4689  0.6234 -0.3713
 4854SOL    HW126021   0.547   1.346   6.045  0.0104 -0.0454 -1.8477
 4854SOL    HW226022   0.624   1.472   6.070  1.7177  2.1791 -2.1200
 4855SOL     OW26023   2.318   1.528  10.472  0.3380  0.2210  0.0845
 4855SOL    HW126024   2.270   1.482  10.541  0.1022 -1.3039 -1.0820
 4855SOL    HW226025   2.408   1.526  10.506  0.6391 -0.6699 -0.7522
 4856SOL     OW26026   2.442   4.563   3.738  0.0660 -0.1208  0.2737
 4856SOL    HW126027   2.455   4.574   3.833  1.1615 -0.5049  0.1682
 4856SOL    HW226028   2.515   4.514   3.700 -0.2825 -0.8869  0.5949
 4857SOL     OW26029   0.489   4.114   2.648 -0.0620 -0.1308 -0.0031
 4857SOL    HW126030   0.513   4.118   2.556  0.3510  1.6253  0.1701
 4857SOL    HW226031   0.551   4.050   2.682 -0.8727 -0.6137  0.5842
 4858SOL     OW26032   2.970   1.755  15.055  0.0181  0.3535  0.1314
 4858SOL    HW126033   2.971   1.828  14.992 -2.4058  0.4257  0.1509
 4858SOL    HW226034   3.039   1.702  15.017  0.4050  1.1287 -0.2624
 4859SOL     OW26035   0.955   4.716   5.229  0.3951  0.7642 -0.3745
 4859SOL    HW126036   0.939   4.623   5.211  0.6602  0.6966 -0.2594
 4859SOL    HW226037   1.041   4.716   5.271 -0.6541  2.0985  1.7852
 4860SOL     OW26038   1.802   2.476   3.317  0.2203 -0.4550  0.1558
 4860SOL    HW126039   1.859   2.407   3.348 -0.1625  0.1743  2.2668
 4860SOL    HW226040   1.737   2.427   3.266 -1.0362 -1.6487  2.8839
 4861SOL     OW26041   3.382   0.591   0.109  0.6114  0.5510  0.2054
 4861SOL    HW126042   3.467   0.612   0.070  0.5316 -0.7894 -0.6886
 4861SOL    HW226043   3.322   0.576   0.036  0.6917 -1.7454  0.6405
 4862SOL     OW26044   1.603   3.004   6.617 -0.0060 -0.1496 -0.6190
 4862SOL    HW126045   1.666   2.935   6.638 -0.5849 -0.7182 -0.7593
 4862SOL    HW226046   1.659   3.081   6.625  0.5624 -0.7025  0.9164
 4863SOL     OW26047   1.031   1.847   4.933  0.1264 -0.4459 -0.6727
 4863SOL    HW126048   1.091   1.779   4.965 -1.2322 -0.4953  1.8430
 4863SOL    HW226049   1.077   1.865   4.852  0.1649 -0.1067 -0.5743
 4864SOL     OW26050   1.852   1.923  16.952  0.1732 -0.1055  0.2225
 4864SOL    HW126051   1.907   1.846  16.966 -0.9673 -1.2107 -1.4069
 4864SOL    HW226052   1.919   1.989  16.936  0.2410  0.3838  2.4669
 4865SOL     OW26053   0.941   0.294   1.637 -0.4232  0.0598 -0.7558
 4865SOL    HW126054   1.002   0.364   1.659  1.1912 -1.0475 -1.7133
 4865SOL    HW226055   0.993   0.264   1.562 -1.3937 -1.7357 -0.6909
 4866SOL     OW26056   2.863   2.546   5.772 -0.4978  0.7136 -0.0796
 4866SOL    HW126057   2.875   2.559   5.678 -0.2994  0.1332 -0.1316
 4866SOL    HW226058   2.863   2.450   5.774  1.1593  0.7514  1.0570
 4867SOL     OW26059   2.889   2.600   6.200  0.6578 -0.7275  0.4442
 4867SOL    HW126060   2.891   2.505   6.191  0.1981 -0.4638 -2.3533
 4867SOL    HW226061   2.794   2.610   6.202  0.8007  1.2100 -1.6212
 4868SOL     OW26062   3.476   4.299   9.081 -0.0557  0.1729 -0.3994
 4868SOL    HW126063   3.536   4.374   9.070  1.1960 -0.2282  3.6977
 4868SOL    HW226064   3.530   4.251   9.144  0.7327  1.1839 -0.2860
 4869SOL     OW26065   4.021   4.687   8.994  0.0045 -0.1117  0.3069
 4869SOL    HW126066   4.028   0.033   8.924 -2.4294  0.1582  0.3080
 4869SOL    HW226067   4.067   4.612   8.958  1.5614  0.2059  1.6037
 4870SOL     OW26068   2.317   3.532   5.438 -0.0086  0.1630  0.2051
 4870SOL    HW126069   2.305   3.539   5.344 -0.3100 -2.6390  0.0523
 4870SOL    HW226070   2.373   3.456   5.448  0.8332  0.8838  1.0281
 4871SOL     OW26071   3.081   1.243   6.326 -0.3839 -0.1584 -0.2697
 4871SOL    HW126072   3.132   1.322   6.311  0.9609 -0.6934  1.4732
 4871SOL    HW226073   3.100   1.194   6.246  1.2169 -0.9507  0.5968
 4872SOL     OW26074   4.566   4.512   2.706 -0.0475 -0.7237 -0.3525
 4872SOL    HW126075   4.627   4.510   2.632 -1.3515 -1.9922 -1.3753
 4872SOL    HW226076   4.538   4.603   2.707 -0.6132 -0.8792 -2.4609
 4873SOL     OW26077   0.981   0.884   5.520  0.1714  0.2478 -0.3013
 4873SOL    HW126078   1.073   0.872   5.546  0.7135 -0.0092 -2.3662
 4873SOL    HW226079   0.992   0.917   5.431 -2.8890  0.7414 -0.5014
 4874SOL     OW26080   0.207   1.445  17.098 -0.1962 -0.2734 -0.4345
 4874SOL    HW126081   0.156   1.498  17.160 -0.0805 -1.0257  0.3125
 4874SOL    HW226082   0.238   1.377  17.158  0.5564 -1.5444 -2.2891
 4875SOL     OW26083   0.222   0.536   5.286  0.2030 -0.3677 -0.1904
 4875SOL    HW126084   0.233   0.627   5.258  0.3260 -0.0609  0.8310
 4875SOL    HW226085   0.127   0.526   5.284  0.0364  0.8948  1.0097
 4876SOL     OW26086   2.018   1.269  17.529  0.6192  0.5202  0.5787
 4876SOL    HW126087   1.923   1.275  17.543  0.3687  0.1036 -0.8864
 4876SOL    HW226088   2.033   1.177  17.548 -1.0913  0.1515  0.1166
 4877SOL     OW26089   4.150   1.718  10.160 -0.2340 -0.4411 -0.1590
 4877SOL    HW126090   4.097   1.662  10.102  0.0423  0.2258 -1.0525
 4877SOL    HW226091   4.125   1.798  10.114  2.3193  0.2050 -0.3892
 4878SOL     OW26092   1.652   4.145   2.189  0.3621 -0.4949 -1.2664
 4878SOL    HW126093   1.577   4.139   2.249  2.0313  1.7175  1.0167
 4878SOL    HW226094   1.695   4.060   2.202 -0.3366 -0.9557 -1.9221
 4879SOL     OW26095   2.960   3.137   3.775 -0.0787 -0.3304  0.5310
 4879SOL    HW126096   2.939   3.230   3.767  0.6691 -0.3303 -1.4976
 4879SOL    HW226097   3.052   3.149   3.750 -0.1058 -4.0589 -1.5547
 4880SOL     OW26098   1.201   4.241   4.932 -0.8637  0.8163 -0.0058
 4880SOL    HW126099   1.165   4.218   4.846 -1.8520  0.5159  0.4827
 4880SOL    HW226100   1.121   4.274   4.973  0.4174  1.8365  1.6860
 4881SOL     OW26101   3.313   1.429   3.053  0.5252  0.4039 -0.1789
 4881SOL    HW126102   3.320   1.405   2.960  0.0794 -0.9404  0.1363
 4881SOL    HW226103   3.398   1.469   3.072  0.3937  0.4728  0.2472
 4882SOL     OW26104   3.633   3.441  15.131 -0.0426 -0.0992 -0.1502
 4882SOL    HW126105   3.637   3.434  15.227 -2.2563  1.4628  0.0366
 4882SOL    HW226106   3.696   3.513  15.126 -0.7049  0.4491 -0.5609
 4883SOL     OW26107   0.254   0.894   0.809  0.3499  0.6218 -0.2397
 4883SOL    HW126108   0.299   0.900   0.894 -3.1601  3.2128  1.4543
 4883SOL    HW226109   0.226   0.804   0.795 -1.1443  1.4004 -2.3495
 4884SOL     OW26110   3.439   2.959   2.869  0.2882  0.0205  0.5137
 4884SOL    HW126111   3.344   2.956   2.881  0.1912 -2.1184 -0.7414
 4884SOL    HW226112   3.454   2.869   2.842 -0.7172 -0.0111  0.0855
 4885SOL     OW26113   1.698   1.779   2.850 -0.4135 -1.0474  0.0027
 4885SOL    HW126114   1.630   1.745   2.792  1.9516  0.5288 -3.6935
 4885SOL    HW226115   1.647   1.794   2.930 -0.9773 -0.0136 -0.5391
 4886SOL     OW26116   3.494   1.932   3.127 -0.7944  0.0393  0.2132
 4886SOL    HW126117   3.577   1.972   3.151 -0.4333 -1.4599  1.5141
 4886SOL    HW226118   3.443   1.969   3.199 -0.5563  0.4675  0.1589
 4887SOL     OW26119   2.084   3.428  14.560 -0.1953 -0.1067  0.4393
 4887SOL    HW126120   2.149   3.419  14.490  0.2883  0.2347  0.8392
 4887SOL    HW226121   2.098   3.348  14.610 -1.1744 -0.8142 -0.4191
 4888SOL     OW26122   1.533   1.804   3.055 -0.6537 -0.3140  0.8199
 4888SOL    HW126123   1.456   1.860   3.055 -0.8436 -0.5708  0.9544
 4888SOL    HW226124   1.494   1.716   3.057 -2.1362  0.3594  1.1965
 4889SOL     OW26125   2.080   2.969   2.109  0.2799  0.4235 -0.7315
 4889SOL    HW126126   1.995   3.004   2.137  0.1086 -1.4537  1.1133
 4889SOL    HW226127   2.084   2.889   2.161  0.2851  1.0272  0.1975
 4890SOL     OW26128   0.909   2.094  11.411 -0.1630 -0.3084 -0.5784
 4890SOL    HW126129   0.912   2.177  11.364 -2.1073  0.3872  0.5182
 4890SOL    HW226130   0.815   2.079  11.421 -0.5536  2.1305 -0.5602
 4891SOL     OW26131   1.324   2.046  14.725  0.4165  0.0316 -0.5539
 4891SOL    HW126132   1.352   2.077  14.811 -0.3451 -0.4785 -0.1107
 4891SOL    HW226133   1.229   2.039  14.732  0.0518  1.6286 -4.1494
 4892SOL     OW26134   1.924   1.475   2.345 -0.0509 -0.1195 -0.8958
 4892SOL    HW126135   1.926   1.411   2.275 -0.5843  0.3296 -1.3181
 4892SOL    HW226136   1.992   1.440   2.403 -0.3611  1.7615  0.6229
 4893SOL     OW26137   1.626   0.008   6.502  0.4531 -0.4327  0.1274
 4893SOL    HW126138   1.716   0.038   6.514  0.8273 -0.5637 -2.3723
 4893SOL    HW226139   1.630   4.650   6.558 -0.8760  0.0572  0.8918
 4894SOL     OW26140   0.076   0.244   2.403 -0.9874  0.1045  0.0603
 4894SOL    HW126141   0.157   0.193   2.408  0.0427  1.8120  0.6045
 4894SOL    HW226142   0.086   0.291   2.486  1.3671  0.1901 -0.2706
 4895SOL     OW26143   2.216   3.423  12.953  0.1157  0.5183 -0.4122
 4895SOL    HW126144   2.148   3.480  12.917 -1.1887 -1.3982 -0.9581
 4895SOL    HW226145   2.227   3.460  13.041  3.9382  0.6120 -0.9110
 4896SOL     OW26146   1.387   1.211   8.127  0.0819  0.3079  0.0452
 4896SOL    HW126147   1.402   1.116   8.132 -0.3115  0.2808  0.7407
 4896SOL    HW226148   1.355   1.220   8.038 -0.8614 -2.1988  0.1297
 4897SOL     OW26149   4.139   1.370   5.584 -0.0670 -0.5721  0.5080
 4897SOL    HW126150   4.177   1.384   5.498 -2.2570 -0.0023 -0.3792
 4897SOL    HW226151   4.047   1.344   5.572 -0.5426  1.7092 -0.7729
 4898SOL     OW26152   0.849   4.193   2.396 -0.1927  0.5140  0.3630
 4898SOL    HW126153   0.873   4.263   2.336  0.0131  0.6860  0.6501
 4898SOL    HW226154   0.867   4.117   2.340 -1.3123  0.5048 -0.0002
 4899SOL     OW26155   2.606   3.158  16.220 -0.4372 -0.3024  0.0129
 4899SOL    HW126156   2.673   3.141  16.287 -0.8738 -1.0614  0.2563
 4899SOL    HW226157   2.648   3.108  16.150  2.5565 -0.3954  1.8644
 4900SOL     OW26158   0.650   0.109   4.482 -0.2480  0.4005 -0.0174
 4900SOL    HW126159   0.706   0.038   4.513  1.4430  1.5198 -0.4796
 4900SOL    HW226160   0.714   0.165   4.437 -0.5730 -0.3859 -1.4637
 4901SOL     OW26161   4.160   4.296   5.310 -0.1323 -0.5656  0.1290
 4901SOL    HW126162   4.112   4.214   5.322  0.0078 -0.5461  0.8174
 4901SOL    HW226163   4.237   4.253   5.274  2.2777  2.9701  1.0586
 4902SOL     OW26164   0.283   3.824  12.429  0.5536 -0.0693 -0.8867
 4902SOL    HW126165   0.206   3.769  12.413  1.2016 -1.3946  0.5977
 4902SOL    HW226166   0.318   3.832  12.340  0.7019 -0.2262 -0.8423
 4903SOL     OW26167   0.012   0.325   8.200 -0.3433 -0.1433 -0.0481
 4903SOL    HW126168   4.655   0.341   8.257  0.8278 -0.9316  1.7427
 4903SOL    HW226169   0.070   0.290   8.268 -2.2797  0.1398  1.7547
 4904SOL     OW26170   1.109   0.352   3.222 -0.3951 -0.3336  0.2895
 4904SOL    HW126171   1.149   0.265   3.210 -1.1893 -0.5690 -0.6829
 4904SOL    HW226172   1.100   0.351   3.317  1.5877  0.8000  0.4812
 4905SOL     OW26173   3.768   4.260   7.761  0.3028  0.7415  0.5094
 4905SOL    HW126174   3.790   4.177   7.719  0.4403  0.1977  1.6650
 4905SOL    HW226175   3.708   4.297   7.696 -0.3557 -2.4105 -0.6862
 4906SOL     OW26176   4.667   1.200   5.383 -0.0186  0.1415  0.2187
 4906SOL    HW126177   4.673   1.106   5.398  0.4257  0.2463  0.6939
 4906SOL    HW226178   0.023   1.233   5.432 -0.4468  1.7235 -0.1833
 4907SOL     OW26179   1.171   3.110   3.695 -0.2513 -0.3129  0.8015
 4907SOL    HW126180   1.143   3.116   3.604  1.8345  0.1891  0.1874
 4907SOL    HW226181   1.258   3.076   3.676 -1.5292 -2.2824 -1.4185
 4908SOL     OW26182   4.354   3.143  14.951 -0.3984 -0.0433  0.1614
 4908SOL    HW126183   4.305   3.222  14.976 -0.0383  0.8249 -1.8448
 4908SOL    HW226184   4.408   3.189  14.887 -0.5464 -1.3664 -0.9205
 4909SOL     OW26185   2.548   3.537  10.561  0.0524  0.3221  0.2511
 4909SOL    HW126186   2.584   3.450  10.540 -0.5455  0.0677  0.2764
 4909SOL    HW226187   2.484   3.510  10.626 -0.6035 -3.8817 -2.1042
 4910SOL     OW26188   1.087   2.651  17.673  0.3043 -0.4604  0.3010
 4910SOL    HW126189   1.137   2.586   0.042 -1.4058  1.0668  4.0397
 4910SOL    HW226190   1.100   2.618  17.584 -1.4347 -0.7642  0.1593
 4911SOL     OW26191   2.463   1.137   6.772  0.5249  0.4113 -0.8343
 4911SOL    HW126192   2.529   1.135   6.703  2.1692  0.1918  0.7237
 4911SOL    HW226193   2.505   1.204   6.826  1.3133 -0.5183 -0.2848
 4912SOL     OW26194   0.911   4.537   7.923 -0.1961 -0.0113 -0.4537
 4912SOL    HW126195   0.880   4.621   7.891 -2.0128  0.7292  3.2095
 4912SOL    HW226196   0.995   4.557   7.965 -1.5440  2.2836  1.1598
 4913SOL     OW26197   0.074   3.940   2.424 -0.8038  0.2225  0.2201
 4913SOL    HW126198   0.101   4.025   2.389 -0.3791  0.3519  0.8750
 4913SOL    HW226199   0.141   3.881   2.389 -1.2178 -0.0609 -0.1068
 4914SOL     OW26200   3.972   2.037  17.652  0.5870 -0.0050  0.6445
 4914SOL    HW126201   3.951   2.032  17.559 -0.0174 -0.5289  0.8076
 4914SOL    HW226202   3.883   2.043   0.008  0.8278  0.6447  1.1242
 4915SOL     OW26203   2.909   1.360  16.914 -0.1405  0.5013  0.4277
 4915SOL    HW126204   2.886   1.281  16.865  1.6589 -0.2083  0.7458
 4915SOL    HW226205   2.867   1.431  16.866  1.8469  0.9883 -0.5973
 4916SOL     OW26206   2.869   2.859   5.562  0.0514  0.4093 -0.3474
 4916SOL    HW126207   2.795   2.915   5.584 -0.5946 -0.4442 -0.3447
 4916SOL    HW226208   2.949   2.907   5.586 -0.4903 -0.4284  3.0278
 4917SOL     OW26209   0.898   0.604  11.742  0.7418  0.1684 -0.0298
 4917SOL    HW126210   0.857   0.686  11.715 -0.7033 -0.5664 -0.0416
 4917SOL    HW226211   0.939   0.568  11.663 -1.0446 -0.9540 -0.4546
 4918SOL     OW26212   1.885   3.533   3.523  0.2612 -0.0845 -0.2081
 4918SOL    HW126213   1.813   3.532   3.459 -0.4159 -1.2405  0.5828
 4918SOL    HW226214   1.907   3.626   3.534 -0.1860 -0.1821  1.3975
 4919SOL     OW26215   2.583   3.525   7.610  0.2730  0.6312  0.3040
 4919SOL    HW126216   2.596   3.461   7.680 -0.5240  0.6136  0.4427
 4919SOL    HW226217   2.500   3.561   7.640  1.2579  1.8688  1.5433
 4920SOL     OW26218   4.569   2.632   7.265 -0.3338  0.2931  0.6190
 4920SOL    HW126219   4.635   2.643   7.334 -1.0886  1.7986  1.0830
 4920SOL    HW226220   4.564   2.722   7.233  0.7010 -0.6420 -2.1494
 4921SOL     OW26221   4.552   2.042  12.865  0.3274 -0.6963  0.2674
 4921SOL    HW126222   4.465   2.031  12.903 -0.0717 -0.5780 -0.6196
 4921SOL    HW226223   4.579   2.126  12.901 -0.1113 -1.0924  1.5500
 4922SOL     OW26224   2.238   4.071   0.481 -0.2767 -0.2325  0.3002
 4922SOL    HW126225   2.329   4.065   0.510 -0.1178 -1.1604 -0.3964
 4922SOL    HW226226   2.190   4.061   0.564  0.6184 -0.2705  0.8175
 4923SOL     OW26227   4.283   1.234   4.324  0.4714  0.5375  0.7450
 4923SOL    HW126228   4.271   1.140   4.339  0.2278  0.7412  1.8560
 4923SOL    HW226229   4.228   1.258   4.250  1.6056  0.2286 -0.1961
 4924SOL     OW26230   2.265   2.795   1.199  0.0212 -0.1199 -0.2697
 4924SOL    HW126231   2.175   2.795   1.168  0.4895 -0.3354 -1.6255
 4924SOL    HW226232   2.313   2.752   1.129 -1.9997 -2.1088 -0.4028
 4925SOL     OW26233   1.453   4.121   4.034  0.2949  0.1514 -0.5158
 4925SOL    HW126234   1.416   4.117   3.946  0.9334 -0.5472 -0.7478
 4925SOL    HW226235   1.493   4.035   4.043  1.3847  0.6261 -0.8045
 4926SOL     OW26236   1.112   1.959  10.239 -0.0969  0.3883 -0.0331
 4926SOL    HW126237   1.141   1.970  10.149  1.3391 -1.3103  0.2246
 4926SOL    HW226238   1.057   2.036  10.252 -0.9790 -0.5532  2.0027
 4927SOL     OW26239   0.060   0.961   9.051  0.5744 -0.0898 -0.0521
 4927SOL    HW126240   4.707   0.927   9.105  0.8722 -0.3825  0.1606
 4927SOL    HW226241   0.025   1.044   9.019  0.8212  1.0409  2.6673
 4928SOL     OW26242   0.957   0.356  17.070  0.3575 -0.3415 -0.0245
 4928SOL    HW126243   1.000   0.292  17.126 -0.6096  0.7956  2.0321
 4928SOL    HW226244   1.028   0.418  17.056  1.2309 -0.8058  2.2115
 4929SOL     OW26245   0.345   4.084   4.044 -0.0275 -0.3799  0.3426
 4929SOL    HW126246   0.281   4.023   4.080  1.2190 -2.3673 -0.7990
 4929SOL    HW226247   0.282   4.156   4.033 -0.4168 -0.9462 -1.1312
 4930SOL     OW26248   1.250   4.500  10.969  0.2066 -0.3535 -0.5517
 4930SOL    HW126249   1.340   4.493  10.999  0.6108  2.9923 -0.9058
 4930SOL    HW226250   1.211   4.417  10.996  1.2742 -0.5593  0.3422
 4931SOL     OW26251   3.930   3.822   1.190  0.1541  0.3113  0.0083
 4931SOL    HW126252   3.927   3.867   1.105  1.6455 -0.7810 -0.6288
 4931SOL    HW226253   3.872   3.747   1.174 -0.8447  0.7942  1.4393
 4932SOL     OW26254   4.453   1.092   4.674  0.1213 -0.4757  0.0296
 4932SOL    HW126255   4.386   1.150   4.638 -0.2660 -1.4423 -0.8072
 4932SOL    HW226256   4.492   1.154   4.735  0.3457 -0.0107 -0.5815
 4933SOL     OW26257   2.362   0.104   8.175  0.6628 -0.1802  0.5013
 4933SOL    HW126258   2.329   0.027   8.223 -1.8414 -0.1751 -1.2255
 4933SOL    HW226259   2.277   0.129   8.138  1.3720 -0.0741 -1.0304
 4934SOL     OW26260   0.540   2.063   4.537 -0.0164  0.1577 -0.2681
 4934SOL    HW126261   0.563   2.088   4.447 -2.3188  0.6192 -0.7246
 4934SOL    HW226262   0.558   2.142   4.587  1.5352  0.7254 -1.7015
 4935SOL     OW26263   4.062   1.436   9.401  0.9894  0.3546 -0.8021
 4935SOL    HW126264   4.075   1.486   9.481 -0.9110  0.3931 -0.5254
 4935SOL    HW226265   4.071   1.501   9.332 -0.5326 -1.5248 -2.7432
 4936SOL     OW26266   0.771   3.274   4.660  0.7474 -0.8482 -0.4026
 4936SOL    HW126267   0.858   3.312   4.647 -0.2287  1.5960  0.1711
 4936SOL    HW226268   0.751   3.313   4.745  1.1411  2.0526 -1.6274
 4937SOL     OW26269   0.997   2.344  11.360  0.8485 -0.2948  0.0750
 4937SOL    HW126270   1.032   2.425  11.397  0.8757 -0.2167 -0.1247
 4937SOL    HW226271   0.998   2.373  11.269 -1.3834 -2.0921 -0.5130
 4938SOL     OW26272   2.916   3.615   3.426  0.0137 -0.6715  0.2565
 4938SOL    HW126273   2.903   3.708   3.443 -0.7291 -0.9265  1.1040
 4938SOL    HW226274   2.829   3.587   3.454 -1.5475  1.6613 -2.2485
 4939SOL     OW26275   1.318   4.153   5.524 -0.2556 -0.1735  0.0527
 4939SOL    HW126276   1.373   4.217   5.479 -0.1298 -0.5333 -0.3011
 4939SOL    HW226277   1.364   4.071   5.542  1.3372  0.9062  0.9183
 4940SOL     OW26278   0.145   4.320   7.969  0.0970 -0.0831 -0.0885
 4940SOL    HW126279   0.134   4.388   7.902  1.8401 -0.5633 -0.8679
 4940SOL    HW226280   0.108   4.243   7.927  0.1024  0.0104 -0.2659
 4941SOL     OW26281   0.896   4.199  15.193 -0.6046 -0.1614  0.5334
 4941SOL    HW126282   0.857   4.276  15.154  0.4569  0.1100  0.0023
 4941SOL    HW226283   0.822   4.161  15.240 -0.5150  1.3428  1.8957
 4942SOL     OW26284   1.046   4.150   6.065 -0.8328 -0.5377 -0.6046
 4942SOL    HW126285   1.088   4.065   6.072  0.5121  0.0887 -1.0033
 4942SOL    HW226286   1.040   4.182   6.155  2.8664  1.7171 -1.1895
 4943SOL     OW26287   0.096   1.748   0.208  0.4580  0.5943 -0.4257
 4943SOL    HW126288   0.060   1.768   0.122  0.7190 -1.9590 -1.1196
 4943SOL    HW226289   0.052   1.817   0.259 -1.3265  0.0262 -1.1760
 4944SOL     OW26290   3.371   4.595   4.853 -0.3785 -0.0592  1.0321
 4944SOL    HW126291   3.465   4.607   4.866 -0.2483  0.3254 -0.2640
 4944SOL    HW226292   3.349   4.618   4.943  1.9305 -0.4108  1.6873
 4945SOL     OW26293   2.181   1.417   6.101  0.4977 -0.4183 -0.4839
 4945SOL    HW126294   2.128   1.379   6.031 -0.4818  0.5255 -0.2505
 4945SOL    HW226295   2.116   1.450   6.163  0.7819 -0.9441  0.0956
 4946SOL     OW26296   0.261   0.242  16.328 -0.5846 -0.2989 -0.3486
 4946SOL    HW126297   0.236   0.226  16.237  0.7363 -1.3488 -0.5221
 4946SOL    HW226298   0.189   0.300  16.354  0.7859  0.7313  1.1955
 4947SOL     OW26299   3.770   0.802  10.690 -0.1316  0.2763 -0.4558
 4947SOL    HW126300   3.706   0.846  10.634  0.9741  0.7344 -1.3528
 4947SOL    HW226301   3.717   0.812  10.770  2.0663  0.3227  0.9886
 4948SOL     OW26302   0.679   1.289   8.790 -0.3123 -0.6254  0.1792
 4948SOL    HW126303   0.697   1.200   8.760  2.7895  0.0702  0.0756
 4948SOL    HW226304   0.761   1.317   8.830 -0.4498 -0.5714  0.4266
 4949SOL     OW26305   1.067   1.781   7.677  0.3626  0.2952 -0.8559
 4949SOL    HW126306   1.108   1.795   7.762  0.5307  1.1427 -1.0769
 4949SOL    HW226307   1.038   1.691   7.689  3.3737 -0.1945  2.6870
 4950SOL     OW26308   2.401   4.260   2.183 -0.0850  0.4009  0.1854
 4950SOL    HW126309   2.370   4.211   2.106 -0.4962  0.5341  0.2681
 4950SOL    HW226310   2.423   4.184   2.236 -1.0510  0.2025  0.2975
 4951SOL     OW26311   1.830   1.413   5.026 -0.3184 -0.2993 -0.4660
 4951SOL    HW126312   1.878   1.331   5.014  0.9139  0.5264 -1.2026
 4951SOL    HW226313   1.771   1.383   5.095  2.1745  0.4369  1.9666
 4952SOL     OW26314   2.508   3.002  12.260  0.0224 -0.2793 -0.2272
 4952SOL    HW126315   2.550   3.089  12.256  0.0646 -0.2626  0.5453
 4952SOL    HW226316   2.482   2.997  12.168  1.7661  0.7512 -0.7776
 4953SOL     OW26317   2.701   3.242   7.498 -0.5477 -0.5452  0.0246
 4953SOL    HW126318   2.685   3.182   7.570 -0.2299  1.6364  1.8862
 4953SOL    HW226319   2.631   3.305   7.512  0.1542  0.5100 -1.2124
 4954SOL     OW26320   0.558   1.900   7.703 -0.1676  0.1403 -0.4515
 4954SOL    HW126321   0.648   1.872   7.684  0.9059  2.9515  0.5139
 4954SOL    HW226322   0.567   1.988   7.668  1.3861 -0.6731 -2.1269
 4955SOL     OW26323   3.649   0.375   8.937 -0.1251  0.0131  0.3512
 4955SOL    HW126324   3.585   0.350   9.003  1.8527  0.5077  2.4613
 4955SOL    HW226325   3.621   0.466   8.939 -1.4260 -0.3845 -0.0397
 4956SOL     OW26326   1.349   3.775   4.539 -0.0890 -0.4786  0.6339
 4956SOL    HW126327   1.381   3.803   4.453 -0.8259  1.5453  1.0159
 4956SOL    HW226328   1.329   3.683   4.522  0.0388 -0.7651  2.0469
 4957SOL     OW26329   0.481   3.671   4.209 -0.4639  0.2093 -0.3064
 4957SOL    HW126330   0.452   3.587   4.245  1.8036  0.2982  1.6578
 4957SOL    HW226331   0.414   3.681   4.141  0.1188 -1.5553 -1.1349
 4958SOL     OW26332   1.356   4.669   2.951 -0.0531  0.1748  0.0555
 4958SOL    HW126333   1.286   4.693   2.890 -0.8871  0.3366  1.0876
 4958SOL    HW226334   1.396   4.592   2.910 -0.6368  0.3420 -0.8327
 4959SOL     OW26335   2.830   0.230   8.107 -0.2405 -0.0029  0.1442
 4959SOL    HW126336   2.830   0.298   8.174 -1.0064  0.2811 -0.1424
 4959SOL    HW226337   2.901   0.173   8.137  0.4741 -0.0850 -1.6736
 4960SOL     OW26338   0.928   0.984  17.248  0.7003 -0.1404 -0.0931
 4960SOL    HW126339   0.916   1.048  17.178  1.8373  2.0437  1.6969
 4960SOL    HW226340   0.835   0.968  17.264  0.5469  0.5199 -0.3309
 4961SOL     OW26341   0.778   0.183  16.090  0.1534  0.4663 -0.0983
 4961SOL    HW126342   0.812   0.266  16.055 -0.7057  0.3302 -1.2364
 4961SOL    HW226343   0.738   0.213  16.171  0.2577 -2.4974  1.0151
 4962SOL     OW26344   2.821   2.621  11.754 -0.0407  0.2484 -0.6173
 4962SOL    HW126345   2.873   2.542  11.766 -0.7433  0.0594  1.2361
 4962SOL    HW226346   2.773   2.616  11.837  1.6316  0.8058  0.3920
 4963SOL     OW26347   2.618   0.081   2.085 -0.5314  0.2489 -0.4159
 4963SOL    HW126348   2.591   4.713   2.115  3.0410 -0.6662  0.1705
 4963SOL    HW226349   2.624   0.070   1.990  2.5983 -2.3530  0.0575
 4964SOL     OW26350   0.503   2.024   5.858 -0.4510  0.0909 -0.4859
 4964SOL    HW126351   0.459   2.014   5.942  1.4503  3.3203  0.8745
 4964SOL    HW226352   0.432   2.052   5.799 -0.2133  1.6620 -0.0463
 4965SOL     OW26353   1.520   2.639   6.627  0.3029 -0.1991  0.2364
 4965SOL    HW126354   1.515   2.569   6.561 -1.8666 -1.2647  1.5183
 4965SOL    HW226355   1.583   2.695   6.582 -0.3506  0.3899  0.0537
 4966SOL     OW26356   2.081   1.873   8.976 -0.4355 -0.4986 -0.2130
 4966SOL    HW126357   2.004   1.883   9.031  0.9905 -0.5992  1.7920
 4966SOL    HW226358   2.084   1.953   8.923  0.3382 -1.4169 -1.5650
 4967SOL     OW26359   0.380   2.077  15.866  0.3866 -0.0410  0.9886
 4967SOL    HW126360   0.319   2.144  15.838  2.0560  1.0886  0.0366
 4967SOL    HW226361   0.466   2.098  15.829 -0.6884 -0.3446 -1.6924
 4968SOL     OW26362   4.256   0.128   5.337 -0.2683  0.5203  0.2628
 4968SOL    HW126363   4.316   0.195   5.370  0.7403 -0.6423  0.7968
 4968SOL    HW226364   4.316   0.054   5.331 -0.8248 -0.0016  1.2014
 4969SOL     OW26365   0.967   0.559   8.380 -0.9863 -0.1883 -0.3378
 4969SOL    HW126366   1.001   0.556   8.291  0.6053  2.5454  0.1955
 4969SOL    HW226367   1.049   0.562   8.428 -0.8738  0.7581 -0.5939
 4970SOL     OW26368   3.943   3.726  17.465 -0.4169  0.2908  0.1898
 4970SOL    HW126369   3.849   3.732  17.447 -0.6307 -0.4810  1.0657
 4970SOL    HW226370   3.966   3.721  17.372 -1.9724 -1.0664 -0.1259
 4971SOL     OW26371   4.095   0.652   8.179  0.3171  0.0984 -0.0489
 4971SOL    HW126372   4.161   0.585   8.193 -1.0600 -1.3379 -0.4195
 4971SOL    HW226373   4.143   0.730   8.207 -1.2651  1.5895 -1.4268
 4972SOL     OW26374   4.230   0.536   7.163  0.2859  0.0403  0.3931
 4972SOL    HW126375   4.212   0.458   7.215 -0.6402  0.5917  0.9197
 4972SOL    HW226376   4.149   0.580   7.190 -0.7597 -1.4620 -0.2595
 4973SOL     OW26377   0.818   0.636   4.895  0.3934  0.2883  0.2049
 4973SOL    HW126378   0.782   0.548   4.907 -1.9560  1.2014 -0.2148
 4973SOL    HW226379   0.745   0.678   4.850  0.2577  0.5917  0.7067
 4974SOL     OW26380   4.263   3.232   7.909  0.1911  0.3155  0.9506
 4974SOL    HW126381   4.232   3.311   7.865 -0.7370  0.7119  2.3074
 4974SOL    HW226382   4.187   3.229   7.968 -0.4137  0.9625  0.2166
 4975SOL     OW26383   0.481   3.609   0.791  0.4111 -0.4127 -0.3193
 4975SOL    HW126384   0.541   3.541   0.760  1.7403  0.7222 -0.2515
 4975SOL    HW226385   0.538   3.685   0.808  0.8347 -0.2751 -2.3218
 4976SOL     OW26386   1.733   4.526   2.522 -0.3117  0.3612  0.1025
 4976SOL    HW126387   1.673   4.537   2.595  1.8096 -0.4795  1.9908
 4976SOL    HW226388   1.792   4.466   2.567 -0.2476 -0.1496 -0.6535
 4977SOL     OW26389   0.084   2.684   6.225  0.5912 -0.2782 -0.2091
 4977SOL    HW126390   0.086   2.603   6.276  0.0869 -0.3780 -0.3550
 4977SOL    HW226391   0.114   2.753   6.284  1.2256 -1.2469  0.6044
 4978SOL     OW26392   1.623   0.659   5.140 -0.1739 -0.1162  0.1365
 4978SOL    HW126393   1.619   0.750   5.172  1.6784 -0.6231  1.8287
 4978SOL    HW226394   1.631   0.674   5.046  0.1213  4.0964  0.8133
 4979SOL     OW26395   1.516   4.503  17.191 -0.0166  0.5139 -0.2727
 4979SOL    HW126396   1.611   4.490  17.185 -0.1709 -0.5553 -0.5237
 4979SOL    HW226397   1.500   4.531  17.101 -1.2939 -0.4619 -0.3491
 4980SOL     OW26398   3.089   1.552  14.003  0.7736 -0.4089  0.7820
 4980SOL    HW126399   3.146   1.595  13.939 -1.2738  0.7245 -0.2730
 4980SOL    HW226400   3.018   1.616  14.011  0.4168 -0.8928  1.4856
 4981SOL     OW26401   4.143   0.753   9.248  0.0374  0.6330 -0.1391
 4981SOL    HW126402   4.145   0.694   9.173  1.3873 -1.3637  1.4713
 4981SOL    HW226403   4.222   0.804   9.229  2.4352 -2.5504  1.3648
 4982SOL     OW26404   3.540   0.424   6.207  0.4818  0.1229  0.2200
 4982SOL    HW126405   3.577   0.418   6.295 -0.3806 -0.5034  0.5415
 4982SOL    HW226406   3.522   0.517   6.192  3.4080  0.3560 -1.7777
 4983SOL     OW26407   3.352   3.006   8.130 -0.1668 -0.5089  0.2236
 4983SOL    HW126408   3.405   2.940   8.086  2.6217  1.3877  0.7736
 4983SOL    HW226409   3.414   3.074   8.155  0.1509  0.6045 -3.7210
 4984SOL     OW26410   1.253   3.732   7.660  0.1655 -0.1986  0.2339
 4984SOL    HW126411   1.284   3.819   7.686  0.5514 -0.6823  1.4070
 4984SOL    HW226412   1.161   3.757   7.656  0.5488  1.1577 -0.2663
 4985SOL     OW26413   1.188   1.788  12.512 -0.5308  0.0203 -0.6267
 4985SOL    HW126414   1.168   1.748  12.597  0.0535 -0.3531 -0.6653
 4985SOL    HW226415   1.217   1.872  12.547  0.1762 -1.7368  2.9857
 4986SOL     OW26416   4.602   3.679   6.148 -0.1236  0.3345 -0.0235
 4986SOL    HW126417   4.643   3.742   6.089 -1.1524  1.8143  0.8537
 4986SOL    HW226418   4.678   3.630   6.181 -0.9550  1.4331  3.5418
 4987SOL     OW26419   3.552   2.833  10.724  0.2512 -0.0890  0.5197
 4987SOL    HW126420   3.644   2.812  10.738  1.1487  2.6075 -1.3426
 4987SOL    HW226421   3.526   2.778  10.798  0.3689 -0.3572  0.3627
 4988SOL     OW26422   4.071   1.431  12.742 -0.2505 -0.5089 -0.0062
 4988SOL    HW126423   4.073   1.336  12.758  1.0833  0.1132  3.6546
 4988SOL    HW226424   4.091   1.466  12.829 -2.0316 -1.6867  0.8873
 4989SOL     OW26425   3.576   2.895   1.540 -0.3586 -0.3943 -0.5105
 4989SOL    HW126426   3.671   2.904   1.549 -0.4905  2.0852 -1.6338
 4989SOL    HW226427   3.559   2.983   1.507  1.0113 -1.0657 -3.0111
 4990SOL     OW26428   3.131   0.294   2.908  0.8764 -0.2450  0.0080
 4990SOL    HW126429   3.082   0.377   2.912 -0.4272 -0.8288 -3.4435
 4990SOL    HW226430   3.129   0.286   3.004 -2.8505 -1.9567 -0.2166
 4991SOL     OW26431   3.272   1.114   3.632  0.0288 -0.4542 -0.7341
 4991SOL    HW126432   3.353   1.101   3.681  0.7624  0.8008 -1.6180
 4991SOL    HW226433   3.243   1.023   3.636 -1.3565 -0.0279 -0.9173
 4992SOL     OW26434   1.703   3.419   1.543  0.5456 -0.4121 -0.2571
 4992SOL    HW126435   1.797   3.425   1.562  0.9828 -0.2315 -2.4789
 4992SOL    HW226436   1.696   3.393   1.451  1.3793 -0.0144 -0.4313
 4993SOL     OW26437   0.376   4.291   9.080 -0.0175  0.1553  0.8457
 4993SOL    HW126438   0.394   4.311   9.173  1.9431  0.0114  0.5070
 4993SOL    HW226439   0.459   4.250   9.054 -0.9620 -1.0831 -0.1796
 4994SOL     OW26440   0.231   0.816   2.856  0.0878 -0.3915  0.0064
 4994SOL    HW126441   0.292   0.871   2.807  0.6158 -0.2466  0.8198
 4994SOL    HW226442   0.261   0.731   2.822  0.5294 -0.5378  0.7740
 4995SOL     OW26443   0.011   0.888   0.613  0.3103 -0.4212  0.1606
 4995SOL    HW126444   0.068   0.886   0.536  1.9012 -0.2753  1.3181
 4995SOL    HW226445   0.080   0.885   0.679  0.4496  1.0068  0.0758
 4996SOL     OW26446   2.222   3.679  13.773 -0.1447 -0.0896 -0.1542
 4996SOL    HW126447   2.139   3.632  13.761 -0.3897  0.1385  0.6536
 4996SOL    HW226448   2.281   3.605  13.784 -1.1116 -0.7365  0.7298
 4997SOL     OW26449   1.069   3.094   7.503 -0.0434  0.3089 -0.2676
 4997SOL    HW126450   1.156   3.057   7.490 -0.5621 -0.1927 -2.3240
 4997SOL    HW226451   1.048   3.051   7.586 -0.2908  0.7104 -0.1219
 4998SOL     OW26452   2.632   3.298   7.796 -0.3622  0.0513 -0.1185
 4998SOL    HW126453   2.711   3.310   7.848  0.4995 -1.5796 -1.0200
 4998SOL    HW226454   2.564   3.314   7.860  0.3882 -0.7630  0.8816
 4999SOL     OW26455   4.060   2.327   0.008 -0.3761  0.4578 -0.4963
 4999SOL    HW126456   3.993   2.385  17.653  1.4905  2.6150 -0.4768
 4999SOL    HW226457   4.015   2.243   0.025  1.4161 -0.5047 -0.5041
 5000SOL     OW26458   1.352   0.839  16.852  0.6562  0.7066 -0.3459
 5000SOL    HW126459   1.257   0.835  16.838  0.8931 -0.3914 -1.5591
 5000SOL    HW226460   1.366   0.934  16.847  1.1122  0.8038  2.5090
 5001SOL     OW26461   0.361   1.508  11.978  0.4676 -0.3621  0.3028
 5001SOL    HW126462   0.445   1.513  12.024  0.2942 -0.5253  0.6460
 5001SOL    HW226463   0.363   1.579  11.915 -0.1143 -0.8140 -0.2386
 5002SOL     OW26464   2.931   2.706   8.756  0.0439 -0.0031  0.4376
 5002SOL    HW126465   2.882   2.788   8.759 -2.8612 -1.6822 -0.2253
 5002SOL    HW226466   2.873   2.634   8.730  0.0889 -0.3780  1.3635
 5003SOL     OW26467   1.672   2.763  12.544 -0.6916 -0.1180 -0.1339
 5003SOL    HW126468   1.701   2.789  12.632  1.6412 -0.0041 -0.9252
 5003SOL    HW226469   1.598   2.819  12.520 -0.3592 -0.5024 -2.0824
 5004SOL     OW26470   0.887   1.061  14.294  0.2348  0.0713 -0.3854
 5004SOL    HW126471   0.931   1.140  14.263 -3.3445  1.3691 -2.1740
 5004SOL    HW226472   0.960   1.028  14.346  2.0355  1.2037 -2.2198
 5005SOL     OW26473   3.578   0.280   3.908 -0.1475  0.4776  0.0886
 5005SOL    HW126474   3.513   0.210   3.907  0.1260  0.2671 -2.4836
 5005SOL    HW226475   3.576   0.286   4.003 -0.8532 -0.8839  0.1636
 5006SOL     OW26476   1.621   2.726   3.492 -0.3473  0.0784  0.0491
 5006SOL    HW126477   1.609   2.683   3.407  2.4033  1.2576 -0.9020
 5006SOL    HW226478   1.690   2.787   3.469 -0.8880  1.1879  1.3981
 5007SOL     OW26479   3.446   0.691   4.716 -0.3602 -0.3929 -0.2208
 5007SOL    HW126480   3.371   0.708   4.660 -0.3150 -0.9164 -0.4422
 5007SOL    HW226481   3.420   0.701   4.808  0.8114  0.3470  0.0419
 5008SOL     OW26482   4.436   3.613  12.128  0.4607  0.6021 -0.3134
 5008SOL    HW126483   4.419   3.626  12.221 -0.2462 -1.3549 -0.1763
 5008SOL    HW226484   4.389   3.692  12.103  0.7649  0.6406 -0.7557
 5009SOL     OW26485   2.061   4.706   3.520 -0.1302 -0.0634  0.4050
 5009SOL    HW126486   2.031   0.076   3.502 -2.5689 -1.3709 -2.0180
 5009SOL    HW226487   2.147   0.013   3.553  0.8697 -4.4436  1.2672
 5010SOL     OW26488   1.470   1.016   1.683  0.3159  0.0927  0.8131
 5010SOL    HW126489   1.386   1.026   1.728 -0.2758  0.8942 -0.4495
 5010SOL    HW226490   1.527   1.045   1.754  1.3618  2.1871 -0.8565
 5011SOL     OW26491   2.935   0.989   9.924 -0.2926 -0.8139  0.1619
 5011SOL    HW126492   3.023   0.958   9.943 -0.0850  0.1992  0.8816
 5011SOL    HW226493   2.919   1.005  10.017  1.1202 -1.1409  0.4538
 5012SOL     OW26494   1.528   2.811   5.515  0.4766 -0.1472 -0.2853
 5012SOL    HW126495   1.517   2.906   5.502  1.8779  0.2059  1.0077
 5012SOL    HW226496   1.591   2.779   5.450  1.4415  0.2178  0.4641
 5013SOL     OW26497   3.206   0.227   9.377  0.6386 -0.2620 -0.1546
 5013SOL    HW126498   3.136   0.205   9.439  1.2879  0.4043  0.8086
 5013SOL    HW226499   3.216   0.148   9.324 -0.9938 -0.5509 -0.0410
 5014SOL     OW26500   3.369   2.578   4.315  0.5664 -0.1197 -0.4558
 5014SOL    HW126501   3.328   2.496   4.287 -0.4897  0.4699 -0.6251
 5014SOL    HW226502   3.461   2.554   4.302 -0.2992 -2.5228 -2.0029
 5015SOL     OW26503   2.754   2.767   7.839  0.0137  0.1594 -0.2571
 5015SOL    HW126504   2.733   2.745   7.930  0.7708  0.4775  0.0022
 5015SOL    HW226505   2.745   2.862   7.849  0.6561  0.4493 -2.5255
 5016SOL     OW26506   1.390   2.447   8.508 -0.2465  0.2498 -0.4828
 5016SOL    HW126507   1.427   2.360   8.524  0.3463  0.4417 -0.7916
 5016SOL    HW226508   1.320   2.447   8.574  1.5840 -1.0990  1.4806
 5017SOL     OW26509   0.025   2.163   7.995  0.9263  0.2134 -0.7576
 5017SOL    HW126510   0.103   2.146   7.942 -0.8598 -2.6991 -2.4343
 5017SOL    HW226511   4.718   2.251   7.968 -1.2185 -0.3375 -0.4592
 5018SOL     OW26512   2.465   0.641   3.072  0.0560  0.2119  0.4421
 5018SOL    HW126513   2.546   0.647   3.023 -1.4895  1.2094 -1.9736
 5018SOL    HW226514   2.430   0.729   3.066  1.1599  0.5827 -0.4006
 5019SOL     OW26515   1.206   1.418  11.628  0.4611  0.0363  0.2116
 5019SOL    HW126516   1.195   1.328  11.659  2.8909  0.5010  2.3289
 5019SOL    HW226517   1.254   1.459  11.699  2.7757  1.4768 -2.1872
 5020SOL     OW26518   4.130   3.377   3.847 -0.2696 -0.3601 -0.8219
 5020SOL    HW126519   4.144   3.395   3.940  0.7132 -2.8643 -0.4948
 5020SOL    HW226520   4.050   3.325   3.853  0.9799 -1.9393  2.1749
 5021SOL     OW26521   0.012   2.416   6.509  0.5527  0.3281  0.5593
 5021SOL    HW126522   4.657   2.364   6.539 -0.4086  2.8931  2.6445
 5021SOL    HW226523   4.695   2.502   6.490 -0.1671 -0.2357 -0.6174
 5022SOL     OW26524   3.971   1.938  14.346  0.3497  0.4949  0.1985
 5022SOL    HW126525   3.976   2.003  14.416 -2.0836  1.5785 -0.6537
 5022SOL    HW226526   3.986   1.990  14.267 -0.9624 -0.8449 -0.9335
 5023SOL     OW26527   4.442   0.573   7.959 -0.4000  0.4686  0.5370
 5023SOL    HW126528   4.424   0.483   7.987 -0.3365  0.5163  0.7343
 5023SOL    HW226529   4.480   0.613   8.037 -0.7393 -0.6571  1.2868
 5024SOL     OW26530   2.591   3.669   8.671 -0.0939  0.1128  0.0456
 5024SOL    HW126531   2.566   3.585   8.631 -0.6444  0.1182  0.3838
 5024SOL    HW226532   2.663   3.636   8.724  1.2800  0.7808 -1.4317
 5025SOL     OW26533   2.962   4.291   2.815 -0.3754 -0.4040 -0.0500
 5025SOL    HW126534   2.971   4.200   2.787  1.5687  0.7589 -3.2975
 5025SOL    HW226535   3.010   4.283   2.897 -0.0884 -2.3108 -0.4125
 5026SOL     OW26536   1.175   4.483   2.343  0.6630 -0.5912 -0.7779
 5026SOL    HW126537   1.161   4.552   2.277  3.1974 -0.0857 -0.7704
 5026SOL    HW226538   1.196   4.546   2.412 -1.0982  0.1374 -0.8838
 5027SOL     OW26539   4.025   4.496   5.786  0.1917  0.0099 -0.2701
 5027SOL    HW126540   4.104   4.483   5.839 -1.5944  0.5189  2.5102
 5027SOL    HW226541   4.069   4.491   5.701  0.2522 -1.3483 -0.1598
 5028SOL     OW26542   0.554   3.312   7.074 -0.2054 -0.6799 -0.8485
 5028SOL    HW126543   0.618   3.241   7.076  2.8044  2.1919  3.8809
 5028SOL    HW226544   0.515   3.310   7.161  1.7059 -1.6571 -0.0193
 5029SOL     OW26545   1.991   3.412  17.471 -0.0997 -0.0756  0.8458
 5029SOL    HW126546   2.087   3.411  17.473 -0.0646  0.2527 -1.4600
 5029SOL    HW226547   1.983   3.506  17.453 -1.0365 -0.0860  1.1991
 5030SOL     OW26548   4.018   2.691   7.896 -0.0781 -0.0197 -0.0165
 5030SOL    HW126549   4.042   2.649   7.814  1.3852  1.5991 -0.3994
 5030SOL    HW226550   4.006   2.780   7.865  1.4184  0.1820 -0.0446
 5031SOL     OW26551   1.275   2.257  16.592  0.4958  0.3864  0.3416
 5031SOL    HW126552   1.238   2.284  16.507 -0.3305  0.7531  0.8205
 5031SOL    HW226553   1.212   2.301  16.649 -1.1493 -0.2421 -1.0060
 5032SOL     OW26554   0.049   3.179   3.861 -0.2802 -0.3850 -1.3414
 5032SOL    HW126555   0.103   3.251   3.828  1.1957 -1.4238 -1.1749
 5032SOL    HW226556   4.702   3.222   3.915  2.9543 -0.1729  2.4756
 5033SOL     OW26557   0.927   0.543  10.702 -0.3971 -0.1652 -0.2763
 5033SOL    HW126558   0.989   0.471  10.711 -3.0030 -2.0350  2.7879
 5033SOL    HW226559   0.979   0.620  10.723 -1.8673  0.7169  0.1863
 5034SOL     OW26560   4.712   3.876   1.764 -1.2848  0.0835 -0.2386
 5034SOL    HW126561   4.660   3.934   1.709  1.6715  1.5405 -1.4987
 5034SOL    HW226562   0.083   3.905   1.749 -0.3601 -2.1502  0.9575
 5035SOL     OW26563   4.419   0.937   3.408 -0.2621 -0.6311 -0.2329
 5035SOL    HW126564   4.373   0.905   3.486  2.1760 -2.0746  0.6243
 5035SOL    HW226565   4.477   1.001   3.451  0.3676 -1.0733 -0.4229
 5036SOL     OW26566   2.530   3.331   3.554  0.3799 -0.2216 -1.3579
 5036SOL    HW126567   2.536   3.245   3.595  2.2625 -0.1188 -1.4075
 5036SOL    HW226568   2.436   3.347   3.544 -0.0642 -3.1786 -2.0568
 5037SOL     OW26569   0.299   2.382  12.939  0.3389  0.6370 -0.5519
 5037SOL    HW126570   0.264   2.299  12.971  2.6306 -0.8909 -1.9959
 5037SOL    HW226571   0.348   2.357  12.860 -0.1096  1.4287 -1.0894
 5038SOL     OW26572   0.373   3.323  16.040 -0.7506  0.0482  0.2271
 5038SOL    HW126573   0.385   3.299  16.132  0.5370 -0.4130 -0.0673
 5038SOL    HW226574   0.427   3.260  15.993 -0.5608 -1.1206  2.0267
 5039SOL     OW26575   4.390   2.889   6.750 -0.3120 -0.5551  0.8902
 5039SOL    HW126576   4.361   2.835   6.676 -1.0784 -1.9230  2.1839
 5039SOL    HW226577   4.319   2.952   6.761 -0.2646 -0.4952  0.8509
 5040SOL     OW26578   0.921   2.402  17.035  0.0835 -0.2659  0.2022
 5040SOL    HW126579   0.862   2.341  16.991  0.9564  0.0523 -1.4238
 5040SOL    HW226580   0.914   2.368  17.124 -0.6813 -1.5863 -0.3723
 5041SOL     OW26581   1.759   1.420   3.362 -0.1400 -0.3752 -0.0791
 5041SOL    HW126582   1.816   1.344   3.351  0.2121 -0.3624  1.6545
 5041SOL    HW226583   1.770   1.469   3.281  0.1455 -1.4671 -0.6958
 5042SOL     OW26584   4.519   3.427   2.152  0.2443  0.5990  0.0091
 5042SOL    HW126585   4.498   3.382   2.070 -0.8630  2.3044 -0.6282
 5042SOL    HW226586   4.433   3.447   2.187 -1.0214 -0.8848 -2.2911
 5043SOL     OW26587   0.945   3.895  16.565 -0.1778  0.2585 -0.0297
 5043SOL    HW126588   1.007   3.886  16.492 -0.1824  2.4318 -0.2978
 5043SOL    HW226589   0.875   3.854  16.515 -0.9058  0.6741  0.6549
 5044SOL     OW26590   2.987   4.533   8.752  0.1502  0.3396  0.2772
 5044SOL    HW126591   3.009   4.445   8.721 -3.3729  0.4348 -2.5991
 5044SOL    HW226592   3.010   4.588   8.677 -1.7026 -0.4910 -0.8966
 5045SOL     OW26593   4.701   3.788   6.775 -0.0754 -0.0033 -0.3235
 5045SOL    HW126594   4.671   3.721   6.836 -0.4115  0.1013 -0.3781
 5045SOL    HW226595   0.029   3.725   6.720 -1.7929 -1.1534 -0.4866
 5046SOL     OW26596   1.014   1.562  13.762 -0.4824  0.3675  0.0473
 5046SOL    HW126597   1.029   1.468  13.772 -1.1843  0.2359 -0.1001
 5046SOL    HW226598   1.084   1.596  13.818 -0.1953  3.1523 -2.0327
 5047SOL     OW26599   3.124   1.690   0.501  0.5650 -0.1226  0.1664
 5047SOL    HW126600   3.049   1.736   0.540  0.2718 -1.4783  1.1949
 5047SOL    HW226601   3.096   1.676   0.410  0.4644  0.5689  0.0922
 5048SOL     OW26602   4.606   3.606   8.243  0.5216  0.0818  0.5148
 5048SOL    HW126603   4.602   3.512   8.258  3.0095 -0.2625 -0.9063
 5048SOL    HW226604   4.553   3.629   8.320  0.9543 -0.1835  0.8955
 5049SOL     OW26605   2.298   4.385   6.042  0.5619 -0.3818  0.1121
 5049SOL    HW126606   2.301   4.334   6.123 -0.0804 -0.7537 -0.0937
 5049SOL    HW226607   2.291   4.318   5.973 -0.9307  1.6537 -1.6913
 5050SOL     OW26608   3.393   4.412   8.748 -0.3689  0.0648  0.1908
 5050SOL    HW126609   3.463   4.381   8.805 -1.7242 -0.2790  1.6755
 5050SOL    HW226610   3.434   4.489   8.708 -1.3919 -0.1503 -1.2864
 5051SOL     OW26611   3.761   0.105   6.430  0.4072  0.1483  0.1427
 5051SOL    HW126612   3.732   0.047   6.500 -0.1605 -0.3454 -0.4941
 5051SOL    HW226613   3.694   0.113   6.362 -0.8600 -1.9017  1.1683
 5052SOL     OW26614   3.902   1.279   6.108 -0.6233 -0.7217 -0.2723
 5052SOL    HW126615   3.931   1.356   6.058  0.1326 -0.7923  0.0552
 5052SOL    HW226616   3.981   1.227   6.091  0.5696  1.2475 -0.8196
 5053SOL     OW26617   3.569   3.747  16.658 -0.1288 -0.0156 -0.3722
 5053SOL    HW126618   3.550   3.745  16.752  1.1278 -1.1280 -0.1469
 5053SOL    HW226619   3.482   3.774  16.631  0.2378  0.5372 -0.9882
 5054SOL     OW26620   1.629   2.072   7.339 -0.6792  0.2643  0.3632
 5054SOL    HW126621   1.707   2.061   7.394 -0.4224  0.4993  0.0488
 5054SOL    HW226622   1.577   2.132   7.392 -1.2610  1.6902 -1.8032
 5055SOL     OW26623   2.455   1.317   5.687 -0.0540 -0.6278  0.5670
 5055SOL    HW126624   2.455   1.296   5.781 -1.0216 -1.1363  0.4622
 5055SOL    HW226625   2.380   1.268   5.653 -0.6814  0.0173  1.0262
 5056SOL     OW26626   3.546   0.431   4.787 -0.1455 -0.1975  0.3559
 5056SOL    HW126627   3.502   0.415   4.871  0.7369  1.1595  1.0689
 5056SOL    HW226628   3.526   0.524   4.782  1.1504  0.0061 -0.9069
 5057SOL     OW26629   4.622   2.876   3.741  0.1685 -0.0328 -0.1534
 5057SOL    HW126630   4.698   2.897   3.687  0.1906  0.0169 -0.1028
 5057SOL    HW226631   4.601   2.957   3.787  1.4961  0.5841 -0.6362
 5058SOL     OW26632   3.836   4.496  10.747  0.3369  0.2979 -0.3402
 5058SOL    HW126633   3.815   4.439  10.821 -2.3317  3.3231  1.2729
 5058SOL    HW226634   3.770   4.468  10.684  0.6254 -2.3894  0.5788
 5059SOL     OW26635   0.328   2.016   5.602  0.1379 -0.1731  0.0177
 5059SOL    HW126636   0.232   2.015   5.598  0.1392  1.9020 -0.4027
 5059SOL    HW226637   0.356   1.947   5.542  1.0258  1.1026 -1.0205
 5060SOL     OW26638   0.713   3.952   2.743 -0.2706 -0.0758  0.9722
 5060SOL    HW126639   0.647   3.932   2.809 -0.2770  1.2577  1.3650
 5060SOL    HW226640   0.751   3.864   2.746  0.6138  0.3257  1.6728
 5061SOL     OW26641   2.579   3.639   0.612  0.1879 -0.0728 -0.1570
 5061SOL    HW126642   2.545   3.550   0.602 -0.0251 -0.0927  0.7555
 5061SOL    HW226643   2.573   3.651   0.706  0.9665 -0.4605 -0.0530
 5062SOL     OW26644   2.314   2.192   2.162 -0.6078 -0.1653  0.0432
 5062SOL    HW126645   2.342   2.101   2.158 -0.2631  0.0234 -2.1709
 5062SOL    HW226646   2.313   2.221   2.071  1.0020  0.2268  0.1425
 5063SOL     OW26647   1.125   1.558   4.844  0.4597 -0.4669 -0.0607
 5063SOL    HW126648   1.107   1.495   4.774 -1.0626  0.5659 -0.6022
 5063SOL    HW226649   1.081   1.518   4.919 -0.7739  1.9271  0.5061
 5064SOL     OW26650   1.502   2.779   3.731  0.2332 -0.8159  0.5859
 5064SOL    HW126651   1.576   2.750   3.783  2.0828 -1.4221 -2.3476
 5064SOL    HW226652   1.525   2.749   3.642  2.5060  2.1788  0.1742
 5065SOL     OW26653   2.390   4.470   3.995  0.6030  0.5876  0.0831
 5065SOL    HW126654   2.370   4.509   4.080  0.5202  0.6704  0.0252
 5065SOL    HW226655   2.301   4.466   3.959  0.8586  0.3283 -0.5204
 5066SOL     OW26656   2.904   1.338   8.756  0.2380 -0.2932  0.3376
 5066SOL    HW126657   2.910   1.317   8.849  1.7357  1.8344  0.7124
 5066SOL    HW226658   2.984   1.302   8.717 -0.6613 -2.8442  0.8401
 5067SOL     OW26659   0.741   3.618  14.231  0.3560 -0.8726 -0.2543
 5067SOL    HW126660   0.793   3.605  14.310 -1.0443  0.7350  0.9209
 5067SOL    HW226661   0.651   3.604  14.259  0.1886 -2.2851 -1.4945
 5068SOL     OW26662   3.596   0.534   8.561  0.1871  0.2354 -0.0638
 5068SOL    HW126663   3.632   0.446   8.571 -0.1767  0.3178  1.9680
 5068SOL    HW226664   3.549   0.549   8.643 -0.5743 -1.9971 -0.0867
 5069SOL     OW26665   1.794   4.581  17.194  0.2768 -0.1122  0.2913
 5069SOL    HW126666   1.869   4.600  17.138  0.9338 -0.5965  1.0009
 5069SOL    HW226667   1.841   4.559  17.275  0.8046  1.9769  0.5438
 5070SOL     OW26668   2.950   0.857  14.817 -0.2852 -0.6467  0.0564
 5070SOL    HW126669   3.019   0.819  14.872 -1.3433 -1.3539  0.8802
 5070SOL    HW226670   2.895   0.899  14.883 -0.8439  0.6344 -1.2411
 5071SOL     OW26671   4.480   3.807   2.676 -0.4563 -0.3541  0.4066
 5071SOL    HW126672   4.472   3.761   2.592 -2.1005  0.4650  0.1102
 5071SOL    HW226673   4.391   3.842   2.682  0.0594  0.4694  3.1712
 5072SOL     OW26674   3.665   2.281   8.813 -0.6351 -0.2520 -0.3460
 5072SOL    HW126675   3.722   2.221   8.764  1.1591  2.2371 -1.3082
 5072SOL    HW226676   3.729   2.301   8.882 -0.0215 -1.4915 -0.5434
 5073SOL     OW26677   1.020   2.184   0.194 -0.7587  0.1395 -0.0201
 5073SOL    HW126678   0.984   2.213   0.110 -0.8217  0.2714  0.0518
 5073SOL    HW226679   0.942   2.186   0.250 -1.2096 -3.7716 -0.5435
 5074SOL     OW26680   2.426   4.607   6.002  0.2604  0.1274  0.1944
 5074SOL    HW126681   2.348   4.648   5.965 -0.0446 -0.0321  0.6551
 5074SOL    HW226682   2.394   4.524   6.038 -2.5017  0.9967 -0.2925
 5075SOL     OW26683   3.123   4.402  11.792 -0.1386  0.1809  0.5860
 5075SOL    HW126684   3.071   4.363  11.722  1.2990  0.2156 -0.5080
 5075SOL    HW226685   3.121   4.325  11.848  3.0232 -1.5042 -1.6608
 5076SOL     OW26686   0.080   4.359   7.060 -0.0786 -0.7789  0.3783
 5076SOL    HW126687   0.108   4.438   7.108 -0.2692 -0.2998 -0.3029
 5076SOL    HW226688   0.023   4.314   7.123 -3.3956  0.9070 -1.4390
 5077SOL     OW26689   2.832   3.556  13.655 -0.0205  0.1503 -0.4884
 5077SOL    HW126690   2.900   3.533  13.591  0.3407 -2.6512  0.9239
 5077SOL    HW226691   2.889   3.546  13.730  1.5513 -0.5012 -1.7657
 5078SOL     OW26692   3.183   2.389   8.344  0.6366 -0.1565 -0.0254
 5078SOL    HW126693   3.277   2.387   8.362  1.1114  0.2003 -2.3548
 5078SOL    HW226694   3.150   2.378   8.433  1.1616  1.0628  0.3228
 5079SOL     OW26695   3.916   0.947   6.716 -0.6324  0.2936  0.1330
 5079SOL    HW126696   3.862   1.003   6.660 -0.5257  0.1586 -0.1060
 5079SOL    HW226697   3.871   0.864   6.697 -0.5017  0.5235 -1.2345
 5080SOL     OW26698   1.606   3.300   2.049  0.5326  0.2029 -0.1045
 5080SOL    HW126699   1.667   3.314   1.977  2.7790 -0.5746  1.6441
 5080SOL    HW226700   1.574   3.390   2.059  2.3865  0.7322  1.0898
 5081SOL     OW26701   4.616   2.188   4.882  0.1263 -0.2390 -0.0472
 5081SOL    HW126702   4.644   2.189   4.974  0.6365 -1.2586 -0.1915
 5081SOL    HW226703   4.521   2.191   4.894  0.2981  0.1316  1.2488
 5082SOL     OW26704   3.220   4.498  13.102  0.1267 -0.4404 -0.2724
 5082SOL    HW126705   3.297   4.539  13.142 -0.6712  0.7503  0.0296
 5082SOL    HW226706   3.252   4.409  13.085 -0.3342 -0.4308 -1.1601
 5083SOL     OW26707   2.812   0.195  17.666  0.1130  0.0550  0.0502
 5083SOL    HW126708   2.790   0.104  17.643 -0.3071 -0.0360  0.8358
 5083SOL    HW226709   2.857   0.215  17.584  0.6038 -0.8868  0.0814
 5084SOL     OW26710   4.648   0.697   3.263  0.1678 -0.6034 -0.1391
 5084SOL    HW126711   4.588   0.769   3.244 -0.5632 -1.5616 -1.3944
 5084SOL    HW226712   4.709   0.702   3.189  2.2436  3.4736  1.8371
 5085SOL     OW26713   1.503   3.345  10.090 -0.3994  1.0522  0.0457
 5085SOL    HW126714   1.440   3.305  10.030  0.3737  2.7995 -1.9520
 5085SOL    HW226715   1.488   3.296  10.171 -3.4067 -1.6391 -2.1631
 5086SOL     OW26716   2.889   3.920   0.799 -0.2546  0.5083 -0.0224
 5086SOL    HW126717   2.828   3.879   0.860 -1.2579  0.7764 -0.8501
 5086SOL    HW226718   2.909   3.835   0.759  0.2283 -0.3011  1.9230
 5087SOL     OW26719   3.262   0.607   5.683  0.5294  0.4520 -0.0444
 5087SOL    HW126720   3.341   0.605   5.736  0.8254 -0.7138 -0.5330
 5087SOL    HW226721   3.187   0.611   5.742  0.2177 -1.1389 -0.3308
 5088SOL     OW26722   1.102   2.804   1.657  0.0907 -0.3838 -0.0032
 5088SOL    HW126723   1.149   2.872   1.608 -0.3705  0.8084  1.2221
 5088SOL    HW226724   1.173   2.741   1.670  0.2178  0.0757  1.5266
 5089SOL     OW26725   4.081   2.483   9.152  0.3965  0.3643  0.9743
 5089SOL    HW126726   4.001   2.476   9.204  1.8000  2.3418  3.3558
 5089SOL    HW226727   4.080   2.410   9.089  0.7259  0.2259  1.1275
 5090SOL     OW26728   1.874   0.034   2.198  0.3396 -0.1911 -0.2383
 5090SOL    HW126729   1.869   0.021   2.103 -0.0131 -1.9620  0.0382
 5090SOL    HW226730   1.955   0.085   2.190 -0.7234  1.4826 -0.3391
 5091SOL     OW26731   4.440   3.307  15.234 -0.5337  0.5465 -0.6010
 5091SOL    HW126732   4.522   3.353  15.218  0.3826 -0.9704 -0.3124
 5091SOL    HW226733   4.441   3.280  15.326  1.2758 -0.2039 -0.8268
 5092SOL     OW26734   3.415   2.732  15.985  0.0744 -0.2325 -0.5770
 5092SOL    HW126735   3.344   2.739  15.920 -0.6555  1.0955  0.3734
 5092SOL    HW226736   3.416   2.636  15.993  1.3386  0.0389  2.1647
 5093SOL     OW26737   4.477   0.389   6.750  0.0333 -0.0477 -0.2110
 5093SOL    HW126738   4.399   0.350   6.711  1.7668  0.2202 -4.0100
 5093SOL    HW226739   4.540   0.371   6.679  0.1043  2.0724 -0.6904
 5094SOL     OW26740   1.052   2.468   7.579  0.2292  0.3522  0.0190
 5094SOL    HW126741   1.135   2.429   7.608 -0.0216  0.6403  1.1122
 5094SOL    HW226742   1.087   2.512   7.502  2.2469  0.3990  0.9601
 5095SOL     OW26743   0.762   0.189   6.210  0.5560 -0.2385  0.0673
 5095SOL    HW126744   0.794   0.173   6.122 -0.4651  1.8777 -0.6878
 5095SOL    HW226745   0.812   0.270   6.220 -3.2132  1.6728  3.2273
 5096SOL     OW26746   2.356   1.184   2.460  0.1146 -0.1091 -0.0716
 5096SOL    HW126747   2.396   1.105   2.496  1.5740 -0.2924 -2.1220
 5096SOL    HW226748   2.435   1.240   2.466 -0.4345  0.5326  1.1964
 5097SOL     OW26749   2.248   0.063   8.455 -0.2887  0.0563 -0.2385
 5097SOL    HW126750   2.249   4.713   8.388  2.4363 -1.2532  1.1431
 5097SOL    HW226751   2.266   0.028   8.542  1.3926 -1.2073 -1.0893
 5098SOL     OW26752   1.317   0.202   1.317 -0.6779  0.0671  0.8577
 5098SOL    HW126753   1.393   0.179   1.264  0.1357  0.8740  1.6847
 5098SOL    HW226754   1.333   0.296   1.321  0.3644 -0.1868  2.6238
 5099SOL     OW26755   2.345   0.228  11.232  0.2522  0.0627  0.0940
 5099SOL    HW126756   2.293   0.308  11.227  0.5208  0.2442  0.2221
 5099SOL    HW226757   2.329   0.184  11.149 -1.0997  3.1803 -1.3017
 5100SOL     OW26758   2.960   1.578  16.279 -0.6289  0.4278 -0.0722
 5100SOL    HW126759   2.960   1.535  16.365  2.1049  0.2950 -0.1286
 5100SOL    HW226760   3.048   1.607  16.256 -0.6426 -0.0317 -0.6979
 5101SOL     OW26761   4.291   0.666   2.266  0.4322 -0.0878 -0.0914
 5101SOL    HW126762   4.209   0.636   2.228  1.8946 -0.9960 -2.5503
 5101SOL    HW226763   4.343   0.683   2.188 -0.7551 -1.9611 -1.2893
 5102SOL     OW26764   3.015   3.295   4.647  0.0036  0.3716 -0.2531
 5102SOL    HW126765   2.927   3.263   4.624 -0.2911 -1.2475  3.1069
 5102SOL    HW226766   3.052   3.220   4.693  0.4722  1.1401  0.6311
 5103SOL     OW26767   4.261   4.105   5.700 -0.2540 -0.0921 -0.3188
 5103SOL    HW126768   4.192   4.170   5.685 -2.7545 -2.5276  0.7309
 5103SOL    HW226769   4.303   4.134   5.782 -0.4126  0.2774 -0.3672
 5104SOL     OW26770   2.962   3.731   4.737 -0.0186  0.2094 -0.1226
 5104SOL    HW126771   2.921   3.776   4.663 -3.5084 -1.8459  0.5349
 5104SOL    HW226772   3.042   3.781   4.749  1.1043 -1.5041 -0.5224
 5105SOL     OW26773   3.887   3.238   6.784  1.1271  0.2798 -0.2007
 5105SOL    HW126774   3.809   3.283   6.751  0.0016 -0.7731  1.0396
 5105SOL    HW226775   3.952   3.275   6.725 -0.4124  0.5413 -1.7239
 5106SOL     OW26776   0.224   2.182   6.218  0.1021 -0.1867  0.1580
 5106SOL    HW126777   0.176   2.114   6.169 -0.1221  0.8484 -1.0611
 5106SOL    HW226778   0.240   2.230   6.137  3.6748  0.2275  1.1216
 5107SOL     OW26779   1.696   2.636  15.782  1.2068  0.1512  0.5224
 5107SOL    HW126780   1.643   2.675  15.712  0.5615  1.3888  1.6878
 5107SOL    HW226781   1.654   2.550  15.784 -0.0663  0.7920  1.2703
 5108SOL     OW26782   4.156   4.180   3.225 -0.0062 -0.3175  0.0749
 5108SOL    HW126783   4.222   4.128   3.178 -0.1270  0.4482 -0.9542
 5108SOL    HW226784   4.100   4.198   3.149 -0.2893 -1.0145  0.1199
 5109SOL     OW26785   1.353   4.367  15.186 -0.2159 -0.2214  0.2386
 5109SOL    HW126786   1.368   4.427  15.113 -3.2430  2.5700  1.8758
 5109SOL    HW226787   1.441   4.376  15.221 -0.0386 -0.2260 -0.2099
 5110SOL     OW26788   2.321   1.902   5.219  0.0546  0.5380  0.1607
 5110SOL    HW126789   2.398   1.942   5.258  1.0787 -1.4111  0.1355
 5110SOL    HW226790   2.365   1.863   5.143 -1.8316 -1.8670  0.2965
 5111SOL     OW26791   2.122   0.468   7.162  0.2142  0.3133  0.6052
 5111SOL    HW126792   2.135   0.441   7.072 -0.4242 -0.5299  0.7673
 5111SOL    HW226793   2.034   0.445   7.193 -0.5761  1.1079 -1.0679
 5112SOL     OW26794   1.480   3.509  16.862 -0.0253 -0.6619 -0.0121
 5112SOL    HW126795   1.567   3.549  16.865 -0.2786 -0.0400 -1.1537
 5112SOL    HW226796   1.439   3.532  16.945  0.6868 -2.2407  0.7885
 5113SOL     OW26797   3.189   0.951  13.066  0.8023 -0.0487  0.1926
 5113SOL    HW126798   3.195   1.039  13.029  0.0224 -0.5217 -1.0570
 5113SOL    HW226799   3.255   0.946  13.135 -0.9641  2.0784  2.0396
 5114SOL     OW26800   3.075   0.197  17.483  0.3799 -0.0850 -0.2737
 5114SOL    HW126801   3.059   0.285  17.447 -0.3664 -0.3581 -0.6120
 5114SOL    HW226802   3.163   0.208  17.518  0.2012  0.5153  0.0028
 5115SOL     OW26803   1.439   3.156  11.690  0.0952  0.5164  0.3462
 5115SOL    HW126804   1.343   3.158  11.686  0.1037 -0.4677 -0.2828
 5115SOL    HW226805   1.459   3.236  11.642  0.1011  0.6948  0.6471
 5116SOL     OW26806   2.721   3.380   7.263  0.0240 -0.0315 -0.0866
 5116SOL    HW126807   2.632   3.394   7.232  0.5871  0.8994 -1.2900
 5116SOL    HW226808   2.697   3.339   7.346 -1.8710 -0.6591 -0.9348
 5117SOL     OW26809   1.030   1.717  13.236  0.6089  0.1299  0.1229
 5117SOL    HW126810   0.989   1.726  13.322  1.9317 -1.4387  0.9123
 5117SOL    HW226811   1.025   1.806  13.202  0.1628 -0.1325 -0.5187
 5118SOL     OW26812   0.133   2.250   2.541 -0.7349  0.3949  0.0433
 5118SOL    HW126813   0.076   2.216   2.472 -0.5142  0.2764 -0.0809
 5118SOL    HW226814   0.147   2.342   2.520 -0.7736  0.5476  0.6995
 5119SOL     OW26815   0.517   4.283   6.948  0.0648 -0.6584  0.1878
 5119SOL    HW126816   0.603   4.315   6.923  0.1812  1.0292  2.7204
 5119SOL    HW226817   0.535   4.189   6.944 -0.2786 -0.7505  0.7675
 5120SOL     OW26818   1.233   4.682   2.513  0.0593  0.1209 -0.0480
 5120SOL    HW126819   1.228   0.014   2.593 -0.4575 -2.4353  1.5742
 5120SOL    HW226820   1.310   4.711   2.463  0.9217 -1.0579  0.5750
 5121SOL     OW26821   2.816   0.832   8.283 -0.3360 -0.2889  0.1442
 5121SOL    HW126822   2.803   0.905   8.223  0.6866 -0.0855  0.1596
 5121SOL    HW226823   2.880   0.774   8.241  1.5864  1.9458 -0.0148
 5122SOL     OW26824   4.622   2.452   7.041 -0.1236 -0.3183  0.3834
 5122SOL    HW126825   4.608   2.524   7.102  0.4583  0.3021 -0.2193
 5122SOL    HW226826   4.544   2.403   7.066 -0.4401 -0.9999 -1.9117
 5123SOL     OW26827   4.674   4.694   7.605 -0.1282  0.3080 -0.1998
 5123SOL    HW126828   4.601   4.711   7.545 -0.2185  0.5958 -0.0030
 5123SOL    HW226829   4.640   4.631   7.668  2.2222 -1.9763 -1.1991
 5124SOL     OW26830   1.179   2.065   3.594 -0.1028 -0.0076 -0.2409
 5124SOL    HW126831   1.205   2.142   3.644  0.5278 -0.7222  0.5404
 5124SOL    HW226832   1.101   2.031   3.639  0.5334 -0.0698  0.8359
 5125SOL     OW26833   2.062   0.680   1.689 -0.5507 -0.5606  0.2718
 5125SOL    HW126834   2.073   0.692   1.595  0.7312  1.1117  0.6317
 5125SOL    HW226835   2.131   0.741   1.717 -1.3018  1.4415 -2.2209
 5126SOL     OW26836   0.186   1.868   4.780 -0.4009 -0.9151  0.0156
 5126SOL    HW126837   0.208   1.949   4.733  0.7792 -1.6021 -0.6066
 5126SOL    HW226838   0.232   1.800   4.731 -1.8417  0.1898 -2.9346
 5127SOL     OW26839   3.117   3.848   9.316  0.7852  0.0117  0.3795
 5127SOL    HW126840   3.067   3.769   9.332 -0.4967  0.5478 -0.9365
 5127SOL    HW226841   3.197   3.826   9.267  0.8774  0.6249  0.2462
 5128SOL     OW26842   4.239   4.230   8.588  0.0250  0.5129 -0.5402
 5128SOL    HW126843   4.221   4.302   8.527 -0.2890 -1.0653 -2.3164
 5128SOL    HW226844   4.321   4.264   8.623  0.0253 -1.0993  1.0058
 5129SOL     OW26845   3.727   3.027   4.030  0.1036 -0.6663 -0.0415
 5129SOL    HW126846   3.720   2.978   3.948 -1.6257  1.0201 -0.9001
 5129SOL    HW226847   3.637   3.015   4.061 -0.1472  0.3315 -0.4001
 5130SOL     OW26848   0.140   0.107  12.918 -0.5128 -0.8415  0.1321
 5130SOL    HW126849   0.111   0.151  12.997 -0.9129 -0.9790  0.0606
 5130SOL    HW226850   0.114   0.017  12.938  1.0997 -2.1173 -3.3350
 5131SOL     OW26851   2.682   4.628   3.941  0.0368  0.4454  0.6913
 5131SOL    HW126852   2.731   4.659   4.017 -0.2668  0.2158  0.9843
 5131SOL    HW226853   2.617   4.699   3.937 -1.0727 -0.5822  0.3625
 5132SOL     OW26854   2.477   4.674   8.720 -0.2579 -0.1609 -0.0032
 5132SOL    HW126855   2.451   0.045   8.738  3.3998  1.2654 -1.9651
 5132SOL    HW226856   2.465   4.636   8.807 -2.2222  0.4745 -0.0065
 5133SOL     OW26857   0.065   1.992   6.138 -0.3987  0.1604 -0.3769
 5133SOL    HW126858   0.031   1.917   6.090 -1.6509  0.8847 -0.6280
 5133SOL    HW226859   4.705   2.040   6.163 -1.6593 -1.5970 -1.0388
 5134SOL     OW26860   3.256   0.908   2.736  0.0044 -0.2172 -0.0624
 5134SOL    HW126861   3.207   0.879   2.659 -0.0262 -0.3786  0.0183
 5134SOL    HW226862   3.304   0.827   2.754  1.3747  0.8301  0.9847
 5135SOL     OW26863   4.359   2.424   7.658  0.3698 -0.2933  0.1393
 5135SOL    HW126864   4.437   2.386   7.619  1.9900 -0.1214  3.2508
 5135SOL    HW226865   4.385   2.490   7.721  0.1861  0.0643 -0.1628
 5136SOL     OW26866   4.080   1.679   7.487 -0.6793  0.3793  0.2697
 5136SOL    HW126867   4.100   1.755   7.434 -1.8116  0.4179 -0.0877
 5136SOL    HW226868   4.127   1.610   7.440 -1.4522  0.4429 -0.5750
 5137SOL     OW26869   2.388   3.115   2.626 -0.3292 -0.7899  0.5559
 5137SOL    HW126870   2.447   3.188   2.605 -1.1528 -0.5092 -0.8709
 5137SOL    HW226871   2.438   3.034   2.632  1.0516 -0.0143 -0.3876
 5138SOL     OW26872   1.655   0.054  16.196  0.0992 -0.0143  0.0491
 5138SOL    HW126873   1.658   0.064  16.291  0.7116  0.8625 -0.0666
 5138SOL    HW226874   1.628   4.681  16.190  1.3573 -0.2488 -1.8902
 5139SOL     OW26875   1.932   3.545   5.789 -0.1810  0.2131 -0.4313
 5139SOL    HW126876   1.874   3.597   5.844 -1.2730 -0.1016 -1.3055
 5139SOL    HW226877   1.996   3.515   5.855  0.7206  3.0351  0.0042
 5140SOL     OW26878   0.708   0.382   4.866 -0.0404  0.3801  0.5984
 5140SOL    HW126879   0.673   0.293   4.872  0.1484  0.3108  0.6769
 5140SOL    HW226880   0.625   0.430   4.873 -0.5729 -0.1429 -2.1885
 5141SOL     OW26881   4.539   3.795   5.527 -0.1418 -0.2335  0.5218
 5141SOL    HW126882   4.563   3.831   5.612 -0.6759 -0.9132  0.9680
 5141SOL    HW226883   4.486   3.723   5.564 -0.1410  0.1637  1.3033
 5142SOL     OW26884   1.046   2.917   0.077 -0.0100 -0.0154  0.2565
 5142SOL    HW126885   1.062   2.949  17.668  0.1092  0.6247  0.5026
 5142SOL    HW226886   1.056   2.825   0.055 -1.3943  0.7318 -3.5439
 5143SOL     OW26887   1.438   4.380   2.360  0.4931 -0.8902  0.2862
 5143SOL    HW126888   1.501   4.437   2.318 -2.1912 -0.1443 -2.7774
 5143SOL    HW226889   1.350   4.403   2.329 -0.3950 -0.6937  2.9458
 5144SOL     OW26890   3.984   1.983   3.306 -0.5796 -0.4138  0.2297
 5144SOL    HW126891   4.023   1.970   3.219  0.2782  0.2918  0.5044
 5144SOL    HW226892   4.026   2.062   3.339 -1.8000  0.8593 -1.2703
 5145SOL     OW26893   1.268   2.201   1.465  0.3427  0.5453 -0.3997
 5145SOL    HW126894   1.196   2.170   1.521  0.1705 -0.7519 -1.3417
 5145SOL    HW226895   1.343   2.166   1.512 -2.0499 -0.5106  2.6551
 5146SOL     OW26896   2.044   0.351   5.811 -0.0105 -0.7154 -0.1289
 5146SOL    HW126897   2.005   0.268   5.838  0.2979 -0.3719  1.3705
 5146SOL    HW226898   2.026   0.420   5.875 -1.4530 -0.3696 -0.9004
 5147SOL     OW26899   0.002   0.386   3.493  0.0302 -0.6806 -0.7834
 5147SOL    HW126900   4.677   0.371   3.409 -0.8241 -2.3566 -0.0251
 5147SOL    HW226901   4.675   0.462   3.528  1.5674  0.5290 -1.3596
 5148SOL     OW26902   0.895   2.042   5.062  0.1448  0.6534  0.0578
 5148SOL    HW126903   0.944   1.976   5.013  0.9169  2.7603 -2.0563
 5148SOL    HW226904   0.876   1.998   5.145 -1.8696  0.8031 -0.3200
 5149SOL     OW26905   4.478   0.816   6.918  0.5680 -0.1598  0.1379
 5149SOL    HW126906   4.438   0.750   6.861 -0.9691 -0.7863  1.9697
 5149SOL    HW226907   4.565   0.780   6.933  0.5897 -0.5981 -1.0149
 5150SOL     OW26908   0.129   3.931   6.275  0.3652 -0.2614  0.5094
 5150SOL    HW126909   0.208   3.891   6.309  0.5862 -2.4482 -2.5746
 5150SOL    HW226910   0.086   3.951   6.358 -1.7070  2.1776 -1.1272
 5151SOL     OW26911   1.322   3.272   2.155  0.3212 -1.0503  0.2898
 5151SOL    HW126912   1.333   3.367   2.159 -0.1879 -0.9422 -0.8213
 5151SOL    HW226913   1.409   3.244   2.185  0.4237  0.4949  1.4672
 5152SOL     OW26914   0.467   2.261   9.015  0.8991 -0.2420  0.4519
 5152SOL    HW126915   0.407   2.328   9.047  0.0849 -0.6165 -0.2676
 5152SOL    HW226916   0.481   2.283   8.923 -1.2586  0.7644  0.3819
 5153SOL     OW26917   2.803   4.683  13.960  0.0992  0.0598 -0.3666
 5153SOL    HW126918   2.870   0.031  13.957  0.0667  0.1439  0.9452
 5153SOL    HW226919   2.774   4.700  14.049 -0.6585  1.7211 -0.9396
 5154SOL     OW26920   0.174   4.363   8.683  0.1366 -0.1963  0.4003
 5154SOL    HW126921   0.219   4.432   8.635 -1.3469 -2.6151 -4.4454
 5154SOL    HW226922   0.189   4.395   8.772 -0.8377 -0.0296  0.5101
 5155SOL     OW26923   1.977   3.556  13.713  0.0432  0.5476  0.2156
 5155SOL    HW126924   1.903   3.499  13.733  0.4504 -0.0460  0.0304
 5155SOL    HW226925   1.960   3.619  13.783  0.9693 -0.1868  1.1023
 5156SOL     OW26926   4.423   3.511   2.648  0.4337 -0.6725 -0.4387
 5156SOL    HW126927   4.516   3.535   2.650  0.7340 -1.8477 -0.4408
 5156SOL    HW226928   4.427   3.417   2.668  1.5354 -0.5849 -0.2616
 5157SOL     OW26929   4.432   3.695   8.453 -0.4481 -0.2392  0.4451
 5157SOL    HW126930   4.515   3.725   8.489 -1.2198  0.5816  1.5419
 5157SOL    HW226931   4.384   3.775   8.435 -0.4728 -0.0144  1.4970
 5158SOL     OW26932   3.268   4.080   8.045 -0.0913  0.2030  0.3027
 5158SOL    HW126933   3.361   4.101   8.052 -0.0859  0.0964  0.5521
 5158SOL    HW226934   3.265   4.015   8.116  2.5322 -0.6008 -0.3315
 5159SOL     OW26935   1.473   0.721   3.875 -0.3548  0.1568 -0.2974
 5159SOL    HW126936   1.489   0.676   3.792  1.5629 -0.5434  0.4454
 5159SOL    HW226937   1.517   0.804   3.859 -3.6545  2.1694  1.1931
 5160SOL     OW26938   0.209   1.659   8.090 -0.7510  0.1178  0.0074
 5160SOL    HW126939   0.242   1.570   8.081 -0.3434  0.2507  0.1942
 5160SOL    HW226940   0.178   1.659   7.999 -0.5642  2.2072 -0.0682
 5161SOL     OW26941   2.004   1.829   3.905  0.6528  0.3980  0.3443
 5161SOL    HW126942   2.074   1.842   3.841  0.9979  3.0905  1.2390
 5161SOL    HW226943   1.934   1.773   3.872  0.1916  1.3528 -0.3077
 5162SOL     OW26944   0.225   0.564  11.577 -0.4995  0.2529 -0.6220
 5162SOL    HW126945   0.239   0.629  11.509 -4.4626 -0.8484 -2.5315
 5162SOL    HW226946   0.131   0.575  11.594  0.0334  2.2544  0.9615
 5163SOL     OW26947   2.488   4.694  12.186  0.0931  0.3150  0.0681
 5163SOL    HW126948   2.481   0.044  12.120  0.3252  1.0749  0.8528
 5163SOL    HW226949   2.583   4.687  12.190 -0.1043 -1.6375  1.2209
 5164SOL     OW26950   1.191   3.182   0.348 -0.2996 -0.2963 -0.0108
 5164SOL    HW126951   1.135   3.127   0.402  0.6318  0.5068  1.8111
 5164SOL    HW226952   1.252   3.219   0.412  1.8486  0.1142 -2.2857
 5165SOL     OW26953   3.426   4.517   3.939 -0.3060  0.1207  0.0065
 5165SOL    HW126954   3.445   4.438   3.889  0.3425 -0.4718  1.1886
 5165SOL    HW226955   3.511   4.524   3.981  0.7343 -1.6251 -1.8238
 5166SOL     OW26956   1.192   1.161   6.494 -0.1064 -0.4131  0.6458
 5166SOL    HW126957   1.104   1.163   6.531 -0.2104 -3.8778  0.6191
 5166SOL    HW226958   1.189   1.095   6.424  0.4710  0.1377  0.0918
 5167SOL     OW26959   0.448   2.781   0.001 -0.2424  0.2338  0.3094
 5167SOL    HW126960   0.418   2.866  17.647 -1.1201 -0.6143 -1.0250
 5167SOL    HW226961   0.542   2.782   0.015 -0.1445  2.2639 -0.4371
 5168SOL     OW26962   4.097   2.899   3.190  0.0482  0.2602 -0.2193
 5168SOL    HW126963   4.117   2.963   3.258 -1.7312  0.6519 -0.0743
 5168SOL    HW226964   4.042   2.947   3.129 -1.2795 -0.4228  0.4451
 5169SOL     OW26965   3.385   2.794   8.533  0.4082  0.1406 -0.3137
 5169SOL    HW126966   3.383   2.722   8.470  1.6336 -1.0704  1.0318
 5169SOL    HW226967   3.481   2.792   8.533  0.4065  0.1919  0.8462
 5170SOL     OW26968   3.755   3.162  15.188 -0.0485  0.0236  0.2657
 5170SOL    HW126969   3.695   3.199  15.123  2.0052 -0.8746 -2.1315
 5170SOL    HW226970   3.841   3.188  15.156 -0.6452  1.6998 -0.0102
 5171SOL     OW26971   1.511   0.451   3.257  0.1245  0.1949 -0.3484
 5171SOL    HW126972   1.487   0.359   3.255 -1.4710  0.6163 -0.9981
 5171SOL    HW226973   1.522   0.470   3.164  0.5025  0.6437 -0.2131
 5172SOL     OW26974   3.875   0.033  11.562 -0.1643  0.2334  0.2619
 5172SOL    HW126975   3.962   0.057  11.593  0.2186 -1.5658  0.5440
 5172SOL    HW226976   3.822   0.066  11.634 -0.9820  4.2059 -2.1423
 5173SOL     OW26977   1.311   2.804   4.834  0.5943  0.0357  0.2200
 5173SOL    HW126978   1.327   2.721   4.878 -1.6966 -1.1409 -1.1158
 5173SOL    HW226979   1.251   2.854   4.890  0.1237 -0.0485 -0.2030
 5174SOL     OW26980   4.214   4.071  15.594 -0.0309 -0.4493  0.2368
 5174SOL    HW126981   4.199   4.028  15.510  0.5383  0.2185 -0.2071
 5174SOL    HW226982   4.129   4.101  15.626 -0.7006 -0.5276 -1.4717
 5175SOL     OW26983   4.710   1.473   2.419  0.0606 -0.1128 -0.0559
 5175SOL    HW126984   0.029   1.472   2.506 -0.4978  0.2992  0.1928
 5175SOL    HW226985   0.069   1.467   2.364 -2.1159  0.2230 -3.2234
 5176SOL     OW26986   3.541   2.997   4.526  0.1717 -0.2968 -0.2159
 5176SOL    HW126987   3.610   2.957   4.474  1.6738  0.6056  1.0713
 5176SOL    HW226988   3.467   2.950   4.487  0.6981 -0.8438 -0.5508
 5177SOL     OW26989   3.743   3.779   7.203  0.1805  0.3613 -0.4593
 5177SOL    HW126990   3.739   3.789   7.107 -0.1773 -1.5433 -0.6469
 5177SOL    HW226991   3.665   3.728   7.221  1.9824 -2.4214 -0.4290
 5178SOL     OW26992   3.338   1.268   5.956  0.2619  0.7236 -0.4073
 5178SOL    HW126993   3.418   1.220   5.937 -1.7406 -1.9779 -1.9405
 5178SOL    HW226994   3.364   1.341   6.013 -0.0401  1.2907 -0.9914
 5179SOL     OW26995   3.816   2.523  14.935 -0.5114 -0.4487 -0.4127
 5179SOL    HW126996   3.779   2.478  15.012  0.2544  1.6001  1.1468
 5179SOL    HW226997   3.909   2.511  14.955 -0.3262  0.0761 -0.9851
 5180SOL     OW26998   0.431   1.582   4.171  0.2132  0.1528  0.0779
 5180SOL    HW126999   0.465   1.525   4.102 -0.8415 -0.5086  0.1045
 5180SOL    HW227000   0.438   1.516   4.239 -0.3812  0.6806  0.6552
 5181SOL     OW27001   2.973   4.636  11.145  0.1361 -0.7032  0.8661
 5181SOL    HW127002   2.957   4.625  11.051 -3.9249  0.1284  1.4519
 5181SOL    HW227003   3.066   4.611  11.146  0.2339 -0.3515  0.0472
 5182SOL     OW27004   4.154   3.028   8.861  0.1218  0.8242  0.2910
 5182SOL    HW127005   4.177   2.959   8.923 -1.6099 -1.7205 -1.8824
 5182SOL    HW227006   4.060   3.023   8.849  0.1652 -0.7175  0.5325
 5183SOL     OW27007   0.241   4.154   5.466 -0.2606 -0.1278 -0.4786
 5183SOL    HW127008   0.313   4.162   5.529  0.3247 -0.1409 -1.1549
 5183SOL    HW227009   0.266   4.231   5.414 -0.3768  0.0895 -0.2129
 5184SOL     OW27010   1.034   0.267   1.251  0.3466  0.1738 -0.0648
 5184SOL    HW127011   1.080   0.251   1.169  0.9703 -0.3056  0.3709
 5184SOL    HW227012   1.077   0.206   1.312  0.9373  1.8080  1.1669
 5185SOL     OW27013   4.250   3.579   3.706  0.4615  0.2978 -0.0436
 5185SOL    HW127014   4.189   3.520   3.750  0.4248 -1.6202 -2.6069
 5185SOL    HW227015   4.208   3.662   3.725  0.5709 -0.2375  2.4526
 5186SOL     OW27016   4.140   4.386  11.577 -0.2506 -0.4115  0.4492
 5186SOL    HW127017   4.220   4.384  11.525 -0.5830 -0.9663 -0.0408
 5186SOL    HW227018   4.072   4.436  11.532  0.2212 -0.5868 -0.4693
 5187SOL     OW27019   2.255   0.561   2.119  0.3059  0.3586 -0.1637
 5187SOL    HW127020   2.343   0.600   2.126  0.3448 -0.1145  2.1192
 5187SOL    HW227021   2.275   0.472   2.149 -2.2724  0.3159  1.3818
 5188SOL     OW27022   2.626   4.522  14.833  0.6693 -0.2144 -0.5757
 5188SOL    HW127023   2.674   4.449  14.794 -0.6928 -1.9100  0.9041
 5188SOL    HW227024   2.604   4.570  14.753  0.6193  0.6124 -0.0625
 5189SOL     OW27025   3.887   1.362   4.719  0.1149 -0.4465 -0.0564
 5189SOL    HW127026   3.801   1.332   4.692  0.7578 -1.1425 -1.3283
 5189SOL    HW227027   3.919   1.397   4.636 -0.6374  0.9276  0.2375
 5190SOL     OW27028   0.706   0.020  10.829 -0.3125 -0.4873  0.5241
 5190SOL    HW127029   0.620   0.051  10.855 -0.7028 -1.1503  0.0260
 5190SOL    HW227030   0.682   4.672  10.765 -0.5584 -0.8224  0.9739
 5191SOL     OW27031   3.397   2.520   5.423  0.4807 -0.0548  0.4340
 5191SOL    HW127032   3.344   2.588   5.464 -0.1413  1.2163 -2.4713
 5191SOL    HW227033   3.455   2.499   5.496  1.2001  0.3159 -0.0261
 5192SOL     OW27034   0.496   0.230   1.146  0.2372  0.2021  0.6398
 5192SOL    HW127035   0.551   0.237   1.225  1.4555 -1.5600 -0.0690
 5192SOL    HW227036   0.497   0.136   1.130  1.0909  0.4197 -0.5680
 5193SOL     OW27037   2.263   2.443   3.802 -0.2105 -0.0864 -0.3552
 5193SOL    HW127038   2.289   2.517   3.748  0.5011 -0.6427 -0.7747
 5193SOL    HW227039   2.184   2.473   3.847  0.1722  0.2787  0.0783
 5194SOL     OW27040   0.639   0.073  14.548  0.8264  0.0703  0.2967
 5194SOL    HW127041   0.576   0.027  14.492 -1.1912  3.0412  0.0846
 5194SOL    HW227042   0.668   4.714  14.594 -1.4291  0.1813  1.9044
 5195SOL     OW27043   3.522   4.158   7.305  0.0121 -0.0189  0.7312
 5195SOL    HW127044   3.602   4.193   7.266 -0.7391 -0.3051 -1.0965
 5195SOL    HW227045   3.485   4.109   7.231 -2.8832  2.6736  0.4113
 5196SOL     OW27046   0.622   0.738  10.167  0.1504 -0.3299  0.3699
 5196SOL    HW127047   0.643   0.770  10.255 -1.6273 -2.1421  1.4684
 5196SOL    HW227048   0.672   0.790  10.105  2.8381  0.4366  3.1924
 5197SOL     OW27049   1.985   0.148   4.024  0.1609  0.0873  0.2220
 5197SOL    HW127050   2.013   0.141   3.933  0.3408 -1.8402  0.4147
 5197SOL    HW227051   2.043   0.084   4.067 -0.1573  0.5859  1.3933
 5198SOL     OW27052   0.749   2.827   4.645 -0.0571  0.4606  0.3019
 5198SOL    HW127053   0.687   2.758   4.668 -0.3022  0.2786 -0.9084
 5198SOL    HW227054   0.805   2.816   4.722  0.6981  0.6924 -0.2129
 5199SOL     OW27055   2.032   3.603  12.628 -0.4009 -0.0660 -0.0710
 5199SOL    HW127056   2.031   3.508  12.634  2.7184 -0.0784  0.5512
 5199SOL    HW227057   2.003   3.623  12.717  2.1419  1.2420  0.4852
 5200SOL     OW27058   2.723   4.709   3.534  0.0076  0.4780  0.0821
 5200SOL    HW127059   2.715   0.055   3.603  0.5372 -0.8082  1.3478
 5200SOL    HW227060   2.753   0.043   3.460 -0.8122  2.0849  0.8831
 5201SOL     OW27061   0.469   3.240   6.051  0.3341 -0.4091 -0.1040
 5201SOL    HW127062   0.545   3.297   6.065  1.8979 -1.4428 -4.3722
 5201SOL    HW227063   0.418   3.298   5.994 -1.2782  1.3119  3.1510
 5202SOL     OW27064   2.974   1.539   2.633  0.3225  0.4190  0.2695
 5202SOL    HW127065   2.933   1.615   2.592  0.5506  0.6028  0.3843
 5202SOL    HW227066   2.893   1.493   2.655  2.0229 -2.4557  0.5036
 5203SOL     OW27067   2.542   4.215   0.382  0.0740 -0.3505  0.2998
 5203SOL    HW127068   2.539   4.221   0.478  1.4778  2.2617  0.1810
 5203SOL    HW227069   2.598   4.289   0.358 -0.5167  0.4255  1.2954
 5204SOL     OW27070   2.081   1.028  17.663  0.3702  0.1446  0.8121
 5204SOL    HW127071   2.035   0.978   0.051  0.5565 -1.8427 -0.5127
 5204SOL    HW227072   2.142   1.079   0.036 -1.0945  2.1561  0.5668
 5205SOL     OW27073   3.931   0.389   9.112  0.7765 -0.5824 -0.4333
 5205SOL    HW127074   3.923   0.420   9.202 -4.3407  0.6544 -1.3207
 5205SOL    HW227075   4.023   0.399   9.090  1.0672  2.5307  2.2786
 5206SOL     OW27076   1.070   4.352   8.465 -0.1735 -0.3531  0.1780
 5206SOL    HW127077   1.098   4.311   8.383 -2.2396 -1.5539  0.0509
 5206SOL    HW227078   0.989   4.397   8.441 -0.2120 -0.1718  0.6580
 5207SOL     OW27079   3.226   3.324   8.045 -0.1227  0.5957 -0.0905
 5207SOL    HW127080   3.288   3.286   8.107 -1.6895  0.5744  1.4684
 5207SOL    HW227081   3.163   3.367   8.103 -1.0538 -0.8053 -0.0689
 5208SOL     OW27082   4.202   4.115  17.531 -0.1452 -0.1105  0.4213
 5208SOL    HW127083   4.255   4.100  17.453  1.5739  0.8658  1.4045
 5208SOL    HW227084   4.153   4.033  17.530  2.4624 -1.6159 -2.8012
 5209SOL     OW27085   1.401   3.062  17.420  0.0160  0.2656 -0.3603
 5209SOL    HW127086   1.490   3.090  17.400  0.3830  0.0481  0.9418
 5209SOL    HW227087   1.417   2.989  17.479 -2.4099  1.0213  1.2426
 5210SOL     OW27088   4.456   4.093   8.161 -0.3293  0.4514 -0.2862
 5210SOL    HW127089   4.539   4.056   8.131 -0.9749  0.2276 -1.8122
 5210SOL    HW227090   4.466   4.091   8.256 -2.5214  0.9816 -0.0301
 5211SOL     OW27091   2.478   0.728   5.447 -0.6218 -0.0916 -0.1661
 5211SOL    HW127092   2.423   0.735   5.525 -2.1294  0.2393 -1.2618
 5211SOL    HW227093   2.432   0.785   5.385 -1.3569 -0.7402 -0.2145
 5212SOL     OW27094   3.791   2.488   6.598  0.4249 -0.3003  0.2440
 5212SOL    HW127095   3.794   2.570   6.648 -2.0357 -0.8738  1.3249
 5212SOL    HW227096   3.883   2.466   6.610  0.1503 -1.1461  0.8375
 5213SOL     OW27097   2.739   1.739  10.360 -0.5908 -0.5509 -0.2536
 5213SOL    HW127098   2.737   1.825  10.403  1.3255 -0.7874  0.2743
 5213SOL    HW227099   2.646   1.727  10.340 -1.6288  1.7044  3.1635
 5214SOL     OW27100   0.359   0.627   7.304 -0.3422  0.2591  0.3144
 5214SOL    HW127101   0.355   0.680   7.224  1.2978  0.3072  0.2592
 5214SOL    HW227102   0.294   0.665   7.363 -1.1038  1.6548 -1.4241
 5215SOL     OW27103   4.584   1.143   3.451  0.2007  0.0534  0.3619
 5215SOL    HW127104   4.576   1.148   3.546 -2.7794 -2.2244  0.2438
 5215SOL    HW227105   4.549   1.228   3.425  0.8621  0.2307  0.0575
 5216SOL     OW27106   0.005   2.499  11.042 -0.3662 -0.0784 -0.2794
 5216SOL    HW127107   4.713   2.587  11.008 -2.3057  0.3129  1.4292
 5216SOL    HW227108   4.634   2.469  11.052 -0.8417  1.6106  0.4877
 5217SOL     OW27109   1.582   2.105   4.578 -0.3656  0.2624  0.3902
 5217SOL    HW127110   1.488   2.120   4.593 -0.2108  0.5095  1.1145
 5217SOL    HW227111   1.580   2.021   4.532 -0.0901  0.7682 -0.5421
 5218SOL     OW27112   1.700   1.682   3.234  0.2764  0.1186  0.2269
 5218SOL    HW127113   1.641   1.732   3.178  0.4630 -0.0550 -0.1230
 5218SOL    HW227114   1.644   1.662   3.309  2.0496 -2.9092  0.7405
 5219SOL     OW27115   1.910   1.600   4.234  0.1112 -0.2991  0.4930
 5219SOL    HW127116   1.817   1.581   4.240 -0.0541  1.0086  2.2060
 5219SOL    HW227117   1.946   1.527   4.184 -1.9725 -0.5532 -0.6182
 5220SOL     OW27118   0.806   3.743   3.064 -0.1389  0.0959 -0.0148
 5220SOL    HW127119   0.892   3.750   3.104 -0.9408 -0.2866  1.7558
 5220SOL    HW227120   0.828   3.706   2.978  1.0538 -0.0833  0.3705
 5221SOL     OW27121   1.596   0.182   9.326  0.4833  0.2228  0.1163
 5221SOL    HW127122   1.637   0.098   9.346  1.3615  0.6291  0.0011
 5221SOL    HW227123   1.645   0.203   9.246  0.5853 -0.1652  0.0800
 5222SOL     OW27124   1.976   2.733  12.119 -0.1231 -0.2277 -0.2010
 5222SOL    HW127125   2.023   2.650  12.125 -1.8934 -0.9619  3.2924
 5222SOL    HW227126   1.950   2.741  12.211 -1.2112 -0.4345 -0.4951
 5223SOL     OW27127   1.638   3.040   3.208  0.6191  0.0340 -0.1012
 5223SOL    HW127128   1.653   3.134   3.216 -3.0517  0.6844 -0.4842
 5223SOL    HW227129   1.630   3.026   3.114 -3.3737  0.2051  0.1981
 5224SOL     OW27130   2.219   3.037   3.408  0.6742  0.5741 -0.3839
 5224SOL    HW127131   2.266   2.975   3.353  0.6425 -0.0145  0.2548
 5224SOL    HW227132   2.125   3.036   3.387  0.3788  1.0387  0.8637
 5225SOL     OW27133   4.207   1.581   6.765  0.5449  0.3088 -0.0258
 5225SOL    HW127134   4.133   1.633   6.733 -0.4860 -1.5307 -0.6554
 5225SOL    HW227135   4.214   1.593   6.859 -0.2144  1.6692 -0.1332
 5226SOL     OW27136   3.305   0.491   8.833  0.5834  0.1511 -0.2083
 5226SOL    HW127137   3.216   0.483   8.869 -0.0689 -0.8158 -2.0180
 5226SOL    HW227138   3.302   0.412   8.780  0.3309 -0.3245  0.5054
 5227SOL     OW27139   0.343   4.565  15.653 -0.0851  0.1352  0.1223
 5227SOL    HW127140   0.327   4.591  15.744  0.6283 -0.2151  0.3519
 5227SOL    HW227141   0.361   4.474  15.677  4.5847  0.6331 -1.3520
 5228SOL     OW27142   1.780   0.147   2.467  0.5035  0.3908  0.0647
 5228SOL    HW127143   1.791   0.082   2.397 -0.6192 -0.3013  0.5228
 5228SOL    HW227144   1.844   0.214   2.444 -0.0153  0.2358 -1.8483
 5229SOL     OW27145   0.482   0.901  11.487 -0.9600  0.7477  0.3687
 5229SOL    HW127146   0.556   0.938  11.439  1.1311 -3.5551  0.2824
 5229SOL    HW227147   0.486   0.812  11.452 -0.9340  0.7035  0.4853
 5230SOL     OW27148   1.002   3.187   6.192 -0.0225  0.4149 -0.2747
 5230SOL    HW127149   1.097   3.195   6.203  0.2227 -0.7051 -1.5655
 5230SOL    HW227150   0.974   3.200   6.282  3.3398  1.9735  0.5303
 5231SOL     OW27151   1.740   3.369   5.309  0.5570 -0.5510  0.0510
 5231SOL    HW127152   1.651   3.335   5.301  0.0693  1.4209 -2.9054
 5231SOL    HW227153   1.751   3.394   5.401 -1.4398  0.2031  0.0893
 5232SOL     OW27154   0.589   1.306   5.337  0.3090  0.0329  0.2886
 5232SOL    HW127155   0.569   1.215   5.360  0.1423 -0.0661 -0.2464
 5232SOL    HW227156   0.677   1.313   5.373  1.1403 -1.9318 -1.3418
 5233SOL     OW27157   1.239   0.572   8.241  0.5303  0.1713  0.4936
 5233SOL    HW127158   1.259   0.665   8.249  2.0005 -0.0470 -0.7375
 5233SOL    HW227159   1.321   0.529   8.264  0.2676  0.0168  1.1479
 5234SOL     OW27160   2.626   4.311   8.867  0.7635 -0.1834  0.2241
 5234SOL    HW127161   2.642   4.403   8.887 -1.6025  0.7277 -1.9700
 5234SOL    HW227162   2.654   4.272   8.950  0.2761  1.7002  1.2674
 5235SOL     OW27163   3.856   3.229  16.302  0.1987  0.7806  0.1172
 5235SOL    HW127164   3.763   3.226  16.280  0.2695  1.5492 -0.3049
 5235SOL    HW227165   3.885   3.145  16.269  0.5761 -0.2231  2.9655
 5236SOL     OW27166   3.373   4.179  13.451 -0.2462 -0.2066 -0.5921
 5236SOL    HW127167   3.327   4.097  13.431 -0.9460  0.1026 -0.2281
 5236SOL    HW227168   3.332   4.202  13.534  0.9482 -0.8714  0.1871
 5237SOL     OW27169   2.460   4.118   9.251 -0.3206  0.2174 -0.5468
 5237SOL    HW127170   2.388   4.164   9.208  0.5713  0.6011 -1.6248
 5237SOL    HW227171   2.444   4.130   9.344  2.3991 -1.1872  0.1028
 5238SOL     OW27172   3.288   0.322   9.615 -0.3675  0.0327  0.6532
 5238SOL    HW127173   3.262   0.280   9.533 -0.5174  1.3268  0.0345
 5238SOL    HW227174   3.331   0.247   9.655  0.7140  0.5341  0.4362
 5239SOL     OW27175   0.403   0.369   6.861 -0.4563  0.2842  0.1895
 5239SOL    HW127176   0.417   0.319   6.781 -0.6909  0.1864  0.2085
 5239SOL    HW227177   0.493   0.371   6.894 -0.2711 -3.3779 -0.1248
 5240SOL     OW27178   4.413   2.851   8.759  0.2426 -0.2902  0.4844
 5240SOL    HW127179   4.406   2.849   8.855  0.3372 -1.7447  0.4738
 5240SOL    HW227180   4.450   2.938   8.748  0.3789 -0.3687  0.3303
 5241SOL     OW27181   0.605   0.635   5.609  0.3843 -0.0802  0.1233
 5241SOL    HW127182   0.515   0.637   5.576  0.7688 -1.3846 -1.0051
 5241SOL    HW227183   0.655   0.610   5.531 -0.1989  0.3003 -0.3708
 5242SOL     OW27184   4.445   1.925   4.330 -0.2111 -0.3422  0.0948
 5242SOL    HW127185   4.505   1.956   4.398 -2.9445  0.4709  2.1442
 5242SOL    HW227186   4.361   1.933   4.375  0.1396  0.7794  0.5499
 5243SOL     OW27187   3.092   3.798   6.194  0.0666 -0.2249 -0.3141
 5243SOL    HW127188   2.998   3.795   6.212  0.3447  0.8104  1.2961
 5243SOL    HW227189   3.101   3.703   6.185 -0.6692 -0.2627 -0.6618
 5244SOL     OW27190   1.845   2.540   2.085 -0.0673 -0.1241  0.0733
 5244SOL    HW127191   1.825   2.470   2.023 -0.2679  0.6583 -0.7565
 5244SOL    HW227192   1.899   2.589   2.023 -0.0448  2.0705  1.8400
 5245SOL     OW27193   3.089   3.961   7.429 -0.3599 -0.2917  0.0735
 5245SOL    HW127194   3.075   4.052   7.403 -2.6094 -0.9187 -0.8499
 5245SOL    HW227195   3.005   3.923   7.404  1.3427 -1.6049 -3.6324
 5246SOL     OW27196   4.454   3.474   5.408  0.0883 -0.3306 -0.3403
 5246SOL    HW127197   4.526   3.429   5.363 -0.8533 -1.8191 -0.3543
 5246SOL    HW227198   4.474   3.485   5.502 -1.7938  1.5555 -0.1535
 5247SOL     OW27199   4.216   2.034   6.135 -0.1525 -0.3671  0.2782
 5247SOL    HW127200   4.149   1.983   6.091 -1.1549 -0.4198  1.8496
 5247SOL    HW227201   4.192   2.122   6.108  1.0971 -0.7682 -2.1046
 5248SOL     OW27202   2.162   3.787   4.975  0.1901 -0.0988  0.1084
 5248SOL    HW127203   2.118   3.711   5.013  1.3412  0.4835  2.6050
 5248SOL    HW227204   2.102   3.806   4.902 -0.9158 -0.8208  0.8388
 5249SOL     OW27205   4.662   1.405   1.703  0.2189  0.5785  0.1705
 5249SOL    HW127206   4.698   1.488   1.734 -2.3325  1.2453  1.2959
 5249SOL    HW227207   4.634   1.366   1.786  0.4962  0.1868  0.0831
 5250SOL     OW27208   4.258   3.856   3.257  0.4307 -0.1670 -0.1615
 5250SOL    HW127209   4.210   3.870   3.175 -0.5754 -1.7582  0.1690
 5250SOL    HW227210   4.259   3.761   3.265  1.5048 -0.0557  1.0748
 5251SOL     OW27211   2.936   4.663   4.663  0.0325  0.5192  0.2467
 5251SOL    HW127212   2.868   4.663   4.730 -1.5484 -1.0449 -1.3520
 5251SOL    HW227213   2.959   0.035   4.643 -0.9605  0.4836 -1.0533
 5252SOL     OW27214   0.079   0.535   2.299 -0.2062 -0.7379  0.0500
 5252SOL    HW127215   0.007   0.474   2.317 -2.7813  1.9719 -0.9139
 5252SOL    HW227216   0.059   0.602   2.364 -1.2934 -0.7196 -0.2951
 5253SOL     OW27217   4.437   3.361   6.790  0.3663  0.0850 -0.3121
 5253SOL    HW127218   4.463   3.278   6.831  1.6965  0.0178 -1.2999
 5253SOL    HW227219   4.373   3.393   6.854  0.1452 -1.1226  0.0680
 5254SOL     OW27220   4.047   4.666   5.462 -0.7378 -0.3299  0.9321
 5254SOL    HW127221   4.112   0.004   5.420 -1.2928  0.7159  1.5101
 5254SOL    HW227222   4.019   0.013   5.525 -2.1891 -0.1042  0.0408
 5255SOL     OW27223   2.879   0.398   5.142 -0.2632 -0.1455 -0.5709
 5255SOL    HW127224   2.799   0.369   5.097 -0.6891  1.2251 -0.6799
 5255SOL    HW227225   2.946   0.365   5.082 -0.0407  0.8661 -0.8720
 5256SOL     OW27226   2.100   4.158   3.607  0.0641 -0.2190 -0.0652
 5256SOL    HW127227   2.175   4.136   3.662 -0.9341  0.4251  1.5482
 5256SOL    HW227228   2.110   4.253   3.594  0.6045 -0.0307  1.6643
 5257SOL     OW27229   1.000   3.029  16.051 -0.1587  0.0461 -0.1345
 5257SOL    HW127230   1.071   3.052  16.111  1.4412 -1.2317 -1.5085
 5257SOL    HW227231   1.048   3.021  15.968  2.4730  0.9816  1.2826
 5258SOL     OW27232   0.082   2.160  17.449  0.2085  0.1198 -0.0719
 5258SOL    HW127233   0.117   2.238  17.492  0.4607 -2.2999  4.1188
 5258SOL    HW227234   4.708   2.151  17.467  1.1151 -2.4472  3.3905
 5259SOL     OW27235   1.613   0.073   2.187 -0.1910 -0.5556  0.4543
 5259SOL    HW127236   1.708   0.058   2.192  0.0540  0.8065 -0.3732
 5259SOL    HW227237   1.606   0.158   2.145 -1.5258 -1.1239 -0.4377
 5260SOL     OW27238   3.894   2.886   5.938 -0.3798 -0.0026  0.0766
 5260SOL    HW127239   3.866   2.834   6.013  0.8132  0.1994  0.6524
 5260SOL    HW227240   3.809   2.892   5.893  0.6126  1.4708 -1.5787
 5261SOL     OW27241   4.676   1.882   5.748 -0.0794 -0.0569  0.0489
 5261SOL    HW127242   4.594   1.849   5.710  0.3818  0.3286 -1.2593
 5261SOL    HW227243   4.638   1.963   5.784 -0.2205 -0.0350 -0.1490
 5262SOL     OW27244   4.704   2.308   3.619 -0.1149 -0.4335 -0.8233
 5262SOL    HW127245   0.037   2.385   3.641 -0.4731 -0.5192  0.3749
 5262SOL    HW227246   4.621   2.347   3.593 -1.0126 -1.5886  0.3273
 5263SOL     OW27247   3.577   2.821   2.295 -0.3930  0.0811 -0.0791
 5263SOL    HW127248   3.654   2.852   2.345 -1.7588  1.3273  1.2509
 5263SOL    HW227249   3.603   2.824   2.203 -0.4749 -1.5086 -0.1500
 5264SOL     OW27250   0.214   4.526   7.808  0.0166  0.3076  0.2296
 5264SOL    HW127251   0.200   4.537   7.714  1.6166 -1.2221 -0.1798
 5264SOL    HW227252   0.194   4.615   7.839 -1.1014  0.9650 -2.2986
 5265SOL     OW27253   0.596   2.601   4.723  0.0670  0.3222  0.0195
 5265SOL    HW127254   0.518   2.637   4.765 -1.1365 -2.5280  0.2189
 5265SOL    HW227255   0.644   2.561   4.795  0.7802  2.0000  0.4990
 5266SOL     OW27256   3.289   2.086  11.667  0.1467  0.1421  0.1625
 5266SOL    HW127257   3.359   2.025  11.642 -1.2531 -0.3599 -2.5342
 5266SOL    HW227258   3.211   2.045  11.631 -0.1826  0.0296  1.0148
 5267SOL     OW27259   0.543   1.354  11.034 -0.1030  0.3803 -0.0538
 5267SOL    HW127260   0.485   1.314  11.099 -1.7232  5.6530  1.7561
 5267SOL    HW227261   0.474   1.361  10.968 -0.9529  0.1170  0.8092
 5268SOL     OW27262   1.940   0.299   6.282 -0.5398  0.0206  0.6666
 5268SOL    HW127263   2.006   0.332   6.220  0.2315  0.7789  1.8768
 5268SOL    HW227264   1.988   0.227   6.323 -0.9372  1.1693  3.1992
 5269SOL     OW27265   0.325   3.130   1.744  0.2861  0.0392 -0.0328
 5269SOL    HW127266   0.389   3.199   1.762  3.4126 -2.2430 -2.3917
 5269SOL    HW227267   0.278   3.125   1.828  0.7544  0.4693  0.2564
 5270SOL     OW27268   1.655   3.140   1.541 -0.2482  0.0547 -0.4475
 5270SOL    HW127269   1.668   3.232   1.521 -1.9431  0.3970  0.0124
 5270SOL    HW227270   1.582   3.153   1.601 -0.3232 -0.0109 -0.5244
 5271SOL     OW27271   4.117   4.116   0.825  0.2535  0.1793  0.0665
 5271SOL    HW127272   4.135   4.191   0.768  0.9565 -0.5825 -0.7188
 5271SOL    HW227273   4.178   4.120   0.899  0.0534 -1.9996  0.3568
 5272SOL     OW27274   0.062   1.274  11.889  0.3573  1.2545  0.9576
 5272SOL    HW127275   0.036   1.325  11.812 -1.4466 -2.3780 -0.8275
 5272SOL    HW227276   4.703   1.223  11.909  2.0397 -2.3253 -1.6193
 5273SOL     OW27277   1.074   0.640  13.327 -0.1108  0.0145 -0.3929
 5273SOL    HW127278   1.083   0.594  13.243 -1.4334 -1.5245  0.3135
 5273SOL    HW227279   1.141   0.708  13.320  0.2116 -0.2449  0.2245
 5274SOL     OW27280   1.547   1.041  10.205 -0.1850  0.2689  0.7528
 5274SOL    HW127281   1.630   1.023  10.248 -0.3397 -0.4464  0.7551
 5274SOL    HW227282   1.528   1.117  10.260  3.6463  0.5347  1.7434
 5275SOL     OW27283   2.825   0.227   0.765  0.0619  0.3330 -0.9750
 5275SOL    HW127284   2.827   0.271   0.850 -1.5354 -1.5851  0.0371
 5275SOL    HW227285   2.867   0.144   0.786  0.3800  0.9629  0.8754
 5276SOL     OW27286   1.509   4.008   5.755 -0.1903  0.2231  0.0788
 5276SOL    HW127287   1.504   4.101   5.776 -1.5808  0.2031 -0.1448
 5276SOL    HW227288   1.531   4.018   5.662  1.6423 -0.7538  0.4129
 5277SOL     OW27289   4.613   0.913   4.503  0.1134  0.2545 -0.8731
 5277SOL    HW127290   4.530   0.877   4.472  1.0979 -0.9482 -2.1108
 5277SOL    HW227291   4.584   0.981   4.565  0.3999  0.3424 -0.8365
 5278SOL     OW27292   2.186   0.136   5.044  0.0060 -0.8336 -0.2400
 5278SOL    HW127293   2.104   0.091   5.062  0.1087 -0.5403  0.9667
 5278SOL    HW227294   2.237   0.113   5.122 -2.9275 -3.4269  0.8958
 5279SOL     OW27295   2.489   3.855   3.719  0.2328  0.0816 -0.1841
 5279SOL    HW127296   2.510   3.948   3.727 -2.4243  0.5251  1.6005
 5279SOL    HW227297   2.504   3.832   3.811  1.0544  0.4125 -0.2349
 5280SOL     OW27298   3.563   0.998  15.626 -0.4713  0.9663 -0.1141
 5280SOL    HW127299   3.600   0.956  15.704 -2.5838 -1.4331 -0.3931
 5280SOL    HW227300   3.620   0.960  15.558 -0.2298 -1.6432  1.5123
 5281SOL     OW27301   0.332   2.309   0.272  0.2477  0.0411  0.0361
 5281SOL    HW127302   0.356   2.401   0.284 -0.6589  0.1629  0.9198
 5281SOL    HW227303   0.249   2.309   0.320  0.1661  0.4846 -0.1018
 5282SOL     OW27304   1.344   0.343   6.972 -0.4548 -0.2431 -0.4836
 5282SOL    HW127305   1.260   0.299   6.960  0.9264 -3.3440  1.1535
 5282SOL    HW227306   1.357   0.368   6.881 -0.2943 -0.3460 -0.4884
 5283SOL     OW27307   2.472   2.302   2.356 -0.0173  0.1336  0.5523
 5283SOL    HW127308   2.559   2.281   2.323 -0.5734 -1.6639  0.2360
 5283SOL    HW227309   2.415   2.254   2.296 -1.5647  0.5547  1.6942
 5284SOL     OW27310   2.533   2.572   3.021  0.5741  0.2515  0.5777
 5284SOL    HW127311   2.515   2.609   2.934 -0.5108  0.0232  0.7079
 5284SOL    HW227312   2.572   2.647   3.066  0.2066  0.5893  0.3426
 5285SOL     OW27313   4.554   0.428   5.596 -0.6202 -0.3914 -0.0133
 5285SOL    HW127314   4.517   0.504   5.641 -2.7742 -2.7557  2.3027
 5285SOL    HW227315   4.644   0.456   5.583 -0.8967  0.7099  0.4907
 5286SOL     OW27316   1.860   3.443   6.582  0.1878  0.1142  0.0493
 5286SOL    HW127317   1.897   3.484   6.660 -0.4533  0.4004  0.2023
 5286SOL    HW227318   1.820   3.362   6.616  1.2631 -0.3637  0.1876
 5287SOL     OW27319   4.081   2.239   8.972  0.3709 -0.1986  0.6169
 5287SOL    HW127320   4.022   2.165   8.989 -1.2234  1.0534  0.5845
 5287SOL    HW227321   4.064   2.283   8.889  0.4216 -1.5588 -0.1016
 5288SOL     OW27322   3.899   0.802   7.203 -0.6893 -0.1555 -0.3331
 5288SOL    HW127323   3.966   0.811   7.135 -0.7391  2.2429 -0.0778
 5288SOL    HW227324   3.950   0.751   7.265 -2.4667 -0.0487  1.2058
 5289SOL     OW27325   1.333   3.998   4.688  0.4662 -0.3403 -0.1699
 5289SOL    HW127326   1.248   3.963   4.715  1.5366 -2.1214  0.8908
 5289SOL    HW227327   1.361   3.928   4.628 -1.4477 -0.4536 -0.9373
 5290SOL     OW27328   0.092   3.561   0.370  0.5492  0.1110 -0.5489
 5290SOL    HW127329   0.079   3.546   0.276 -2.2657  1.5683 -0.4014
 5290SOL    HW227330   0.064   3.476   0.404  2.0531 -0.5119 -0.8482
 5291SOL     OW27331   0.328   2.399   5.232  0.0893 -0.2750  0.0242
 5291SOL    HW127332   0.325   2.494   5.227  0.4665 -0.2031  1.0680
 5291SOL    HW227333   0.234   2.383   5.231  0.3461 -1.8271  0.3662
 5292SOL     OW27334   2.311   2.552   1.966 -0.0234 -0.2949  0.5228
 5292SOL    HW127335   2.361   2.607   2.026 -0.8184  2.1939 -1.0667
 5292SOL    HW227336   2.377   2.548   1.897 -1.2198 -0.0857 -0.6416
 5293SOL     OW27337   2.191   0.825   9.267  0.7811  0.0364  0.3281
 5293SOL    HW127338   2.233   0.742   9.246 -1.0429 -1.0222  0.8773
 5293SOL    HW227339   2.162   0.871   9.187  0.0096  0.5760  0.9138
 5294SOL     OW27340   3.589   1.170  11.933  0.0828  0.1091  0.8845
 5294SOL    HW127341   3.629   1.215  12.007 -0.0360  1.0456  0.3690
 5294SOL    HW227342   3.595   1.226  11.856  2.8704 -0.5367  0.6549
 5295SOL     OW27343   4.598   3.807  10.869 -0.1810 -0.1683  0.3137
 5295SOL    HW127344   4.596   3.735  10.932 -0.4238  0.6079  1.1879
 5295SOL    HW227345   4.549   3.777  10.792  0.4346 -1.3330  0.3796
 5296SOL     OW27346   4.343   0.101   6.347  0.2716 -0.3799  0.3495
 5296SOL    HW127347   4.322   0.158   6.273 -0.7540 -0.8637  0.2862
 5296SOL    HW227348   4.438   0.092   6.332  0.1737 -0.6733 -0.0833
 5297SOL     OW27349   4.264   3.394  10.675 -0.3022  0.2233 -0.2186
 5297SOL    HW127350   4.342   3.438  10.641 -0.1721 -0.4540 -0.7899
 5297SOL    HW227351   4.259   3.327  10.608 -1.2715  1.1716 -1.1039
 5298SOL     OW27352   4.293   1.478  13.848  0.2629  0.5420 -0.1723
 5298SOL    HW127353   4.332   1.432  13.922 -0.6226  2.0150  1.1984
 5298SOL    HW227354   4.363   1.472  13.782  1.4240 -1.2553  1.2214
 5299SOL     OW27355   2.819   0.798   0.114  0.4071  0.1611  0.4563
 5299SOL    HW127356   2.835   0.761   0.201 -0.8932  0.2187  0.7189
 5299SOL    HW227357   2.909   0.802   0.080  0.7039 -0.1416  1.1954
 5300SOL     OW27358   2.382   2.191   3.328  0.4328 -0.1257 -0.4533
 5300SOL    HW127359   2.418   2.273   3.294 -0.3829  0.1349 -0.6750
 5300SOL    HW227360   2.456   2.131   3.315 -1.4356 -2.3867 -0.6558
 5301SOL     OW27361   2.731   1.534   1.841  0.1451  0.0872  0.2010
 5301SOL    HW127362   2.760   1.469   1.777 -2.4926 -1.2671  0.4028
 5301SOL    HW227363   2.807   1.592   1.840 -0.6512  1.1510  0.9702
 5302SOL     OW27364   4.267   2.597   1.658  0.3102 -0.2238  0.1356
 5302SOL    HW127365   4.215   2.653   1.601  1.8486 -0.4111 -1.4585
 5302SOL    HW227366   4.204   2.575   1.727 -0.0532 -0.2172 -0.1988
 5303SOL     OW27367   0.526   2.741   8.069  0.1947 -0.5617  0.0611
 5303SOL    HW127368   0.565   2.684   8.135  1.3202  0.4747  0.2897
 5303SOL    HW227369   0.448   2.775   8.112  0.1224 -0.2435 -0.3202
 5304SOL     OW27370   0.648   3.011   2.263  0.4066  0.3235  0.1377
 5304SOL    HW127371   0.694   3.013   2.179  1.0282 -0.4760  0.4578
 5304SOL    HW227372   0.570   3.062   2.244 -0.3384 -1.1284 -0.7048
 5305SOL     OW27373   0.772   0.706   8.163  0.1018 -0.0526 -0.5073
 5305SOL    HW127374   0.842   0.756   8.206  0.9496  0.6127 -2.6565
 5305SOL    HW227375   0.806   0.685   8.076  1.0415 -0.4903 -0.0292
 5306SOL     OW27376   0.262   2.071   0.088 -0.4998  0.3279  0.7322
 5306SOL    HW127377   0.298   2.157   0.109 -0.0494  0.3632 -0.2016
 5306SOL    HW227378   0.286   2.058  17.677  0.7452  0.1565  1.0771
 5307SOL     OW27379   3.433   1.121   6.299  0.1656  0.4055  0.0446
 5307SOL    HW127380   3.366   1.103   6.365  0.2347  1.4242  0.3965
 5307SOL    HW227381   3.436   1.216   6.292  2.0088  0.1532 -2.6485
 5308SOL     OW27382   0.398   1.770   1.078 -0.0137 -0.4982 -0.5445
 5308SOL    HW127383   0.313   1.804   1.106 -0.5490 -2.0726 -0.2887
 5308SOL    HW227384   0.457   1.793   1.150 -1.7340 -2.3719  1.4683
 5309SOL     OW27385   2.132   0.384   6.121 -0.6126  0.3121  0.3013
 5309SOL    HW127386   2.204   0.414   6.177 -2.0055  1.8160  1.2765
 5309SOL    HW227387   2.132   0.451   6.053  2.1397 -1.1948 -1.2127
 5310SOL     OW27388   1.015   2.847  10.013  0.1924  0.0300 -0.3357
 5310SOL    HW127389   0.995   2.851  10.107  0.8186  0.3728 -0.2208
 5310SOL    HW227390   0.926   2.848   9.979  1.1685 -2.2896 -3.0280
 5311SOL     OW27391   3.670   0.522  15.953  0.0056 -0.2073  0.3861
 5311SOL    HW127392   3.736   0.480  15.898  0.6042  1.9924 -0.5620
 5311SOL    HW227393   3.589   0.514  15.902  0.1533  1.0896 -0.0359
 5312SOL     OW27394   1.598   3.706   3.743  0.3586 -0.1178 -0.3303
 5312SOL    HW127395   1.677   3.749   3.775 -0.1604  0.0692  0.7105
 5312SOL    HW227396   1.525   3.727   3.801 -1.3109  1.1977 -2.9304
 5313SOL     OW27397   3.486   3.442   6.405  0.8438 -0.7729  0.3022
 5313SOL    HW127398   3.526   3.485   6.329  1.9563  1.2208  2.0104
 5313SOL    HW227399   3.449   3.517   6.454 -1.3637 -0.7457 -1.3966
 5314SOL     OW27400   4.197   2.698   4.212 -0.3129 -0.1742  0.3468
 5314SOL    HW127401   4.269   2.762   4.205  0.3758 -0.9686  0.2171
 5314SOL    HW227402   4.233   2.629   4.156 -0.6331  0.4756 -0.6577
 5315SOL     OW27403   2.042   2.831   7.142  0.4092  0.4043 -0.0873
 5315SOL    HW127404   2.030   2.861   7.232  2.0631  2.9893 -0.7429
 5315SOL    HW227405   2.113   2.886   7.109 -0.1957  1.9128  1.1238
 5316SOL     OW27406   3.304   0.898   7.188  0.9165  0.0193 -0.3896
 5316SOL    HW127407   3.286   0.935   7.275  1.2879 -2.5784  0.8030
 5316SOL    HW227408   3.340   0.814   7.217  0.8415  0.6151  1.4590
 5317SOL     OW27409   1.406   1.711  14.953  0.0644 -0.3791  0.5759
 5317SOL    HW127410   1.455   1.793  14.956 -0.7149  0.2410 -3.0305
 5317SOL    HW227411   1.470   1.645  14.923 -1.1168 -0.3015 -2.1693
 5318SOL     OW27412   0.539   3.070   4.895 -0.2342  0.3578 -0.0704
 5318SOL    HW127413   0.581   2.998   4.847  1.6620  2.7296 -1.9375
 5318SOL    HW227414   0.619   3.111   4.928  0.1426 -0.1826 -0.3023
 5319SOL     OW27415   4.211   3.080   6.833 -0.1219  0.1001 -0.4249
 5319SOL    HW127416   4.129   3.091   6.880  0.7866 -1.5653  1.5493
 5319SOL    HW227417   4.248   3.165   6.859  0.3863 -0.7333  1.5701
 5320SOL     OW27418   4.038   1.958   2.874  0.2296  0.0915 -0.1602
 5320SOL    HW127419   3.983   1.926   2.945 -0.6483  1.3941 -0.2346
 5320SOL    HW227420   4.110   1.896   2.885 -0.6544 -0.9429 -0.1556
 5321SOL     OW27421   2.598   0.684   4.925 -0.5131  0.1972 -0.2514
 5321SOL    HW127422   2.588   0.738   4.847 -3.4649 -0.6474 -0.4476
 5321SOL    HW227423   2.671   0.738   4.956 -0.5940 -1.5667  2.9906
 5322SOL     OW27424   3.018   2.301   0.924  0.4551 -0.1085  0.3334
 5322SOL    HW127425   3.062   2.216   0.915  1.3226  0.4771 -0.8469
 5322SOL    HW227426   2.965   2.298   0.845  0.1179  0.9310  0.5193
 5323SOL     OW27427   1.336   2.077  15.288  0.0335  0.1752 -0.5052
 5323SOL    HW127428   1.321   2.122  15.205  0.3048  1.1406 -0.0424
 5323SOL    HW227429   1.251   2.040  15.309  0.9231 -0.8222  1.3367
 5324SOL     OW27430   3.336   3.235   4.046  0.4833 -0.5542 -0.3548
 5324SOL    HW127431   3.257   3.246   4.100  1.0402  1.9197 -0.0377
 5324SOL    HW227432   3.300   3.216   3.959  0.3380  1.0121 -0.6397
 5325SOL     OW27433   2.238   3.886   3.316 -0.0874  0.2091  0.3244
 5325SOL    HW127434   2.191   3.967   3.295 -0.5186 -0.5847 -1.7234
 5325SOL    HW227435   2.240   3.888   3.412 -1.6433 -3.2750  0.4344
 5326SOL     OW27436   2.137   1.099   6.710  0.0472  0.5653 -0.2870
 5326SOL    HW127437   2.103   1.098   6.800 -0.6282 -0.0208 -0.5514
 5326SOL    HW227438   2.141   1.195   6.706 -0.5442  0.6316  0.6027
 5327SOL     OW27439   0.859   2.836   9.471  0.3421  0.2130  0.2846
 5327SOL    HW127440   0.950   2.829   9.440  0.4749 -1.0100  0.9388
 5327SOL    HW227441   0.867   2.923   9.509  0.7089  0.6239 -0.7436
 5328SOL     OW27442   3.145   1.430   8.430  0.4234 -0.3375 -0.3158
 5328SOL    HW127443   3.076   1.429   8.364  2.1091 -1.0138 -2.0534
 5328SOL    HW227444   3.222   1.431   8.372 -0.5780 -0.7500 -1.6376
 5329SOL     OW27445   1.204   0.133  10.546  0.2780  0.1480 -0.5789
 5329SOL    HW127446   1.197   0.102  10.636 -1.4970  2.3513  0.0441
 5329SOL    HW227447   1.141   0.079  10.498  0.5607  0.9021 -1.8022
 5330SOL     OW27448   3.963   4.413  10.353 -0.1732  0.0699 -0.6291
 5330SOL    HW127449   3.982   4.488  10.297  1.8601 -1.6166 -2.2116
 5330SOL    HW227450   4.044   4.404  10.403  0.1156  1.1338 -0.9259
 5331SOL     OW27451   2.379   1.933   2.168  0.4324  0.2348 -0.0904
 5331SOL    HW127452   2.433   1.900   2.240  0.2896  1.4335  0.5808
 5331SOL    HW227453   2.417   1.886   2.094 -0.9147 -1.7003  0.4674
 5332SOL     OW27454   3.459   0.547   9.710  0.0629 -0.1605  0.0313
 5332SOL    HW127455   3.403   0.476   9.680  1.1900 -0.1745 -2.0940
 5332SOL    HW227456   3.545   0.505   9.713  0.2366  0.0494 -1.8757
 5333SOL     OW27457   3.869   4.537   2.435 -0.6014 -0.5907  0.1435
 5333SOL    HW127458   3.809   4.567   2.366 -0.7216  0.5818  0.7727
 5333SOL    HW227459   3.810   4.493   2.496 -0.2757  0.9296  1.5340
 5334SOL     OW27460   0.206   0.859   8.244  0.0507 -0.3577 -0.1531
 5334SOL    HW127461   0.295   0.889   8.258 -1.0078  1.3199  2.9721
 5334SOL    HW227462   0.213   0.855   8.149  2.5761  0.9001  0.0015
 5335SOL     OW27463   1.472   0.225  12.469 -0.1036  0.0699  0.1202
 5335SOL    HW127464   1.454   0.131  12.473 -2.4372  0.4694 -1.0803
 5335SOL    HW227465   1.568   0.228  12.470 -0.0586 -1.1064 -0.7200
 5336SOL     OW27466   2.132   2.549   7.102  0.5299 -0.2980  0.1770
 5336SOL    HW127467   2.077   2.487   7.149  0.2101 -0.2570 -0.1437
 5336SOL    HW227468   2.098   2.634   7.131  0.1456 -0.7056  0.9380
 5337SOL     OW27469   3.127   2.539   4.041  0.5699 -0.1940 -0.9030
 5337SOL    HW127470   3.080   2.464   4.005  1.2145  0.4275 -3.0315
 5337SOL    HW227471   3.064   2.567   4.108  0.3497 -0.3725 -1.0361
 5338SOL     OW27472   1.625   1.160   0.593  0.9021  0.1452 -0.0251
 5338SOL    HW127473   1.681   1.112   0.532 -0.3989  0.6641 -1.6219
 5338SOL    HW227474   1.639   1.106   0.670  2.7942 -0.5494 -0.8516
 5339SOL     OW27475   0.079   1.495   3.567  0.3217  0.3807  0.7888
 5339SOL    HW127476   0.041   1.566   3.515  0.8358  1.9811  2.5563
 5339SOL    HW227477   0.058   1.517   3.658 -1.6949 -4.4670  1.4488
 5340SOL     OW27478   0.932   1.041   7.574  0.0749  0.1529 -0.4075
 5340SOL    HW127479   0.922   1.050   7.479 -0.4324 -1.9857 -0.5718
 5340SOL    HW227480   0.936   0.945   7.583 -1.0270  0.1270 -0.1643
 5341SOL     OW27481   2.862   0.020  15.092  0.8108  0.0517 -0.0770
 5341SOL    HW127482   2.778   4.711  15.128 -0.1630  0.8247 -1.7617
 5341SOL    HW227483   2.858   4.715  14.999 -1.6766  0.5719 -0.0880
 5342SOL     OW27484   1.468   3.528   2.099 -0.1215  0.0806  0.2724
 5342SOL    HW127485   1.387   3.555   2.056 -0.4034  0.1093  0.8137
 5342SOL    HW227486   1.489   3.608   2.147 -0.2936  0.3825 -0.1613
 5343SOL     OW27487   2.821   3.884   9.642 -0.3311 -0.2796 -0.5056
 5343SOL    HW127488   2.783   3.911   9.558  0.2102  1.1618 -0.3001
 5343SOL    HW227489   2.782   3.952   9.697 -0.5034  0.0779 -1.0697
 5344SOL     OW27490   2.672   0.387   1.237 -0.2182  0.0092 -0.4061
 5344SOL    HW127491   2.630   0.467   1.205 -0.6029 -0.8626 -2.1091
 5344SOL    HW227492   2.598   0.327   1.247 -0.4375  0.6716  1.8208
 5345SOL     OW27493   2.969   2.750  17.578  0.1294 -0.0945 -0.3404
 5345SOL    HW127494   3.006   2.822  17.630 -0.0538  0.6407 -1.2172
 5345SOL    HW227495   3.043   2.696  17.551 -1.0360 -1.0246 -1.6680
 5346SOL     OW27496   4.356   0.932  14.220  0.0437  0.4071 -0.3955
 5346SOL    HW127497   4.434   0.877  14.208  0.4406  0.4844  1.8241
 5346SOL    HW227498   4.296   0.879  14.272  0.9565  0.1602  0.4087
 5347SOL     OW27499   2.728   4.096   2.253 -0.4847 -0.6172 -0.1887
 5347SOL    HW127500   2.665   4.164   2.276 -1.3575 -1.4462 -0.1300
 5347SOL    HW227501   2.810   4.140   2.275  0.9448 -1.8077 -3.0351
 5348SOL     OW27502   3.580   4.085  13.056 -0.2085  0.2494  0.0357
 5348SOL    HW127503   3.669   4.100  13.088  0.3017 -0.3186 -1.1002
 5348SOL    HW227504   3.587   4.082  12.961  1.2737  1.7132  0.1143
 5349SOL     OW27505   4.370   0.701   2.015  0.1214 -0.3093 -0.2098
 5349SOL    HW127506   4.406   0.790   2.019 -0.1787 -0.0948 -2.2768
 5349SOL    HW227507   4.433   0.665   1.952  1.2125 -0.1927  0.8092
 5350SOL     OW27508   0.754   3.742   5.025  0.3760 -0.2454 -0.3903
 5350SOL    HW127509   0.734   3.828   5.061 -2.3783 -1.8326  1.8124
 5350SOL    HW227510   0.713   3.758   4.940  2.2840 -0.0203 -1.2800
 5351SOL     OW27511   0.919   3.685   5.349 -0.0089  0.5327 -0.0885
 5351SOL    HW127512   0.935   3.618   5.415  2.2203  3.3665  2.3059
 5351SOL    HW227513   0.844   3.643   5.307  0.8739  0.6536 -1.7879
 5352SOL     OW27514   3.896   2.501  17.540  0.0761 -0.1091 -0.1527
 5352SOL    HW127515   3.873   2.524  17.450  0.5650  1.1455  0.0380
 5352SOL    HW227516   3.825   2.443  17.567 -0.3130 -0.0594 -1.0626
 5353SOL     OW27517   0.196   0.364   3.778 -0.6944  0.4292 -0.3095
 5353SOL    HW127518   0.108   0.402   3.781 -0.8028  0.2282 -1.1224
 5353SOL    HW227519   0.221   0.382   3.869 -3.0265 -0.1649  0.4511
 5354SOL     OW27520   2.721   4.293   9.925 -0.1640  0.4722  0.3453
 5354SOL    HW127521   2.667   4.371   9.931  1.3005  1.3270  2.3248
 5354SOL    HW227522   2.694   4.253  10.008 -0.9998 -0.3840 -0.3354
 5355SOL     OW27523   2.676   2.601   5.220  0.1376  0.0863  0.0961
 5355SOL    HW127524   2.667   2.606   5.315  0.9756 -2.1635  0.2948
 5355SOL    HW227525   2.588   2.573   5.192 -0.1335  1.4575 -0.4422
 5356SOL     OW27526   2.687   3.828   6.653 -0.0951 -0.1971 -0.7535
 5356SOL    HW127527   2.622   3.851   6.587 -0.5730 -0.3196 -0.3285
 5356SOL    HW227528   2.768   3.866   6.618  0.5631 -1.3565 -0.4719
 5357SOL     OW27529   3.089   0.395   7.051  0.0787 -0.4533  0.0586
 5357SOL    HW127530   3.031   0.465   7.082 -0.4175 -0.5859 -0.5784
 5357SOL    HW227531   3.060   0.329   7.114  0.3689 -2.2410 -1.7271
 5358SOL     OW27532   3.273   4.712  15.656 -0.2049 -0.1529 -0.0597
 5358SOL    HW127533   3.267   4.631  15.605 -0.9048  0.0251 -0.2647
 5358SOL    HW227534   3.190   0.032  15.627 -0.6802 -1.2006 -0.1187
 5359SOL     OW27535   3.006   1.851   7.257 -0.1653  0.0768  0.7887
 5359SOL    HW127536   3.041   1.934   7.289  1.3458 -0.4712  0.5933
 5359SOL    HW227537   2.936   1.880   7.199  0.1512 -0.4147  0.1525
 5360SOL     OW27538   0.128   4.336   4.932 -0.2756 -0.4153 -0.1051
 5360SOL    HW127539   0.088   4.331   4.845 -1.0410 -1.1521  0.2799
 5360SOL    HW227540   0.196   4.403   4.924  0.9277 -1.7448 -0.9488
 5361SOL     OW27541   4.012   3.873   3.603 -0.4799  0.1173 -0.3255
 5361SOL    HW127542   4.002   3.781   3.581  1.8100 -0.1570 -0.2511
 5361SOL    HW227543   4.074   3.862   3.675  0.0250 -1.4387 -0.9998
 5362SOL     OW27544   0.452   3.305   1.230  0.5105  0.2065  0.0567
 5362SOL    HW127545   0.413   3.385   1.267 -0.3737 -1.1097  2.0143
 5362SOL    HW227546   0.422   3.234   1.288  1.3163 -0.0816  0.1271
 5363SOL     OW27547   1.504   1.163   1.458 -0.4373 -0.2989 -0.3795
 5363SOL    HW127548   1.547   1.233   1.508 -1.7021 -0.3808  0.7927
 5363SOL    HW227549   1.489   1.106   1.533 -0.7653 -1.6149 -1.4400
 5364SOL     OW27550   3.104   2.322  15.908  0.5133  0.0038 -0.2236
 5364SOL    HW127551   3.183   2.377  15.914 -0.3409  0.9878  2.0350
 5364SOL    HW227552   3.134   2.233  15.925 -1.0869 -0.4613  0.0933
 5365SOL     OW27553   2.017   1.729   2.433  0.1847 -0.2143 -0.4521
 5365SOL    HW127554   1.991   1.668   2.364  1.2835 -1.0534 -0.1184
 5365SOL    HW227555   2.097   1.762   2.394 -0.2750  1.3455 -0.0543
 5366SOL     OW27556   0.322   0.170   7.520  0.1252 -0.2650 -0.4391
 5366SOL    HW127557   0.293   0.147   7.431  0.6956 -4.0595  0.3957
 5366SOL    HW227558   0.235   0.187   7.556  1.1896  2.5062  0.8192
 5367SOL     OW27559   4.003   0.599   5.703 -0.1961  0.4466 -0.1775
 5367SOL    HW127560   4.047   0.589   5.618  0.0692  0.8484 -0.0901
 5367SOL    HW227561   4.022   0.523   5.757 -0.6702 -1.0722 -2.1506
 5368SOL     OW27562   0.428   0.291   4.155 -0.4421  0.2126 -0.2981
 5368SOL    HW127563   0.353   0.301   4.095 -0.3543  0.8088 -0.3008
 5368SOL    HW227564   0.489   0.242   4.100  0.4720  0.1138  0.8166
 5369SOL     OW27565   1.608   4.414   4.094 -0.1955  0.0969 -0.5047
 5369SOL    HW127566   1.520   4.411   4.131 -1.6844  1.2065 -3.9066
 5369SOL    HW227567   1.591   4.454   4.008  0.4793 -1.8116 -1.5196
 5370SOL     OW27568   1.039   1.461   6.262  0.2163  0.4924  0.0332
 5370SOL    HW127569   1.111   1.450   6.324  0.9404  1.4548 -0.6424
 5370SOL    HW227570   1.082   1.435   6.181  1.8774 -0.2878  1.1632
 5371SOL     OW27571   2.315   3.789   0.541  0.1769  0.5411 -0.5126
 5371SOL    HW127572   2.366   3.848   0.485  1.4563  1.5241  1.7136
 5371SOL    HW227573   2.394   3.746   0.574  0.1628  1.2080  0.3732
 5372SOL     OW27574   2.506   1.698   2.817 -0.4639 -0.2251  0.6207
 5372SOL    HW127575   2.432   1.685   2.877 -0.9939  2.2616  0.4997
 5372SOL    HW227576   2.470   1.772   2.768  1.7816  0.2716 -0.2864
 5373SOL     OW27577   1.623   3.222   0.889 -0.3485  0.1850  0.4001
 5373SOL    HW127578   1.632   3.224   0.794  1.8060 -0.2042  0.5835
 5373SOL    HW227579   1.674   3.142   0.904 -1.5652 -0.9820 -1.6854
 5374SOL     OW27580   1.853   0.173   6.863  0.1392  0.2304 -0.5273
 5374SOL    HW127581   1.944   0.143   6.861 -0.1726 -0.7786 -0.1298
 5374SOL    HW227582   1.842   0.200   6.954  0.3730 -1.1136 -0.0867
 5375SOL     OW27583   2.706   2.048  11.473  0.0271  0.0905 -0.4770
 5375SOL    HW127584   2.779   2.109  11.460 -1.4561  1.9099 -0.1396
 5375SOL    HW227585   2.745   1.983  11.531 -1.7298 -0.4968  0.0240
 5376SOL     OW27586   3.390   2.286   3.122 -0.3239 -0.7082 -0.0566
 5376SOL    HW127587   3.373   2.212   3.180 -0.7828  1.2995  2.3776
 5376SOL    HW227588   3.478   2.311   3.151 -0.3228  0.8085 -1.3938
 5377SOL     OW27589   4.061   1.029   3.766 -0.1893 -0.1814 -0.1580
 5377SOL    HW127590   4.031   0.991   3.849  3.0229 -1.7240  0.3014
 5377SOL    HW227591   4.000   1.103   3.760 -1.8126 -1.4108  0.9883
 5378SOL     OW27592   4.561   0.924   2.904  0.1250 -0.4871 -0.3487
 5378SOL    HW127593   4.490   0.889   2.851 -0.2105 -1.7557  0.9412
 5378SOL    HW227594   4.624   0.855   2.885  2.1297  0.9602  1.0528
 5379SOL     OW27595   2.623   3.097  15.765 -0.4514  0.4659  0.2291
 5379SOL    HW127596   2.666   3.088  15.850 -0.7726  0.1131  0.3535
 5379SOL    HW227597   2.671   3.172  15.731  3.0696 -2.1165 -0.5237
 5380SOL     OW27598   1.459   0.713   6.543 -0.4922  0.3894 -0.0770
 5380SOL    HW127599   1.438   0.624   6.514  1.5013 -0.2264  0.3741
 5380SOL    HW227600   1.403   0.708   6.620  0.9155 -0.8947  0.8516
 5381SOL     OW27601   4.402   0.171  11.348  0.7163 -0.0835 -0.1350
 5381SOL    HW127602   4.418   0.133  11.262 -0.3408  1.5960 -1.0810
 5381SOL    HW227603   4.490   0.194  11.379 -0.0011  0.2254  1.6951
 5382SOL     OW27604   2.785   2.187   4.236  0.3626 -0.4472  0.1005
 5382SOL    HW127605   2.838   2.110   4.217  1.1234  0.1040 -0.0109
 5382SOL    HW227606   2.699   2.149   4.220  0.5262 -0.4741 -0.7228
 5383SOL     OW27607   3.405   1.359   4.902  0.0430 -0.2569 -0.4289
 5383SOL    HW127608   3.447   1.274   4.915  0.5114 -0.0266 -0.4384
 5383SOL    HW227609   3.434   1.409   4.978  0.0666 -1.0795  0.1052
 5384SOL     OW27610   2.061   1.241  14.670  0.3695  0.1042 -0.5806
 5384SOL    HW127611   2.156   1.234  14.672  0.4520  1.5682  0.2225
 5384SOL    HW227612   2.042   1.294  14.747 -1.6771 -1.0801 -0.2685
 5385SOL     OW27613   0.619   4.506  10.694  0.8445  0.9297 -0.4901
 5385SOL    HW127614   0.534   4.547  10.712  0.0910 -0.4123 -1.0510
 5385SOL    HW227615   0.614   4.430  10.752 -1.8279 -0.2033 -2.2179
 5386SOL     OW27616   2.012   4.551   8.127  0.6474 -0.5559 -0.5337
 5386SOL    HW127617   2.024   4.557   8.032  1.4029 -2.0872 -0.5437
 5386SOL    HW227618   2.062   4.631   8.145  0.8004 -0.6038 -0.7387
 5387SOL     OW27619   0.294   4.258   4.628 -0.0646 -0.0259 -0.4846
 5387SOL    HW127620   0.263   4.186   4.683  0.2912  1.0148  1.0896
 5387SOL    HW227621   0.385   4.267   4.654 -0.5965 -0.2363  1.4962
 5388SOL     OW27622   1.046   2.686  13.110 -0.2842  0.5383 -0.1788
 5388SOL    HW127623   0.982   2.635  13.160  3.1565 -1.6794  1.9548
 5388SOL    HW227624   1.007   2.705  13.024 -0.5397  2.0951  0.2788
 5389SOL     OW27625   0.866   2.290   6.323  0.2285  0.0880  0.8842
 5389SOL    HW127626   0.807   2.338   6.381  0.0967  1.3265 -0.2629
 5389SOL    HW227627   0.885   2.204   6.359 -1.8005 -0.4647  0.6204
 5390SOL     OW27628   2.730   2.898   7.008  0.2267 -0.0984 -0.0887
 5390SOL    HW127629   2.758   2.824   7.061 -0.5796  0.5347  1.2080
 5390SOL    HW227630   2.788   2.894   6.932  1.3758 -0.3065  0.8154
 5391SOL     OW27631   4.634   2.515   5.780  0.5990  0.6399 -0.2234
 5391SOL    HW127632   4.578   2.520   5.702  1.8553 -1.1472 -1.2502
 5391SOL    HW227633   4.681   2.432   5.767 -0.9967 -0.5805  1.8116
 5392SOL     OW27634   1.439   0.179   9.055 -0.1878  0.4342  0.0449
 5392SOL    HW127635   1.518   0.233   9.048  1.3209 -1.7231  0.6392
 5392SOL    HW227636   1.480   0.099   9.022  0.7993  1.2095 -0.6068
 5393SOL     OW27637   3.692   2.306   7.776 -0.2395 -0.2336 -0.4492
 5393SOL    HW127638   3.776   2.299   7.729 -0.1398 -1.5169 -0.0807
 5393SOL    HW227639   3.683   2.213   7.795 -2.0674  0.3609  1.4888
 5394SOL     OW27640   1.312   3.806   7.109  0.0403  0.0212 -0.0663
 5394SOL    HW127641   1.232   3.777   7.065 -0.3157  0.1173  0.5089
 5394SOL    HW227642   1.291   3.783   7.199 -3.1211 -1.4502 -1.1745
 5395SOL     OW27643   4.263   3.098   6.242 -0.0770  0.3524  0.2324
 5395SOL    HW127644   4.261   3.094   6.338 -2.3864  1.0651  0.2211
 5395SOL    HW227645   4.356   3.080   6.236  0.1003  1.2779  0.2568
 5396SOL     OW27646   2.233   0.951   1.676  0.1373  0.0576  0.9785
 5396SOL    HW127647   2.180   1.019   1.718 -3.8362 -2.1086 -0.6239
 5396SOL    HW227648   2.317   0.962   1.721 -0.5732 -0.2654  2.3600
 5397SOL     OW27649   0.276   3.034   9.340  0.0575  0.3908 -0.3847
 5397SOL    HW127650   0.268   3.029   9.245 -2.5064 -1.3563 -0.0698
 5397SOL    HW227651   0.281   2.940   9.356  1.1436  0.5892  0.5042
 5398SOL     OW27652   3.262   1.176   6.747 -0.4224  0.0991  0.2431
 5398SOL    HW127653   3.249   1.103   6.808 -0.2238 -0.5509 -0.4904
 5398SOL    HW227654   3.341   1.212   6.788 -0.0331 -0.3721 -0.0877
 5399SOL     OW27655   1.900   2.707   3.164  0.3753  0.0270 -0.3001
 5399SOL    HW127656   1.920   2.659   3.084  1.5882  0.5231 -0.2907
 5399SOL    HW227657   1.891   2.636   3.227  0.1012  1.2435  1.0496
 5400SOL     OW27658   3.531   3.473   3.426 -0.3904  0.2670 -0.4518
 5400SOL    HW127659   3.595   3.542   3.441  1.3812 -1.1490 -1.5339
 5400SOL    HW227660   3.579   3.423   3.360 -1.3707 -0.5190 -0.5767
 5401SOL     OW27661   0.689   1.269   2.352 -0.6935  0.3352  0.2812
 5401SOL    HW127662   0.605   1.231   2.377 -0.6599 -0.2741 -0.5603
 5401SOL    HW227663   0.660   1.357   2.374  1.3343  1.3480 -1.1528
 5402SOL     OW27664   4.432   4.204   4.190  0.2400  0.6419 -0.0557
 5402SOL    HW127665   4.376   4.166   4.257 -0.4871  0.6999 -0.6282
 5402SOL    HW227666   4.517   4.168   4.218 -0.8620 -0.5698  1.6789
 5403SOL     OW27667   2.504   0.952   4.094  0.1883  0.5766 -0.0419
 5403SOL    HW127668   2.484   0.931   4.185  2.8241  1.7483  0.7988
 5403SOL    HW227669   2.499   1.047   4.098  1.3269  0.5893  1.0967
 5404SOL     OW27670   0.221   1.989   0.411 -0.3923  0.5765  0.3751
 5404SOL    HW127671   0.196   1.911   0.461  0.4860  0.4777  0.6676
 5404SOL    HW227672   0.240   1.955   0.324  2.4324  0.6438  0.9597
 5405SOL     OW27673   0.246   1.880   9.730 -0.7012  0.6848 -0.1677
 5405SOL    HW127674   0.203   1.900   9.647 -1.8909 -2.8615 -0.4094
 5405SOL    HW227675   0.177   1.871   9.796 -1.7020 -0.1031 -1.3091
 5406SOL     OW27676   1.854   2.708  16.014 -0.6961 -0.2741 -0.1047
 5406SOL    HW127677   1.811   2.683  15.932 -1.8116 -0.8384  0.6543
 5406SOL    HW227678   1.784   2.766  16.043 -1.4887 -1.7311  0.9304
 5407SOL     OW27679   1.829   0.239  17.180  0.0889  0.0692 -0.4878
 5407SOL    HW127680   1.800   0.323  17.217  1.3703 -0.3206  1.3799
 5407SOL    HW227681   1.913   0.233  17.224  0.1054 -0.0220 -0.5332
 5408SOL     OW27682   4.661   4.527   1.768  0.0944 -0.2448  0.0684
 5408SOL    HW127683   0.023   4.480   1.788 -0.3270 -2.3430 -3.1599
 5408SOL    HW227684   4.693   4.580   1.695 -1.3195  0.1243 -0.2806
 5409SOL     OW27685   4.136   2.005  16.417 -0.3511 -0.3242  0.0773
 5409SOL    HW127686   4.228   1.980  16.411 -0.1800  0.7940 -2.0366
 5409SOL    HW227687   4.119   2.027  16.325  0.4084 -0.7341 -0.1555
 5410SOL     OW27688   1.010   2.428   5.275  0.1934  0.1236 -0.2678
 5410SOL    HW127689   1.015   2.333   5.260  0.9534 -0.4246  3.3952
 5410SOL    HW227690   0.916   2.419   5.284  0.2092  0.6226  0.3925
 5411SOL     OW27691   1.251   3.445  16.714  0.3416 -0.1557  0.2498
 5411SOL    HW127692   1.333   3.449  16.763  1.1329  2.6027 -1.3052
 5411SOL    HW227693   1.266   3.363  16.666  0.4775  1.2398 -2.0679
 5412SOL     OW27694   4.420   2.987   3.352 -0.6431  0.5895 -0.2257
 5412SOL    HW127695   4.410   3.064   3.408  0.7850  0.5018  0.1430
 5412SOL    HW227696   4.416   3.032   3.267 -0.1272  0.1182 -0.4977
 5413SOL     OW27697   3.163   1.698  10.543  0.4061 -0.2360  0.4284
 5413SOL    HW127698   3.086   1.684  10.488  0.9576  0.3013 -0.4812
 5413SOL    HW227699   3.232   1.704  10.476 -0.0709 -1.8916 -0.2067
 5414SOL     OW27700   1.581   1.772   0.218 -0.1515  0.6547 -0.1713
 5414SOL    HW127701   1.584   1.744   0.309  0.7007  3.7328  0.7486
 5414SOL    HW227702   1.666   1.736   0.193 -0.1143  1.2905 -0.9666
 5415SOL     OW27703   0.755   0.106   4.913  0.3414  0.1708  0.2542
 5415SOL    HW127704   0.811   0.069   4.845 -0.6549  1.6197 -1.3778
 5415SOL    HW227705   0.825   0.137   4.971  1.1423 -0.3361 -0.4488
 5416SOL     OW27706   2.988   2.699   2.347  0.5362 -0.3511  0.3988
 5416SOL    HW127707   2.973   2.741   2.432 -0.0171 -1.5316  0.8756
 5416SOL    HW227708   3.031   2.768   2.296 -2.0345  1.4146  0.6339
 5417SOL     OW27709   0.712   4.086   4.460  0.0287  0.1845 -0.4000
 5417SOL    HW127710   0.688   4.104   4.370 -0.9402  0.3426 -0.1101
 5417SOL    HW227711   0.758   4.002   4.461  0.9795  0.7161  0.8338
 5418SOL     OW27712   1.867   4.366   2.719 -0.0296  0.2193  0.4249
 5418SOL    HW127713   1.822   4.409   2.792  1.0819  0.1677  1.1352
 5418SOL    HW227714   1.961   4.375   2.736  0.1088 -1.9270  0.8703
 5419SOL     OW27715   2.146   2.010   1.852  0.5992 -0.1158 -0.7614
 5419SOL    HW127716   2.144   2.049   1.765 -1.5887  0.5528 -0.4186
 5419SOL    HW227717   2.217   2.065   1.886  1.1518 -0.6084 -1.1311
 5420SOL     OW27718   4.234   1.170   2.295  0.8997  0.1829  0.0432
 5420SOL    HW127719   4.322   1.195   2.269 -0.3266  3.4492 -0.9012
 5420SOL    HW227720   4.236   1.075   2.306 -0.3591  0.1775  0.2429
 5421SOL     OW27721   2.707   0.572   5.679 -0.5222 -0.3263  0.3750
 5421SOL    HW127722   2.685   0.665   5.674 -0.2501 -0.4388 -3.3725
 5421SOL    HW227723   2.641   0.538   5.619 -1.0751 -3.6355  2.9095
 5422SOL     OW27724   4.656   0.008   4.816 -0.6553 -0.0226 -0.1152
 5422SOL    HW127725   4.703   0.064   4.879 -1.3994  0.9238 -0.3954
 5422SOL    HW227726   4.615   4.666   4.877 -1.3088  0.7335  0.2135
 5423SOL     OW27727   1.715   3.388  10.288  0.2861 -0.0417  0.1093
 5423SOL    HW127728   1.631   3.434  10.290 -0.0603 -0.6714  0.2081
 5423SOL    HW227729   1.684   3.298  10.302 -1.4439  0.2428 -1.9500
 5424SOL     OW27730   1.043   0.750   0.347  0.5788 -0.0397  0.2492
 5424SOL    HW127731   1.082   0.800   0.275 -0.7641 -0.5119 -0.8079
 5424SOL    HW227732   1.110   0.760   0.414  2.5480  0.6502 -1.8328
 5425SOL     OW27733   3.981   1.944  16.634 -0.3089 -0.6041  0.1311
 5425SOL    HW127734   4.033   1.908  16.706  1.9940  1.6675 -0.3909
 5425SOL    HW227735   4.041   1.962  16.561 -0.3331 -1.2382 -0.0457
 5426SOL     OW27736   0.275   3.409   3.063 -0.1613 -0.2050  0.3786
 5426SOL    HW127737   0.308   3.393   3.151 -0.8428 -2.4831  0.2189
 5426SOL    HW227738   0.275   3.321   3.024  1.4469 -0.9972  2.1597
 5427SOL     OW27739   1.856   4.323   4.111  0.0951  0.2114  0.3752
 5427SOL    HW127740   1.895   4.333   4.025  0.1320  1.0638  0.4948
 5427SOL    HW227741   1.773   4.365   4.088  0.1269  0.5841  0.9331
 5428SOL     OW27742   2.051   2.256   4.430 -0.4980 -0.2848  0.1076
 5428SOL    HW127743   2.082   2.344   4.407  0.7834 -0.3089  1.6691
 5428SOL    HW227744   1.961   2.246   4.400 -0.0943  0.2623 -1.3143
 5429SOL     OW27745   0.024   3.899   8.829  0.3425  0.2176 -0.0162
 5429SOL    HW127746   0.069   3.936   8.905 -1.3288  0.9797  0.5958
 5429SOL    HW227747   0.073   3.937   8.756  3.4706 -0.2195  1.8774
 5430SOL     OW27748   0.476   0.686   3.551  0.2304 -0.3076 -0.4945
 5430SOL    HW127749   0.389   0.662   3.518  0.5645 -1.8977 -0.2447
 5430SOL    HW227750   0.529   0.606   3.543 -0.2382 -0.6490 -0.1898
 5431SOL     OW27751   3.581   4.199   6.069  0.3382  0.1260  0.1072
 5431SOL    HW127752   3.579   4.111   6.106  0.9494  0.5661  1.2033
 5431SOL    HW227753   3.662   4.186   6.020  0.8490  0.9847  0.7177
 5432SOL     OW27754   4.703   3.761  14.952 -0.2776 -0.1708 -0.3673
 5432SOL    HW127755   0.045   3.739  15.022 -0.2239 -1.1798 -0.7288
 5432SOL    HW227756   0.031   3.720  14.879 -0.5275 -0.7421 -0.2024
 5433SOL     OW27757   4.650   4.640   3.129  0.1574  0.1204 -0.4171
 5433SOL    HW127758   0.010   4.588   3.116  0.0047 -0.4312  0.8990
 5433SOL    HW227759   4.664   4.670   3.218  0.4712  0.1881 -0.4885
 5434SOL     OW27760   1.419   1.357  16.725  0.8010 -0.0430  0.0536
 5434SOL    HW127761   1.421   1.370  16.630 -2.5699 -1.0960 -0.1610
 5434SOL    HW227762   1.500   1.405  16.743 -0.2146  2.0636 -0.9672
 5435SOL     OW27763   1.584   4.669   8.020 -0.0981 -0.1327  0.1442
 5435SOL    HW127764   1.603   4.644   8.111  1.7570  1.9492  0.3294
 5435SOL    HW227765   1.615   0.040   8.016 -1.1327  0.2351  0.4161
 5436SOL     OW27766   1.090   1.148  10.298 -0.0923  0.1727  0.4611
 5436SOL    HW127767   1.068   1.160  10.206 -0.3385  2.2641  0.7854
 5436SOL    HW227768   1.183   1.172  10.298 -0.0880  0.1648  0.9489
 5437SOL     OW27769   2.714   4.431   2.771 -0.1903  0.2581  0.2222
 5437SOL    HW127770   2.794   4.385   2.744 -0.5434  0.4891 -1.1793
 5437SOL    HW227771   2.724   4.441   2.866 -1.5954 -2.5868  0.6788
 5438SOL     OW27772   4.677   4.491   8.915 -0.4880  0.5708  0.4308
 5438SOL    HW127773   0.053   4.497   8.913 -0.4560  0.0115  0.2811
 5438SOL    HW227774   4.673   4.396   8.911  0.2688  0.6262 -1.7896
 5439SOL     OW27775   3.972   3.328  15.393 -0.4980  0.7861  0.4657
 5439SOL    HW127776   3.883   3.355  15.369 -1.0510 -0.4454  1.1215
 5439SOL    HW227777   4.001   3.291  15.310 -1.0559  0.2206  0.5194
 5440SOL     OW27778   1.641   0.393   8.333  0.2966  0.0437  0.1317
 5440SOL    HW127779   1.599   0.425   8.413 -0.2422 -2.6216  0.9244
 5440SOL    HW227780   1.683   0.471   8.298  1.4430 -2.0292 -3.1565
 5441SOL     OW27781   0.719   4.187   1.028  0.2801  0.6577 -0.3056
 5441SOL    HW127782   0.802   4.224   0.999  1.2675  0.3116  2.0860
 5441SOL    HW227783   0.749   4.097   1.041 -1.0104  0.2761  0.0067
 5442SOL     OW27784   4.159   1.465   8.034  0.4859 -0.5977 -0.0311
 5442SOL    HW127785   4.237   1.415   8.011  1.2582  0.1692  0.9731
 5442SOL    HW227786   4.099   1.390   8.029  0.4343 -0.5233 -0.5542
 5443SOL     OW27787   0.815   3.738   3.538 -0.7929  0.0819 -0.0904
 5443SOL    HW127788   0.804   3.829   3.510  1.2916 -0.7454 -3.5031
 5443SOL    HW227789   0.739   3.730   3.595 -0.1916 -0.4230  0.6445
 5444SOL     OW27790   1.543   4.416  16.279  0.3535 -0.4486  0.3191
 5444SOL    HW127791   1.526   4.463  16.198 -1.5807  1.5626  1.8535
 5444SOL    HW227792   1.634   4.387  16.280  0.4282 -0.1898  1.8347
 5445SOL     OW27793   1.637   2.274  16.254  0.5646  0.3986  0.2380
 5445SOL    HW127794   1.570   2.328  16.297 -0.1652  1.6748 -2.4567
 5445SOL    HW227795   1.674   2.336  16.191 -0.9033 -1.1290 -2.0983
 5446SOL     OW27796   1.341   3.128   8.290 -0.1670  0.1792 -0.3415
 5446SOL    HW127797   1.330   3.138   8.196 -2.3439 -1.0726 -0.2171
 5446SOL    HW227798   1.285   3.052   8.308  1.9002 -1.2216  0.1663
 5447SOL     OW27799   2.646   2.348   5.553 -0.0489 -0.2059  0.2625
 5447SOL    HW127800   2.571   2.329   5.609 -0.1644  1.3169  0.6237
 5447SOL    HW227801   2.646   2.444   5.551 -0.8605 -0.2265 -0.7154
 5448SOL     OW27802   2.986   4.228  15.731 -0.1373  0.0469  0.5447
 5448SOL    HW127803   2.933   4.157  15.695  0.1189 -0.0113  0.2781
 5448SOL    HW227804   3.011   4.189  15.815  3.2460  0.5335 -0.2171
 5449SOL     OW27805   3.920   2.578   6.138  0.0388 -0.1454  0.7840
 5449SOL    HW127806   3.973   2.655   6.159  1.3794 -0.9340  0.2691
 5449SOL    HW227807   3.932   2.526   6.217 -0.5231 -0.5293  0.6228
 5450SOL     OW27808   0.641   2.728   0.216 -0.5111  0.6103 -0.1868
 5450SOL    HW127809   0.691   2.674   0.155  0.3480  0.2814  0.8091
 5450SOL    HW227810   0.704   2.741   0.287 -1.7752  0.2249  0.9931
 5451SOL     OW27811   1.667   1.701  14.367 -0.1867  0.2890  0.3416
 5451SOL    HW127812   1.723   1.779  14.366 -0.3171  0.3813  0.2001
 5451SOL    HW227813   1.694   1.658  14.448  0.5769  1.0335  0.4888
 5452SOL     OW27814   3.128   2.838  14.320 -0.2226  0.2709  0.6704
 5452SOL    HW127815   3.136   2.866  14.411 -0.1864  0.4456  0.6138
 5452SOL    HW227816   3.153   2.746  14.323  0.0620  0.2798 -1.0085
 5453SOL     OW27817   0.910   3.908  15.759 -0.2549 -0.3132  0.3336
 5453SOL    HW127818   0.845   3.851  15.716 -0.4702 -1.8418  2.7056
 5453SOL    HW227819   0.933   3.858  15.836 -1.5061 -0.1190  0.8406
 5454SOL     OW27820   2.696   3.177   6.145  0.1800  0.2718  0.0415
 5454SOL    HW127821   2.731   3.155   6.231  0.5991 -0.2955 -0.2732
 5454SOL    HW227822   2.772   3.188   6.087  1.7857  0.1286  2.1421
 5455SOL     OW27823   1.489   4.059  13.767  0.0619 -0.1173  0.0170
 5455SOL    HW127824   1.458   4.138  13.722  1.7023  0.0517 -0.8188
 5455SOL    HW227825   1.445   4.051  13.852 -0.4463 -1.4212 -0.3777
 5456SOL     OW27826   4.707   4.622   3.755  0.5760 -0.1529 -0.2550
 5456SOL    HW127827   0.003   4.688   3.688  1.1006 -0.2671 -0.2481
 5456SOL    HW227828   4.673   4.545   3.710 -0.8192  1.1699 -1.4364
 5457SOL     OW27829   0.515   1.829  17.348 -0.9729 -0.1766 -0.5445
 5457SOL    HW127830   0.566   1.749  17.335  0.4192  0.9996 -2.4357
 5457SOL    HW227831   0.454   1.824  17.274 -1.0728 -1.5802 -0.3760
 5458SOL     OW27832   2.696   2.679   7.366  0.0100  0.4260  0.4540
 5458SOL    HW127833   2.683   2.749   7.430 -0.6165  0.5715  0.1608
 5458SOL    HW227834   2.713   2.613   7.434 -0.3783 -0.5154 -0.3549
 5459SOL     OW27835   3.148   4.199   0.508 -0.3441  0.6511  0.5191
 5459SOL    HW127836   3.178   4.251   0.582  0.0157  0.4487  0.5151
 5459SOL    HW227837   3.075   4.254   0.479 -0.9528 -0.7665 -0.5994
 5460SOL     OW27838   2.586   3.052  11.495  0.2647 -0.5963  0.0987
 5460SOL    HW127839   2.516   3.019  11.438  0.6213 -1.8701  0.3952
 5460SOL    HW227840   2.654   2.987  11.475  0.1527 -0.1697 -1.6621
 5461SOL     OW27841   2.910   4.561  16.670 -0.4123 -0.0789 -0.5776
 5461SOL    HW127842   2.923   4.613  16.591 -0.5026  1.7043  0.5696
 5461SOL    HW227843   2.880   4.478  16.633 -1.1754 -0.2923  0.4951
 5462SOL     OW27844   0.621   1.583   3.383 -0.1790 -0.3485 -0.1551
 5462SOL    HW127845   0.592   1.674   3.370  0.2885 -0.1418  0.2514
 5462SOL    HW227846   0.613   1.528   3.305  0.1951 -0.3130 -0.2184
 5463SOL     OW27847   4.602   4.525   3.467 -0.1416  0.5582  0.0901
 5463SOL    HW127848   4.538   4.561   3.406 -1.0839 -2.5330 -0.7185
 5463SOL    HW227849   4.567   4.442   3.499  3.5478  0.2075  3.2735
 5464SOL     OW27850   2.859   2.096   7.943 -0.1711 -0.1778 -0.0748
 5464SOL    HW127851   2.839   2.043   8.020  0.8237 -0.0410  0.2789
 5464SOL    HW227852   2.927   2.155   7.976 -0.0753  1.0731 -2.5171
 5465SOL     OW27853   2.622   4.593  14.575 -0.1599  0.2089 -0.7166
 5465SOL    HW127854   2.557   4.653  14.539 -2.8684 -1.1849  1.8815
 5465SOL    HW227855   2.676   4.572  14.499  3.3089  0.4318  1.6954
 5466SOL     OW27856   3.339   0.214   8.941 -0.4831  0.0733 -0.0456
 5466SOL    HW127857   3.369   0.263   9.017 -0.9444  0.7226 -0.2887
 5466SOL    HW227858   3.244   0.220   8.951 -0.7615 -0.1536 -2.5731
 5467SOL     OW27859   0.203   0.768   6.249  0.2852 -0.3586  0.2188
 5467SOL    HW127860   0.264   0.793   6.318  1.3238 -0.5090 -0.6396
 5467SOL    HW227861   0.265   0.725   6.190  1.1589  0.3877  0.5844
 5468SOL     OW27862   0.662   0.391  10.748 -0.4442  0.3260  1.1388
 5468SOL    HW127863   0.674   0.442  10.668 -0.1063 -0.1102  0.9144
 5468SOL    HW227864   0.582   0.429  10.785 -0.7053  0.5555  0.3360
 5469SOL     OW27865   0.270   0.363   9.064 -0.1657  0.7734  0.2542
 5469SOL    HW127866   0.184   0.386   9.027  1.7545  3.0371 -2.7644
 5469SOL    HW227867   0.283   0.272   9.039 -1.0040  1.0561 -1.1831
 5470SOL     OW27868   1.274   2.196   0.092  0.3510  0.2232 -0.1034
 5470SOL    HW127869   1.185   2.180   0.125  0.0971 -1.0061 -1.3874
 5470SOL    HW227870   1.326   2.141   0.151  1.6708  4.2090  2.4241
 5471SOL     OW27871   2.502   2.498  10.395 -0.1482  0.1261 -0.1384
 5471SOL    HW127872   2.417   2.455  10.389 -0.1873  0.1629  0.1635
 5471SOL    HW227873   2.513   2.536  10.482 -1.7565  1.0002 -0.3232
 5472SOL     OW27874   1.904   0.065   3.061  0.0820 -0.0126 -0.2814
 5472SOL    HW127875   1.861   0.150   3.050 -0.5118 -0.4247 -1.1012
 5472SOL    HW227876   1.994   0.095   3.078 -0.0181  0.5359 -0.7057
 5473SOL     OW27877   2.685   0.903   6.802  0.4871 -0.5521  0.1688
 5473SOL    HW127878   2.601   0.928   6.839  1.1012  0.4563  0.8892
 5473SOL    HW227879   2.655   0.856   6.725  0.6396 -0.9100  0.3288
 5474SOL     OW27880   1.586   3.425   5.584  0.5642  0.0185  0.2138
 5474SOL    HW127881   1.623   3.453   5.668  1.1612  1.6354 -0.5832
 5474SOL    HW227882   1.552   3.507   5.549  3.3990  1.7140  1.4193
 5475SOL     OW27883   3.793   1.425  13.404 -0.0612  1.0213  0.4396
 5475SOL    HW127884   3.781   1.331  13.389 -0.4335  1.4074 -1.6498
 5475SOL    HW227885   3.812   1.430  13.497 -0.5291  0.6666  0.5592
 5476SOL     OW27886   1.723   3.001   1.316 -0.2961  0.1335  0.1263
 5476SOL    HW127887   1.777   2.956   1.380 -0.4587 -0.4378 -0.1375
 5476SOL    HW227888   1.694   3.079   1.364  2.6316  0.6678  1.0368
 5477SOL     OW27889   4.217   1.269   8.326  0.3125 -0.5603  0.2209
 5477SOL    HW127890   4.193   1.279   8.418  0.0071  1.4409 -0.0746
 5477SOL    HW227891   4.265   1.187   8.332 -0.3130 -0.7690  2.4989
 5478SOL     OW27892   1.455   0.385  11.972 -0.3906  0.0124 -0.4184
 5478SOL    HW127893   1.446   0.448  11.901 -1.7375 -0.7143 -0.8901
 5478SOL    HW227894   1.542   0.409  12.004 -1.0083 -2.5951  3.1798
 5479SOL     OW27895   0.830   2.895  15.701 -0.3428  0.5407 -0.0619
 5479SOL    HW127896   0.786   2.811  15.710 -0.9992  0.9025  0.1393
 5479SOL    HW227897   0.751   2.948  15.701 -1.5130 -1.2015  0.5670
 5480SOL     OW27898   0.651   4.056   4.180  0.0945 -0.1539  0.0620
 5480SOL    HW127899   0.563   4.063   4.143 -0.0142 -2.4385 -0.1176
 5480SOL    HW227900   0.680   3.981   4.128  0.5795  0.3242 -0.3710
 5481SOL     OW27901   1.496   2.732   6.038  0.3355  0.6354 -0.3227
 5481SOL    HW127902   1.533   2.655   6.081 -1.0315 -0.8615 -1.8024
 5481SOL    HW227903   1.407   2.697   6.041  0.1023  1.2260 -0.4355
 5482SOL     OW27904   4.363   3.420   8.428  0.1287  0.2385 -0.2084
 5482SOL    HW127905   4.402   3.507   8.440 -1.9093  0.9979  1.0417
 5482SOL    HW227906   4.279   3.441   8.469  0.8284  0.3500  1.1840
 5483SOL     OW27907   3.756   2.705   3.298  0.3844  0.2887 -0.1502
 5483SOL    HW127908   3.719   2.666   3.219 -0.1898  0.7091 -0.0905
 5483SOL    HW227909   3.719   2.794   3.304 -0.1470  0.0047  0.8464
 5484SOL     OW27910   3.610   0.933   1.244  0.5084 -0.4057  0.4310
 5484SOL    HW127911   3.548   0.901   1.179  1.8371  2.4322 -2.2234
 5484SOL    HW227912   3.595   0.890   1.329 -0.3745 -1.5783 -0.3214
 5485SOL     OW27913   3.111   1.432   0.033  0.1973  0.1308 -0.3319
 5485SOL    HW127914   3.108   1.413   0.127  2.6480 -0.2602 -0.3333
 5485SOL    HW227915   3.198   1.396   0.019 -0.1806 -1.3911  1.1931
 5486SOL     OW27916   4.020   4.231   2.985 -0.1576 -0.1666 -0.1764
 5486SOL    HW127917   4.083   4.263   2.921  0.6416  2.0928  1.7166
 5486SOL    HW227918   3.962   4.307   2.989 -1.6100 -1.3183  0.2631
 5487SOL     OW27919   3.313   3.326   9.523  0.4052 -0.2849 -0.3624
 5487SOL    HW127920   3.403   3.349   9.546 -0.8300  2.0207  2.1946
 5487SOL    HW227921   3.328   3.243   9.478 -0.1592 -0.0852 -0.9116
 5488SOL     OW27922   0.388   0.961  14.155 -0.4341 -0.6545 -0.0297
 5488SOL    HW127923   0.464   1.000  14.198 -1.0229 -1.4765  1.7580
 5488SOL    HW227924   0.394   0.870  14.184  1.6739 -1.3607 -2.7055
 5489SOL     OW27925   1.690   4.114   4.165  0.0977 -0.1882 -0.1753
 5489SOL    HW127926   1.606   4.152   4.136 -0.2447  0.2205  1.3241
 5489SOL    HW227927   1.742   4.195   4.165  1.6277 -1.1839  0.6683
 5490SOL     OW27928   2.141   4.132   2.640  0.2733 -0.1342 -0.3227
 5490SOL    HW127929   2.091   4.138   2.722  1.1268  0.5831  0.1505
 5490SOL    HW227930   2.114   4.047   2.605 -1.0399 -1.0097  2.8586
 5491SOL     OW27931   1.021   1.302   5.662  0.4901 -0.0461 -0.5026
 5491SOL    HW127932   1.103   1.276   5.622  0.9976 -0.1123  0.5896
 5491SOL    HW227933   1.050   1.305   5.753  0.8790 -0.3514 -0.6217
 5492SOL     OW27934   3.207   2.898   8.703 -0.6563 -0.0217 -0.1867
 5492SOL    HW127935   3.277   2.860   8.648  0.0420 -2.0966  2.1526
 5492SOL    HW227936   3.203   2.988   8.671 -1.6508 -0.2876 -0.8182
 5493SOL     OW27937   0.045   2.064   5.462 -0.2083 -0.6210  0.0808
 5493SOL    HW127938   4.690   2.118   5.435  0.6369  1.3140  1.6432
 5493SOL    HW227939   0.022   1.980   5.422  0.8693 -0.2508 -1.3074
 5494SOL     OW27940   1.893   2.697   4.279  0.4775 -0.1846  0.1910
 5494SOL    HW127941   1.806   2.716   4.244  1.3102  2.4331 -0.4584
 5494SOL    HW227942   1.949   2.703   4.202 -1.4302  1.2012 -1.0981
 5495SOL     OW27943   1.417   2.726   7.130 -0.2831 -0.5797 -0.0905
 5495SOL    HW127944   1.445   2.700   7.042  0.1041 -0.0231 -0.1325
 5495SOL    HW227945   1.324   2.708   7.116 -0.2882 -0.3896 -0.3025
 5496SOL     OW27946   2.789   2.070   4.598  0.3542 -0.0425  0.3242
 5496SOL    HW127947   2.695   2.074   4.581  0.4865 -0.0497 -0.3923
 5496SOL    HW227948   2.807   2.141   4.659  0.6282 -0.0449  0.2445
 5497SOL     OW27949   2.620   4.351   3.935 -0.8238 -0.0707 -0.5819
 5497SOL    HW127950   2.533   4.391   3.932 -0.7790  0.2632  4.1788
 5497SOL    HW227951   2.671   4.431   3.930 -0.8769 -0.0408 -0.6528
 5498SOL     OW27952   3.431   0.561   1.239  0.1168 -0.3233 -0.0019
 5498SOL    HW127953   3.507   0.503   1.230  1.4674  1.3220  0.6360
 5498SOL    HW227954   3.362   0.499   1.261  0.0981  0.0690  1.0361
 5499SOL     OW27955   3.939   2.201  13.728 -0.1600  0.3043 -0.0313
 5499SOL    HW127956   3.856   2.174  13.690 -1.2380  1.7252  1.3304
 5499SOL    HW227957   3.980   2.196  13.641 -1.9917  2.9870 -1.0327
 5500SOL     OW27958   0.383   0.228   5.534  0.4803  0.3109 -0.0601
 5500SOL    HW127959   0.363   0.229   5.628 -0.5454 -1.3389 -0.2741
 5500SOL    HW227960   0.430   0.310   5.519 -0.5165  1.2457  2.0222
 5501SOL     OW27961   2.624   0.946   2.337  0.0259  0.8642  0.1309
 5501SOL    HW127962   2.542   0.904   2.309 -0.6796  0.9379  2.1033
 5501SOL    HW227963   2.677   0.919   2.262 -1.3997  0.2619 -0.6581
 5502SOL     OW27964   0.684   1.135   3.263 -0.2701 -0.7521 -0.1230
 5502SOL    HW127965   0.688   1.125   3.358 -0.4915  2.1822  0.1964
 5502SOL    HW227966   0.717   1.052   3.230 -3.4093 -0.4980 -3.8145
 5503SOL     OW27967   3.350   2.680   8.901 -0.8676  0.4205  0.1620
 5503SOL    HW127968   3.385   2.616   8.963  4.2602  1.5095 -1.6182
 5503SOL    HW227969   3.396   2.759   8.933  0.8908  0.1162 -1.5847
 5504SOL     OW27970   0.030   3.572   5.701  0.7530  0.4573  1.0520
 5504SOL    HW127971   0.087   3.609   5.634 -1.7115 -2.6588 -2.7582
 5504SOL    HW227972   0.062   3.616   5.780  2.4411  1.0540  0.0388
 5505SOL     OW27973   3.023   1.920   9.064 -0.1697  0.1566  0.2659
 5505SOL    HW127974   2.976   1.930   8.981  1.1656  0.3694 -0.4650
 5505SOL    HW227975   3.081   1.853   9.026  0.1785  0.5273  0.1335
 5506SOL     OW27976   3.379   1.501  14.799 -0.1214  0.1887 -0.3674
 5506SOL    HW127977   3.409   1.424  14.750 -0.9342  0.3211 -1.0865
 5506SOL    HW227978   3.420   1.569  14.746 -0.7534 -0.6298 -1.9300
 5507SOL     OW27979   4.555   2.882  10.535 -0.1077  0.2315 -0.0343
 5507SOL    HW127980   4.468   2.843  10.541  0.5046 -1.0964  0.0497
 5507SOL    HW227981   4.527   2.964  10.493  3.1858  1.2372 -0.2691
 5508SOL     OW27982   2.466   4.165  10.890  0.1918 -0.1775  0.2144
 5508SOL    HW127983   2.375   4.140  10.903  1.1152 -2.2848  2.6481
 5508SOL    HW227984   2.518   4.108  10.947 -2.4216 -2.1284  0.6406
 5509SOL     OW27985   3.294   3.963   5.259  0.2823 -0.3324  0.0410
 5509SOL    HW127986   3.211   3.976   5.305  0.9969  0.5902  1.0387
 5509SOL    HW227987   3.272   3.994   5.171 -0.5483  0.0422  0.3797
 5510SOL     OW27988   3.016   2.742   5.976  0.3790  0.8557  0.4017
 5510SOL    HW127989   3.002   2.692   5.896 -0.7738 -1.2386  1.9116
 5510SOL    HW227990   2.985   2.673   6.035  1.4060 -0.1123 -0.1853
 5511SOL     OW27991   1.538   0.673   4.872  0.2698 -0.5695  0.2412
 5511SOL    HW127992   1.457   0.722   4.858  0.5105 -0.3232 -0.3057
 5511SOL    HW227993   1.515   0.584   4.845  2.7002 -1.0342 -0.2539
 5512SOL     OW27994   4.575   3.818  15.483 -0.3074  0.3676 -0.6374
 5512SOL    HW127995   4.609   3.730  15.502  1.3347  0.9366 -0.9814
 5512SOL    HW227996   4.604   3.862  15.563 -0.4034 -0.4520 -0.1478
 5513SOL     OW27997   3.960   1.742   9.503 -0.5335  0.2935  0.6993
 5513SOL    HW127998   4.010   1.740   9.585  2.4899  2.6267 -1.1051
 5513SOL    HW227999   3.869   1.717   9.522 -0.5334  0.8100  1.3678
 5514SOL     OW28000   1.320   1.875   3.465 -0.0257  0.3835 -0.4244
 5514SOL    HW128001   1.269   1.950   3.494  1.2337 -0.4212  3.9462
 5514SOL    HW228002   1.248   1.816   3.443  0.7215 -1.5574  2.2830
 5515SOL     OW28003   0.880   0.318   4.121  0.2057  0.2323 -0.3161
 5515SOL    HW128004   0.894   0.297   4.028 -1.0113 -1.1954 -0.1737
 5515SOL    HW228005   0.862   0.412   4.113 -1.3794 -0.2854 -2.7577
 5516SOL     OW28006   2.797   2.934   4.424  0.1454 -0.6806  0.1840
 5516SOL    HW128007   2.881   2.941   4.379 -0.3709 -0.6649 -0.7917
 5516SOL    HW228008   2.795   2.843   4.452  0.2420 -1.4925 -2.4420
 5517SOL     OW28009   0.529   2.583  11.172 -0.0930 -0.5587 -0.3260
 5517SOL    HW128010   0.592   2.607  11.104  1.2911 -0.9031  0.8326
 5517SOL    HW228011   0.538   2.654  11.236  1.0278 -1.1039  0.1228
 5518SOL     OW28012   1.871   1.985   6.196  0.4809 -0.6727  0.0117
 5518SOL    HW128013   1.852   1.943   6.112 -1.1301  0.6188 -0.2777
 5518SOL    HW228014   1.788   2.020   6.229  0.0590 -0.2646 -1.4822
 5519SOL     OW28015   3.443   3.385  16.879 -0.5647  0.6173 -0.2819
 5519SOL    HW128016   3.373   3.360  16.939  0.1013 -0.1418  0.1754
 5519SOL    HW228017   3.399   3.446  16.820 -1.6200 -0.7977 -0.9824
 5520SOL     OW28018   4.650   4.255   7.306  0.4397 -0.0650  0.1571
 5520SOL    HW128019   0.016   4.290   7.330 -0.9806  2.0274  2.1056
 5520SOL    HW228020   4.583   4.292   7.363  0.2483  1.2384 -0.9093
 5521SOL     OW28021   2.810   1.839  10.055  0.1906  0.4716  0.0428
 5521SOL    HW128022   2.823   1.749  10.084  0.2139  0.5679  0.3343
 5521SOL    HW228023   2.845   1.886  10.130  0.9598  1.9600 -1.2551
 5522SOL     OW28024   2.240   2.100   5.558  0.7890  0.0372  0.3705
 5522SOL    HW128025   2.305   2.091   5.488  1.9386  2.3561  1.1432
 5522SOL    HW228026   2.288   2.056   5.629 -0.0818  0.8579  1.4671
 5523SOL     OW28027   2.892   3.660   5.884 -0.7482  0.1501  0.6776
 5523SOL    HW128028   2.830   3.687   5.952  1.3618  0.6659  2.3799
 5523SOL    HW228029   2.904   3.735   5.826 -0.7849  1.3275  2.1738
 5524SOL     OW28030   3.685   0.803  15.842 -0.2018  0.0432  0.2011
 5524SOL    HW128031   3.681   0.708  15.850  3.5520 -0.1841 -0.7712
 5524SOL    HW228032   3.778   0.820  15.857  0.1256 -1.3071 -0.2765
 5525SOL     OW28033   0.289   3.838   1.802  0.7675 -0.7532  0.0384
 5525SOL    HW128034   0.334   3.836   1.717 -0.8986 -0.3418 -0.8579
 5525SOL    HW228035   0.340   3.900   1.854  2.5439 -0.0164 -2.5873
 5526SOL     OW28036   1.886   0.624   6.649  0.1276 -0.5282  0.2652
 5526SOL    HW128037   1.974   0.588   6.660 -0.3033 -1.3272  1.0754
 5526SOL    HW228038   1.834   0.544   6.653  0.9339 -1.0967 -0.4396
 5527SOL     OW28039   2.763   3.840   0.197 -0.2588 -0.9307 -0.2895
 5527SOL    HW128040   2.756   3.818   0.290  0.3722 -1.5673 -0.3922
 5527SOL    HW228041   2.799   3.928   0.205  1.6575 -1.8083  0.9434
 5528SOL     OW28042   4.307   4.178   1.003 -0.8336  0.6035  0.3175
 5528SOL    HW128043   4.384   4.150   0.954 -1.7394  0.6371 -1.1319
 5528SOL    HW228044   4.343   4.247   1.058  0.8641 -0.6374  0.7708
 5529SOL     OW28045   0.695   1.439   1.832 -0.0503  0.1506 -0.0219
 5529SOL    HW128046   0.692   1.529   1.863 -3.0276 -0.1626  0.5794
 5529SOL    HW228047   0.601   1.421   1.823  0.2684 -1.7011  0.3073
 5530SOL     OW28048   2.735   3.815   2.335 -0.4199  0.0918 -0.1761
 5530SOL    HW128049   2.818   3.769   2.322  0.2463  0.7106  1.7926
 5530SOL    HW228050   2.746   3.894   2.282  1.0273 -0.6750 -1.0148
 5531SOL     OW28051   1.157   0.351   1.909  0.1371  0.5221  0.3284
 5531SOL    HW128052   1.231   0.399   1.872  1.5364 -1.8773  0.0152
 5531SOL    HW228053   1.094   0.418   1.934  0.4901  0.9303  0.1234
 5532SOL     OW28054   4.377   4.485   9.543 -0.0763 -0.4047 -0.4681
 5532SOL    HW128055   4.287   4.480   9.574  0.8779 -0.0477  2.3818
 5532SOL    HW228056   4.416   4.453   9.624  1.7081  2.0682 -0.3442
 5533SOL     OW28057   3.350   2.453  12.030 -0.2157  0.0213  0.4182
 5533SOL    HW128058   3.362   2.545  12.051  0.7992  0.4132 -1.9538
 5533SOL    HW228059   3.406   2.446  11.953 -0.4131  1.8499  0.1120
 5534SOL     OW28060   1.349   2.870  11.662 -0.2526 -0.1316  0.1638
 5534SOL    HW128061   1.406   2.930  11.710 -0.1571  0.2638 -0.4368
 5534SOL    HW228062   1.409   2.828  11.601  0.3098 -0.1691  0.7520
 5535SOL     OW28063   2.391   3.725  17.026  0.1567 -0.1181  0.0050
 5535SOL    HW128064   2.379   3.679  16.944  0.0175 -1.3066  0.6905
 5535SOL    HW228065   2.487   3.735  17.027  0.0374  1.0695 -0.4149
 5536SOL     OW28066   3.854   0.206   3.543 -0.6122 -0.2835 -0.3138
 5536SOL    HW128067   3.888   0.120   3.519  1.7021  0.2525  1.0106
 5536SOL    HW228068   3.769   0.189   3.581 -0.1082 -1.3162  0.3384
 5537SOL     OW28069   3.137   4.212   7.318  0.1959  0.1913  0.0561
 5537SOL    HW128070   3.092   4.273   7.376  1.5425  1.3266 -0.0898
 5537SOL    HW228071   3.224   4.221   7.358 -1.7416  0.1328  4.2944
 5538SOL     OW28072   2.920   0.047  14.509 -0.4204  0.0495  0.0398
 5538SOL    HW128073   2.870   4.692  14.475  1.0520 -0.0593 -1.9169
 5538SOL    HW228074   2.952   0.096  14.433 -1.2512  1.0854  0.3578
 5539SOL     OW28075   0.709   3.177   6.346 -0.1428  0.3280 -0.4808
 5539SOL    HW128076   0.778   3.197   6.410 -0.2498 -0.9845  0.0447
 5539SOL    HW228077   0.666   3.263   6.346  1.1839  1.0031  2.6350
 5540SOL     OW28078   0.626   2.324   8.378  0.0945 -0.1550 -0.0146
 5540SOL    HW128079   0.588   2.271   8.447 -0.5370 -0.3134 -0.4843
 5540SOL    HW228080   0.709   2.362   8.408  0.9648  0.4776 -3.1327
 5541SOL     OW28081   4.181   2.008   4.364  0.3819  0.1193  0.1616
 5541SOL    HW128082   4.160   2.032   4.274 -1.6968 -3.2041 -0.2556
 5541SOL    HW228083   4.097   1.968   4.384  0.0753  0.2143 -0.9177
 5542SOL     OW28084   3.844   3.008   6.514 -0.8165 -0.0643 -0.4534
 5542SOL    HW128085   3.795   3.073   6.464 -0.6949 -0.4757 -1.1195
 5542SOL    HW228086   3.787   2.992   6.589  0.7677 -0.4227  0.6731
 5543SOL     OW28087   0.705   3.189   2.524 -0.0750  0.1144  1.2018
 5543SOL    HW128088   0.690   3.102   2.560  3.0015 -0.9839 -0.1610
 5543SOL    HW228089   0.659   3.184   2.440  1.6643 -1.8166  0.3619
 5544SOL     OW28090   1.478   4.499   9.607  0.0281 -0.1229 -0.2638
 5544SOL    HW128091   1.409   4.554   9.570 -0.3549  0.8261  1.8644
 5544SOL    HW228092   1.446   4.414   9.579  2.0255 -0.6853 -0.8705
 5545SOL     OW28093   2.648   1.667  13.488 -0.4813 -0.6372  0.7601
 5545SOL    HW128094   2.577   1.690  13.428  0.1757  0.3117  0.3490
 5545SOL    HW228095   2.612   1.700  13.571 -1.5608  0.5435 -0.1816
 5546SOL     OW28096   1.950   1.868  15.351  0.0058  0.3084  0.2337
 5546SOL    HW128097   1.874   1.811  15.364  0.4990 -0.5682 -0.7637
 5546SOL    HW228098   1.910   1.948  15.385 -0.3967  0.1928  0.0382
 5547SOL     OW28099   4.501   2.847   2.000 -0.8433  0.3371  0.1578
 5547SOL    HW128100   4.584   2.801   2.013 -0.3074  0.7818 -1.7719
 5547SOL    HW228101   4.502   2.893   1.916  1.7582 -0.4488 -0.2538
 5548SOL     OW28102   0.644   0.794   4.776 -0.5001  0.0057  0.4825
 5548SOL    HW128103   0.642   0.770   4.683  1.9192  0.0493  0.4147
 5548SOL    HW228104   0.564   0.743   4.787  0.4247 -1.3461  0.8798
 5549SOL     OW28105   0.755   4.539   1.820  0.7336  0.4588  0.2876
 5549SOL    HW128106   0.730   4.497   1.738 -1.7643  2.1239  0.1927
 5549SOL    HW228107   0.743   4.630   1.793  0.3947  0.6426  1.0424
 5550SOL     OW28108   3.712   0.697   4.903  0.3211 -0.1689 -0.3053
 5550SOL    HW128109   3.686   0.763   4.839 -1.2288 -0.3245  0.1651
 5550SOL    HW228110   3.789   0.658   4.861 -0.2655  0.1127 -1.6145
 5551SOL     OW28111   0.376   4.548   6.483  0.0552 -0.1727 -0.1585
 5551SOL    HW128112   0.326   4.468   6.467 -0.8497  0.4222 -0.3364
 5551SOL    HW228113   0.410   4.528   6.570  1.5106 -0.3366 -0.7716
 5552SOL     OW28114   4.290   3.849  12.141 -0.0962  0.5583 -0.1112
 5552SOL    HW128115   4.374   3.894  12.142 -1.1584  2.5434 -1.4699
 5552SOL    HW228116   4.265   3.877  12.052  0.8160  1.5035 -0.0636
 5553SOL     OW28117   2.906   3.981   6.536  0.5190 -0.3773 -0.6845
 5553SOL    HW128118   2.976   3.917   6.547  0.2064  0.0622  3.8783
 5553SOL    HW228119   2.944   4.062   6.503  2.2764 -1.3676 -1.0833
 5554SOL     OW28120   1.865   3.552   2.217 -0.0977 -0.3275  0.3127
 5554SOL    HW128121   1.919   3.518   2.147  0.3556 -0.3465  0.6725
 5554SOL    HW228122   1.839   3.638   2.183 -1.0868 -0.6702  0.1822
 5555SOL     OW28123   1.564   3.687   7.198  0.7782  0.4329  0.0099
 5555SOL    HW128124   1.517   3.760   7.159  2.8210  2.2593  0.9820
 5555SOL    HW228125   1.518   3.615   7.155  1.8860  1.4278 -2.8520
 5556SOL     OW28126   0.382   1.844   9.388  0.1723  0.8848  0.6372
 5556SOL    HW128127   0.299   1.875   9.425  0.1176  2.4076 -0.7308
 5556SOL    HW228128   0.426   1.929   9.380 -1.0449  1.4717  0.0202
 5557SOL     OW28129   3.696   0.583   5.210  0.5662  0.4113 -0.1937
 5557SOL    HW128130   3.784   0.549   5.192 -0.0689 -0.9768 -0.6731
 5557SOL    HW228131   3.681   0.625   5.125 -0.0184  2.0944  0.7444
 5558SOL     OW28132   4.520   4.029   8.440  0.8659 -0.1240  0.1081
 5558SOL    HW128133   4.575   4.084   8.496  0.1760 -0.8194  1.4511
 5558SOL    HW228134   4.573   3.950   8.445  1.4074  0.2189 -0.2049
 5559SOL     OW28135   3.113   2.274   5.257  0.1951  0.8024 -0.1643
 5559SOL    HW128136   3.036   2.327   5.278 -1.1062 -0.4724 -1.7552
 5559SOL    HW228137   3.130   2.234   5.343 -2.1947  1.3128  0.5295
 5560SOL     OW28138   3.665   4.596   4.032  0.3411  0.3622  0.1965
 5560SOL    HW128139   3.700   4.648   3.959  0.0606  1.4466  0.8303
 5560SOL    HW228140   3.737   4.619   4.091 -1.3871  1.3042  1.9551
 5561SOL     OW28141   1.070   2.579  11.461  0.2549  0.2523 -0.4996
 5561SOL    HW128142   1.133   2.598  11.530 -2.1725  0.8450  1.5145
 5561SOL    HW228143   0.985   2.611  11.491 -0.0192 -0.4197 -0.5473
 5562SOL     OW28144   4.285   0.234   6.626  0.1997  0.4436 -0.3390
 5562SOL    HW128145   4.297   0.144   6.658 -2.0764 -0.3408 -1.6324
 5562SOL    HW228146   4.302   0.211   6.535 -1.0247 -1.7043 -0.0339
 5563SOL     OW28147   0.790   1.695  14.510 -0.2217  0.1350  0.1249
 5563SOL    HW128148   0.873   1.673  14.469  1.2705 -0.3785  3.4572
 5563SOL    HW228149   0.778   1.785  14.480  1.5266 -0.3119 -1.8370
 5564SOL     OW28150   2.204   4.064   1.623  0.3146  0.5719  0.3490
 5564SOL    HW128151   2.147   4.136   1.597  0.4797  0.1616 -1.1484
 5564SOL    HW228152   2.288   4.109   1.613  1.0697 -0.4601  2.1658
 5565SOL     OW28153   0.322   1.322   6.257 -0.0676 -0.1177 -0.2453
 5565SOL    HW128154   0.367   1.254   6.207 -0.0594 -0.0016 -0.3950
 5565SOL    HW228155   0.303   1.385   6.188  0.6355 -0.0321 -0.3617
 5566SOL     OW28156   0.021   0.732   9.996 -0.1315  0.1454 -0.1626
 5566SOL    HW128157   4.716   0.639   9.996 -0.1702  0.1580  0.6723
 5566SOL    HW228158   0.091   0.734  10.061  0.2915  0.4881 -0.6250
 5567SOL     OW28159   3.357   3.618  17.064  0.4127  0.3332  0.2244
 5567SOL    HW128160   3.286   3.615  17.129  0.8766  3.2418  0.8743
 5567SOL    HW228161   3.311   3.597  16.982 -0.0634  2.2972 -0.0010
 5568SOL     OW28162   1.752   0.421   1.780 -0.5356  0.0959 -0.1820
 5568SOL    HW128163   1.750   0.508   1.741  1.9867  0.0203 -0.4671
 5568SOL    HW228164   1.773   0.381   1.696 -2.1249 -0.8420 -0.1227
 5569SOL     OW28165   2.756   4.663  12.170 -0.0374 -0.6115 -0.0931
 5569SOL    HW128166   2.818   0.013  12.193  1.4822 -1.3840 -1.7963
 5569SOL    HW228167   2.821   4.593  12.160 -1.7852 -2.1376 -0.6474
 5570SOL     OW28168   0.914   0.376   4.695 -0.3080  0.4156  0.3118
 5570SOL    HW128169   0.863   0.420   4.627  2.1164  1.6460 -0.6885
 5570SOL    HW228170   0.843   0.339   4.749 -1.2217 -1.0746 -1.9226
 5571SOL     OW28171   4.019   2.893   6.965  0.3143  0.2871 -0.6165
 5571SOL    HW128172   4.021   2.852   6.879 -0.3657  1.1159 -1.0277
 5571SOL    HW228173   4.112   2.880   6.984 -0.1418 -0.8660  0.8283
 5572SOL     OW28174   0.927   1.522  11.569  0.0643  0.8163  0.3612
 5572SOL    HW128175   0.882   1.458  11.624 -0.1897  0.5727 -0.1360
 5572SOL    HW228176   0.910   1.608  11.606 -0.6286  0.9770 -0.3394
 5573SOL     OW28177   1.340   1.105  14.087  0.0637  0.2284 -0.0276
 5573SOL    HW128178   1.321   1.016  14.114  0.7683  0.2567  0.5460
 5573SOL    HW228179   1.397   1.124  14.160  0.3258  0.7511 -0.3684
 5574SOL     OW28180   2.909   4.669   8.149 -0.3216  0.2146 -0.3051
 5574SOL    HW128181   2.883   4.711   8.230  0.8006  0.5063 -0.0883
 5574SOL    HW228182   2.827   4.633   8.117  0.3163  0.0688 -1.7853
 5575SOL     OW28183   3.598   4.623  10.947  0.0933 -0.2524 -0.0190
 5575SOL    HW128184   3.513   4.581  10.934  1.4627 -1.7991 -3.9897
 5575SOL    HW228185   3.604   4.622  11.043 -0.5426 -1.5267  0.0159
 5576SOL     OW28186   0.294   3.697   6.376 -0.2871  0.0759 -0.6111
 5576SOL    HW128187   0.223   3.677   6.437 -0.8971 -0.7458 -1.5683
 5576SOL    HW228188   0.287   3.617   6.323 -1.7985 -0.8968  1.0456
 5577SOL     OW28189   0.221   0.349  12.084 -0.1197  0.2094 -0.5059
 5577SOL    HW128190   0.216   0.298  12.003  0.8084  1.0080 -1.0716
 5577SOL    HW228191   0.160   0.294  12.132 -0.4279  0.8447 -0.1628
 5578SOL     OW28192   3.462   1.392   2.800  0.1079 -0.0434  0.4049
 5578SOL    HW128193   3.476   1.435   2.716 -2.3042  1.6722  0.8863
 5578SOL    HW228194   3.405   1.321   2.770  1.0380  0.3950 -2.3422
 5579SOL     OW28195   2.601   0.635  11.890 -0.0868 -0.0291  0.0498
 5579SOL    HW128196   2.507   0.650  11.886  0.2048  1.8994  0.6595
 5579SOL    HW228197   2.628   0.691  11.963  1.4017  1.9687 -2.0394
 5580SOL     OW28198   4.110   2.927   5.460 -0.2156 -0.6068 -0.1526
 5580SOL    HW128199   4.057   2.977   5.522  2.9680  1.2849  1.0233
 5580SOL    HW228200   4.131   2.993   5.395 -0.2400  1.3928  1.8984
 5581SOL     OW28201   0.590   1.078   4.804  0.3656  0.0783  0.3688
 5581SOL    HW128202   0.607   0.984   4.797 -0.6777 -0.1152  0.4111
 5581SOL    HW228203   0.494   1.081   4.804  0.4321  2.3224 -0.0165
 5582SOL     OW28204   3.693   1.562  12.065 -0.4802 -0.6485 -0.1805
 5582SOL    HW128205   3.642   1.481  12.075  0.4568 -1.5291 -2.5109
 5582SOL    HW228206   3.633   1.623  12.021  0.5308 -0.2756 -1.0295
 5583SOL     OW28207   4.329   3.120   4.392  0.2657  0.0789 -0.5518
 5583SOL    HW128208   4.347   3.028   4.370 -2.1530 -0.7654  1.0864
 5583SOL    HW228209   4.296   3.116   4.481 -0.6963  0.8371 -0.8781
 5584SOL     OW28210   1.909   3.626  14.608 -0.1923  0.2072  0.4852
 5584SOL    HW128211   1.851   3.570  14.659  1.4297 -1.8534  0.0776
 5584SOL    HW228212   1.979   3.561  14.605 -0.5617 -0.0589 -2.1113
 5585SOL     OW28213   0.073   0.886   5.295 -0.2540  0.3548 -0.2625
 5585SOL    HW128214   0.119   0.885   5.379 -0.6558  1.2123 -0.0335
 5585SOL    HW228215   4.710   0.843   5.316  0.0658 -0.1466 -0.0442
 5586SOL     OW28216   4.303   4.325   8.086  0.9151 -0.3101  0.8730
 5586SOL    HW128217   4.335   4.246   8.129  0.0091 -1.5145 -0.7103
 5586SOL    HW228218   4.382   4.379   8.094  0.1799  0.7101  1.2260
 5587SOL     OW28219   3.433   4.624   6.800  0.4395 -0.0378 -0.6229
 5587SOL    HW128220   3.346   4.589   6.821  1.3250 -0.3569  2.4186
 5587SOL    HW228221   3.480   4.591   6.876  0.9900 -0.2887 -1.0767
 5588SOL     OW28222   4.079   4.540   7.639 -0.1167  0.4619 -0.2642
 5588SOL    HW128223   4.009   4.575   7.695 -0.8104 -1.1471 -0.1125
 5588SOL    HW228224   4.087   4.615   7.579  2.2543 -2.0334 -3.0694
 5589SOL     OW28225   1.859   0.712  15.051 -0.1676  0.0718 -0.1567
 5589SOL    HW128226   1.805   0.665  15.114  1.5293  0.9443  1.9536
 5589SOL    HW228227   1.880   0.637  14.996 -0.2462  0.6668 -1.0158
 5590SOL     OW28228   2.682   1.505   8.458  0.6403 -0.0798 -0.0132
 5590SOL    HW128229   2.757   1.564   8.468  0.1925  0.3392  0.8501
 5590SOL    HW228230   2.661   1.500   8.551  1.5800  1.2171  0.2614
 5591SOL     OW28231   0.743   1.130   2.135  0.3299  0.2877 -0.3138
 5591SOL    HW128232   0.683   1.176   2.076 -0.8224  1.2233  1.5776
 5591SOL    HW228233   0.740   1.180   2.217 -0.6199  1.3697 -1.0224
 5592SOL     OW28234   3.286   4.428   3.590 -0.7938  0.1733  0.2800
 5592SOL    HW128235   3.197   4.442   3.621 -0.2070  0.2737  1.9064
 5592SOL    HW228236   3.326   4.392   3.668  2.6466  1.3184 -0.9403
 5593SOL     OW28237   1.957   1.779   0.473 -0.3966 -0.0350 -0.2423
 5593SOL    HW128238   1.965   1.802   0.380 -2.2330 -2.3830 -0.9852
 5593SOL    HW228239   1.861   1.778   0.477 -0.3480 -0.4281  0.9800
 5594SOL     OW28240   4.180   0.010  16.357  0.6335  0.6461  0.4334
 5594SOL    HW128241   4.113   4.702  16.420  1.4015 -1.4810  0.3117
 5594SOL    HW228242   4.203   0.096  16.393  4.1868 -0.4703  0.7834
 5595SOL     OW28243   2.926   3.563   7.349  0.5712 -0.1500  0.3249
 5595SOL    HW128244   2.862   3.494   7.331 -0.7994  0.9154  1.0709
 5595SOL    HW228245   2.964   3.531   7.431  1.7552  3.7322  1.3056
 5596SOL     OW28246   0.860   0.470   3.199  0.2396 -0.3042  0.2890
 5596SOL    HW128247   0.955   0.458   3.202  0.1830 -1.3527 -2.5374
 5596SOL    HW228248   0.850   0.555   3.242  1.9628 -0.5860  1.2423
 5597SOL     OW28249   3.895   0.180   9.355  0.0372  0.2497  0.2761
 5597SOL    HW128250   3.815   0.183   9.407 -0.2802  0.3285 -0.2217
 5597SOL    HW228251   3.898   0.276   9.352 -2.0868  0.3509  1.2707
 5598SOL     OW28252   0.471   2.116   2.347  0.1022 -0.2533  0.1747
 5598SOL    HW128253   0.508   2.140   2.262  1.5627  0.4830  1.0201
 5598SOL    HW228254   0.378   2.117   2.327  0.6035  0.5375 -2.0914
 5599SOL     OW28255   1.396   0.121   7.761  0.3787 -0.0622  0.2467
 5599SOL    HW128256   1.402   0.210   7.798  0.0942 -0.8578  2.1852
 5599SOL    HW228257   1.472   0.115   7.703  0.7639  0.5937  0.6789
 5600SOL     OW28258   2.451   0.854   8.689  0.1933 -0.9834  0.3362
 5600SOL    HW128259   2.509   0.857   8.613 -0.7497 -1.6510 -0.4155
 5600SOL    HW228260   2.497   0.806   8.757  0.7700  0.9413  1.3152
 5601SOL     OW28261   2.139   3.783  14.584  0.3190  0.0008  0.6336
 5601SOL    HW128262   2.053   3.747  14.607  0.1912  1.4337  2.3891
 5601SOL    HW228263   2.113   3.802  14.493  0.3150 -0.0012  0.6344
 5602SOL     OW28264   4.541   1.971   3.702 -0.3239  0.1261 -0.2789
 5602SOL    HW128265   4.635   1.967   3.719 -0.1478  0.4531 -1.1619
 5602SOL    HW228266   4.518   2.062   3.720  0.3406  0.4470 -1.0402
 5603SOL     OW28267   4.621   1.052   2.287 -0.5328 -0.2001 -0.1072
 5603SOL    HW128268   4.696   1.101   2.253 -1.2878  1.3859  0.5317
 5603SOL    HW228269   4.661   0.996   2.354 -1.4769  1.0433  1.5074
 5604SOL     OW28270   0.700   2.555   6.830  0.0258 -0.6180 -0.0438
 5604SOL    HW128271   0.713   2.648   6.812 -0.5353 -0.9015 -1.8693
 5604SOL    HW228272   0.613   2.559   6.871 -1.1008  0.1807 -2.5459
 5605SOL     OW28273   2.908   0.133   2.082  0.5140 -0.0250  0.3355
 5605SOL    HW128274   2.911   0.094   1.995 -1.3013  1.9798 -0.6363
 5605SOL    HW228275   2.819   0.102   2.101  0.3264 -0.1983 -0.8125
 5606SOL     OW28276   3.648   2.570   8.811  0.6572  0.0291 -0.0984
 5606SOL    HW128277   3.630   2.538   8.900 -1.6012 -0.4424 -0.7515
 5606SOL    HW228278   3.581   2.522   8.763  0.7799  0.1526 -0.3887
 5607SOL     OW28279   4.149   2.757  14.415  0.8672 -0.3772  1.0032
 5607SOL    HW128280   4.137   2.851  14.402 -1.0074 -0.5640  1.5008
 5607SOL    HW228281   4.070   2.731  14.463 -0.1631 -0.0021 -0.5019
 5608SOL     OW28282   1.607   3.012   4.357 -0.2660  0.3292 -0.0567
 5608SOL    HW128283   1.577   3.088   4.407  1.2354  2.2344 -2.0730
 5608SOL    HW228284   1.680   2.982   4.412 -1.3083 -1.9433  0.1030
 5609SOL     OW28285   1.435   1.338   0.242  0.1257  0.8317  0.0497
 5609SOL    HW128286   1.357   1.353   0.190  0.0129  1.7399  0.4869
 5609SOL    HW228287   1.497   1.320   0.171  2.4154  2.4428  1.6469
 5610SOL     OW28288   3.850   2.633  14.185 -0.2086 -0.3384  0.3785
 5610SOL    HW128289   3.924   2.574  14.198 -0.2229  0.2850  3.2662
 5610SOL    HW228290   3.783   2.587  14.135 -1.0546  2.5255 -1.1297
 5611SOL     OW28291   2.512   0.964   5.695  0.2246 -0.1002 -0.3898
 5611SOL    HW128292   2.448   0.929   5.757  0.7616 -1.2935 -0.5155
 5611SOL    HW228293   2.464   0.993   5.618  1.6901 -0.2247 -1.3368
 5612SOL     OW28294   1.582   3.335   1.299  0.3899  0.1199 -0.2820
 5612SOL    HW128295   1.522   3.266   1.271 -0.1292  0.7790 -0.8009
 5612SOL    HW228296   1.599   3.372   1.212 -0.7938 -1.3390 -1.1441
 5613SOL     OW28297   1.650   3.932  12.126 -0.1523 -0.2311  0.3274
 5613SOL    HW128298   1.665   3.877  12.203  1.3904 -1.2072 -0.6811
 5613SOL    HW228299   1.734   3.976  12.117  0.4401 -1.7285 -1.4205
 5614SOL     OW28300   0.341   0.050   0.483 -0.2824  0.2155 -0.1651
 5614SOL    HW128301   0.315   4.685   0.518  0.1817 -0.7187 -2.0419
 5614SOL    HW228302   0.381   0.094   0.558  0.1692 -3.0457  1.4781
 5615SOL     OW28303   2.842   1.177   6.034  0.3997 -0.8770  0.1576
 5615SOL    HW128304   2.802   1.260   6.060  0.7384 -0.0135 -2.0351
 5615SOL    HW228305   2.933   1.188   6.059  0.2720 -1.9947  1.1122
 5616SOL     OW28306   3.344   4.328   1.373  0.1708  0.4276  0.2412
 5616SOL    HW128307   3.396   4.273   1.432  1.3721  1.5541  0.2390
 5616SOL    HW228308   3.407   4.383   1.326 -0.7912  0.9731 -0.4191
 5617SOL     OW28309   1.156   0.483   7.788  0.4412 -0.2261 -0.6805
 5617SOL    HW128310   1.091   0.457   7.853 -1.8617  1.8698 -2.1469
 5617SOL    HW228311   1.141   0.577   7.800  2.8775 -0.2202  2.3107
 5618SOL     OW28312   2.481   3.274   4.238 -0.0589  0.3499  0.0720
 5618SOL    HW128313   2.394   3.251   4.272 -0.3398 -1.3386 -1.7627
 5618SOL    HW228314   2.522   3.189   4.251 -0.9188 -0.4890 -2.6223
 5619SOL     OW28315   1.870   2.680   9.079 -0.4565 -0.5429  0.3938
 5619SOL    HW128316   1.831   2.660   8.994  0.2068  0.3794 -0.1299
 5619SOL    HW228317   1.805   2.744   9.110 -1.0718 -0.9765  0.0056
 5620SOL     OW28318   0.726   1.192   4.294  0.3676  0.4401 -0.7754
 5620SOL    HW128319   0.719   1.200   4.390 -1.3191  3.3148 -1.1302
 5620SOL    HW228320   0.635   1.168   4.274  0.0854 -1.4215  2.6758
 5621SOL     OW28321   3.206   1.216  15.736 -0.6578  0.9451  0.4393
 5621SOL    HW128322   3.298   1.242  15.727 -0.6482  0.5010 -0.7853
 5621SOL    HW228323   3.207   1.223  15.831 -1.3077  0.9809  0.4423
 5622SOL     OW28324   4.273   2.980  10.924 -0.0714 -0.8573  0.2756
 5622SOL    HW128325   4.303   3.028  11.000  2.7349  0.4845 -1.6767
 5622SOL    HW228326   4.241   3.052  10.870 -1.7223 -0.5468  1.6925
 5623SOL     OW28327   2.577   2.010   3.280  0.2499  0.4721  0.2995
 5623SOL    HW128328   2.516   1.939   3.304 -0.5605  1.1122  0.1426
 5623SOL    HW228329   2.629   1.972   3.210 -1.9718 -1.0411 -0.5484
 5624SOL     OW28330   4.009   2.017  13.918 -0.0637  0.0499 -0.6431
 5624SOL    HW128331   3.946   1.947  13.900 -1.2238  0.7661  0.5821
 5624SOL    HW228332   3.984   2.090  13.860 -2.0011 -0.1910 -0.1089
 5625SOL     OW28333   0.574   2.448  11.461  0.0011  0.6010 -0.4086
 5625SOL    HW128334   0.569   2.501  11.382 -0.7766  0.9693 -0.1053
 5625SOL    HW228335   0.658   2.465  11.505 -0.5726  1.2807  0.4152
 5626SOL     OW28336   0.085   1.971   3.746  0.4492 -0.0630  0.1683
 5626SOL    HW128337   0.095   2.064   3.726 -0.4162 -0.2426 -1.1260
 5626SOL    HW228338   0.147   1.944   3.814 -0.0711 -0.5358  0.4583
 5627SOL     OW28339   4.501   4.310   8.704  1.0221  0.1693 -0.1406
 5627SOL    HW128340   4.576   4.301   8.645  1.8780  3.1179  0.4598
 5627SOL    HW228341   4.521   4.246   8.772  1.6179  0.9257  0.3965
 5628SOL     OW28342   2.893   2.552   2.990 -0.0165  0.5055 -0.3611
 5628SOL    HW128343   2.863   2.462   2.990 -0.5854  0.6949  1.1497
 5628SOL    HW228344   2.834   2.588   3.056  1.5002 -2.4066  2.5837
 5629SOL     OW28345   1.116   0.537   5.488 -0.0544 -0.5040  0.0056
 5629SOL    HW128346   1.054   0.464   5.485  0.6732 -1.1048 -0.3952
 5629SOL    HW228347   1.106   0.576   5.401  1.2272 -1.3594 -0.5321
 5630SOL     OW28348   2.399   0.085   5.687  0.0648  0.1319 -0.2091
 5630SOL    HW128349   2.381   0.108   5.778  1.2208 -1.4016  0.4013
 5630SOL    HW228350   2.356   0.157   5.641 -2.1904 -1.9608 -1.3397
 5631SOL     OW28351   3.620   2.962   6.682 -0.2399  0.5172  0.2056
 5631SOL    HW128352   3.593   2.992   6.769  1.2055 -1.4604  1.3098
 5631SOL    HW228353   3.531   2.969   6.647  0.8152 -0.5154 -2.6542
 5632SOL     OW28354   0.397   3.599  11.423  0.5279 -0.3046 -0.1032
 5632SOL    HW128355   0.306   3.588  11.450  0.7223  0.5845  0.9126
 5632SOL    HW228356   0.429   3.663  11.487 -1.3307  2.5522 -2.0266
 5633SOL     OW28357   4.047   2.910   1.912 -0.0474  0.1905 -0.0132
 5633SOL    HW128358   4.097   2.989   1.936  0.2995 -0.1969  0.5196
 5633SOL    HW228359   4.026   2.945   1.825  1.4542  3.6216  0.9685
 5634SOL     OW28360   1.175   3.516  16.058 -0.0063 -0.2567  0.1516
 5634SOL    HW128361   1.262   3.492  16.092  0.3924  0.2921 -0.4804
 5634SOL    HW228362   1.136   3.515  16.145 -0.2820  2.6055  0.0730
 5635SOL     OW28363   0.919   1.955   0.533 -0.2271  0.2780  0.0168
 5635SOL    HW128364   0.827   1.932   0.541  0.1089 -0.8826  0.5262
 5635SOL    HW228365   0.918   2.035   0.480 -0.5788  1.0189  1.1361
 5636SOL     OW28366   1.912   4.332   3.850  0.2017  0.3110 -0.1747
 5636SOL    HW128367   1.923   4.246   3.808 -1.2566  1.0720 -2.1181
 5636SOL    HW228368   1.843   4.373   3.800 -1.5955  0.3411  2.3505
 5637SOL     OW28369   3.289   2.541   5.025  0.0879 -0.1544 -0.3596
 5637SOL    HW128370   3.315   2.469   5.083 -1.9483 -1.0114 -0.5104
 5637SOL    HW228371   3.250   2.498   4.949 -0.3344 -0.9881  0.3274
 5638SOL     OW28372   0.633   1.108   8.456 -0.4322  0.1946  0.3460
 5638SOL    HW128373   0.707   1.165   8.436 -1.8899  1.9881  0.0568
 5638SOL    HW228374   0.657   1.058   8.534  2.1169  2.6859  1.1896
 5639SOL     OW28375   4.368   4.619   5.342  0.1158 -0.1329 -0.1592
 5639SOL    HW128376   4.396   4.534   5.308 -0.1723  0.0630 -0.8875
 5639SOL    HW228377   4.444   4.637   5.397 -0.7695 -1.0555  1.3569
 5640SOL     OW28378   0.696   1.787   8.320  0.8668  0.3117 -0.6940
 5640SOL    HW128379   0.638   1.740   8.260 -0.8361  2.6479 -0.8713
 5640SOL    HW228380   0.782   1.756   8.292  1.1174  0.7007 -0.3668
 5641SOL     OW28381   2.726   0.694   5.338 -0.6564  0.4086 -0.3352
 5641SOL    HW128382   2.643   0.683   5.385  0.5208  0.6553  1.8114
 5641SOL    HW228383   2.710   0.785   5.311  0.1375  0.7989  0.5220
 5642SOL     OW28384   1.401   3.550   8.360 -0.2981  0.4855  0.0042
 5642SOL    HW128385   1.474   3.493   8.384  0.2756  0.4960 -1.7015
 5642SOL    HW228386   1.428   3.638   8.387  1.3946 -0.4071  1.1856
 5643SOL     OW28387   1.607   1.082   1.895  0.6441 -0.4808 -1.0122
 5643SOL    HW128388   1.591   1.151   1.960  1.9488 -0.6180 -0.5355
 5643SOL    HW228389   1.701   1.080   1.913  0.0139 -0.6163  2.1455
 5644SOL     OW28390   2.635   1.826   7.846  0.1166  0.6168  0.2306
 5644SOL    HW128391   2.606   1.912   7.816 -0.1998  0.3104 -0.3432
 5644SOL    HW228392   2.712   1.817   7.791 -0.2716  1.7899 -0.5062
 5645SOL     OW28393   3.617   4.216  16.296 -0.0073 -0.2619 -0.1194
 5645SOL    HW128394   3.589   4.254  16.212  1.5754  1.9009  0.3244
 5645SOL    HW228395   3.706   4.190  16.275  0.9917  3.0014  0.0156
 5646SOL     OW28396   2.951   3.416   8.533  0.3221  1.0605 -0.2750
 5646SOL    HW128397   3.008   3.492   8.521  0.2118  1.0493 -0.8612
 5646SOL    HW228398   3.000   3.345   8.491 -1.6711  0.4946 -1.6320
 5647SOL     OW28399   1.322   4.371  17.369 -0.5800  0.3571  0.3481
 5647SOL    HW128400   1.382   4.299  17.350 -2.5732 -1.5489  1.1974
 5647SOL    HW228401   1.372   4.440  17.325 -1.8860  2.2746  1.8613
 5648SOL     OW28402   2.152   2.663   5.399 -0.4212  0.1174 -0.0594
 5648SOL    HW128403   2.063   2.668   5.363 -1.0151 -0.9537  1.2277
 5648SOL    HW228404   2.139   2.698   5.487  1.2538  1.0648 -0.1995
 5649SOL     OW28405   1.888   0.454   3.852 -0.6957  0.0220 -0.1883
 5649SOL    HW128406   1.954   0.389   3.828 -2.0647 -1.1946 -0.6588
 5649SOL    HW228407   1.822   0.393   3.887 -0.7381 -0.7905 -1.6710
 5650SOL     OW28408   1.867   2.091   7.459  0.4441  0.0359 -0.2765
 5650SOL    HW128409   1.939   2.114   7.400  1.7244 -1.6823  0.6101
 5650SOL    HW228410   1.899   2.141   7.534 -0.0727 -0.0338 -0.0071
 5651SOL     OW28411   2.842   2.243   4.831 -0.2584  0.3349 -0.3269
 5651SOL    HW128412   2.919   2.298   4.843  1.2222 -1.2752 -2.5545
 5651SOL    HW228413   2.796   2.271   4.910  2.6127  2.1281  0.7231
 5652SOL     OW28414   1.307   3.512   5.561 -0.0334  0.4291 -0.3912
 5652SOL    HW128415   1.265   3.445   5.508 -0.7678  2.0611 -1.8610
 5652SOL    HW228416   1.238   3.569   5.596 -0.7317  0.6638 -2.1263
 5653SOL     OW28417   2.003   0.660   5.560  0.2438  0.0599 -0.0165
 5653SOL    HW128418   1.972   0.692   5.645 -0.9016  0.2614 -0.5032
 5653SOL    HW228419   1.922   0.634   5.516 -0.7532  0.0386  1.8650
 5654SOL     OW28420   1.758   0.699   0.950  0.1023 -0.2406  0.8561
 5654SOL    HW128421   1.666   0.675   0.939 -0.0443 -0.7846  3.1767
 5654SOL    HW228422   1.795   0.640   0.885 -1.7622  1.1645 -1.4515
 5655SOL     OW28423   0.438   3.223   4.496 -0.3496 -0.2271 -0.0532
 5655SOL    HW128424   0.456   3.129   4.503  3.4152  0.4810 -0.2644
 5655SOL    HW228425   0.343   3.219   4.503 -0.3187  0.1821  0.5577
 5656SOL     OW28426   4.498   4.402  14.089 -0.1413  0.2707 -0.1063
 5656SOL    HW128427   4.552   4.324  14.102 -1.8787 -1.0268 -0.6893
 5656SOL    HW228428   4.487   4.403  13.994  1.2304  3.2708 -0.2344
 5657SOL     OW28429   4.205   3.252   3.226  0.2957 -0.2289 -0.0613
 5657SOL    HW128430   4.272   3.315   3.253  0.1618 -0.4979  0.8768
 5657SOL    HW228431   4.257   3.179   3.190  1.0472 -0.5681  1.6968
 5658SOL     OW28432   0.087   1.089  13.214 -0.1341 -0.2809 -0.5644
 5658SOL    HW128433   0.085   1.126  13.302 -0.0398  0.9142 -1.0641
 5658SOL    HW228434   0.158   1.026  13.224  0.1911  0.4602  1.5700
 5659SOL     OW28435   3.595   0.659  17.409  0.0178 -0.3861  0.3829
 5659SOL    HW128436   3.531   0.725  17.437  0.2326  0.7459 -1.7931
 5659SOL    HW228437   3.675   0.710  17.420 -0.9561  1.2739 -0.2090
 5660SOL     OW28438   3.164   2.077   1.036 -0.6362  1.1307  0.4097
 5660SOL    HW128439   3.111   2.009   0.995  1.3811 -0.9981  1.3093
 5660SOL    HW228440   3.254   2.052   1.017 -0.3631  1.3728  1.3709
 5661SOL     OW28441   0.106   2.535   4.911 -0.1534 -0.1793 -0.5413
 5661SOL    HW128442   0.040   2.478   4.873 -1.0368  1.0448 -0.8539
 5661SOL    HW228443   0.163   2.463   4.937  3.7340  2.8901 -0.5838
 5662SOL     OW28444   1.088   4.394  13.433 -0.2758 -0.3979  0.2378
 5662SOL    HW128445   1.049   4.412  13.518 -0.2567  0.1024  0.1416
 5662SOL    HW228446   1.115   4.483  13.410 -0.1354 -0.1632  1.3316
 5663SOL     OW28447   1.065   2.128   2.271 -0.1970  0.3291 -0.2661
 5663SOL    HW128448   1.104   2.045   2.246  0.2655  0.4467  0.0480
 5663SOL    HW228449   0.978   2.098   2.297 -0.2681  2.6916  2.3256
 5664SOL     OW28450   0.634   3.716   8.406  0.4984 -0.0696  0.4929
 5664SOL    HW128451   0.664   3.807   8.414  1.6449 -0.3219 -1.0558
 5664SOL    HW228452   0.619   3.697   8.499 -2.6249 -1.3284 -0.2848
 5665SOL     OW28453   3.263   3.455  11.831 -0.0106  1.0931 -0.0934
 5665SOL    HW128454   3.289   3.371  11.868 -0.1476  1.6438  1.2413
 5665SOL    HW228455   3.278   3.432  11.739 -0.6244  0.2028  0.0301
 5666SOL     OW28456   1.973   1.832   8.247  0.1901  0.1301 -0.2032
 5666SOL    HW128457   1.986   1.839   8.342  2.3705  0.3985 -0.5198
 5666SOL    HW228458   2.028   1.905   8.219 -0.0859  0.5370  0.3124
 5667SOL     OW28459   2.132   1.357   7.730  0.1087 -0.2750 -0.1383
 5667SOL    HW128460   2.069   1.416   7.691  1.7731  0.8376 -1.1392
 5667SOL    HW228461   2.187   1.341   7.653  0.2439 -0.5682  0.0145
 5668SOL     OW28462   2.109   1.378  10.606  0.3975  0.1283  0.1438
 5668SOL    HW128463   2.035   1.319  10.618 -0.7734  1.5020 -0.2867
 5668SOL    HW228464   2.064   1.457  10.574  2.6203  1.1910 -0.3627
 5669SOL     OW28465   3.614   2.165   4.332 -0.6096 -0.0150  0.6055
 5669SOL    HW128466   3.660   2.238   4.291  0.5157 -1.8320 -1.4294
 5669SOL    HW228467   3.649   2.082   4.298  0.5045  1.1321 -1.0504
 5670SOL     OW28468   2.103   1.210   8.004 -0.1147 -0.3852 -0.3998
 5670SOL    HW128469   2.167   1.270   8.041 -0.7644  0.1283 -0.1259
 5670SOL    HW228470   2.028   1.268   8.011  1.2442  1.0384  2.3859
 5671SOL     OW28471   0.388   0.641   7.662 -0.1839  0.2376 -0.2672
 5671SOL    HW128472   0.427   0.709   7.607 -0.1893  1.2973  1.0415
 5671SOL    HW228473   0.442   0.568   7.632 -1.0345 -0.3698 -0.3061
 5672SOL     OW28474   1.138   1.950   5.803 -0.6004  0.3295  0.1691
 5672SOL    HW128475   1.156   2.028   5.751 -0.0386  0.6343  0.8200
 5672SOL    HW228476   1.043   1.964   5.799 -0.5993  0.6485  1.4254
 5673SOL     OW28477   4.279   3.433  15.051  0.1243  0.6457 -0.3361
 5673SOL    HW128478   4.344   3.491  15.009  0.9739 -0.9812 -1.2979
 5673SOL    HW228479   4.337   3.397  15.118 -0.3030 -1.3570 -1.0695
 5674SOL     OW28480   1.341   4.602   1.905  0.0943  0.2167 -0.7496
 5674SOL    HW128481   1.435   4.622   1.904  0.5667 -1.9045  0.3334
 5674SOL    HW228482   1.307   4.676   1.955  0.7507  0.2957 -0.4179
 5675SOL     OW28483   1.181   3.311   4.325  0.0465 -0.3193  0.3738
 5675SOL    HW128484   1.131   3.305   4.243  0.8816  1.7185 -0.2928
 5675SOL    HW228485   1.227   3.228   4.319 -0.0080 -0.3304  0.0872
 5676SOL     OW28486   1.426   3.179   1.669 -0.3654  0.2919  0.3326
 5676SOL    HW128487   1.418   3.158   1.762  1.3966  3.7580  1.2586
 5676SOL    HW228488   1.357   3.122   1.635  0.3736 -1.6665  2.0543
 5677SOL     OW28489   3.014   2.022   1.993  0.0753 -0.5865 -0.2044
 5677SOL    HW128490   2.995   1.935   2.028 -0.5007 -0.6924 -0.7694
 5677SOL    HW228491   2.988   2.080   2.064 -1.6810  1.2443 -2.3161
 5678SOL     OW28492   0.180   1.160   2.557 -0.4094 -0.1895 -0.0823
 5678SOL    HW128493   0.086   1.168   2.571 -0.4207  1.7809 -1.2315
 5678SOL    HW228494   0.192   1.066   2.543  0.6421  0.1281 -1.3698
 5679SOL     OW28495   2.607   2.642   4.336  0.4964 -0.0815 -0.8548
 5679SOL    HW128496   2.541   2.707   4.314  0.3789  0.7059  1.7560
 5679SOL    HW228497   2.647   2.601   4.259  0.7013 -0.3746 -0.5908
 5680SOL     OW28498   0.701   3.043  12.890  0.1343  0.0367  0.1827
 5680SOL    HW128499   0.794   3.026  12.881  0.1062  0.4749 -0.9214
 5680SOL    HW228500   0.708   3.107  12.961  0.2534  0.3581 -0.1173
 5681SOL     OW28501   0.909   2.608   0.690 -0.9335 -0.6631  0.1327
 5681SOL    HW128502   0.936   2.696   0.662  1.0018 -0.5151  2.4125
 5681SOL    HW228503   0.950   2.554   0.622  0.3292 -0.2413  0.5629
 5682SOL     OW28504   1.394   0.452   1.785  0.0191 -0.0230 -0.1841
 5682SOL    HW128505   1.429   0.388   1.723 -1.1116 -0.5906 -0.2358
 5682SOL    HW228506   1.436   0.530   1.749 -1.0806  0.0087 -1.4094
 5683SOL     OW28507   4.272   4.007   7.560 -1.0523  0.0578 -0.0135
 5683SOL    HW128508   4.244   4.040   7.645  1.1133  1.3760  0.1875
 5683SOL    HW228509   4.333   3.941   7.592 -0.1608  0.5559 -0.6563
 5684SOL     OW28510   0.677   4.605   4.165 -0.3220 -0.7990  0.1972
 5684SOL    HW128511   0.668   4.578   4.073  1.1977  1.2728 -0.5673
 5684SOL    HW228512   0.655   4.698   4.160 -0.4962 -0.9836 -2.6067
 5685SOL     OW28513   1.965   2.068   7.890 -0.1434 -0.6829  0.1922
 5685SOL    HW128514   1.959   2.150   7.841 -0.8793  0.6555  2.5368
 5685SOL    HW228515   1.979   2.103   7.977  2.4556  1.8109 -1.2142
 5686SOL     OW28516   1.418   1.119   6.653  0.1650 -0.4754 -0.3006
 5686SOL    HW128517   1.461   1.073   6.581 -1.0305 -0.9915 -0.6885
 5686SOL    HW228518   1.329   1.110   6.619  0.0139  2.1842 -0.6242
 5687SOL     OW28519   4.597   3.464   6.621  0.2961  0.0554 -0.3249
 5687SOL    HW128520   4.559   3.464   6.533  1.4816  0.9062 -0.8390
 5687SOL    HW228521   4.523   3.417   6.659  1.5406 -0.7251  1.1378
 5688SOL     OW28522   0.937   2.786   7.447  0.7860  0.3105 -0.2769
 5688SOL    HW128523   0.853   2.777   7.492  1.7833 -1.7347  1.1958
 5688SOL    HW228524   0.932   2.875   7.412 -1.2689  0.4730  0.4319
 5689SOL     OW28525   4.430   0.902   6.134  0.1989  0.1928 -0.4235
 5689SOL    HW128526   4.514   0.860   6.152 -0.1733 -0.5447 -0.3996
 5689SOL    HW228527   4.464   0.951   6.059 -1.3357 -1.7388 -2.3888
 5690SOL     OW28528   3.933   1.552   2.475  0.2229  0.1723 -0.1776
 5690SOL    HW128529   3.985   1.497   2.416  2.5293 -0.2153  2.2289
 5690SOL    HW228530   3.983   1.544   2.556  0.5354 -1.8473 -0.5646
 5691SOL     OW28531   3.254   4.491   5.162 -0.1653 -0.2457 -0.0669
 5691SOL    HW128532   3.255   4.395   5.164 -0.1527 -0.2604 -0.7577
 5691SOL    HW228533   3.312   4.511   5.235  1.2019  0.6034 -1.3870
 5692SOL     OW28534   4.541   3.835   1.962  0.5043 -0.4092  0.2932
 5692SOL    HW128535   4.469   3.873   1.912  1.5929 -1.3620 -1.9956
 5692SOL    HW228536   4.616   3.841   1.903  2.0242 -1.6190  2.0890
 5693SOL     OW28537   2.846   1.520   7.726  0.3939  0.7614 -0.8624
 5693SOL    HW128538   2.830   1.608   7.692 -1.0941  0.3493 -1.2160
 5693SOL    HW228539   2.932   1.502   7.687 -0.6311 -1.2427 -2.2182
 5694SOL     OW28540   1.987   2.954   8.234 -0.0440  0.1525  0.7128
 5694SOL    HW128541   1.902   2.912   8.245  0.6024 -0.6492  2.6149
 5694SOL    HW228542   2.007   2.945   8.141  0.1881 -1.8296  0.9513
 5695SOL     OW28543   4.357   4.199   7.094  0.2988  0.4012 -0.0217
 5695SOL    HW128544   4.329   4.139   7.162 -2.2168 -0.0200 -1.4546
 5695SOL    HW228545   4.278   4.245   7.066 -0.6626 -1.3996 -0.2745
 5696SOL     OW28546   1.712   2.139  15.727 -0.0639  0.0575  0.1474
 5696SOL    HW128547   1.759   2.076  15.780 -0.3895  1.8321  2.5104
 5696SOL    HW228548   1.777   2.169  15.664  1.7013  2.1016  2.9967
 5697SOL     OW28549   1.278   4.255  14.178 -0.2819  0.1386  0.0751
 5697SOL    HW128550   1.346   4.240  14.243 -0.2887  1.1483  0.3124
 5697SOL    HW228551   1.306   4.191  14.113  2.5711  1.5308 -0.0731
 5698SOL     OW28552   4.047   3.500  17.605  0.6109  0.1847 -0.4813
 5698SOL    HW128553   3.981   3.516  17.538  0.3095  1.4653  0.1240
 5698SOL    HW228554   4.001   3.534   0.001 -0.0831  1.7126 -1.5855
 5699SOL     OW28555   0.740   1.887   4.605  0.5696  0.2529 -0.0962
 5699SOL    HW128556   0.817   1.926   4.562  0.2354 -0.1431 -1.0516
 5699SOL    HW228557   0.673   1.943   4.565  0.2221 -0.4904 -0.5457
 5700SOL     OW28558   1.742   2.238  13.190 -0.4931 -0.5275 -0.8026
 5700SOL    HW128559   1.716   2.301  13.257  1.2067  0.9973 -1.6008
 5700SOL    HW228560   1.735   2.293  13.112 -0.1087 -0.2941 -0.6703
 5701SOL     OW28561   2.458   0.789   1.923  0.1642 -0.2920 -0.1099
 5701SOL    HW128562   2.414   0.810   1.841 -0.5959  0.2222  0.4291
 5701SOL    HW228563   2.518   0.719   1.895  1.4106 -0.2128  2.3290
 5702SOL     OW28564   2.563   0.761   0.053 -0.0555 -0.4039 -0.4402
 5702SOL    HW128565   2.637   0.815   0.082 -0.0733 -0.5804 -0.0638
 5702SOL    HW228566   2.609   0.702  17.673 -0.0446  0.9637 -1.7667
 5703SOL     OW28567   3.910   1.833  15.850 -0.9760 -0.0955 -0.0604
 5703SOL    HW128568   3.959   1.753  15.832 -0.6410 -0.3695  2.0046
 5703SOL    HW228569   3.827   1.803  15.885 -1.3173  1.7693  0.7680
 5704SOL     OW28570   0.064   2.084  14.506 -0.0874 -0.5207  0.6916
 5704SOL    HW128571   0.061   2.008  14.447 -1.1977 -1.4553  1.9408
 5704SOL    HW228572   0.075   2.050  14.594  2.0921  1.1626  1.0566
 5705SOL     OW28573   3.322   1.113   8.796  0.1266 -0.1707  0.3185
 5705SOL    HW128574   3.400   1.092   8.743 -0.1293 -0.0413 -0.1064
 5705SOL    HW228575   3.275   1.186   8.756 -0.1946  0.4476  1.8373
 5706SOL     OW28576   3.215   3.987   2.957  0.1235  0.5184  0.0755
 5706SOL    HW128577   3.177   4.064   3.000  1.3528  0.8651  0.5306
 5706SOL    HW228578   3.262   4.023   2.882  0.5922  2.2722  1.2148
 5707SOL     OW28579   3.968   1.937   1.773 -0.7466  0.1502 -0.0277
 5707SOL    HW128580   3.943   1.977   1.856  1.1780  3.9290 -1.2336
 5707SOL    HW228581   3.913   1.859   1.778 -1.2795  0.4895 -0.5864
 5708SOL     OW28582   1.909   2.805   2.447 -0.4437  0.0373 -0.3979
 5708SOL    HW128583   1.928   2.719   2.409 -1.6916 -0.0508 -0.8237
 5708SOL    HW228584   1.992   2.852   2.455 -2.1657  2.9030  0.7218
 5709SOL     OW28585   1.872   0.118   5.889  0.1175  0.0825 -0.0960
 5709SOL    HW128586   1.791   0.154   5.851 -0.1530 -2.1720 -1.6220
 5709SOL    HW228587   1.830   0.077   5.965  2.0636 -0.2864  0.7682
 5710SOL     OW28588   2.379   3.244   7.487 -0.1901 -0.1310 -0.4376
 5710SOL    HW128589   2.377   3.325   7.435 -1.6566 -1.4992 -2.5391
 5710SOL    HW228590   2.410   3.176   7.428  2.0341  1.0133 -0.5816
 5711SOL     OW28591   2.625   3.706   8.129  0.6721 -0.1123  0.3551
 5711SOL    HW128592   2.694   3.743   8.075  0.2942  0.1490  0.0566
 5711SOL    HW228593   2.653   3.740   8.214 -0.1784  0.2885  0.4781
 5712SOL     OW28594   4.028   2.274   3.413 -0.0079  0.2556 -0.1055
 5712SOL    HW128595   3.985   2.251   3.496 -0.4869  1.6781  0.0445
 5712SOL    HW228596   3.953   2.326   3.384 -0.2837 -0.4702 -0.6805
 5713SOL     OW28597   2.679   3.863   4.490 -0.5764 -0.2578  0.1269
 5713SOL    HW128598   2.603   3.911   4.456 -0.4257  0.2008  0.4372
 5713SOL    HW228599   2.651   3.847   4.580  1.8927 -1.7566  0.6179
 5714SOL     OW28600   0.611   4.465   6.046  0.3279 -0.2383  0.3931
 5714SOL    HW128601   0.663   4.489   5.970 -1.8386 -0.6607 -1.2100
 5714SOL    HW228602   0.648   4.378   6.064 -1.4783 -1.0174  0.3618
 5715SOL     OW28603   3.292   4.497   2.289 -0.4359  0.2333 -0.5796
 5715SOL    HW128604   3.235   4.527   2.217 -0.2804  2.2687  0.1501
 5715SOL    HW228605   3.237   4.523   2.363 -0.1193  2.3455 -1.1034
 5716SOL     OW28606   0.326   0.364   2.277  0.0564 -0.0543  0.1391
 5716SOL    HW128607   0.392   0.433   2.265 -0.7211  0.3685 -1.7291
 5716SOL    HW228608   0.245   0.416   2.282 -1.2519 -2.2376  1.5646
 5717SOL     OW28609   2.357   4.089   7.163 -0.4507  0.4590  0.0135
 5717SOL    HW128610   2.318   4.015   7.211  3.5169 -0.8887  1.1777
 5717SOL    HW228611   2.328   4.067   7.074  1.0544 -0.6155 -0.2176
 5718SOL     OW28612   3.333   3.648   6.464  0.4740 -0.1008  0.1561
 5718SOL    HW128613   3.261   3.626   6.405  2.4067 -0.0192 -2.2143
 5718SOL    HW228614   3.287   3.706   6.524 -0.4964 -0.6214 -0.0914
 5719SOL     OW28615   0.796   0.843   3.618  0.0892  0.0858  0.4748
 5719SOL    HW128616   0.762   0.778   3.680 -1.0111 -3.3497 -3.7458
 5719SOL    HW228617   0.715   0.880   3.582  0.3076  0.9955  0.9283
 5720SOL     OW28618   0.740   2.676   3.926  0.4509  0.0096  0.4301
 5720SOL    HW128619   0.693   2.648   4.005 -0.2129  0.8865  0.3511
 5720SOL    HW228620   0.706   2.765   3.916  1.4950  0.6425  2.7279
 5721SOL     OW28621   0.890   1.429   6.982 -0.1933  0.0285 -0.3260
 5721SOL    HW128622   0.877   1.344   6.940 -0.0562 -0.1852  0.0602
 5721SOL    HW228623   0.980   1.413   7.013  0.1363  0.0294 -1.2890
 5722SOL     OW28624   4.430   4.196   2.591  0.3998 -0.3716  0.0021
 5722SOL    HW128625   4.376   4.154   2.658  0.4543  1.4196  1.1597
 5722SOL    HW228626   4.428   4.125   2.527  2.0088 -0.7718  0.3944
 5723SOL     OW28627   3.834   0.565   6.387  0.3087 -0.3336  0.1390
 5723SOL    HW128628   3.771   0.496   6.406 -0.1076  0.3981  1.5005
 5723SOL    HW228629   3.829   0.611   6.471  1.3758  0.4330 -0.2211
 5724SOL     OW28630   1.625   0.868  15.247 -0.6474 -0.2448 -0.4904
 5724SOL    HW128631   1.625   0.957  15.281 -0.2895 -0.2159 -0.5608
 5724SOL    HW228632   1.699   0.842  15.303  0.6212  0.8913 -1.6302
 5725SOL     OW28633   2.372   1.185   5.188 -0.0758  0.9595 -0.3017
 5725SOL    HW128634   2.312   1.245   5.144 -0.3569 -1.0076 -2.5832
 5725SOL    HW228635   2.413   1.239   5.256 -0.9329  0.8473  0.3122
 5726SOL     OW28636   1.029   3.718  15.912 -0.1607  0.2854  0.3323
 5726SOL    HW128637   1.012   3.655  15.843 -3.8327  0.7728  0.7736
 5726SOL    HW228638   1.115   3.690  15.945 -0.3934  1.6110  2.0880
 5727SOL     OW28639   1.677   3.443   6.391 -0.0090  0.0030  0.4589
 5727SOL    HW128640   1.734   3.427   6.467  2.3656  0.7805 -1.1519
 5727SOL    HW228641   1.697   3.361   6.346  2.4287  0.0540  1.4170
 5728SOL     OW28642   0.671   1.623  17.266 -0.5470  0.5544  0.2981
 5728SOL    HW128643   0.763   1.611  17.242 -0.1203  2.1442  1.1585
 5728SOL    HW228644   0.623   1.556  17.217  0.5452 -0.9254  1.2254
 5729SOL     OW28645   4.132   0.728  13.388  0.1036 -0.9224 -0.8289
 5729SOL    HW128646   4.220   0.721  13.426  0.2434  0.0404 -0.9745
 5729SOL    HW228647   4.149   0.704  13.297  0.6943  0.8329 -1.1779
 5730SOL     OW28648   0.281   3.465   1.387 -0.4651  0.5471 -0.6882
 5730SOL    HW128649   0.248   3.530   1.324 -0.9745  1.1415  0.1838
 5730SOL    HW228650   0.207   3.405   1.382 -0.7952  0.8946 -0.0048
 5731SOL     OW28651   0.322   4.415   5.987  0.0096 -0.1112 -0.3173
 5731SOL    HW128652   0.299   4.473   5.914 -0.9416 -1.8886 -1.4312
 5731SOL    HW228653   0.410   4.446   6.009 -0.4132  1.6577 -1.0796
 5732SOL     OW28654   1.651   1.956  17.130 -0.1521  0.6847  0.4483
 5732SOL    HW128655   1.683   1.953  17.221  1.2110  2.2542  0.0244
 5732SOL    HW228656   1.730   1.931  17.082 -1.3361 -0.6299 -0.8027
 5733SOL     OW28657   0.513   2.750  16.385  0.2617 -0.2487  0.6185
 5733SOL    HW128658   0.422   2.764  16.412  0.3974 -1.0408  1.5088
 5733SOL    HW228659   0.529   2.833  16.340 -1.7032  0.1725  0.6865
 5734SOL     OW28660   3.170   2.863  13.076 -0.3970 -0.5839 -0.4639
 5734SOL    HW128661   3.258   2.831  13.092  1.0498  2.8002 -1.6971
 5734SOL    HW228662   3.146   2.816  12.996  0.6196  1.0484 -1.7079
 5735SOL     OW28663   4.039   0.213   5.617 -0.7460  0.4573  0.0188
 5735SOL    HW128664   4.071   0.264   5.692 -1.3320  1.0200 -0.1154
 5735SOL    HW228665   4.047   0.274   5.543 -1.5239 -0.0860 -0.5049
 5736SOL     OW28666   1.678   1.479   6.108  0.3355 -0.3841 -0.1539
 5736SOL    HW128667   1.741   1.510   6.173 -0.6410 -0.7101  0.9471
 5736SOL    HW228668   1.676   1.558   6.055 -1.5298  2.2452  3.8024
 5737SOL     OW28669   1.890   1.868   4.697 -0.3859 -0.1391 -0.3693
 5737SOL    HW128670   1.959   1.929   4.669 -0.6428  0.8887  1.2324
 5737SOL    HW228671   1.865   1.817   4.620 -3.6132  0.7757  0.0754
 5738SOL     OW28672   0.884   2.353   7.780  0.0304  0.4386  0.3878
 5738SOL    HW128673   0.962   2.382   7.733 -0.9660  2.2050 -0.1739
 5738SOL    HW228674   0.906   2.260   7.784  0.2100  0.5042  0.9221
 5739SOL     OW28675   4.018   0.970   4.026 -0.1045 -0.6749  0.3478
 5739SOL    HW128676   3.993   0.991   4.116 -0.8064 -0.1634  0.0329
 5739SOL    HW228677   4.041   0.877   4.028 -1.8565 -1.0852  1.4029
 5740SOL     OW28678   3.405   2.101   1.829 -0.7033 -0.0401 -0.3332
 5740SOL    HW128679   3.372   2.179   1.784  0.2750  0.7740  0.3752
 5740SOL    HW228680   3.377   2.029   1.773 -0.7387  0.6829 -1.2391
 5741SOL     OW28681   0.299   0.080   9.776 -0.4268  0.1914 -0.4172
 5741SOL    HW128682   0.243   0.030   9.836  0.2569  1.8912  1.6426
 5741SOL    HW228683   0.248   0.160   9.776  0.0094  0.4625 -1.2528
 5742SOL     OW28684   2.084   2.518   4.405 -0.2895  0.5381 -0.6322
 5742SOL    HW128685   2.168   2.561   4.384 -0.7865  1.7256 -0.1813
 5742SOL    HW228686   2.020   2.581   4.372 -0.3006 -0.0887 -1.8327
 5743SOL     OW28687   1.007   1.013   6.631  0.0004  0.3231  0.3501
 5743SOL    HW128688   1.034   0.922   6.628 -1.1908  0.0514 -1.8960
 5743SOL    HW228689   0.915   1.004   6.608 -0.2264  1.1581  0.8921
 5744SOL     OW28690   2.679   0.153   6.546 -0.5316 -0.9761 -0.2026
 5744SOL    HW128691   2.660   0.145   6.640  4.3904  0.0416  0.9153
 5744SOL    HW228692   2.772   0.136   6.532 -0.7958 -1.1258 -1.7558
 5745SOL     OW28693   4.479   3.499   9.914 -0.0336 -0.1723  0.2742
 5745SOL    HW128694   4.519   3.573   9.869  0.3111  0.1247  1.0689
 5745SOL    HW228695   4.384   3.512   9.906 -0.2219 -1.6555  0.0081
 5746SOL     OW28696   1.254   2.502   4.719 -0.1639  0.0826 -0.2601
 5746SOL    HW128697   1.255   2.459   4.634  1.1848  1.5117 -0.9615
 5746SOL    HW228698   1.341   2.507   4.758  0.3202  3.6065 -1.7646
 5747SOL     OW28699   2.888   4.198   4.928 -0.3849 -0.3717 -0.0909
 5747SOL    HW128700   2.802   4.215   4.968 -0.2861  0.5814 -0.2977
 5747SOL    HW228701   2.942   4.272   4.953 -0.9911  0.7420 -2.1277
 5748SOL     OW28702   3.266   2.250   2.035 -0.0170  0.5186  0.1034
 5748SOL    HW128703   3.297   2.247   2.125 -0.7243 -1.0618  0.2951
 5748SOL    HW228704   3.268   2.155   2.023 -1.1483  0.5019  0.0669
 5749SOL     OW28705   3.280   1.120  10.058 -0.6483 -0.2591  0.4293
 5749SOL    HW128706   3.258   1.054   9.992 -1.1439  0.9981 -0.6448
 5749SOL    HW228707   3.369   1.102  10.089 -1.5167 -0.4413  2.7989
 5750SOL     OW28708   2.221   2.827   6.759  0.5944 -0.1674  0.0527
 5750SOL    HW128709   2.267   2.803   6.839 -0.4355  1.5772  1.1701
 5750SOL    HW228710   2.203   2.737   6.735 -1.6182  0.3846 -0.3398
 5751SOL     OW28711   1.354   3.603   4.879 -0.2060 -0.6076  0.0782
 5751SOL    HW128712   1.305   3.588   4.960  0.9642 -1.4574  0.6296
 5751SOL    HW228713   1.360   3.513   4.846 -5.3380 -0.8153 -0.3295
 5752SOL     OW28714   1.293   3.933   8.106  0.1166 -0.1237 -1.0534
 5752SOL    HW128715   1.274   3.875   8.180 -1.8924 -0.5216 -1.8743
 5752SOL    HW228716   1.214   3.985   8.091  0.2867 -0.0663 -1.7435
 5753SOL     OW28717   0.194   2.676   9.107  0.0476 -0.6715 -0.3688
 5753SOL    HW128718   0.254   2.748   9.087  1.1467 -1.7481 -0.9507
 5753SOL    HW228719   0.154   2.720   9.182  0.5236 -0.4966 -0.2158
 5754SOL     OW28720   2.427   4.623   2.345 -0.3226  0.1275  0.1491
 5754SOL    HW128721   2.344   4.670   2.339 -0.7626 -0.7405 -0.4834
 5754SOL    HW228722   2.459   4.640   2.434 -0.8905 -0.3643  0.4495
 5755SOL     OW28723   1.450   1.284  14.615  0.6430  0.3793 -0.2932
 5755SOL    HW128724   1.472   1.366  14.658 -1.7641  1.1635 -0.5494
 5755SOL    HW228725   1.508   1.239  14.676  1.4709  0.6440 -0.8895
 5756SOL     OW28726   2.714   4.274  15.624 -0.1049 -0.4178  0.3867
 5756SOL    HW128727   2.687   4.187  15.595  0.1322 -0.2782 -0.2706
 5756SOL    HW228728   2.789   4.286  15.565 -1.5124  0.0671 -1.3163
 5757SOL     OW28729   1.359   1.691   3.933  0.2512 -0.0680 -0.0182
 5757SOL    HW128730   1.322   1.652   3.854 -1.0992 -0.3110  0.7148
 5757SOL    HW228731   1.309   1.773   3.937  0.3010 -0.0904  1.0235
 5758SOL     OW28732   4.231   3.630   2.493  0.4590  0.9873 -0.2325
 5758SOL    HW128733   4.306   3.590   2.536  0.5261  1.6835  0.2988
 5758SOL    HW228734   4.276   3.708   2.460  0.6708  0.3947 -1.3546
 5759SOL     OW28735   2.797   4.594   4.401 -0.4189 -0.9597 -0.2607
 5759SOL    HW128736   2.841   4.645   4.333  1.9234 -1.8167  0.5898
 5759SOL    HW228737   2.855   4.617   4.473 -0.8430 -2.4314  0.5413
 5760SOL     OW28738   3.424   2.019   0.989  0.1922 -0.5658 -0.2615
 5760SOL    HW128739   3.498   2.068   0.953  0.1591 -0.4143 -0.1241
 5760SOL    HW228740   3.457   1.946   1.042 -0.3708 -0.4049  0.3040
 5761SOL     OW28741   1.645   4.105  15.719 -0.2852 -0.2590  0.0807
 5761SOL    HW128742   1.569   4.121  15.774  0.6036  2.3344  0.5686
 5761SOL    HW228743   1.701   4.060  15.782  1.4646  0.4736 -0.9337
 5762SOL     OW28744   0.638   0.701   7.220 -0.4023 -0.6329  0.0349
 5762SOL    HW128745   0.577   0.766   7.186 -0.9455 -1.7311 -1.0912
 5762SOL    HW228746   0.572   0.640   7.253 -1.0318 -0.6416 -1.2280
 5763SOL     OW28747   4.261   1.693   4.568 -0.0973 -0.3970  0.4147
 5763SOL    HW128748   4.221   1.761   4.515  0.5390 -0.5217 -0.2218
 5763SOL    HW228749   4.260   1.726   4.658 -1.2828 -1.5958  0.8519
 5764SOL     OW28750   3.940   0.730   8.930  0.2123 -0.1261  0.0792
 5764SOL    HW128751   4.031   0.721   8.957  0.8407  3.1680 -0.9051
 5764SOL    HW228752   3.937   0.758   8.839  0.6842 -0.4131 -0.0232
 5765SOL     OW28753   2.699   1.004   9.414  0.6446  0.5821  0.9099
 5765SOL    HW128754   2.670   1.034   9.501  1.6420 -0.1111  1.4863
 5765SOL    HW228755   2.633   1.046   9.359  0.9500 -0.0607  0.0558
 5766SOL     OW28756   1.026   0.785   9.509  0.2565  0.3802 -0.6233
 5766SOL    HW128757   1.121   0.781   9.524 -0.2669 -0.6253  2.4870
 5766SOL    HW228758   1.000   0.694   9.522  0.7427  0.3126 -0.1033
 5767SOL     OW28759   2.278   3.733   6.445 -0.1960 -0.2428 -0.1323
 5767SOL    HW128760   2.233   3.673   6.385 -3.5264  1.0789  1.0620
 5767SOL    HW228761   2.209   3.792   6.475  2.1402  2.1725  0.4093
 5768SOL     OW28762   0.201   0.014   1.901 -0.3539  0.5812  0.1980
 5768SOL    HW128763   0.273   4.701   1.954  0.8678  1.2882 -1.0131
 5768SOL    HW228764   0.163   0.075   1.964  2.7578  0.8534  1.7949
 5769SOL     OW28765   4.325   1.728   2.503  0.1648  0.0911 -0.3091
 5769SOL    HW128766   4.241   1.774   2.495 -0.6273 -0.8245  2.8408
 5769SOL    HW228767   4.313   1.681   2.421  0.2210 -1.3109  0.4877
 5770SOL     OW28768   1.880   0.347   8.692 -0.5149 -0.1727  0.1263
 5770SOL    HW128769   1.856   0.269   8.641 -1.1969 -1.0125  1.7261
 5770SOL    HW228770   1.967   0.325   8.725  0.5360  3.2937 -0.3854
 5771SOL     OW28771   1.654   4.358   4.417  0.1168 -0.5026 -0.6314
 5771SOL    HW128772   1.626   4.403   4.496  0.3983  1.0716 -1.4341
 5771SOL    HW228773   1.696   4.427   4.367  0.0208 -0.9315 -1.3118
 5772SOL     OW28774   2.822   2.924   3.374  0.0777 -0.2703  0.0687
 5772SOL    HW128775   2.916   2.918   3.391  0.2925  1.1452 -0.7106
 5772SOL    HW228776   2.785   2.958   3.456  0.5552 -0.3832  0.3288
 5773SOL     OW28777   4.573   1.848   3.175  0.0308 -0.0115  0.5977
 5773SOL    HW128778   4.501   1.827   3.234 -0.6103 -1.2434 -0.6239
 5773SOL    HW228779   4.568   1.786   3.103 -1.6107 -0.1873  0.8673
 5774SOL     OW28780   0.553   2.091  14.984  0.0551 -0.0987  0.3563
 5774SOL    HW128781   0.612   2.057  15.052  0.0560 -1.1798 -0.1690
 5774SOL    HW228782   0.476   2.041  15.012  0.4212 -1.1872 -0.5635
 5775SOL     OW28783   3.952   4.048   4.159 -0.2344  0.3560 -0.6995
 5775SOL    HW128784   4.029   4.062   4.104  0.0118  2.2100  0.1350
 5775SOL    HW228785   3.980   3.975   4.215 -0.9955  0.0556 -0.7145
 5776SOL     OW28786   1.850   1.708   4.490  0.0735 -0.3525 -0.2020
 5776SOL    HW128787   1.860   1.709   4.394 -0.7077  1.3008 -0.2647
 5776SOL    HW228788   1.926   1.662   4.527  0.8203  1.1781  0.1464
 5777SOL     OW28789   3.914   0.347   8.793  0.0972 -0.6569  0.1302
 5777SOL    HW128790   3.973   0.413   8.830  1.3093 -1.2418 -0.7331
 5777SOL    HW228791   3.834   0.361   8.843  2.1725 -0.0476  3.2895
 5778SOL     OW28792   4.716   1.455   3.229  0.1838 -0.2598  0.2421
 5778SOL    HW128793   0.000   1.439   3.135 -0.1818 -3.7236  0.8247
 5778SOL    HW228794   0.086   1.435   3.257 -0.0344 -0.3031  0.9056
 5779SOL     OW28795   2.641   1.916   5.323  0.2365 -0.1618  0.4533
 5779SOL    HW128796   2.679   1.938   5.408 -0.8880  0.1262  0.8857
 5779SOL    HW228797   2.663   1.991   5.269 -1.2394  0.1908  0.3391
 5780SOL     OW28798   2.829   1.282   5.609 -0.3670  0.1719 -0.1288
 5780SOL    HW128799   2.770   1.357   5.618 -0.1376 -0.0187  2.8845
 5780SOL    HW228800   2.901   1.310   5.665 -0.2255 -0.1836 -0.1341
 5781SOL     OW28801   1.070   4.672   4.411  0.1541 -0.1116 -0.4499
 5781SOL    HW128802   1.125   0.012   4.462 -1.3587 -1.3582  2.6154
 5781SOL    HW228803   1.117   4.666   4.328  0.8401 -1.5950  0.0326
 5782SOL     OW28804   1.765   3.699   2.751 -0.0357 -0.1120  0.4860
 5782SOL    HW128805   1.760   3.776   2.694 -0.3376  0.4953  1.3317
 5782SOL    HW228806   1.756   3.626   2.690  0.7748  0.4222 -0.2727
 5783SOL     OW28807   0.990   4.032   2.990 -0.3436 -0.1385  0.4816
 5783SOL    HW128808   1.028   3.978   2.921  0.8479  0.6523  0.5120
 5783SOL    HW228809   1.059   4.096   3.008  0.6254 -1.3349  1.0379
 5784SOL     OW28810   1.670   3.439   2.651  0.1597  0.0199  0.1215
 5784SOL    HW128811   1.595   3.384   2.628  2.3760 -2.7501 -0.6015
 5784SOL    HW228812   1.704   3.451   2.562 -1.6487 -0.0750 -0.5789
 5785SOL     OW28813   1.173   1.808   8.368 -0.1616  0.6295  0.5266
 5785SOL    HW128814   1.183   1.750   8.444  0.0816  0.6845  0.5347
 5785SOL    HW228815   1.102   1.774   8.314 -0.1807 -2.1127  2.2295
 5786SOL     OW28816   1.017   4.719   1.733 -0.0410  0.0241 -0.1239
 5786SOL    HW128817   0.975   4.652   1.679  0.2683  0.7945 -1.3085
 5786SOL    HW228818   1.091   0.020   1.676  1.8763 -0.1133  2.3489
 5787SOL     OW28819   2.542   4.498   0.613  0.2288  0.0397 -0.7172
 5787SOL    HW128820   2.596   4.433   0.658 -0.9243 -0.1423  0.3833
 5787SOL    HW228821   2.614   4.547   0.571  1.0595 -0.3753  0.2253
 5788SOL     OW28822   1.144   2.221  16.223  0.3521  0.3172  0.2435
 5788SOL    HW128823   1.053   2.193  16.228  0.3745 -0.2042 -2.1052
 5788SOL    HW228824   1.174   2.154  16.161  0.3143  0.4334  0.0992
 5789SOL     OW28825   4.044   1.794   8.359 -0.2922 -0.6304  0.1063
 5789SOL    HW128826   4.077   1.706   8.344  2.1491  0.2882  0.1165
 5789SOL    HW228827   4.104   1.843   8.303  2.6222 -3.8994  0.4118
 5790SOL     OW28828   4.516   0.475  13.337  0.6117 -0.7007 -0.2011
 5790SOL    HW128829   4.481   0.429  13.413  1.1953  2.2642  1.8171
 5790SOL    HW228830   4.608   0.465  13.359  0.2767 -1.3561  0.8793
 5791SOL     OW28831   3.553   0.510  16.490 -0.5424 -0.2539 -0.1305
 5791SOL    HW128832   3.612   0.439  16.467 -1.6114 -1.0010 -0.5872
 5791SOL    HW228833   3.540   0.499  16.584 -0.0292 -0.1361 -0.0487
 5792SOL     OW28834   2.234   3.844   3.632 -0.1553 -0.5011 -0.7803
 5792SOL    HW128835   2.214   3.751   3.642 -1.9288  0.3634  3.6685
 5792SOL    HW228836   2.324   3.852   3.665 -0.8794 -0.2428  1.1044
 5793SOL     OW28837   0.193   2.521  15.722  0.3362 -0.0020  0.1887
 5793SOL    HW128838   0.137   2.443  15.727  0.9921 -0.4499  0.5667
 5793SOL    HW228839   0.184   2.544  15.630 -1.3378  0.5285  0.4754
 5794SOL     OW28840   3.676   1.868   1.790 -0.1318  0.0705 -0.5920
 5794SOL    HW128841   3.639   1.916   1.716  0.6138  2.2445  0.4483
 5794SOL    HW228842   3.718   1.796   1.743  2.8079  0.6831  1.0876
 5795SOL     OW28843   2.966   0.476   8.962 -0.4419  0.2564 -0.1130
 5795SOL    HW128844   3.007   0.560   8.984 -2.2254  1.4777 -1.4621
 5795SOL    HW228845   3.015   0.414   9.016 -2.4058 -0.1635  1.1875
 5796SOL     OW28846   0.048   2.260   1.101  0.5240  0.2903  0.5086
 5796SOL    HW128847   0.140   2.282   1.084  0.2310  0.9390 -0.2185
 5796SOL    HW228848   0.039   2.180   1.050 -0.1887  0.4797  0.3397
 5797SOL     OW28849   0.649   3.681   3.288 -0.0734 -0.1862 -0.4051
 5797SOL    HW128850   0.725   3.657   3.235  0.2454 -1.0167  0.4250
 5797SOL    HW228851   0.687   3.697   3.374 -2.1681  3.9195 -0.2447
 5798SOL     OW28852   3.986   1.511   4.524 -0.3418  0.2941  0.0970
 5798SOL    HW128853   4.066   1.565   4.524 -0.8347  1.0035 -0.9925
 5798SOL    HW228854   4.001   1.475   4.437  0.0161  2.6720 -0.8276
 5799SOL     OW28855   1.796   4.574   3.653  0.4734 -0.0448  0.3697
 5799SOL    HW128856   1.871   4.626   3.625 -1.1900  2.3403  0.2965
 5799SOL    HW228857   1.790   4.496   3.599  2.4160 -0.1206  0.2632
 5800SOL     OW28858   4.324   2.543   3.722  0.2428 -0.1808 -0.7368
 5800SOL    HW128859   4.268   2.511   3.794 -0.2993 -1.0117 -1.5232
 5800SOL    HW228860   4.287   2.631   3.714 -2.6405 -1.3643 -0.6962
 5801SOL     OW28861   0.416   0.919   1.042  0.2743  0.0705 -0.2258
 5801SOL    HW128862   0.347   0.919   1.109  2.1139  2.1791  1.6554
 5801SOL    HW228863   0.490   0.945   1.096  0.5365 -2.3573  0.6053
 5802SOL     OW28864   0.674   3.182   0.171 -0.0425 -0.5740  0.4700
 5802SOL    HW128865   0.740   3.173   0.240 -0.1626 -0.2447  0.6305
 5802SOL    HW228866   0.724   3.167   0.091  0.1812 -0.5872  0.6140
 5803SOL     OW28867   4.163   3.695   1.550  0.1625 -0.2701  0.6490
 5803SOL    HW128868   4.232   3.688   1.483  1.5525  0.3599  2.0189
 5803SOL    HW228869   4.201   3.732   1.629  3.3161 -1.3684 -0.3665
 5804SOL     OW28870   0.523   1.623  13.739 -0.3154 -0.6208 -0.2900
 5804SOL    HW128871   0.483   1.674  13.809 -0.2908 -0.7770 -0.1621
 5804SOL    HW228872   0.445   1.582  13.700 -0.8023  1.5976 -1.6302
 5805SOL     OW28873   4.320   4.540   7.115  0.2342  1.0102  0.5476
 5805SOL    HW128874   4.291   4.629   7.095  1.2868  1.3012  0.3171
 5805SOL    HW228875   4.322   4.495   7.031  0.1715 -0.4928  1.3536
 5806SOL     OW28876   1.005   1.972  11.666  0.5298 -0.0024  0.3351
 5806SOL    HW128877   0.974   2.057  11.697  0.2021  0.0572 -0.1602
 5806SOL    HW228878   0.973   1.914  11.735 -0.1050 -0.0509 -0.0033
 5807SOL     OW28879   4.051   1.602   7.069  0.5814  0.3110  0.0439
 5807SOL    HW128880   3.980   1.555   7.025 -0.2773  0.6231  1.0870
 5807SOL    HW228881   4.027   1.688   7.034 -4.4189 -1.4898 -0.9763
 5808SOL     OW28882   1.636   3.077   2.934 -0.1749 -0.4490  0.1516
 5808SOL    HW128883   1.685   3.122   2.865  0.9151 -0.1585  1.1159
 5808SOL    HW228884   1.555   3.127   2.935  0.2505  0.2548 -1.6145
 5809SOL     OW28885   2.848   0.058   8.387 -0.3873  0.0324  0.1913
 5809SOL    HW128886   2.841   0.139   8.437  0.4225  0.3356 -0.1884
 5809SOL    HW228887   2.897   4.716   8.442 -0.3476 -0.1594 -0.0559
 5810SOL     OW28888   0.802   3.847  14.011 -0.4662 -0.1139  0.4508
 5810SOL    HW128889   0.763   3.904  13.945  2.6994  0.9757 -0.4833
 5810SOL    HW228890   0.755   3.880  14.088  0.7151 -0.6160  1.3973
 5811SOL     OW28891   3.835   1.271   6.730  0.4069 -0.2650  0.5894
 5811SOL    HW128892   3.792   1.218   6.663  0.0138  0.3259  0.3729
 5811SOL    HW228893   3.889   1.329   6.676 -0.2149  1.5159  1.8850
 5812SOL     OW28894   2.550   3.278   2.471 -0.4468 -0.0094 -0.0954
 5812SOL    HW128895   2.528   3.364   2.507  0.9266 -0.1438  1.1073
 5812SOL    HW228896   2.489   3.260   2.400  0.2128 -0.3463 -0.5850
 5813SOL     OW28897   0.367   2.704   2.823  0.6761  0.2147 -0.1456
 5813SOL    HW128898   0.347   2.610   2.819  0.8930  0.2620 -2.5438
 5813SOL    HW228899   0.433   2.705   2.753 -0.4148  2.0533 -1.1458
 5814SOL     OW28900   1.004   4.535  14.518 -0.1635  0.2441  0.4124
 5814SOL    HW128901   0.973   4.624  14.531 -0.9742 -0.0984  0.8888
 5814SOL    HW228902   1.051   4.553  14.437  0.7533 -0.1460  0.8525
 5815SOL     OW28903   1.903   1.463   0.620 -0.0292 -0.1368  0.5550
 5815SOL    HW128904   1.982   1.415   0.644 -0.7537 -1.3251  0.5140
 5815SOL    HW228905   1.849   1.439   0.694 -1.1708  0.7989  0.0231
 5816SOL     OW28906   3.443   3.398  16.196 -0.0129  0.0950  0.4223
 5816SOL    HW128907   3.428   3.410  16.102 -1.2284 -1.9637  0.3675
 5816SOL    HW228908   3.490   3.315  16.191 -1.0046 -0.5371  1.3581
 5817SOL     OW28909   3.464   0.692   8.765  0.6181  0.3560  0.2888
 5817SOL    HW128910   3.396   0.625   8.774  3.0180 -2.4386 -2.4242
 5817SOL    HW228911   3.440   0.754   8.834 -1.8884  2.0249 -2.0783
 5818SOL     OW28912   3.110   4.011   5.036  0.0816 -0.9448  0.3873
 5818SOL    HW128913   3.038   4.072   5.017 -0.5488 -1.7985  0.0637
 5818SOL    HW228914   3.132   3.982   4.947 -2.6772 -0.2964 -0.5237
 5819SOL     OW28915   0.944   1.695   4.643  0.2310 -0.3346 -0.1422
 5819SOL    HW128916   0.856   1.728   4.656 -0.3434 -1.2581 -1.6383
 5819SOL    HW228917   0.950   1.650   4.727  1.0872 -0.4469 -0.2533
 5820SOL     OW28918   3.484   1.642   4.476 -0.0517  0.0101 -0.4519
 5820SOL    HW128919   3.441   1.606   4.554  0.1725  1.1907  0.2192
 5820SOL    HW228920   3.576   1.635   4.500 -0.3439 -0.2457  0.6387
 5821SOL     OW28921   3.685   4.288   8.120 -0.0372  0.4921 -0.1277
 5821SOL    HW128922   3.707   4.255   8.207  0.5713  1.0228 -0.0855
 5821SOL    HW228923   3.715   4.211   8.071  1.1583 -0.2983  1.8181
 5822SOL     OW28924   1.755   1.691   8.439 -0.1766  0.2281 -0.4443
 5822SOL    HW128925   1.834   1.639   8.453 -1.0709 -1.6771 -2.6595
 5822SOL    HW228926   1.777   1.750   8.367  0.5189  1.4314  0.7508
 5823SOL     OW28927   3.290   1.650   9.198  0.0249 -0.5580 -0.1884
 5823SOL    HW128928   3.303   1.707   9.122  1.9130  0.5286  0.9470
 5823SOL    HW228929   3.359   1.584   9.187  0.5592  0.3081 -1.8732
 5824SOL     OW28930   4.133   2.508   3.919 -0.1638  0.1684  0.3071
 5824SOL    HW128931   4.065   2.454   3.877 -0.3400  0.0681  0.7201
 5824SOL    HW228932   4.071   2.550   3.979  0.5282  1.3086  0.2197
 5825SOL     OW28933   3.725   2.978   2.470  0.1171  0.4957 -0.4281
 5825SOL    HW128934   3.652   3.033   2.443 -0.4131  2.2315  4.6924
 5825SOL    HW228935   3.791   3.047   2.462  0.7623 -0.3496 -2.4871
 5826SOL     OW28936   0.867   0.326   2.193 -0.1798 -0.1686 -0.3953
 5826SOL    HW128937   0.897   0.276   2.117 -2.5006 -2.7646  0.3948
 5826SOL    HW228938   0.933   0.304   2.258 -0.3773 -1.4813 -0.6286
 5827SOL     OW28939   0.072   2.988   4.873 -0.6142 -0.4253 -0.5633
 5827SOL    HW128940   0.035   2.911   4.832 -1.4628 -0.2198 -0.1712
 5827SOL    HW228941   0.027   2.987   4.958 -0.3478  1.8879 -0.3800
 5828SOL     OW28942   1.189   0.143   7.975 -0.0174  0.1779 -0.6928
 5828SOL    HW128943   1.242   0.111   7.902  0.2225 -0.1184 -0.3885
 5828SOL    HW228944   1.252   0.174   8.041  1.2686 -1.0034 -1.3731
 5829SOL     OW28945   3.402   3.185   4.916  0.6918 -0.4457 -0.6845
 5829SOL    HW128946   3.397   3.256   4.852  1.3853  0.8646  0.7059
 5829SOL    HW228947   3.390   3.111   4.857 -1.9866  0.1844 -0.9230
 5830SOL     OW28948   1.760   2.249  16.978 -0.1718 -0.1131 -0.3810
 5830SOL    HW128949   1.746   2.157  16.999 -0.3766 -0.1371 -0.6217
 5830SOL    HW228950   1.669   2.278  16.976  0.4798  1.9661  0.3721
 5831SOL     OW28951   1.680   1.039  12.037  0.6239  0.7906 -0.1867
 5831SOL    HW128952   1.689   1.046  11.942 -2.9658 -0.2431 -0.5823
 5831SOL    HW228953   1.767   0.998  12.042 -0.1766 -0.9594 -0.8901
 5832SOL     OW28954   0.815   3.762   7.364  0.2174 -0.0682 -0.3826
 5832SOL    HW128955   0.842   3.685   7.414  0.5745 -0.4977 -1.2311
 5832SOL    HW228956   0.728   3.772   7.403  0.9611  0.5955  1.0976
 5833SOL     OW28957   4.372   2.323   7.069  0.4222 -0.2747 -0.1272
 5833SOL    HW128958   4.331   2.275   6.997  1.2161 -0.3602 -0.5199
 5833SOL    HW228959   4.323   2.292   7.145  0.1758 -0.7437 -0.4850
 5834SOL     OW28960   4.184   2.717  10.921  0.0417 -0.1453 -0.1341
 5834SOL    HW128961   4.194   2.671  11.005  0.9287 -1.0010 -0.7214
 5834SOL    HW228962   4.227   2.801  10.940 -0.8996  0.3901 -0.3558
 5835SOL     OW28963   1.775   0.339   4.991 -0.0488  0.2427 -0.0804
 5835SOL    HW128964   1.683   0.362   4.983  0.2919  2.1950  1.5271
 5835SOL    HW228965   1.764   0.248   4.963  4.0126 -0.4256  0.5261
 5836SOL     OW28966   1.076   2.552   1.354  0.5369  0.0771 -0.0860
 5836SOL    HW128967   1.114   2.501   1.425  3.0581  2.2094  0.1090
 5836SOL    HW228968   0.995   2.588   1.392  1.2916  1.8241 -0.1125
 5837SOL     OW28969   3.309   0.277  13.650  0.3062  0.0521  0.1832
 5837SOL    HW128970   3.399   0.309  13.653 -0.0242  0.9471  0.3976
 5837SOL    HW228971   3.293   0.280  13.745  0.5651  0.5302  0.2101
 5838SOL     OW28972   4.474   0.477   6.376  0.2124  0.0079  0.2920
 5838SOL    HW128973   4.387   0.496   6.411 -0.2846  0.5426 -1.2581
 5838SOL    HW228974   4.531   0.522   6.438  3.1230 -1.8109 -1.0554
 5839SOL     OW28975   3.689   2.734   9.818  0.2130  0.6310  0.5700
 5839SOL    HW128976   3.650   2.733   9.731  0.0850  3.0664  0.5833
 5839SOL    HW228977   3.764   2.791   9.802 -0.4008  1.8689  2.0568
 5840SOL     OW28978   1.716   2.637   3.983  0.8431  0.6973  0.3626
 5840SOL    HW128979   1.744   2.724   3.954  1.4508  0.3050 -0.2166
 5840SOL    HW228980   1.668   2.656   4.064 -1.3164 -1.9775 -0.3138
 5841SOL     OW28981   4.587   3.207  10.915  0.4174  0.1592  0.0633
 5841SOL    HW128982   4.602   3.121  10.875 -0.3939  0.6816 -1.3469
 5841SOL    HW228983   4.664   3.246  10.874 -0.2122  0.1633 -1.0928
 5842SOL     OW28984   2.112   0.061   6.829  0.4313 -0.8250 -0.3453
 5842SOL    HW128985   2.199   0.041   6.863  1.4340  0.7736 -2.0264
 5842SOL    HW228986   2.134   0.133   6.771 -1.7687  0.7811  0.8303
 5843SOL     OW28987   0.400   0.848  17.299  0.1773 -0.7514  0.4492
 5843SOL    HW128988   0.351   0.924  17.266 -0.7659 -1.2750  0.6402
 5843SOL    HW228989   0.376   0.777  17.239  2.6410  0.2713 -1.7661
 5844SOL     OW28990   1.477   3.435   6.986  0.3286  0.6225  0.0689
 5844SOL    HW128991   1.573   3.430   6.986  0.3886  1.5593  1.4948
 5844SOL    HW228992   1.461   3.398   7.073  0.0849  0.5926  0.0106
 5845SOL     OW28993   0.222   1.727  13.709  0.4780 -0.4943  0.2043
 5845SOL    HW128994   0.164   1.684  13.771 -1.2305  0.4348 -0.7378
 5845SOL    HW228995   0.240   1.656  13.647 -0.0650 -0.6821  0.2640
 5846SOL     OW28996   0.420   3.019   9.880 -0.0561 -0.3014 -0.9567
 5846SOL    HW128997   0.476   3.077   9.933 -0.4039 -1.5096  0.7194
 5846SOL    HW228998   0.469   2.939   9.865  1.8167  0.6079  0.3141
 5847SOL     OW28999   1.762   2.511  14.894 -0.1389 -0.1321 -0.3298
 5847SOL    HW129000   1.846   2.555  14.906  1.1806 -2.5199 -0.8007
 5847SOL    HW229001   1.748   2.473  14.981 -0.2275  0.3530 -0.1350
 5848SOL     OW29002   0.399   1.502  17.626 -0.2240 -0.7529  0.1087
 5848SOL    HW129003   0.484   1.508  17.583 -1.0966  0.2352 -1.4701
 5848SOL    HW229004   0.382   1.596  17.634 -1.7147 -0.7786 -3.1444
 5849SOL     OW29005   1.757   1.797  14.844  0.1480  0.0734  0.2782
 5849SOL    HW129006   1.763   1.855  14.768  0.5604 -0.2524  0.0552
 5849SOL    HW229007   1.692   1.737  14.807 -0.7508  1.4739 -0.3802
 5850SOL     OW29008   2.623   4.386   1.261 -0.5327  0.3098  0.2643
 5850SOL    HW129009   2.528   4.392   1.273 -0.7132  1.8187 -1.9390
 5850SOL    HW229010   2.630   4.369   1.167 -1.4815  0.0682  0.2352
 5851SOL     OW29011   1.504   2.881   1.199 -0.5750 -1.1488 -0.3951
 5851SOL    HW129012   1.580   2.910   1.249 -0.8522  1.3399 -1.4099
 5851SOL    HW229013   1.476   2.961   1.154 -0.0393 -1.0610 -0.5840
 5852SOL     OW29014   4.303   2.462   2.743  0.7197  0.1174  0.4972
 5852SOL    HW129015   4.244   2.491   2.674 -0.7016 -1.1375  1.1797
 5852SOL    HW229016   4.237   2.446   2.811 -0.1891  0.5912 -0.2831
 5853SOL     OW29017   2.464   4.399   8.441  0.1430 -0.0456  0.2613
 5853SOL    HW129018   2.421   4.382   8.525 -0.0640 -1.9755 -0.2350
 5853SOL    HW229019   2.552   4.428   8.466 -0.2976  0.0070  1.7268
 5854SOL     OW29020   2.095   4.011   6.015  0.6608 -0.2087 -0.3995
 5854SOL    HW129021   2.157   4.066   6.062  0.6700 -0.9237  0.4036
 5854SOL    HW229022   2.141   4.008   5.931 -0.1885 -1.5253 -0.8254
 5855SOL     OW29023   4.110   1.077   5.668  0.0201 -0.0772  0.3496
 5855SOL    HW129024   4.179   1.131   5.629  1.2140 -1.9965 -0.2022
 5855SOL    HW229025   4.080   1.028   5.591 -0.1154 -2.1976  1.7554
 5856SOL     OW29026   1.782   0.069  16.457  0.0539 -0.0768  0.7376
 5856SOL    HW129027   1.790   0.108  16.544 -1.7966 -1.1264  1.3673
 5856SOL    HW229028   1.858   0.011  16.458  1.7453  2.0805 -0.8927
 5857SOL     OW29029   1.083   3.879   6.037  0.3499  0.5871  0.2701
 5857SOL    HW129030   1.096   3.786   6.056 -0.9641  0.1468 -1.0015
 5857SOL    HW229031   1.151   3.896   5.972  0.3947  2.4017  0.7653
 5858SOL     OW29032   2.718   4.026   1.615  0.2726 -0.2103 -0.0748
 5858SOL    HW129033   2.657   3.991   1.680  1.5513 -1.1256  0.6369
 5858SOL    HW229034   2.805   4.028   1.655 -0.8025 -0.1849  2.2938
 5859SOL     OW29035   1.907   3.716   0.161  0.3809  0.0288  0.5626
 5859SOL    HW129036   1.840   3.650   0.142  0.2627 -0.2913  2.0420
 5859SOL    HW229037   1.956   3.660   0.221  2.2787 -1.7861 -2.6847
 5860SOL     OW29038   2.195   0.669   6.381  0.0017  0.2363 -0.2447
 5860SOL    HW129039   2.251   0.605   6.339  0.7550  0.3428  0.5949
 5860SOL    HW229040   2.107   0.655   6.346 -0.6749  0.9999  1.1143
 5861SOL     OW29041   1.590   0.978   6.831  0.4495  0.8100 -0.3684
 5861SOL    HW129042   1.553   1.045   6.773 -1.7610 -0.6287 -0.6577
 5861SOL    HW229043   1.546   0.997   6.914 -0.4936 -0.4747 -0.5684
 5862SOL     OW29044   0.023   3.104  16.323  0.0932  0.5918 -0.0187
 5862SOL    HW129045   4.653   3.076  16.303 -0.0926  1.5748 -0.5430
 5862SOL    HW229046   0.055   3.142  16.242  2.6104  3.4793  2.3271
 5863SOL     OW29047   2.310   0.397   7.976 -0.3870  0.1185 -0.3795
 5863SOL    HW129048   2.353   0.413   8.060 -1.9112 -0.2242  0.4722
 5863SOL    HW229049   2.221   0.398   8.012  0.8104 -1.1009  2.6310
 5864SOL     OW29050   0.855   0.686   9.919 -0.4008  0.2181 -0.3477
 5864SOL    HW129051   0.784   0.689   9.856 -1.8896  0.5955  1.3493
 5864SOL    HW229052   0.849   0.779   9.940 -0.5379  0.3408 -0.9548
 5865SOL     OW29053   0.280   2.400   7.710 -0.3414 -0.2168 -0.1244
 5865SOL    HW129054   0.190   2.367   7.711 -0.8113  1.0844 -0.5949
 5865SOL    HW229055   0.323   2.367   7.789  1.9358  1.0414 -0.8299
 5866SOL     OW29056   2.236   3.679   5.702  0.0710  0.2317  0.3379
 5866SOL    HW129057   2.235   3.659   5.608  0.4380 -0.6099  0.5062
 5866SOL    HW229058   2.329   3.690   5.721  0.2560 -0.5533 -0.0777
 5867SOL     OW29059   1.537   3.608   7.745 -0.1527 -0.2824  0.0238
 5867SOL    HW129060   1.631   3.594   7.755 -0.0579  0.5100  0.2126
 5867SOL    HW229061   1.504   3.530   7.790  0.2130  0.0396  0.8359
 5868SOL     OW29062   2.201   4.331   5.101 -0.5478 -0.1438  0.2794
 5868SOL    HW129063   2.257   4.254   5.087 -1.4957 -0.9521  0.9696
 5868SOL    HW229064   2.120   4.297   5.064 -0.9145  1.2832 -0.1978
 5869SOL     OW29065   1.457   2.919  15.855 -0.4952 -0.4109 -0.6360
 5869SOL    HW129066   1.388   2.881  15.910  1.3104 -1.0710  1.1760
 5869SOL    HW229067   1.470   2.859  15.782  0.0542 -1.6795  0.5110
 5870SOL     OW29068   1.275   1.824   4.762 -0.3502  0.3553 -0.4788
 5870SOL    HW129069   1.311   1.744   4.801 -0.3970  0.1673 -0.8267
 5870SOL    HW229070   1.253   1.798   4.673 -0.0498  2.5753 -1.2087
 5871SOL     OW29071   1.303   1.640   0.812 -0.1202  0.4459  0.4163
 5871SOL    HW129072   1.227   1.582   0.818 -0.4556  0.7806 -0.6209
 5871SOL    HW229073   1.319   1.646   0.718 -2.0434  0.4658  0.0940
 5872SOL     OW29074   3.052   0.619   8.219 -0.0671  0.0242  0.8960
 5872SOL    HW129075   2.982   0.608   8.154  1.7086  0.4708 -1.0768
 5872SOL    HW229076   3.124   0.607   8.156 -0.3004  0.8577  0.4760
 5873SOL     OW29077   4.247   3.168   2.122  0.5354 -0.3305 -0.0096
 5873SOL    HW129078   4.203   3.219   2.054  0.9269 -0.0009 -0.0197
 5873SOL    HW229079   4.206   3.205   2.200  2.1370  1.2436  0.0851
 5874SOL     OW29080   0.063   2.728   5.873 -0.3121  0.1751  0.2798
 5874SOL    HW129081   0.019   2.653   5.833  1.5096 -0.6308 -0.2327
 5874SOL    HW229082   0.077   2.784   5.797 -0.6682  0.9015  0.7478
 5875SOL     OW29083   4.011   3.583   3.247  0.0631 -0.3441 -0.6089
 5875SOL    HW129084   3.952   3.526   3.296 -0.7654  0.2160 -0.9522
 5875SOL    HW229085   4.087   3.602   3.303  0.4664  2.1434 -1.9861
 5876SOL     OW29086   1.321   1.497  13.634  0.3457 -0.5519 -0.6241
 5876SOL    HW129087   1.285   1.525  13.719  0.0370 -3.3068  0.1575
 5876SOL    HW229088   1.247   1.507  13.574 -0.8009 -1.3859  0.6374
 5877SOL     OW29089   4.084   1.123   6.024  0.1836 -0.5339  0.4116
 5877SOL    HW129090   4.111   1.081   6.106  0.2164 -0.5302  0.4028
 5877SOL    HW229091   3.998   1.087   6.004  0.3302 -0.1159 -0.9921
 5878SOL     OW29092   0.604   3.730   7.934  0.4082 -0.6670  0.4095
 5878SOL    HW129093   0.611   3.657   7.995  3.3764 -0.7439 -0.0050
 5878SOL    HW229094   0.570   3.796   7.994  1.5158  1.4643 -1.2778
 5879SOL     OW29095   1.392   0.689   7.918 -0.2483  0.3145  0.4003
 5879SOL    HW129096   1.397   0.739   7.837 -2.0370  1.0754  0.7566
 5879SOL    HW229097   1.300   0.682   7.942 -0.4662 -0.5974 -0.7390
 5880SOL     OW29098   3.367   3.816   9.196  0.0794  0.1490  0.0743
 5880SOL    HW129099   3.412   3.877   9.254 -1.3752 -0.2631  1.6283
 5880SOL    HW229100   3.405   3.835   9.110 -1.0294 -0.8244 -0.6323
 5881SOL     OW29101   4.134   2.390   2.993  0.3841 -0.1360  0.1537
 5881SOL    HW129102   4.207   2.355   3.044  1.6849  1.8607 -0.3298
 5881SOL    HW229103   4.068   2.419   3.056  2.2691 -0.9890  2.5322
 5882SOL     OW29104   4.210   4.418   3.619  0.9382 -0.3061  0.1940
 5882SOL    HW129105   4.200   4.433   3.525  2.3618  1.1768  0.2733
 5882SOL    HW229106   4.154   4.486   3.655  1.6250 -0.6270  1.8770
 5883SOL     OW29107   3.028   3.201   8.404  0.1998  0.3012  0.3768
 5883SOL    HW129108   3.094   3.133   8.395  1.7229  1.6797  1.0441
 5883SOL    HW229109   2.965   3.170   8.339 -1.2826  2.8037  0.6055
 5884SOL     OW29110   1.977   1.267   9.112  0.6313 -0.1707 -0.0509
 5884SOL    HW129111   1.981   1.289   9.019 -0.3966  0.4083  0.0348
 5884SOL    HW229112   1.925   1.186   9.116 -1.4927  1.2985  2.5399
 5885SOL     OW29113   2.911   4.116  15.358  0.0485 -0.1008  0.0625
 5885SOL    HW129114   2.958   4.099  15.277 -1.7902 -1.3645 -0.7443
 5885SOL    HW229115   2.878   4.205  15.346  2.3755  1.0767  2.4954
 5886SOL     OW29116   1.492   3.317   8.709  0.1670  0.0131  0.2249
 5886SOL    HW129117   1.465   3.408   8.705  0.1556 -0.0179 -0.4816
 5886SOL    HW229118   1.420   3.272   8.666  1.3190 -3.1167  1.5327
 5887SOL     OW29119   3.289   0.564   8.088 -0.4347 -0.2046 -0.1015
 5887SOL    HW129120   3.336   0.497   8.136 -1.0330 -2.2177 -2.3189
 5887SOL    HW229121   3.353   0.635   8.082 -0.5222  0.0046  1.6185
 5888SOL     OW29122   1.278   1.812   5.146  0.4407 -0.5182 -0.3390
 5888SOL    HW129123   1.334   1.747   5.187 -0.8282 -1.6460 -0.4148
 5888SOL    HW229124   1.344   1.840   5.083  3.3186 -1.8318  2.0929
 5889SOL     OW29125   4.306   1.555   4.923  0.0295  0.0985 -0.1844
 5889SOL    HW129126   4.229   1.589   4.878 -0.9368 -2.8146 -0.6912
 5889SOL    HW229127   4.279   1.467   4.945  1.8028 -0.3685  0.1314
 5890SOL     OW29128   4.637   3.721   0.719 -0.3281 -0.4087 -0.4751
 5890SOL    HW129129   4.703   3.669   0.673 -0.2250 -0.4454 -0.2842
 5890SOL    HW229130   4.626   3.802   0.669  1.1742 -0.2102 -0.4984
 5891SOL     OW29131   4.683   0.086   3.973  0.1162 -0.2629 -0.4568
 5891SOL    HW129132   0.040   0.081   4.029 -0.4449  2.7515  0.5676
 5891SOL    HW229133   4.694   0.026   3.900 -0.2978  0.3422 -1.0264
 5892SOL     OW29134   0.367   4.170   4.351  0.3433  0.2972  0.2406
 5892SOL    HW129135   0.408   4.086   4.372  4.5447  2.6483  1.4356
 5892SOL    HW229136   0.354   4.202   4.440 -0.2262  0.8864 -0.0569
 5893SOL     OW29137   3.755   0.726   6.596  0.4253  0.0918 -0.1483
 5893SOL    HW129138   3.709   0.748   6.515  1.7586 -1.7188 -1.4029
 5893SOL    HW229139   3.678   0.727   6.652  0.5618  1.4111  0.0032
 5894SOL     OW29140   0.922   1.387   1.977  0.3982 -0.6701 -0.0358
 5894SOL    HW129141   0.850   1.415   1.920 -1.3860 -0.0963  2.5289
 5894SOL    HW229142   1.007   1.421   1.949  0.2566 -1.1931 -1.0962
 5895SOL     OW29143   4.333   3.716  15.464 -0.5971 -0.2451 -0.8119
 5895SOL    HW129144   4.423   3.748  15.472 -1.3085  1.7506 -0.7810
 5895SOL    HW229145   4.349   3.624  15.481  2.5301  0.6546  1.1286
 5896SOL     OW29146   4.654   1.504   5.334 -0.0652 -0.1016 -0.0639
 5896SOL    HW129147   0.017   1.547   5.356  0.3208 -0.5544 -0.6120
 5896SOL    HW229148   4.673   1.421   5.377 -0.8647 -0.7680 -0.9869
 5897SOL     OW29149   4.439   2.897  11.303  0.0584 -0.1047 -0.1266
 5897SOL    HW129150   4.449   2.971  11.243 -1.0108 -0.2857 -0.5100
 5897SOL    HW229151   4.418   2.946  11.383 -0.4727  0.1490 -0.4195
 5898SOL     OW29152   1.098   1.831   0.243  0.5782 -0.2306  0.1361
 5898SOL    HW129153   1.053   1.804   0.323 -0.9315  0.4787 -0.4525
 5898SOL    HW229154   1.111   1.926   0.253 -0.8017  0.1582 -1.5035
 5899SOL     OW29155   3.271   2.161   2.655  0.6227 -0.4270  0.3968
 5899SOL    HW129156   3.286   2.187   2.746 -0.2172  1.5688 -0.0565
 5899SOL    HW229157   3.321   2.224   2.603 -1.1695 -0.5396 -1.4541
 5900SOL     OW29158   4.042   2.677   5.774 -0.0284  0.1826 -0.3952
 5900SOL    HW129159   3.973   2.700   5.836  0.0343 -0.3221 -0.1381
 5900SOL    HW229160   3.993   2.709   5.698 -0.8793  0.6558  0.3478
 5901SOL     OW29161   2.560   2.624  10.630  0.1861  0.6326  0.1232
 5901SOL    HW129162   2.646   2.665  10.631  0.5704 -0.2170  2.5159
 5901SOL    HW229163   2.561   2.579  10.715  0.5526  2.3668  1.0420
 5902SOL     OW29164   4.490   0.749   2.706  0.2842 -0.0200  0.5380
 5902SOL    HW129165   4.406   0.724   2.668  2.2186 -0.3001 -3.5734
 5902SOL    HW229166   4.556   0.722   2.641  1.6544 -0.4633  2.1236
 5903SOL     OW29167   0.676   1.127   2.702  0.3874 -0.2735  0.1693
 5903SOL    HW129168   0.665   1.106   2.795  1.6294 -0.9875  0.1542
 5903SOL    HW229169   0.661   1.044   2.658  1.1046 -0.3365  0.0480
 5904SOL     OW29170   1.023   1.754   3.906  0.3248  0.1938  0.4543
 5904SOL    HW129171   1.039   1.663   3.885  0.5843 -0.0660  1.8194
 5904SOL    HW229172   1.112   1.788   3.911  0.2395  0.0900  2.6495
 5905SOL     OW29173   2.160   0.422   8.748 -0.3990  0.2053 -0.6806
 5905SOL    HW129174   2.188   0.475   8.823  0.2133 -0.2364 -0.5901
 5905SOL    HW229175   2.146   0.490   8.681  0.7946  1.7252  0.5859
 5906SOL     OW29176   0.644   1.033   1.344  0.1898  0.4639  0.0252
 5906SOL    HW129177   0.666   1.020   1.252  2.6708  1.2342  0.4928
 5906SOL    HW229178   0.681   1.121   1.354  0.6055  0.3817 -0.7635
 5907SOL     OW29179   2.851   3.952   3.791 -0.1257 -0.1293  0.1398
 5907SOL    HW129180   2.806   3.990   3.866  0.2696  0.2360  0.1905
 5907SOL    HW229181   2.933   3.942   3.840  0.4558 -0.0270 -0.8100
 5908SOL     OW29182   2.362   0.314   6.798 -0.0409  0.0713  0.0897
 5908SOL    HW129183   2.438   0.355   6.839 -0.6687  1.8224 -0.5119
 5908SOL    HW229184   2.292   0.324   6.863 -1.7005 -0.1845 -1.6620
 5909SOL     OW29185   3.286   4.189   2.605 -0.3012  0.4477  0.4914
 5909SOL    HW129186   3.377   4.175   2.633 -0.2805  1.1857  0.7928
 5909SOL    HW229187   3.261   4.097   2.594  0.7479  0.2443 -0.3316
 5910SOL     OW29188   4.235   3.929   2.688  0.4621 -0.7088 -0.1579
 5910SOL    HW129189   4.198   3.962   2.770  1.6773 -2.9215  1.2572
 5910SOL    HW229190   4.161   3.943   2.629 -0.5879 -0.7688  1.1351
 5911SOL     OW29191   3.982   3.417   6.969  0.1720  0.4712 -0.0767
 5911SOL    HW129192   3.931   3.363   6.909  1.5034  0.0669 -0.8405
 5911SOL    HW229193   4.069   3.377   6.964  0.4687  0.9852  0.9671
 5912SOL     OW29194   0.020   1.181   4.436 -0.2589  0.4226  0.6778
 5912SOL    HW129195   0.021   1.104   4.380  0.2747 -0.7738  2.3223
 5912SOL    HW229196   4.653   1.220   4.425  0.1662  1.3004  0.4488
 5913SOL     OW29197   4.502   3.096   8.811 -0.3154  0.1228  0.4609
 5913SOL    HW129198   4.441   3.127   8.878 -0.0474  0.2547  0.6498
 5913SOL    HW229199   4.531   3.178   8.772 -3.0041 -0.6711 -3.1176
 5914SOL     OW29200   3.226   2.348   4.277 -0.7368 -0.0409 -0.5770
 5914SOL    HW129201   3.216   2.255   4.258 -0.3895 -0.2588  0.3384
 5914SOL    HW229202   3.176   2.386   4.205 -0.1695  0.6498 -0.6064
 5915SOL     OW29203   1.050   1.269   0.922  0.2737  0.1421  0.0287
 5915SOL    HW129204   0.999   1.192   0.895  0.5912 -0.8010  2.1169
 5915SOL    HW229205   1.140   1.237   0.935  0.2747  0.6404  1.2175
 5916SOL     OW29206   3.437   3.592   5.512 -0.1364 -0.2422 -0.0066
 5916SOL    HW129207   3.375   3.529   5.476  2.0709 -2.7809  0.6583
 5916SOL    HW229208   3.382   3.664   5.544 -0.2231 -1.1314  1.8271
 5917SOL     OW29209   3.590   2.521   1.689 -0.3050  0.2846  0.1369
 5917SOL    HW129210   3.608   2.491   1.778 -0.5222 -0.0833  0.0567
 5917SOL    HW229211   3.682   2.526   1.663  0.1559 -3.0118  1.0781
 5918SOL     OW29212   4.343   0.277  10.001  0.1515  0.3274 -0.6696
 5918SOL    HW129213   4.367   0.210  10.065 -0.6453  0.8295  0.1555
 5918SOL    HW229214   4.313   0.339  10.067  0.4165 -1.2121  0.8925
 5919SOL     OW29215   2.329   1.846   4.455  0.1002 -0.0679  0.2178
 5919SOL    HW129216   2.395   1.782   4.428 -0.2617 -0.5288  0.4237
 5919SOL    HW229217   2.354   1.866   4.545 -2.0592  0.4730  0.7082
 5920SOL     OW29218   2.470   2.473  13.240 -0.0100 -0.5264  0.0537
 5920SOL    HW129219   2.426   2.555  13.214 -0.6863 -0.5340  1.1864
 5920SOL    HW229220   2.488   2.481  13.333  1.5547  0.4707 -0.3298
 5921SOL     OW29221   4.447   4.168  10.419 -0.3157  0.1002 -0.4183
 5921SOL    HW129222   4.500   4.120  10.482 -1.4446 -0.1885  0.3170
 5921SOL    HW229223   4.373   4.193  10.475 -0.5688  2.6195 -1.8728
 5922SOL     OW29224   0.993   2.413   5.657  0.0587  0.3050  0.1450
 5922SOL    HW129225   1.009   2.506   5.670 -1.0207  0.3774  0.9295
 5922SOL    HW229226   0.934   2.413   5.582  2.6070  3.5641 -1.8864
 5923SOL     OW29227   3.548   1.546   7.562 -0.1745  0.0126  0.7466
 5923SOL    HW129228   3.505   1.529   7.645 -0.0758  0.3010  0.8550
 5923SOL    HW229229   3.641   1.558   7.582  0.3889  1.1190 -2.4798
 5924SOL     OW29230   4.549   2.359   0.738  0.0312  0.0909 -0.8450
 5924SOL    HW129231   4.488   2.408   0.683 -0.5713 -0.1988 -0.4329
 5924SOL    HW229232   4.616   2.426   0.752 -2.5095  2.2869  0.8928
 5925SOL     OW29233   3.815   0.090   3.934  0.2948  0.4961  0.6437
 5925SOL    HW129234   3.801   0.155   3.865 -1.4009 -0.4644  0.0767
 5925SOL    HW229235   3.900   0.112   3.972  0.4605 -0.4947  0.8603
 5926SOL     OW29236   3.381   2.891   9.288 -0.2452 -0.0996  0.6816
 5926SOL    HW129237   3.329   2.965   9.258  2.1211  0.8601 -1.0610
 5926SOL    HW229238   3.316   2.828   9.317  1.0379 -1.0210  1.5438
 5927SOL     OW29239   3.477   3.241   8.178  0.5390  0.3961  0.1390
 5927SOL    HW129240   3.526   3.318   8.151  1.1541 -0.0206  0.0826
 5927SOL    HW229241   3.506   3.238   8.269  1.0294 -0.5443 -0.0514
 5928SOL     OW29242   2.445   2.995   7.382  0.0394  0.7622 -0.5269
 5928SOL    HW129243   2.516   2.994   7.317  0.2119  1.5630 -0.3523
 5928SOL    HW229244   2.479   2.930   7.444  0.9195  1.3083 -0.4390
 5929SOL     OW29245   2.522   1.145   7.227  0.1622  0.3562  0.6135
 5929SOL    HW129246   2.452   1.179   7.171  2.0318 -0.2749 -2.1355
 5929SOL    HW229247   2.480   1.081   7.285 -2.4834  0.7847 -0.8226
 5930SOL     OW29248   1.849   0.240  16.668 -0.0600  0.5078  1.1510
 5930SOL    HW129249   1.936   0.270  16.695  1.2724 -0.2643 -2.3604
 5930SOL    HW229250   1.797   0.317  16.694 -1.5826  0.3161 -1.3750
 5931SOL     OW29251   0.868   2.624   6.428  0.0959 -0.0843  0.5984
 5931SOL    HW129252   0.833   2.605   6.341 -2.6397  2.9735  0.9975
 5931SOL    HW229253   0.844   2.715   6.448  1.8725  0.1840  1.5096
 5932SOL     OW29254   0.112   1.802   1.460  0.1423  0.2048  0.3014
 5932SOL    HW129255   0.038   1.861   1.478 -0.3702 -0.0755 -0.8605
 5932SOL    HW229256   0.062   1.724   1.433  0.6725 -0.4776  1.3255
 5933SOL     OW29257   3.488   0.011  11.615 -0.6965 -0.2888  0.0970
 5933SOL    HW129258   3.444   4.692  11.691 -1.4076 -0.1855 -0.2676
 5933SOL    HW229259   3.558   0.065  11.653  0.0326  1.5982 -3.9423
 5934SOL     OW29260   3.671   4.228   7.058 -0.2519  0.4289 -0.2833
 5934SOL    HW129261   3.722   4.285   7.001  0.8025  0.6010  0.8259
 5934SOL    HW229262   3.621   4.172   6.999 -1.6904 -0.1850  1.5230
 5935SOL     OW29263   1.020   0.270   3.517 -0.3147 -0.1661 -0.1512
 5935SOL    HW129264   0.961   0.335   3.554 -0.7862 -1.6230  1.6949
 5935SOL    HW229265   0.991   0.185   3.550  0.4262 -1.2827 -2.3518
 5936SOL     OW29266   4.372   4.546  11.469 -0.1587 -0.2523  0.1477
 5936SOL    HW129267   4.319   4.624  11.454 -0.2028  0.2084  2.8200
 5936SOL    HW229268   4.416   4.534  11.384 -1.5495  1.1528 -0.7579
 5937SOL     OW29269   0.638   1.991   0.945 -0.2335 -0.2161 -0.0005
 5937SOL    HW129270   0.559   1.969   0.994 -0.3633  1.9765  0.7660
 5937SOL    HW229271   0.677   1.906   0.929 -0.0827 -0.5421  2.1222
 5938SOL     OW29272   2.423   0.881   5.232 -0.4684  0.4012 -0.4560
 5938SOL    HW129273   2.488   0.945   5.261  0.2479 -0.8983  0.8198
 5938SOL    HW229274   2.355   0.939   5.200  0.6529  2.8786  1.6481
 5939SOL     OW29275   0.756   3.220   4.977  0.1969  0.0740 -0.2809
 5939SOL    HW129276   0.842   3.244   5.010 -0.3932  3.0011 -0.8707
 5939SOL    HW229277   0.726   3.308   4.952 -1.3379  0.1343  1.7154
 5940SOL     OW29278   1.315   3.285   9.938 -0.0410 -0.3604 -0.3855
 5940SOL    HW129279   1.257   3.211   9.954  1.3341 -1.6268 -1.2579
 5940SOL    HW229280   1.275   3.334   9.866 -1.7963  0.2553  1.0178
 5941SOL     OW29281   4.126   2.746   6.177 -0.0804  0.5093  0.2331
 5941SOL    HW129282   4.183   2.687   6.227 -1.1594  0.8640  1.9251
 5941SOL    HW229283   4.185   2.812   6.143  0.3910 -0.6741 -1.2382
 5942SOL     OW29284   0.588   3.576   3.026 -0.1972  0.2995  0.2445
 5942SOL    HW129285   0.572   3.566   3.120  1.2051 -1.2204  0.3409
 5942SOL    HW229286   0.645   3.653   3.030  0.3493  0.0157 -2.2592
 5943SOL     OW29287   0.857   1.637   5.401 -0.3904  0.7118  0.0132
 5943SOL    HW129288   0.929   1.601   5.453 -0.6010  2.5950  1.6098
 5943SOL    HW229289   0.787   1.636   5.466 -0.7844  2.2804 -0.3714
 5944SOL     OW29290   3.149   1.928   2.270 -0.1826 -0.8707  0.1884
 5944SOL    HW129291   3.237   1.922   2.232 -1.0195 -0.3323 -1.8348
 5944SOL    HW229292   3.140   2.022   2.282  0.2458 -0.7947 -0.0803
 5945SOL     OW29293   0.427   2.611   8.630 -0.5677 -0.2494  0.7375
 5945SOL    HW129294   0.396   2.582   8.544  0.3892  2.0241 -0.3744
 5945SOL    HW229295   0.408   2.534   8.683  3.3103 -2.3828 -1.0037
 5946SOL     OW29296   2.117   0.202   7.556 -0.2497 -0.1232  0.4754
 5946SOL    HW129297   2.044   0.176   7.499  0.7272  2.7801 -2.1189
 5946SOL    HW229298   2.186   0.224   7.494 -0.4524  0.8802  0.6024
 5947SOL     OW29299   3.421   2.446  16.214  0.0674  0.1467 -0.3860
 5947SOL    HW129300   3.338   2.490  16.235  0.1439 -0.9804  2.2948
 5947SOL    HW229301   3.460   2.447  16.301  1.0332  2.3502 -0.8499
 5948SOL     OW29302   2.466   2.752   6.582  1.2496  0.2577 -0.3644
 5948SOL    HW129303   2.544   2.795   6.546  0.1534  0.9809 -1.8817
 5948SOL    HW229304   2.403   2.824   6.588 -0.7711 -1.6205  0.8605
 5949SOL     OW29305   1.033   2.683   5.657  0.1295 -0.4017  0.4890
 5949SOL    HW129306   1.116   2.708   5.616 -0.0451 -1.6046 -0.6080
 5949SOL    HW229307   1.024   2.744   5.730  1.1573  1.0767 -0.6166
 5950SOL     OW29308   3.590   1.335   6.390  0.1026 -0.0665  0.5563
 5950SOL    HW129309   3.658   1.275   6.359 -1.0098 -1.6518  1.1292
 5950SOL    HW229310   3.576   1.404   6.326  1.1846  1.1890  1.6717
 5951SOL     OW29311   3.919   0.258   2.900  0.3963  0.4643 -0.0034
 5951SOL    HW129312   4.015   0.252   2.899  0.3649  0.0354 -0.3513
 5951SOL    HW229313   3.893   0.238   2.810 -0.3055  0.4315  0.2076
 5952SOL     OW29314   0.163   1.325   0.556 -0.9197  0.5329  0.5505
 5952SOL    HW129315   0.204   1.362   0.634  3.2707  1.3563 -2.0367
 5952SOL    HW229316   0.156   1.398   0.495  1.3401 -0.9299 -1.4754
 5953SOL     OW29317   3.846   3.411   5.657 -0.3543 -0.3819  0.3493
 5953SOL    HW129318   3.804   3.497   5.649  0.3438 -0.0424  0.2728
 5953SOL    HW229319   3.910   3.407   5.586  0.9184  2.3745  1.3128
 5954SOL     OW29320   2.988   1.429   2.963 -0.3360  0.3319 -1.1708
 5954SOL    HW129321   2.999   1.523   2.951 -1.5533  0.6245  0.0343
 5954SOL    HW229322   3.057   1.387   2.912  1.3795  2.8716 -0.9146
 5955SOL     OW29323   0.432   0.181  11.102  0.0583 -0.5936  0.1627
 5955SOL    HW129324   0.525   0.193  11.122 -0.2248  0.8625  0.5813
 5955SOL    HW229325   0.416   0.088  11.121  2.2327 -1.6323 -3.0712
 5956SOL     OW29326   3.424   1.380   9.131  0.2633 -0.2549 -0.4589
 5956SOL    HW129327   3.411   1.321   9.205  0.8185 -1.3701 -1.2534
 5956SOL    HW229328   3.519   1.385   9.136  0.3256  0.3917 -2.2282
 5957SOL     OW29329   2.278   3.403   3.793  0.1121 -0.1157  0.1569
 5957SOL    HW129330   2.274   3.360   3.707  1.8535  2.3348 -1.1390
 5957SOL    HW229331   2.322   3.327   3.830  2.6695  0.5793 -1.4834
 5958SOL     OW29332   4.515   3.155   6.942 -0.3324  0.4514 -0.0344
 5958SOL    HW129333   4.597   3.193   6.972 -0.7191  0.7254  0.6656
 5958SOL    HW229334   4.483   3.128   7.028 -1.2149 -0.3207 -0.6019
 5959SOL     OW29335   2.754   1.993   5.049 -0.6093 -0.1586  0.2752
 5959SOL    HW129336   2.779   2.058   4.983 -2.6713  0.5488  0.1900
 5959SOL    HW229337   2.840   1.967   5.082  0.1424  0.1620 -1.4169
 5960SOL     OW29338   1.214   2.018  16.932  0.1288  0.3232 -0.9370
 5960SOL    HW129339   1.222   2.111  16.914 -1.8716  0.5326 -0.6725
 5960SOL    HW229340   1.220   1.979  16.845 -1.4174 -3.4487  0.6466
 5961SOL     OW29341   1.494   3.957  17.129 -0.4241 -0.1552 -0.7659
 5961SOL    HW129342   1.420   3.933  17.185 -0.3849 -0.8878 -1.0210
 5961SOL    HW229343   1.514   3.876  17.082  2.9931 -1.1783  2.4837
 5962SOL     OW29344   3.510   4.267   3.770  0.0022  0.2948 -0.3154
 5962SOL    HW129345   3.605   4.261   3.773 -0.0234 -1.4528 -2.7966
 5962SOL    HW229346   3.485   4.199   3.833 -1.6036 -0.1861 -1.4953
 5963SOL     OW29347   3.453   3.186   2.466 -0.0019 -0.1540 -0.3781
 5963SOL    HW129348   3.359   3.194   2.483 -0.3074 -1.2587 -1.5664
 5963SOL    HW229349   3.487   3.173   2.555 -1.3981 -0.0431  0.1679
 5964SOL     OW29350   3.430   1.515  15.806 -0.2323  0.6019 -0.3290
 5964SOL    HW129351   3.423   1.438  15.750 -2.4356 -0.5201  1.4829
 5964SOL    HW229352   3.342   1.528  15.841 -1.4608 -1.7151 -2.5957
 5965SOL     OW29353   3.244   3.067   1.528  0.1113  0.0128  0.4481
 5965SOL    HW129354   3.329   3.106   1.507 -1.1783  2.3209 -0.4462
 5965SOL    HW229355   3.224   3.106   1.613 -0.2823 -3.2433  1.8536
 5966SOL     OW29356   3.520   1.987   5.894  0.0384  0.1888 -0.6930
 5966SOL    HW129357   3.565   2.070   5.875  1.8059 -0.6555 -0.2460
 5966SOL    HW229358   3.472   2.009   5.973  2.4838  1.0429  0.5482
 5967SOL     OW29359   0.327   3.389  11.615  0.3453  0.2444  0.3150
 5967SOL    HW129360   0.318   3.355  11.704  1.5526 -0.3800  0.1943
 5967SOL    HW229361   0.422   3.386  11.609  0.3627  0.1455  0.6590
 5968SOL     OW29362   0.936   1.851  11.158  0.4485 -0.0038 -0.6402
 5968SOL    HW129363   0.914   1.823  11.069  0.7218 -0.7492 -0.4760
 5968SOL    HW229364   0.960   1.942  11.140  1.0015  0.5665  2.8770
 5969SOL     OW29365   3.262   1.279  15.995  0.4090 -0.2432 -0.3439
 5969SOL    HW129366   3.253   1.225  16.074 -1.0530 -1.2163 -1.1684
 5969SOL    HW229367   3.255   1.368  16.030  1.6819  0.2973 -1.4659
 5970SOL     OW29368   4.536   0.745  16.260 -1.0156  0.1710 -1.0243
 5970SOL    HW129369   4.495   0.755  16.173 -1.5202  1.4125 -0.6343
 5970SOL    HW229370   4.521   0.832  16.296  1.6324  0.4626 -0.6968
 5971SOL     OW29371   0.024   4.314   8.225 -0.0846 -0.0703 -0.0801
 5971SOL    HW129372   0.075   4.325   8.145 -0.7622 -2.8832 -0.8829
 5971SOL    HW229373   0.009   4.220   8.221  0.8052 -0.1875 -0.6350
 5972SOL     OW29374   1.638   1.743   7.306 -0.2743  0.1303  0.7294
 5972SOL    HW129375   1.581   1.819   7.318  0.8497  1.3935 -2.0427
 5972SOL    HW229376   1.711   1.758   7.366  0.5144 -2.0271  0.2993
 5973SOL     OW29377   3.414   3.976   3.435  0.3206  0.3362 -0.2410
 5973SOL    HW129378   3.376   3.967   3.348  1.1556 -2.4224 -0.3024
 5973SOL    HW229379   3.451   4.064   3.432  0.9333 -0.0238 -2.6195
 5974SOL     OW29380   0.643   2.444   1.153  0.5410 -0.0010  0.4605
 5974SOL    HW129381   0.685   2.474   1.072  0.7606 -0.1322  0.5263
 5974SOL    HW229382   0.550   2.458   1.134  0.7566  0.7837 -0.0048
 5975SOL     OW29383   0.122   0.386  17.393  0.0167 -0.1037  0.1744
 5975SOL    HW129384   0.136   0.410  17.485  0.2817 -0.2824  0.1805
 5975SOL    HW229385   0.038   0.432  17.383  0.1403 -0.1104 -0.8878
 5976SOL     OW29386   1.804   1.719   5.296 -0.0735  0.1440 -0.0645
 5976SOL    HW129387   1.870   1.738   5.228  1.1568 -0.6827  0.8948
 5976SOL    HW229388   1.855   1.744   5.373 -0.3268 -2.2871  0.8924
 5977SOL     OW29389   2.110   3.263   8.112 -0.0524 -0.4041 -0.8835
 5977SOL    HW129390   2.063   3.344   8.130  0.1363 -0.7156  1.0398
 5977SOL    HW229391   2.071   3.197   8.170 -1.1490 -0.0314 -1.1877
 5978SOL     OW29392   3.576   0.960   8.656  0.1431 -0.0299  0.0704
 5978SOL    HW129393   3.665   0.928   8.671  1.0875  2.7217  0.2790
 5978SOL    HW229394   3.535   0.876   8.636 -1.5201  0.7985 -0.0631
 5979SOL     OW29395   1.161   2.298   1.798  0.9403  0.0975 -0.5736
 5979SOL    HW129396   1.112   2.319   1.877  0.5450 -0.6252 -0.6335
 5979SOL    HW229397   1.247   2.337   1.816  0.7742  0.0693  0.2670
 5980SOL     OW29398   1.725   0.298   3.101 -0.3161 -0.2271 -0.0984
 5980SOL    HW129399   1.714   0.312   3.007  1.2144 -3.1562 -0.7267
 5980SOL    HW229400   1.804   0.345   3.126 -0.5393 -0.1358  0.4369
 5981SOL     OW29401   2.232   0.472   3.033 -0.2234 -0.6101 -0.4089
 5981SOL    HW129402   2.210   0.497   2.943 -2.7452  0.3073  0.4513
 5981SOL    HW229403   2.305   0.531   3.051  0.5340 -1.9248  0.8001
 5982SOL     OW29404   0.006   1.155  16.920  0.3227 -0.4529 -0.1008
 5982SOL    HW129405   4.631   1.165  16.926  0.2622  0.9022 -3.4531
 5982SOL    HW229406   0.031   1.220  16.854 -2.2184  1.8193  1.1991
 5983SOL     OW29407   2.392   3.240   8.166 -0.1932 -0.7947  0.4485
 5983SOL    HW129408   2.419   3.289   8.088  1.2379 -0.5786  1.0722
 5983SOL    HW229409   2.297   3.245   8.161 -0.0958  0.3087 -0.4896
 5984SOL     OW29410   1.876   2.689   5.449 -0.7964 -0.2977  0.5066
 5984SOL    HW129411   1.804   2.688   5.386 -0.3279 -0.6634 -0.0302
 5984SOL    HW229412   1.849   2.629   5.518 -2.3123  0.5099  0.6149
 5985SOL     OW29413   4.453   0.300   3.555  0.2640  0.2540  0.0771
 5985SOL    HW129414   4.451   0.264   3.644 -0.9095 -0.4697 -0.2448
 5985SOL    HW229415   4.549   0.303   3.548  0.5067 -2.7696  1.9162
 5986SOL     OW29416   1.984   2.124   4.060  0.6588  0.3552  0.9362
 5986SOL    HW129417   1.983   2.057   4.128 -0.4231 -2.3961 -1.7819
 5986SOL    HW229418   1.912   2.087   4.009  0.7045  1.6942 -0.1283
 5987SOL     OW29419   3.489   1.161   3.137  0.4265 -0.1117  0.3402
 5987SOL    HW129420   3.430   1.230   3.107  0.3289 -0.3970 -0.1343
 5987SOL    HW229421   3.460   1.156   3.228  2.3447  0.7782  0.9873
 5988SOL     OW29422   2.150   1.374   2.496  0.5050  0.2804 -0.4987
 5988SOL    HW129423   2.205   1.303   2.527 -1.5871 -1.6462 -1.1887
 5988SOL    HW229424   2.128   1.414   2.580 -1.8988 -1.5016 -0.2560
 5989SOL     OW29425   4.507   0.665  10.378 -0.0590 -0.2556 -0.2988
 5989SOL    HW129426   4.417   0.636  10.360 -0.3002  0.4413 -0.2139
 5989SOL    HW229427   4.496   0.723  10.453 -0.7288 -2.8880  1.6272
 5990SOL     OW29428   1.150   0.322   4.477  0.1297 -0.0755 -0.0088
 5990SOL    HW129429   1.133   0.340   4.385  0.6797 -0.9358 -0.2799
 5990SOL    HW229430   1.081   0.377   4.515  0.1558 -0.8126  1.1238
 5991SOL     OW29431   3.162   1.597  15.816  0.3853  0.1481  0.9424
 5991SOL    HW129432   3.090   1.631  15.870 -0.3408 -2.3475  1.5288
 5991SOL    HW229433   3.121   1.566  15.736  2.8338  0.1366 -0.2857
 5992SOL     OW29434   0.955   3.501   3.665  0.3307 -0.1486  0.0312
 5992SOL    HW129435   0.919   3.551   3.591 -1.8386 -1.3547  0.2613
 5992SOL    HW229436   0.972   3.574   3.724  0.8484  0.9975 -1.5292
 5993SOL     OW29437   1.103   2.116   5.549 -0.1801  1.0263  0.3147
 5993SOL    HW129438   1.011   2.142   5.548 -0.5214 -0.0978  2.1192
 5993SOL    HW229439   1.114   2.065   5.469  0.0782  0.6024  0.6155
 5994SOL     OW29440   2.702   3.666  17.291  0.2228 -0.9462  0.0254
 5994SOL    HW129441   2.621   3.715  17.300  0.2052 -1.2305  1.3498
 5994SOL    HW229442   2.693   3.651  17.197  0.4040 -0.4616 -0.0686
 5995SOL     OW29443   4.288   0.427   2.595  0.5435 -0.1455 -0.5032
 5995SOL    HW129444   4.297   0.520   2.577 -1.8922 -0.6549 -4.2938
 5995SOL    HW229445   4.382   0.421   2.611  0.6388 -0.4559 -1.1904
 5996SOL     OW29446   1.509   2.959   4.945 -0.3689  0.0054 -0.2422
 5996SOL    HW129447   1.462   2.875   4.946  0.9415 -0.7375 -0.4265
 5996SOL    HW229448   1.456   3.004   4.879  0.3812 -0.2289 -1.0081
 5997SOL     OW29449   0.523   2.810   1.253 -0.4292  0.0394 -0.6565
 5997SOL    HW129450   0.570   2.855   1.323  1.9627 -2.4320 -0.6792
 5997SOL    HW229451   0.583   2.832   1.181 -1.1417  1.0904 -0.9336
 5998SOL     OW29452   1.504   4.543   1.254  0.3145  0.5808  0.1597
 5998SOL    HW129453   1.589   4.579   1.228  0.6850 -1.6518 -1.7733
 5998SOL    HW229454   1.451   4.534   1.175  1.6433 -0.6895 -0.5900
 5999SOL     OW29455   0.816   2.995   3.329 -0.3657 -0.3274 -0.0579
 5999SOL    HW129456   0.777   2.983   3.415 -1.1415 -2.8761 -0.7682
 5999SOL    HW229457   0.765   2.931   3.278  1.5294 -0.7728 -1.3896
 6000SOL     OW29458   1.363   0.788   5.795  0.0216  0.7402  0.4509
 6000SOL    HW129459   1.388   0.722   5.730  0.9191  2.3948 -0.8667
 6000SOL    HW229460   1.364   0.730   5.871 -1.0325  1.5374  1.0678
 6001SOL     OW29461   0.888   1.516   1.455  0.1900  0.1131 -0.4334
 6001SOL    HW129462   0.847   1.431   1.436 -1.8919  1.0672 -0.2367
 6001SOL    HW229463   0.821   1.572   1.415 -0.8674 -0.0567  1.0829
 6002SOL     OW29464   2.788   1.606  16.054  0.2472  0.2276  0.0382
 6002SOL    HW129465   2.828   1.609  16.141  1.9796 -1.6920 -0.6769
 6002SOL    HW229466   2.845   1.674  16.017  2.7905 -2.0488 -0.2404
 6003SOL     OW29467   1.384   3.215  14.900  1.0723 -0.1735 -0.2044
 6003SOL    HW129468   1.469   3.256  14.885  0.9317  0.2983  0.2951
 6003SOL    HW229469   1.334   3.287  14.939  0.1978 -0.5927 -0.5394
 6004SOL     OW29470   1.932   1.123  13.033  0.5690 -0.2217 -0.2603
 6004SOL    HW129471   1.855   1.091  12.987  2.1008 -1.7301 -1.7664
 6004SOL    HW229472   1.918   1.056  13.100 -1.1141  0.6582  0.2719
 6005SOL     OW29473   2.523   1.780   2.002 -0.3448 -0.8986  0.0784
 6005SOL    HW129474   2.590   1.843   1.976 -0.0309 -1.1276  0.3315
 6005SOL    HW229475   2.573   1.702   2.027 -0.7368 -1.3757 -0.6552
 6006SOL     OW29476   2.178   0.909   7.672  0.3367 -0.6586 -1.0940
 6006SOL    HW129477   2.259   0.917   7.622  0.7835  0.4346 -0.1822
 6006SOL    HW229478   2.166   0.814   7.674  4.3330 -1.1406 -0.8309
 6007SOL     OW29479   4.400   4.549   8.786 -0.0800 -0.3881 -0.2279
 6007SOL    HW129480   4.459   4.477   8.764 -2.4943 -3.1152  2.1065
 6007SOL    HW229481   4.328   4.500   8.827 -0.9033  1.2134  0.2405
 6008SOL     OW29482   1.248   2.990   2.255  0.1145  0.4475  0.4072
 6008SOL    HW129483   1.275   3.077   2.284 -0.3208  0.5072  0.6345
 6008SOL    HW229484   1.237   2.998   2.160 -0.2353 -0.8242  0.3489
 6009SOL     OW29485   4.350   2.349   6.314  0.3369  0.1459  0.3489
 6009SOL    HW129486   4.325   2.257   6.328  3.5911 -0.8370 -0.1179
 6009SOL    HW229487   4.284   2.367   6.247  0.7993  2.6437  0.5804
 6010SOL     OW29488   0.764   0.831   9.507 -0.2088  0.1626 -0.1872
 6010SOL    HW129489   0.853   0.798   9.496  0.2140  1.2223  0.0479
 6010SOL    HW229490   0.739   0.795   9.592  0.1759  0.9228  0.2536
 6011SOL     OW29491   0.356   0.615   8.695  0.2632 -0.0693 -0.1134
 6011SOL    HW129492   0.377   0.660   8.614  0.2448  2.8574  1.4946
 6011SOL    HW229493   0.303   0.674   8.750  0.4173  0.4066 -0.4832
 6012SOL     OW29494   3.281   3.465   7.167 -0.0965 -0.2647  0.6793
 6012SOL    HW129495   3.323   3.382   7.186 -0.8057 -0.9160 -0.5810
 6012SOL    HW229496   3.332   3.493   7.091 -0.7021  1.1176  0.7846
 6013SOL     OW29497   0.057   1.602  12.033 -0.1520 -0.0189  0.1737
 6013SOL    HW129498   0.083   1.677  11.979 -3.9274 -0.2017 -1.8353
 6013SOL    HW229499   4.687   1.633  12.046 -0.8657 -1.8447 -0.4018
 6014SOL     OW29500   0.929   4.474   0.670  0.4769  0.0263 -0.2830
 6014SOL    HW129501   0.837   4.468   0.695  1.2070  2.1666  2.9801
 6014SOL    HW229502   0.939   4.437   0.582  1.0110  1.3487 -0.7747
 6015SOL     OW29503   1.003   0.692   4.002 -0.3212 -0.2891  0.8620
 6015SOL    HW129504   0.932   0.651   4.051 -0.4623  0.2589  1.1093
 6015SOL    HW229505   0.969   0.781   3.992  1.1006  0.0523 -1.0502
 6016SOL     OW29506   1.360   0.144  11.838  0.1489  0.1178  0.3644
 6016SOL    HW129507   1.349   0.052  11.864  2.1694 -0.6160 -1.3854
 6016SOL    HW229508   1.344   0.191  11.919  1.1692  1.7516 -0.3910
 6017SOL     OW29509   3.747   1.916   4.240  0.3302 -0.4532  0.3107
 6017SOL    HW129510   3.786   1.963   4.167  2.2669 -1.6584  0.5622
 6017SOL    HW229511   3.691   1.849   4.202  1.7802 -1.2537 -0.4185
 6018SOL     OW29512   3.183   3.538   6.270  0.1016  0.6868  0.2954
 6018SOL    HW129513   3.117   3.512   6.206  1.8860 -1.8256 -0.5417
 6018SOL    HW229514   3.256   3.495   6.225  1.2435  0.3256  2.4661
 6019SOL     OW29515   2.101   1.636  17.281 -0.2240  0.3853  0.1834
 6019SOL    HW129516   2.186   1.603  17.311 -0.1242  0.7867  0.3475
 6019SOL    HW229517   2.042   1.614  17.353  0.4549 -3.8881 -0.5355
 6020SOL     OW29518   1.451   1.608   8.204  0.1113 -0.3645  0.1282
 6020SOL    HW129519   1.507   1.597   8.128  0.0784  2.9384 -0.3796
 6020SOL    HW229520   1.438   1.517   8.231  0.3959 -0.7190 -0.9438
 6021SOL     OW29521   4.680   4.193   6.052 -0.2437  0.8073 -0.2645
 6021SOL    HW129522   4.604   4.199   6.111  0.0866  2.5915  0.0057
 6021SOL    HW229523   4.696   4.286   6.033  0.4279 -0.0489 -3.8117
 6022SOL     OW29524   0.893   3.120   0.286 -0.2074 -0.1043  0.0587
 6022SOL    HW129525   0.902   3.060   0.211  1.3205 -0.2014  0.3231
 6022SOL    HW229526   0.954   3.074   0.344 -0.4132 -2.0232 -1.2497
 6023SOL     OW29527   3.947   0.678   5.361 -0.2867 -0.6653 -0.5617
 6023SOL    HW129528   3.890   0.716   5.294  0.6220  0.3102 -0.7697
 6023SOL    HW229529   3.879   0.648   5.422  0.4956  1.3205  1.2903
 6024SOL     OW29530   1.987   2.511   5.782 -0.1212 -0.0332  0.2703
 6024SOL    HW129531   1.990   2.439   5.720  0.7305 -1.7194  2.2829
 6024SOL    HW229532   1.895   2.537   5.781 -0.3741 -0.9070  1.6095
 6025SOL     OW29533   3.800   3.533  11.676 -0.0712 -0.2047  0.5591
 6025SOL    HW129534   3.889   3.564  11.663  0.6458 -3.0155 -1.4555
 6025SOL    HW229535   3.741   3.602  11.646  1.0371  0.7836  0.6889
 6026SOL     OW29536   0.490   0.590   4.805  0.2792  0.1893  0.2995
 6026SOL    HW129537   0.441   0.548   4.876  1.5436 -1.2818  0.2933
 6026SOL    HW229538   0.456   0.536   4.734  2.9840 -0.5622 -0.4460
 6027SOL     OW29539   2.461   4.035   2.382  0.0977 -0.0652 -0.2292
 6027SOL    HW129540   2.487   3.976   2.452 -0.5090  0.1090  0.1362
 6027SOL    HW229541   2.528   4.019   2.315 -0.0835 -2.6501  0.1926
 6028SOL     OW29542   1.353   3.088   4.279 -0.2990  0.3002  0.2075
 6028SOL    HW129543   1.439   3.057   4.310  0.2655 -0.6087 -2.3072
 6028SOL    HW229544   1.380   3.098   4.188  1.5065  0.4482  0.7453
 6029SOL     OW29545   2.648   4.234   4.692 -0.2735 -0.2025 -0.3362
 6029SOL    HW129546   2.740   4.213   4.679  0.3008  0.4677  2.5245
 6029SOL    HW229547   2.616   4.156   4.738 -0.8119  2.1759  3.2911
 6030SOL     OW29548   1.704   4.674   9.517  0.5197  0.2711 -0.7184
 6030SOL    HW129549   1.706   0.032   9.573 -2.2190  1.0862 -1.7356
 6030SOL    HW229550   1.633   4.622   9.557  1.0645  0.7759  0.8910
 6031SOL     OW29551   0.374   3.494   8.429 -0.2000 -0.3503  0.0789
 6031SOL    HW129552   0.453   3.526   8.474 -0.7470  1.3596 -0.1928
 6031SOL    HW229553   0.396   3.403   8.406 -1.0624 -0.4584 -0.2967
 6032SOL     OW29554   2.848   4.707  14.820 -0.0767  0.0846  0.1237
 6032SOL    HW129555   2.776   4.645  14.814 -1.6858  1.7695  1.8619
 6032SOL    HW229556   2.813   0.065  14.776 -0.1146 -0.9827 -1.7205
 6033SOL     OW29557   0.765   1.191   0.670 -0.1262  0.2984  0.0886
 6033SOL    HW129558   0.709   1.119   0.640  2.5754 -1.6504 -0.3274
 6033SOL    HW229559   0.804   1.147   0.746  0.4840  2.1843  0.8689
 6034SOL     OW29560   4.330   1.079   9.719 -0.9514  0.0759  0.6679
 6034SOL    HW129561   4.285   1.053   9.800 -2.8208 -1.3075 -0.8020
 6034SOL    HW229562   4.401   1.131   9.756  0.9091 -1.9103 -0.1698
 6035SOL     OW29563   0.167   4.406   1.838  0.4986 -0.4621 -0.3962
 6035SOL    HW129564   0.251   4.451   1.841 -0.2110  0.6994  1.5994
 6035SOL    HW229565   0.192   4.313   1.841  0.5538 -0.3793  1.6952
 6036SOL     OW29566   2.795   4.542   2.132  0.1765  0.1051  0.1320
 6036SOL    HW129567   2.703   4.519   2.124  0.4639 -0.1052 -2.7641
 6036SOL    HW229568   2.797   4.590   2.215 -0.5088  0.0128  0.1968
 6037SOL     OW29569   4.397   4.256  15.471  0.2192  0.0112 -0.5105
 6037SOL    HW129570   4.391   4.188  15.403 -0.2304  1.0025 -1.4651
 6037SOL    HW229571   4.337   4.216  15.533  1.8207 -1.1103  0.3201
 6038SOL     OW29572   0.767   3.356  14.968  0.1743  0.5021 -0.1344
 6038SOL    HW129573   0.766   3.296  14.894 -1.2162  0.8803 -0.4195
 6038SOL    HW229574   0.829   3.425  14.943  0.6782  0.5143  1.1090
 6039SOL     OW29575   1.020   3.174   2.447  0.5291 -0.4497 -0.1086
 6039SOL    HW129576   1.003   3.098   2.503  0.9696 -0.9952 -0.7016
 6039SOL    HW229577   0.931   3.208   2.439  0.0427 -1.4105  1.1673
 6040SOL     OW29578   1.126   3.457   2.985  0.6905 -0.9205  0.8016
 6040SOL    HW129579   1.061   3.520   3.017  0.0619 -1.1136 -0.1007
 6040SOL    HW229580   1.166   3.428   3.067 -0.3207  0.0248  1.6424
 6041SOL     OW29581   1.508   1.467   6.477 -0.6541  0.2365  0.1407
 6041SOL    HW129582   1.532   1.410   6.404  0.4398  1.4920 -0.4856
 6041SOL    HW229583   1.591   1.469   6.523  0.7200  2.9386 -2.4614
 6042SOL     OW29584   0.880   1.063  13.734 -0.0112 -0.6006 -0.1601
 6042SOL    HW129585   0.893   0.978  13.777  0.9957  0.5656  1.8818
 6042SOL    HW229586   0.883   1.036  13.643  1.3492  2.3061 -0.9870
 6043SOL     OW29587   4.537   2.390   1.039  0.1383  0.1348 -0.1371
 6043SOL    HW129588   4.582   2.433   0.967 -0.7723  1.2009 -0.0811
 6043SOL    HW229589   4.611   2.356   1.090  0.2816  1.4595  0.5615
 6044SOL     OW29590   2.571   1.835   1.298  0.0621 -0.1286 -0.2981
 6044SOL    HW129591   2.503   1.772   1.318 -0.8240  0.7185 -0.6170
 6044SOL    HW229592   2.533   1.890   1.229  2.0788  1.6797  0.0158
 6045SOL     OW29593   0.861   3.443   7.927 -0.4528 -0.0285 -0.2688
 6045SOL    HW129594   0.841   3.461   7.835  1.4011  0.8504 -0.4919
 6045SOL    HW229595   0.956   3.453   7.933 -0.6166  1.7964 -0.8280
 6046SOL     OW29596   2.047   3.865   5.732  0.0376 -0.2807  0.0846
 6046SOL    HW129597   2.108   3.792   5.740 -1.7844 -1.8450 -0.5410
 6046SOL    HW229598   2.108   3.932   5.700 -0.1414 -0.7016 -1.1129
 6047SOL     OW29599   3.040   0.193   3.167 -0.3705 -0.4281  0.5429
 6047SOL    HW129600   3.109   0.190   3.233 -0.6837  1.8827  0.9611
 6047SOL    HW229601   2.988   0.119   3.198 -2.0375  0.7028  0.4756
 6048SOL     OW29602   2.116   0.755   5.124 -0.4505 -0.1317 -0.0176
 6048SOL    HW129603   2.195   0.702   5.131  1.4833  2.9689  1.9115
 6048SOL    HW229604   2.054   0.699   5.077  2.5397 -2.3389 -1.3039
 6049SOL     OW29605   2.044   1.613  10.018  0.0969 -0.2291 -0.0522
 6049SOL    HW129606   2.095   1.575  10.090  0.4623 -1.1232 -0.7794
 6049SOL    HW229607   1.962   1.610  10.067  0.4109  1.1425  0.5518
 6050SOL     OW29608   1.128   0.330  11.312 -0.1264 -0.3256 -0.0046
 6050SOL    HW129609   1.168   0.368  11.234  0.0386  0.5724  0.5101
 6050SOL    HW229610   1.051   0.382  11.335 -0.6416 -2.5198  3.2463
 6051SOL     OW29611   4.213   1.445   7.747 -0.0941  0.1346 -0.3676
 6051SOL    HW129612   4.274   1.372   7.735 -1.4141 -0.7768 -1.5237
 6051SOL    HW229613   4.151   1.415   7.681  0.3019 -0.0808 -0.6406
 6052SOL     OW29614   4.702   0.457   2.717  0.1984  0.5149  0.0736
 6052SOL    HW129615   0.045   0.469   2.788  0.8000  0.1499 -0.3909
 6052SOL    HW229616   4.701   0.361   2.724  2.5837  0.5363  0.8019
 6053SOL     OW29617   1.457   4.649   0.118  0.0825  0.2586 -0.1980
 6053SOL    HW129618   1.508   4.575   0.151 -0.9851 -0.5696 -0.3994
 6053SOL    HW229619   1.379   4.601   0.088  2.4693 -3.0169 -1.2353
 6054SOL     OW29620   2.786   4.297   1.474  0.6289 -0.0916  0.3316
 6054SOL    HW129621   2.759   4.237   1.543 -2.0623  0.8909  0.1149
 6054SOL    HW229622   2.708   4.291   1.419 -1.3812  0.6817  3.0777
 6055SOL     OW29623   3.451   2.376   8.689  0.8022  0.1937 -0.0712
 6055SOL    HW129624   3.529   2.333   8.725  0.6448 -1.1475 -1.3159
 6055SOL    HW229625   3.381   2.333   8.737  1.1825  0.0898  0.3892
 6056SOL     OW29626   2.048   4.241   1.489 -0.2420 -0.3927  0.0257
 6056SOL    HW129627   1.953   4.235   1.484 -0.1881 -1.1330 -0.0529
 6056SOL    HW229628   2.076   4.209   1.403  0.3336  0.0530  0.0465
 6057SOL     OW29629   3.204   1.881   3.007  0.4449 -0.1557 -0.3390
 6057SOL    HW129630   3.261   1.904   2.933  0.2204  1.5244  0.0015
 6057SOL    HW229631   3.153   1.810   2.968 -0.2034  0.3942 -0.4868
 6058SOL     OW29632   2.786   2.301   2.644 -0.2153 -0.5391  0.2457
 6058SOL    HW129633   2.854   2.357   2.681 -0.0743 -0.4597 -0.1323
 6058SOL    HW229634   2.838   2.220   2.638 -1.8892 -1.7453  1.8297
 6059SOL     OW29635   1.758   3.865   5.851  0.1582 -0.1096  0.3319
 6059SOL    HW129636   1.776   3.824   5.766 -0.5424 -0.3172  0.2775
 6059SOL    HW229637   1.670   3.903   5.842 -0.1847 -1.3286 -1.6056
 6060SOL     OW29638   4.391   0.966   8.418  0.1372 -0.0332  0.0462
 6060SOL    HW129639   4.438   1.007   8.491 -1.7039 -0.1689  1.3350
 6060SOL    HW229640   4.308   0.940   8.460 -0.5849  1.0905 -0.6929
 6061SOL     OW29641   4.091   1.382   5.106  0.3374  0.3191 -0.3396
 6061SOL    HW129642   4.004   1.423   5.109  0.4713  0.6748 -1.3175
 6061SOL    HW229643   4.094   1.361   5.013 -0.7720  1.6302 -0.6837
 6062SOL     OW29644   2.670   2.208   7.774  0.3187  0.4131 -0.0250
 6062SOL    HW129645   2.673   2.301   7.799  0.6789  0.2306  0.6315
 6062SOL    HW229646   2.741   2.172   7.827  0.7348  0.4831 -0.5334
 6063SOL     OW29647   2.703   4.292   0.727 -0.7050 -0.0090 -0.3160
 6063SOL    HW129648   2.676   4.253   0.810  0.6802  0.7244  0.4957
 6063SOL    HW229649   2.795   4.267   0.716 -0.5531  0.4182 -0.0203
 6064SOL     OW29650   3.793   0.430  13.505  0.0092  0.1721  0.1076
 6064SOL    HW129651   3.823   0.521  13.515  0.4998  0.1230 -0.9363
 6064SOL    HW229652   3.870   0.386  13.543 -1.2350 -1.4142  0.7695
 6065SOL     OW29653   1.067   4.543   3.510 -0.3002  0.6836  0.2091
 6065SOL    HW129654   1.156   4.577   3.509 -0.3188  0.7368  0.8023
 6065SOL    HW229655   1.009   4.595   3.565 -0.0754  0.2298  0.8719
 6066SOL     OW29656   2.097   3.015   1.596 -0.4308 -0.2791 -0.4047
 6066SOL    HW129657   2.173   3.062   1.633  0.4711 -2.7465  0.8955
 6066SOL    HW229658   2.041   3.053   1.664 -0.4018  0.6170 -0.8922
 6067SOL     OW29659   4.625   0.078   4.531 -0.7882 -0.8824  0.0296
 6067SOL    HW129660   4.716   0.105   4.517 -1.5172  2.4378  1.5689
 6067SOL    HW229661   4.635   0.035   4.616  0.7772 -0.7620 -0.0820
 6068SOL     OW29662   1.022   3.690   5.098 -0.1385  0.4119  0.2741
 6068SOL    HW129663   0.937   3.712   5.058 -0.5024  1.4660  1.6230
 6068SOL    HW229664   0.993   3.680   5.188 -2.2651 -2.9135 -0.7717
 6069SOL     OW29665   3.821   0.568   3.844  0.3814 -0.0915 -0.2248
 6069SOL    HW129666   3.859   0.517   3.915  0.2328 -1.3966 -1.0906
 6069SOL    HW229667   3.822   0.509   3.769 -0.6148  0.7143 -0.8821
 6070SOL     OW29668   2.618   0.113   1.667 -0.5785 -0.6578 -0.2401
 6070SOL    HW129669   2.541   0.158   1.631 -1.8412 -2.5152  0.1302
 6070SOL    HW229670   2.670   0.194   1.670 -2.8574  0.7012  3.1602
 6071SOL     OW29671   3.939   3.911   0.935  0.0720  0.1720 -0.1909
 6071SOL    HW129672   3.993   3.972   0.884 -1.0625  0.6995 -0.7788
 6071SOL    HW229673   3.958   3.837   0.877  3.5268 -0.1902  1.4533
 6072SOL     OW29674   1.728   4.619   3.217 -0.1552 -0.5220  0.3596
 6072SOL    HW129675   1.772   4.635   3.134  0.6328 -1.8168  0.5296
 6072SOL    HW229676   1.800   4.590   3.273  0.3303 -0.7113 -0.3616
 6073SOL     OW29677   0.601   4.572   3.385 -0.0554  0.7338  0.2115
 6073SOL    HW129678   0.670   4.582   3.320 -0.6849 -2.2406 -0.9171
 6073SOL    HW229679   0.556   4.493   3.356  0.5612  0.5953 -0.3509
 6074SOL     OW29680   4.278   4.438   5.532  0.1106  0.1302  0.6779
 6074SOL    HW129681   4.286   4.521   5.485 -1.8416  0.6985  1.3233
 6074SOL    HW229682   4.200   4.405   5.486 -0.3318  2.2124 -0.0807
 6075SOL     OW29683   4.134   2.594  13.459 -0.1511 -0.0822 -0.0612
 6075SOL    HW129684   4.185   2.547  13.524 -0.4604  1.2154  1.1309
 6075SOL    HW229685   4.080   2.640  13.524 -1.5810  1.7391 -2.5048
 6076SOL     OW29686   0.802   0.900   2.263  0.7502  0.1396  0.3288
 6076SOL    HW129687   0.805   0.983   2.216 -1.5890 -0.2896 -0.6061
 6076SOL    HW229688   0.839   0.924   2.347 -0.1302  0.3144  0.6726
 6077SOL     OW29689   4.184   1.726   8.856  0.5643  0.3129  0.2834
 6077SOL    HW129690   4.263   1.722   8.910  0.2430  0.5614  0.7656
 6077SOL    HW229691   4.169   1.820   8.850 -1.6158 -0.0435  0.0028
 6078SOL     OW29692   0.713   1.571  11.990 -0.1030  0.0908 -0.2015
 6078SOL    HW129693   0.712   1.507  11.919 -0.3790  1.5366 -1.4968
 6078SOL    HW229694   0.799   1.567  12.033  0.3692  2.9814 -0.8595
 6079SOL     OW29695   4.621   2.026   7.771 -0.2736  0.4495  0.5388
 6079SOL    HW129696   4.638   2.045   7.864 -0.2609  0.0267  0.6219
 6079SOL    HW229697   4.709   2.029   7.733 -0.9105 -0.2780 -0.9671
 6080SOL     OW29698   2.557   4.601   5.760 -0.3547 -0.3910  0.3781
 6080SOL    HW129699   2.497   4.669   5.731  0.9165 -0.0828 -1.5122
 6080SOL    HW229700   2.530   4.597   5.852 -1.9846  1.8464 -0.0120
 6081SOL     OW29701   4.278   3.109   9.861  0.0073  0.1388 -0.3057
 6081SOL    HW129702   4.239   3.176   9.917 -0.8287 -1.1567  0.6791
 6081SOL    HW229703   4.219   3.109   9.786 -1.2316  1.5153  0.6559
 6082SOL     OW29704   0.391   2.106   9.678 -0.3138 -0.1780 -0.3347
 6082SOL    HW129705   0.356   2.023   9.711 -1.8499  0.7727  0.4260
 6082SOL    HW229706   0.418   2.084   9.589 -0.5530  0.6906 -0.6217
 6083SOL     OW29707   3.842   1.292   3.393 -0.3922 -0.2036 -0.0333
 6083SOL    HW129708   3.780   1.295   3.321  1.5869  0.9823 -1.7001
 6083SOL    HW229709   3.922   1.299   3.340 -1.0758  1.7529 -0.8146
 6084SOL     OW29710   4.052   3.544  10.737 -0.4544 -0.0080  0.9362
 6084SOL    HW129711   4.140   3.508  10.728  0.2986  1.1237  3.8852
 6084SOL    HW229712   4.072   3.626  10.783  3.7914 -0.5719  0.0541
 6085SOL     OW29713   1.715   3.054   5.489 -0.2580 -0.0506  0.0637
 6085SOL    HW129714   1.692   3.072   5.398  1.9540 -0.0398 -0.4893
 6085SOL    HW229715   1.800   3.012   5.475  0.0377  0.2103  1.1347
 6086SOL     OW29716   0.981   2.581   9.872 -0.7178  0.5184  0.2814
 6086SOL    HW129717   0.952   2.542   9.954  0.2091 -1.2576 -0.2359
 6086SOL    HW229718   1.016   2.666   9.897  0.0345 -0.1042  1.3395
 6087SOL     OW29719   0.674   0.914   6.853  0.8811  0.2382  0.0845
 6087SOL    HW129720   0.674   0.918   6.757  0.4944  2.0388  0.1572
 6087SOL    HW229721   0.599   0.970   6.870 -1.2503 -2.5943 -0.0242
 6088SOL     OW29722   1.116   3.805   2.842 -0.4266  0.0227 -0.2481
 6088SOL    HW129723   1.044   3.783   2.783  2.0923 -1.1732 -2.8870
 6088SOL    HW229724   1.168   3.731   2.812  0.3329  0.3251  0.3202
 6089SOL     OW29725   0.845   3.048   5.371 -0.6050  0.2890 -0.3649
 6089SOL    HW129726   0.929   3.081   5.402 -0.3240  0.2515 -1.0791
 6089SOL    HW229727   0.815   2.976   5.426  0.6621 -1.3526 -1.8002
 6090SOL     OW29728   3.825   3.186  10.231  0.1122 -0.1760 -0.1850
 6090SOL    HW129729   3.918   3.163  10.240  0.2126 -0.5685 -2.2483
 6090SOL    HW229730   3.802   3.186  10.324  0.8646 -1.5236  0.0114
 6091SOL     OW29731   0.031   4.093  10.820 -0.6343 -0.0309 -0.5017
 6091SOL    HW129732   4.685   4.035  10.860 -0.5435 -0.3545 -0.8201
 6091SOL    HW229733   4.715   4.113  10.732  1.4466  0.1442 -1.2940
 6092SOL     OW29734   2.067   2.895   7.980 -0.2159 -0.2636  0.2247
 6092SOL    HW129735   2.154   2.891   7.941  0.7659  2.0841  2.2018
 6092SOL    HW229736   2.054   2.802   7.960 -0.6798  0.2710 -1.9566
 6093SOL     OW29737   1.257   4.014   9.540 -0.2753 -0.2287 -0.2212
 6093SOL    HW129738   1.288   3.958   9.612  0.1589  0.5138  0.1749
 6093SOL    HW229739   1.170   3.978   9.522 -1.4598  1.3273  2.4923
 6094SOL     OW29740   0.831   0.598   7.919  0.2872  0.5311 -0.4651
 6094SOL    HW129741   0.755   0.553   7.885 -0.0823  1.5448 -0.9930
 6094SOL    HW229742   0.890   0.527   7.943 -2.1226 -1.1349  0.4634
 6095SOL     OW29743   0.736   4.005  10.935 -0.0906 -0.1710  0.3032
 6095SOL    HW129744   0.776   3.976  11.018 -1.4938 -5.3524 -0.8690
 6095SOL    HW229745   0.757   3.929  10.882 -0.3284 -0.8801  1.2230
 6096SOL     OW29746   2.542   1.642   8.238 -0.2639  0.1899 -0.4217
 6096SOL    HW129747   2.564   1.613   8.327  2.0474 -0.0438 -1.0598
 6096SOL    HW229748   2.568   1.563   8.190 -2.3751 -1.8016  1.7042
 6097SOL     OW29749   0.050   4.321  11.028  0.4113 -0.1525  0.7231
 6097SOL    HW129750   0.070   4.351  11.116  1.6606  1.7257 -0.1977
 6097SOL    HW229751   0.005   4.237  11.043  1.4212 -0.7937  0.1795
 6098SOL     OW29752   3.650   4.352   4.170 -0.0614  0.8717  0.5369
 6098SOL    HW129753   3.604   4.433   4.148  1.1962  1.5521  0.3777
 6098SOL    HW229754   3.611   4.329   4.254  0.0925 -1.2688  0.0241
 6099SOL     OW29755   3.780   1.437   8.890 -0.4889  0.0506  0.4674
 6099SOL    HW129756   3.820   1.440   8.977  0.1438 -1.7613  0.2302
 6099SOL    HW229757   3.714   1.371   8.909  2.1462 -2.2477  1.6791
 6100SOL     OW29758   1.434   1.435  12.049  0.0419  0.1232  0.4122
 6100SOL    HW129759   1.478   1.351  12.063  0.5249  0.0131 -1.6277
 6100SOL    HW229760   1.445   1.476  12.134  1.1166 -0.2028  0.4266
 6101SOL     OW29761   4.525   3.740  16.251  0.1711 -0.5167  0.0663
 6101SOL    HW129762   4.467   3.677  16.294 -0.9034  0.0878 -0.4732
 6101SOL    HW229763   4.562   3.679  16.187 -0.7317  0.5427 -1.4701
 6102SOL     OW29764   0.268   3.417   0.939  0.2318  0.2977  0.3355
 6102SOL    HW129765   0.356   3.453   0.944 -0.2016  1.7841 -2.4240
 6102SOL    HW229766   0.236   3.456   0.858  0.7922  0.5497  0.2334
 6103SOL     OW29767   2.933   1.979   5.394  0.3836  0.1880  0.6450
 6103SOL    HW129768   2.978   1.984   5.310 -0.6703 -0.0962  0.0526
 6103SOL    HW229769   2.915   2.071   5.413  0.9729  0.5898 -0.8076
 6104SOL     OW29770   0.925   3.461   7.068 -0.1137  0.0129 -0.3700
 6104SOL    HW129771   0.967   3.487   6.986 -2.0080  1.3757 -0.9360
 6104SOL    HW229772   0.876   3.543   7.081  3.0414  1.6711  1.0978
 6105SOL     OW29773   1.946   1.080   8.874  0.0043 -0.1292 -0.1201
 6105SOL    HW129774   1.997   1.061   8.796  0.4545 -2.3426  0.7186
 6105SOL    HW229775   1.878   1.013   8.872 -0.4633  0.3230  0.7400
 6106SOL     OW29776   0.063   3.076   4.292  0.4398  0.1776 -0.3794
 6106SOL    HW129777   0.078   3.014   4.221 -0.5464 -1.2411  0.6580
 6106SOL    HW229778   0.025   3.019   4.358 -2.6870 -0.5544 -2.8298
 6107SOL     OW29779   1.653   2.339   2.241  0.0438  0.5541 -0.4613
 6107SOL    HW129780   1.604   2.257   2.234  0.6693  0.2935 -1.8082
 6107SOL    HW229781   1.690   2.338   2.153 -0.8169  1.6263 -0.8393
 6108SOL     OW29782   3.907   2.995   7.318 -0.0603 -0.0355 -0.0639
 6108SOL    HW129783   3.837   3.042   7.363  0.0814  1.1229 -1.0497
 6108SOL    HW229784   3.858   2.923   7.277  0.1579  0.0697 -0.5158
 6109SOL     OW29785   4.553   1.930   2.345 -0.5014 -0.7323 -0.4005
 6109SOL    HW129786   4.511   1.903   2.264  0.5600 -0.9038 -0.8931
 6109SOL    HW229787   4.558   1.848   2.393  1.2185 -0.4388 -0.0828
 6110SOL     OW29788   1.964   1.742   0.188 -0.3717  0.4348 -0.3371
 6110SOL    HW129789   2.006   1.716   0.106  1.5630  1.1073  0.4377
 6110SOL    HW229790   1.934   1.658   0.222 -0.5553  0.7307  0.2471
 6111SOL     OW29791   1.487   0.876   3.342  0.7802 -0.8159  0.2658
 6111SOL    HW129792   1.555   0.814   3.316 -0.2005 -1.5733 -0.5292
 6111SOL    HW229793   1.467   0.857   3.434  0.1641  0.2685  0.3530
 6112SOL     OW29794   0.862   1.368   3.358  0.1059 -0.7415  0.0941
 6112SOL    HW129795   0.777   1.346   3.320  0.8309 -0.9834 -1.3504
 6112SOL    HW229796   0.845   1.445   3.414  1.7836 -0.5528  0.3493
 6113SOL     OW29797   0.976   0.135   7.510 -0.4798 -0.0343 -0.3181
 6113SOL    HW129798   1.000   0.050   7.548 -1.6568 -0.9077 -1.5449
 6113SOL    HW229799   1.049   0.189   7.541 -2.3086  1.1253  1.9516
 6114SOL     OW29800   4.167   2.058   3.822 -0.0822 -0.2073 -0.5622
 6114SOL    HW129801   4.195   1.974   3.783  2.2030  0.1909  0.1834
 6114SOL    HW229802   4.254   2.095   3.840  0.1792 -1.9315  1.8722
 6115SOL     OW29803   1.100   3.356   1.549 -0.0856 -0.9050 -0.4600
 6115SOL    HW129804   1.153   3.436   1.548 -0.6737 -0.4951  1.8715
 6115SOL    HW229805   1.137   3.313   1.472  3.0733 -0.7395  0.9463
 6116SOL     OW29806   2.439   3.276  12.009 -0.1785 -0.3524  0.0771
 6116SOL    HW129807   2.494   3.301  12.084 -1.6705 -0.6727  1.2665
 6116SOL    HW229808   2.354   3.277  12.053  0.0352 -0.8492  0.5007
 6117SOL     OW29809   1.166   2.308  16.897  0.1360 -0.2208 -1.1566
 6117SOL    HW129810   1.097   2.348  16.951  1.5457 -1.0357  1.2213
 6117SOL    HW229811   1.180   2.384  16.840  1.5653  0.8437  0.6070
 6118SOL     OW29812   0.313   1.981   1.412  0.3075  0.5936  0.5143
 6118SOL    HW129813   0.241   1.917   1.415  0.2394  0.5979 -1.1816
 6118SOL    HW229814   0.290   2.038   1.485  0.0657  0.6405  0.4029
 6119SOL     OW29815   0.178   3.776   1.508  0.1050  0.6194  0.0046
 6119SOL    HW129816   0.121   3.700   1.505 -0.5950  1.1982 -1.2982
 6119SOL    HW229817   0.128   3.833   1.450  1.1010 -0.1012 -1.5818
 6120SOL     OW29818   1.996   0.725   3.777 -0.1197 -0.1710 -0.0869
 6120SOL    HW129819   1.951   0.642   3.759 -2.9020  1.7053 -1.7157
 6120SOL    HW229820   1.939   0.757   3.846  1.1346  0.9573  0.4260
 6121SOL     OW29821   1.564   2.529  16.897 -0.2279  0.3947  0.5424
 6121SOL    HW129822   1.535   2.476  16.972  0.0767  2.4959  2.1353
 6121SOL    HW229823   1.525   2.487  16.821  3.4817 -0.4076 -0.9159
 6122SOL     OW29824   2.021   1.970  14.707  0.2776  0.5158 -0.0533
 6122SOL    HW129825   2.110   1.978  14.671 -0.9013  0.6960 -2.8935
 6122SOL    HW229826   2.047   1.926  14.788 -1.2241  0.3220  0.3092
 6123SOL     OW29827   3.811   2.341   6.927 -0.0188  0.4162  0.0293
 6123SOL    HW129828   3.899   2.377   6.933  0.2131 -0.3153  0.9515
 6123SOL    HW229829   3.770   2.371   7.008  0.3333 -0.2510  0.4453
 6124SOL     OW29830   1.940   3.001   6.147  0.6347 -0.5088  0.4334
 6124SOL    HW129831   2.016   3.052   6.118  0.8992 -0.4263  1.2643
 6124SOL    HW229832   1.972   2.965   6.230 -1.4012  0.6955  1.7219
 6125SOL     OW29833   3.263   1.939   5.629  0.2870 -0.6107 -0.8583
 6125SOL    HW129834   3.342   1.918   5.679  0.7288 -0.1963 -1.3828
 6125SOL    HW229835   3.238   1.856   5.587 -0.1112 -1.7761  1.6789
 6126SOL     OW29836   1.184   4.523   6.503  0.1402 -0.1532  0.4358
 6126SOL    HW129837   1.165   4.615   6.524  1.0423  0.3018 -0.7728
 6126SOL    HW229838   1.104   4.498   6.456 -0.7282  0.5388  1.5252
 6127SOL     OW29839   0.167   0.521   1.608 -0.1256  0.5400  0.4827
 6127SOL    HW129840   0.234   0.460   1.640 -0.2284  0.1743  0.0077
 6127SOL    HW229841   0.186   0.527   1.514 -0.4338 -1.8793  0.2456
 6128SOL     OW29842   1.285   4.493   8.561  0.1159 -0.1880  0.4089
 6128SOL    HW129843   1.249   4.577   8.532 -0.4313 -1.0527 -1.4209
 6128SOL    HW229844   1.216   4.433   8.530 -2.2567  1.9604  1.5102
 6129SOL     OW29845   0.139   2.263   9.538 -0.3277 -0.2839 -0.1213
 6129SOL    HW129846   0.191   2.185   9.559 -0.8536 -0.4606  0.5276
 6129SOL    HW229847   0.063   2.249   9.594  0.6443  0.1557  1.3114
 6130SOL     OW29848   2.660   2.677   3.818  0.5590  0.0919  0.2680
 6130SOL    HW129849   2.584   2.671   3.877  0.4552  1.4526  0.2562
 6130SOL    HW229850   2.624   2.663   3.731  1.6338  1.1537 -0.3330
 6131SOL     OW29851   1.124   3.576   2.078  0.7291 -0.1386 -0.2870
 6131SOL    HW129852   1.191   3.570   2.010  0.5466 -0.4511 -0.4371
 6131SOL    HW229853   1.045   3.561   2.027  0.5488  2.3343 -0.7216
 6132SOL     OW29854   2.306   1.052   5.470  0.7445 -0.1726  0.4581
 6132SOL    HW129855   2.240   1.017   5.410 -1.4857 -0.3045  2.9644
 6132SOL    HW229856   2.271   1.135   5.505  1.4458  1.5719 -3.0056
 6133SOL     OW29857   1.091   3.098   5.500 -0.6591 -0.1908  0.0715
 6133SOL    HW129858   1.043   3.087   5.582 -0.7072 -0.1833  0.0438
 6133SOL    HW229859   1.177   3.074   5.535 -0.2900 -1.4581 -1.7210
 6134SOL     OW29860   2.892   3.162   7.830 -0.1509  0.3098 -0.0002
 6134SOL    HW129861   2.895   3.115   7.746  1.7701  0.2787  0.0782
 6134SOL    HW229862   2.971   3.214   7.814 -0.7327  1.1911  0.0070
 6135SOL     OW29863   0.446   0.411   4.586  0.2500  0.6470  0.6259
 6135SOL    HW129864   0.447   0.316   4.594  1.6080  0.3806 -3.1134
 6135SOL    HW229865   0.491   0.438   4.507 -0.0926  1.4062  0.6898
 6136SOL     OW29866   0.616   1.067  14.331 -0.6625  0.2895  0.3967
 6136SOL    HW129867   0.706   1.087  14.306 -0.4043 -1.4988 -0.0956
 6136SOL    HW229868   0.611   1.115  14.414  0.7248  0.6437  0.2716
 6137SOL     OW29869   0.192   1.640   4.082  0.6692  0.1143 -0.2672
 6137SOL    HW129870   0.276   1.607   4.114  0.8023 -0.7753 -1.5459
 6137SOL    HW229871   0.142   1.610   4.158  1.2147 -1.2606 -0.4437
 6138SOL     OW29872   3.024   0.556   2.535 -0.0228 -0.0692 -0.2743
 6138SOL    HW129873   2.972   0.603   2.601  0.9855  2.0452 -0.9925
 6138SOL    HW229874   3.090   0.506   2.583  1.5636  0.2627 -2.1327
 6139SOL     OW29875   3.153   1.608   5.298  0.7368 -0.2514  0.2182
 6139SOL    HW129876   3.153   1.530   5.243 -2.2963 -1.3133  1.7312
 6139SOL    HW229877   3.149   1.678   5.232 -1.9098  0.4615  1.1302
 6140SOL     OW29878   0.702   1.368   6.713  0.2834 -0.0640 -0.1649
 6140SOL    HW129879   0.698   1.355   6.618 -1.0592 -3.2352  0.3387
 6140SOL    HW229880   0.797   1.375   6.726  0.2629 -1.6395  0.8419
 6141SOL     OW29881   2.535   1.769   4.611  0.0887  0.0726  0.0179
 6141SOL    HW129882   2.554   1.852   4.656 -0.1254 -0.0927  0.4097
 6141SOL    HW229883   2.499   1.724   4.687 -0.6751 -1.7513 -1.4279
 6142SOL     OW29884   4.389   1.321   8.028 -0.3414  0.0291  0.6851
 6142SOL    HW129885   4.419   1.267   7.955  1.9299  1.2087  0.7383
 6142SOL    HW229886   4.442   1.299   8.105 -0.5642 -1.6342  0.3608
 6143SOL     OW29887   0.236   4.619  17.389 -0.0110 -0.4463  0.4877
 6143SOL    HW129888   0.146   4.652  17.385 -0.5544 -1.8130  1.5524
 6143SOL    HW229889   0.259   4.666  17.309 -0.6142  2.8277  2.2492
 6144SOL     OW29890   3.649   0.025  10.647  0.0051 -0.8345 -0.1975
 6144SOL    HW129891   3.553   0.032  10.649 -0.0880 -1.9223 -0.8006
 6144SOL    HW229892   3.666   4.719  10.556 -0.7512 -3.4198  0.3608
 6145SOL     OW29893   4.164   0.912   8.555 -0.3929  0.3677 -0.6988
 6145SOL    HW129894   4.078   0.872   8.541 -0.7533  0.8610  0.0737
 6145SOL    HW229895   4.159   0.933   8.649  0.1566 -0.5015 -0.4760
 6146SOL     OW29896   0.056   3.379   6.010  0.3165  0.0414  0.4323
 6146SOL    HW129897   4.694   3.392   5.961 -0.1695 -1.2681  0.9161
 6146SOL    HW229898   0.122   3.397   5.943  1.1927 -0.4178  1.1710
 6147SOL     OW29899   2.259   3.593   4.750  0.4866  0.0047  0.5946
 6147SOL    HW129900   2.204   3.653   4.800 -1.2878  0.0322 -1.3497
 6147SOL    HW229901   2.211   3.611   4.669 -1.3038 -3.8246  0.7950
 6148SOL     OW29902   4.377   3.356   9.685  0.0750  0.7022  0.6592
 6148SOL    HW129903   4.429   3.400   9.753  0.2048 -0.6442  1.4191
 6148SOL    HW229904   4.403   3.264   9.689  1.2738  0.9931 -0.3440
 6149SOL     OW29905   0.859   0.845  12.956 -0.4087  0.1658  0.4573
 6149SOL    HW129906   0.805   0.918  12.925 -1.0071  0.4925  2.2653
 6149SOL    HW229907   0.895   0.882  13.037 -0.5455  1.4117 -0.0444
 6150SOL     OW29908   4.577   1.803  15.222  0.5170  0.1970 -0.3995
 6150SOL    HW129909   4.492   1.759  15.221  1.0036 -0.8075  2.1117
 6150SOL    HW229910   4.565   1.882  15.168  0.6616  1.1688  0.9850
 6151SOL     OW29911   2.424   1.571   3.483 -0.4263 -0.9020 -0.4679
 6151SOL    HW129912   2.505   1.524   3.505  0.0531  0.2029  0.1857
 6151SOL    HW229913   2.368   1.554   3.558  1.9396  0.2557  1.5946
 6152SOL     OW29914   3.536   0.252   3.272 -0.1109  0.3836  0.5389
 6152SOL    HW129915   3.571   0.341   3.268  0.3971  0.2105  1.1270
 6152SOL    HW229916   3.602   0.207   3.220 -1.4831  0.9326 -1.6787
 6153SOL     OW29917   1.017   0.944   8.012  0.7019  0.4259  0.8373
 6153SOL    HW129918   1.039   1.015   7.951 -1.6467  0.0898 -0.3882
 6153SOL    HW229919   0.937   0.984   8.044  0.1369 -0.9655  1.1372
 6154SOL     OW29920   0.878   3.258   3.573 -0.1918 -0.0872  0.1716
 6154SOL    HW129921   0.929   3.219   3.503 -0.0275  0.7390 -0.1713
 6154SOL    HW229922   0.935   3.328   3.605 -0.7897  1.2448 -1.7088
 6155SOL     OW29923   4.245   0.304   3.370 -0.3973  0.2485  0.0567
 6155SOL    HW129924   4.274   0.239   3.306 -1.2829 -1.2279  1.1657
 6155SOL    HW229925   4.310   0.286   3.437  1.0711  1.8385 -0.9347
 6156SOL     OW29926   1.534   0.102   3.900 -0.4160  0.2764  0.1968
 6156SOL    HW129927   1.546   0.053   3.981 -3.0379 -0.3953  0.1728
 6156SOL    HW229928   1.601   0.171   3.910 -0.6333  0.4123  0.6970
 6157SOL     OW29929   1.865   1.414   1.984  0.3939  0.1897  0.7173
 6157SOL    HW129930   1.906   1.353   2.046  1.7793  0.0890 -0.3041
 6157SOL    HW229931   1.902   1.384   1.901 -0.0966 -0.5270  0.7567
 6158SOL     OW29932   1.023   0.120   2.002 -0.2742  0.2165  0.3552
 6158SOL    HW129933   1.079   0.189   1.967 -2.1458  1.6778  0.2076
 6158SOL    HW229934   0.997   0.081   1.919  0.0117  2.1186 -0.6238
 6159SOL     OW29935   2.370   1.055   4.874  0.1932  0.4615  0.4242
 6159SOL    HW129936   2.330   1.049   4.961  0.0628 -1.5241  0.2414
 6159SOL    HW229937   2.301   1.012   4.822  0.2991  1.3840 -0.4685
 6160SOL     OW29938   4.321   3.050  15.976  0.2233 -0.0840 -0.3565
 6160SOL    HW129939   4.409   3.088  15.976 -0.5985  1.8459 -1.6879
 6160SOL    HW229940   4.290   3.095  16.055  0.2754  1.4847 -1.2133
 6161SOL     OW29941   1.952   2.115  13.922 -0.2718  0.2580  0.1409
 6161SOL    HW129942   1.887   2.050  13.949  1.0372 -1.2128 -0.2335
 6161SOL    HW229943   1.943   2.088  13.830 -0.1494  3.2809 -0.7476
 6162SOL     OW29944   0.767   4.007  17.274  0.2670  0.4632  0.2912
 6162SOL    HW129945   0.721   3.936  17.320 -0.4498  1.0219  0.4412
 6162SOL    HW229946   0.855   3.970  17.285  0.1918  0.5002  1.0718
 6163SOL     OW29947   1.207   2.147   1.222 -0.5375  0.3251 -0.2618
 6163SOL    HW129948   1.137   2.209   1.202  0.6279  1.8266  0.3047
 6163SOL    HW229949   1.234   2.182   1.307 -1.3787  1.0837 -0.3020
 6164SOL     OW29950   0.082   4.615   5.256 -0.1637 -0.2099 -0.2927
 6164SOL    HW129951   0.108   4.536   5.208 -1.0547 -0.4974 -0.3016
 6164SOL    HW229952   0.156   4.649   5.306  0.7117  0.4190 -2.0229
 6165SOL     OW29953   4.324   3.219   8.252  0.0531 -0.4789  0.1993
 6165SOL    HW129954   4.354   3.283   8.317 -2.7423  1.9898 -0.9568
 6165SOL    HW229955   4.251   3.261   8.207 -0.6629 -0.0410  1.7433
 6166SOL     OW29956   0.501   4.003   3.798 -0.5605 -0.3129 -0.2397
 6166SOL    HW129957   0.435   4.048   3.746 -2.1354 -0.3551  1.7250
 6166SOL    HW229958   0.451   3.987   3.878  0.3845 -0.9885  0.2130
 6167SOL     OW29959   3.357   1.901   2.752 -0.2593 -0.6255 -0.1522
 6167SOL    HW129960   3.384   1.864   2.668  2.7939 -1.4050  1.1980
 6167SOL    HW229961   3.314   1.983   2.727  1.0527 -0.0705 -0.5603
 6168SOL     OW29962   2.656   4.586   1.538  0.0925 -0.8758  0.0260
 6168SOL    HW129963   2.675   4.669   1.580  0.0422 -2.4475  3.1396
 6168SOL    HW229964   2.604   4.543   1.605 -1.3842  0.6762 -0.1325
 6169SOL     OW29965   3.322   1.403  14.342  0.1699  0.2221  0.5613
 6169SOL    HW129966   3.302   1.400  14.249 -2.0796  0.5248  1.0339
 6169SOL    HW229967   3.414   1.377  14.331  0.0933  0.9546 -1.8398
 6170SOL     OW29968   0.874   1.288   1.139 -0.1944  0.1430 -0.4496
 6170SOL    HW129969   0.910   1.208   1.178 -0.8193 -0.7208 -1.6749
 6170SOL    HW229970   0.937   1.290   1.067  1.4402 -0.2440  0.9692
 6171SOL     OW29971   1.520   0.145  14.991 -0.2523  0.3681 -0.5177
 6171SOL    HW129972   1.442   0.170  14.942 -0.3044  0.6980 -0.2637
 6171SOL    HW229973   1.538   0.231  15.029 -0.6661 -0.1518  0.8746
 6172SOL     OW29974   3.058   3.223   3.422 -0.3568  0.0374  0.3886
 6172SOL    HW129975   3.082   3.189   3.509 -1.1463 -0.2928  0.4779
 6172SOL    HW229976   3.099   3.310   3.421 -1.2839  0.4748  0.4242
 6173SOL     OW29977   2.976   2.603  14.450 -0.3981 -0.1177  0.2396
 6173SOL    HW129978   3.072   2.603  14.457 -0.3415 -0.3060 -0.5046
 6173SOL    HW229979   2.969   2.508  14.439  0.9408  0.1275 -2.8126
 6174SOL     OW29980   0.820   4.669   0.225  0.5633  0.4316  0.6150
 6174SOL    HW129981   0.803   4.672   0.131  1.6322  0.8419  0.4343
 6174SOL    HW229982   0.832   0.042   0.245 -2.0713  0.8824  0.1832
 6175SOL     OW29983   2.101   3.760   2.164 -0.0227  0.1851 -0.3207
 6175SOL    HW129984   2.153   3.798   2.236 -0.5468 -0.3158  0.3286
 6175SOL    HW229985   2.149   3.678   2.160 -1.8896 -0.9381  0.3863
 6176SOL     OW29986   1.042   4.560   5.723 -0.4404  0.5434  0.4478
 6176SOL    HW129987   1.082   4.480   5.689 -2.5727  0.1041 -1.0168
 6176SOL    HW229988   1.115   4.621   5.729 -0.3590  0.5177 -0.3639
 6177SOL     OW29989   4.036   0.108   8.751  0.2137  0.4186 -0.1298
 6177SOL    HW129990   4.128   0.128   8.732  0.0899  2.2090  1.1174
 6177SOL    HW229991   3.996   0.194   8.742 -1.1420 -0.0917  1.0154
 6178SOL     OW29992   2.128   1.769   6.047  0.0524  0.2569  0.2350
 6178SOL    HW129993   2.205   1.769   6.103  0.2384  4.0720 -0.0517
 6178SOL    HW229994   2.145   1.720   5.966 -1.2526 -1.2284  0.8691
 6179SOL     OW29995   0.297   1.257  15.569  0.3301  0.0052 -0.4481
 6179SOL    HW129996   0.343   1.296  15.643  1.4466 -0.8535 -0.6896
 6179SOL    HW229997   0.283   1.335  15.515 -1.7103 -0.5460 -0.7282
 6180SOL     OW29998   1.832   4.311  16.557 -0.3651  0.1042 -0.8444
 6180SOL    HW129999   1.756   4.265  16.523 -1.2471  1.3482 -0.5429
 6180SOL    HW230000   1.861   4.346  16.473 -0.6876 -2.0496 -1.8326
 6181SOL     OW30001   0.678   2.452  16.202 -0.2392 -0.6026  0.1093
 6181SOL    HW130002   0.718   2.507  16.135 -3.6975  0.2957 -1.2336
 6181SOL    HW230003   0.672   2.515  16.274  0.6431 -0.4638  0.0579
 6182SOL     OW30004   3.412   2.953   7.607 -0.2834  0.2336 -0.0393
 6182SOL    HW130005   3.505   2.933   7.617  0.0972  2.4778  0.7304
 6182SOL    HW230006   3.375   2.871   7.640 -0.6135  0.7200  0.7725
 6183SOL     OW30007   3.566   3.421  10.216  0.0059 -0.3055  0.3616
 6183SOL    HW130008   3.572   3.437  10.310 -0.5719  1.6788  0.0641
 6183SOL    HW230009   3.561   3.511  10.186  1.0911  1.1848  4.6885
 6184SOL     OW30010   4.440   3.423   3.319  0.3132  0.1394  0.0082
 6184SOL    HW130011   4.533   3.443   3.329  0.5564 -0.2182 -1.6550
 6184SOL    HW230012   4.425   3.348   3.377  1.6878  0.4063  0.7107
 6185SOL     OW30013   1.576   3.198   7.984 -0.0879 -0.4465 -0.2732
 6185SOL    HW130014   1.640   3.127   7.990 -0.0717 -0.2892  1.4272
 6185SOL    HW230015   1.603   3.228   7.897  0.2335 -1.4304 -0.5060
 6186SOL     OW30016   2.978   4.544  13.789 -0.4649  0.3351  0.0424
 6186SOL    HW130017   2.928   4.463  13.787  1.0149 -0.6019  0.7417
 6186SOL    HW230018   2.924   4.606  13.839 -0.9841 -0.5162  0.5364
 6187SOL     OW30019   3.612   2.833  10.434 -0.2986  0.2240 -0.5126
 6187SOL    HW130020   3.678   2.776  10.471 -0.3916 -0.1459 -0.9142
 6187SOL    HW230021   3.566   2.849  10.516 -0.8337  2.3171 -1.2109
 6188SOL     OW30022   3.871   3.819   7.842 -0.2215  0.6259  0.5937
 6188SOL    HW130023   3.802   3.755   7.859 -0.9818  1.2161 -0.2214
 6188SOL    HW230024   3.847   3.862   7.760  0.2730 -0.3492 -0.0593
 6189SOL     OW30025   2.923   4.659   4.154  0.4137 -0.1768  0.4394
 6189SOL    HW130026   2.995   4.690   4.098 -0.9816  2.5816  0.1752
 6189SOL    HW230027   2.926   4.567   4.129 -1.7534  0.4207 -2.0211
 6190SOL     OW30028   4.175   0.298   2.242 -0.0476 -0.0557 -0.1669
 6190SOL    HW130029   4.262   0.280   2.277  0.7242  2.0784 -0.9803
 6190SOL    HW230030   4.199   0.337   2.158  1.4360 -0.9343 -0.1402
 6191SOL     OW30031   4.678   1.115  11.645 -0.1329  0.4987  0.0887
 6191SOL    HW130032   4.602   1.171  11.655 -1.5636 -1.3295 -0.4831
 6191SOL    HW230033   4.663   1.061  11.722 -1.1564  1.1376  0.3250
 6192SOL     OW30034   4.333   1.446  17.206 -0.6058 -0.0139  0.6571
 6192SOL    HW130035   4.325   1.459  17.112  2.7388 -3.2053 -0.0836
 6192SOL    HW230036   4.410   1.389  17.211  0.7615  1.9562  2.1109
 6193SOL     OW30037   3.423   0.717   4.995 -0.4009  0.0823  0.1816
 6193SOL    HW130038   3.406   0.698   5.087  0.3576  1.9767  0.6993
 6193SOL    HW230039   3.508   0.759   4.997 -0.6523  0.6580 -1.3410
 6194SOL     OW30040   2.543   2.527   8.143 -0.0300 -0.0470 -0.2244
 6194SOL    HW130041   2.570   2.505   8.232  1.6791  0.1043 -0.7073
 6194SOL    HW230042   2.595   2.605   8.127  0.2629 -0.2471 -0.2494
 6195SOL     OW30043   0.639   2.134   2.783  0.1274  0.3703 -0.1168
 6195SOL    HW130044   0.596   2.218   2.798  0.7858  0.8995 -1.1930
 6195SOL    HW230045   0.637   2.133   2.687  1.1476 -2.1477 -0.1178
 6196SOL     OW30046   3.247   0.247  11.726  0.7586  0.0914  0.4371
 6196SOL    HW130047   3.222   0.336  11.703 -1.7495 -0.8658 -0.4972
 6196SOL    HW230048   3.343   0.247  11.721  0.6332  0.9803 -1.8393
 6197SOL     OW30049   1.018   3.860   7.205 -0.0513 -0.2100 -0.1522
 6197SOL    HW130050   0.940   3.827   7.249 -1.8226  1.4285 -2.0249
 6197SOL    HW230051   1.022   3.812   7.122 -1.0711  0.5434 -0.6444
 6198SOL     OW30052   2.547   4.126   7.850 -0.3122  0.0482 -0.5432
 6198SOL    HW130053   2.640   4.104   7.844 -0.2048  0.5451 -0.7117
 6198SOL    HW230054   2.555   4.220   7.837 -1.3310  0.5213  2.3612
 6199SOL     OW30055   4.302   2.751   5.811 -0.0839  0.6129  0.0346
 6199SOL    HW130056   4.256   2.794   5.883 -2.0751  0.5461 -1.1924
 6199SOL    HW230057   4.232   2.709   5.761  2.0577 -3.1223  0.2030
 6200SOL     OW30058   4.507   0.046   2.650 -0.5553  0.4684  0.4513
 6200SOL    HW130059   4.433   0.078   2.702 -0.4932 -1.8330  1.9732
 6200SOL    HW230060   4.480   0.059   2.559  2.1686  0.9646 -0.2836
 6201SOL     OW30061   4.402   0.932   7.845 -0.2063 -0.0757 -0.6394
 6201SOL    HW130062   4.373   0.856   7.794 -0.1603 -0.7981  0.3981
 6201SOL    HW230063   4.482   0.892   7.878  1.1484  2.8759 -0.4500
 6202SOL     OW30064   4.684   0.179  11.024  0.0250  0.1438  0.1103
 6202SOL    HW130065   4.658   0.151  10.936  1.9643 -0.4130 -0.2727
 6202SOL    HW230066   0.040   0.234  11.006 -0.0756 -0.0234 -0.8397
 6203SOL     OW30067   3.538   4.316   2.288 -0.4747  0.5360 -0.0595
 6203SOL    HW130068   3.560   4.273   2.206  2.2046 -1.3781  1.6443
 6203SOL    HW230069   3.482   4.246   2.320 -0.5845  0.9657  0.6922
 6204SOL     OW30070   0.640   0.162   3.738 -0.6418 -0.1303  0.3155
 6204SOL    HW130071   0.723   0.130   3.704  0.5820  1.8439  1.4772
 6204SOL    HW230072   0.587   0.155   3.658 -2.0568 -1.4773  1.3744
 6205SOL     OW30073   1.619   0.810  14.962 -0.1568 -0.2672  0.7739
 6205SOL    HW130074   1.699   0.760  14.944  0.0539 -0.6835  2.8915
 6205SOL    HW230075   1.626   0.823  15.056 -1.6737  0.2887  0.8119
 6206SOL     OW30076   1.802   1.648   3.835  0.3944  0.5687  0.0377
 6206SOL    HW130077   1.722   1.654   3.783 -0.4526  1.2279  1.4116
 6206SOL    HW230078   1.796   1.558   3.867  1.2951  0.1570 -0.9560
 6207SOL     OW30079   3.450   2.580   2.340  0.5541  0.4473 -0.1465
 6207SOL    HW130080   3.404   2.603   2.260  2.3787  0.5434 -1.1536
 6207SOL    HW230081   3.521   2.644   2.332  1.0344  0.2102  2.2284
 6208SOL     OW30082   3.675   3.563   5.156 -0.1149  0.0563 -0.0887
 6208SOL    HW130083   3.665   3.468   5.156 -1.9158  0.2439  0.1899
 6208SOL    HW230084   3.700   3.573   5.248 -0.4219  2.1140 -0.2251
 6209SOL     OW30085   2.742   0.153   5.694 -0.4713 -0.2269 -0.0180
 6209SOL    HW130086   2.652   0.184   5.703 -0.6011  0.0552 -2.0729
 6209SOL    HW230087   2.795   0.227   5.662  1.4180 -0.9473  1.4276
 6210SOL     OW30088   1.126   2.954  11.522  0.4060  0.0878  0.1642
 6210SOL    HW130089   1.130   3.047  11.544  1.1607 -0.5185  2.6231
 6210SOL    HW230090   1.206   2.939  11.572  1.0847 -2.0962 -1.5382
 6211SOL     OW30091   0.873   2.407   3.063  0.4658  0.4544  0.1193
 6211SOL    HW130092   0.803   2.448   3.114 -1.4386 -1.7244 -0.7450
 6211SOL    HW230093   0.954   2.453   3.084  1.1542 -1.0037  0.6366
 6212SOL     OW30094   2.367   2.945   5.666 -0.1153  0.3201  0.0272
 6212SOL    HW130095   2.460   2.941   5.641 -0.6027  0.4199 -1.7608
 6212SOL    HW230096   2.374   2.966   5.759  1.1426  1.0421 -0.2269
 6213SOL     OW30097   4.593   1.713   2.490  0.1705 -0.3739 -0.1316
 6213SOL    HW130098   4.632   1.627   2.478  2.4680  0.5275  0.8571
 6213SOL    HW230099   4.500   1.694   2.500 -0.2450  2.4798  1.3312
 6214SOL     OW30100   2.890   1.813  13.481  0.4842  0.0351 -0.5006
 6214SOL    HW130101   2.953   1.745  13.505  0.0266 -0.0210  0.5335
 6214SOL    HW230102   2.806   1.767  13.485  0.1962  0.5543 -0.5271
 6215SOL     OW30103   3.156   1.802   5.092  0.3176  0.0760  0.6285
 6215SOL    HW130104   3.123   1.797   5.002 -0.1132  2.7616  0.6644
 6215SOL    HW230105   3.115   1.883   5.121 -2.4359 -0.3618 -2.0796
 6216SOL     OW30106   0.173   3.057   3.241  0.1191 -0.0193  0.3161
 6216SOL    HW130107   0.103   3.006   3.283 -0.6037  0.4946 -0.2718
 6216SOL    HW230108   0.124   3.123   3.191 -2.5996 -1.1938  1.4124
 6217SOL     OW30109   4.406   3.543  10.880  0.3584 -0.1531 -0.1804
 6217SOL    HW130110   4.399   3.596  10.800 -0.5706 -1.1978 -0.8025
 6217SOL    HW230111   4.402   3.454  10.845  3.0027 -0.4288  0.2542
 6218SOL     OW30112   2.432   1.412  15.912 -0.4369  0.0817  0.4101
 6218SOL    HW130113   2.470   1.331  15.877  0.7979  0.2485  1.3826
 6218SOL    HW230114   2.403   1.457  15.834  0.9931 -1.5464 -1.0587
 6219SOL     OW30115   1.385   1.258   7.847 -0.4439  0.1512  0.4971
 6219SOL    HW130116   1.415   1.347   7.828 -4.7786  1.1493 -1.5899
 6219SOL    HW230117   1.466   1.209   7.832 -0.1857  0.3468  1.2366
 6220SOL     OW30118   3.647   2.200   8.446  0.6010  0.3333 -0.3382
 6220SOL    HW130119   3.682   2.201   8.535 -0.3367 -0.2485  0.0260
 6220SOL    HW230120   3.727   2.176   8.398  0.0408 -1.5776 -0.2958
 6221SOL     OW30121   2.493   1.933   6.127 -0.3017 -0.1288 -0.2102
 6221SOL    HW130122   2.431   1.979   6.069  0.2018 -1.7521 -2.0187
 6221SOL    HW230123   2.432   1.878   6.176  1.6479 -1.9632  0.1585
 6222SOL     OW30124   1.972   1.742   8.738  0.0577  0.2583  0.1168
 6222SOL    HW130125   2.020   1.664   8.712 -0.3713  0.1306 -0.3023
 6222SOL    HW230126   2.029   1.780   8.805 -1.3559  0.1927  1.3483
 6223SOL     OW30127   4.322   2.095   6.391 -0.5347 -0.1983 -0.0937
 6223SOL    HW130128   4.296   2.014   6.434  1.1809 -0.2501  0.8648
 6223SOL    HW230129   4.276   2.085   6.307  0.6898  2.0964 -1.0523
 6224SOL     OW30130   1.889   0.622   7.795  0.3437 -0.9789  0.0199
 6224SOL    HW130131   1.979   0.626   7.763  0.4007  2.5012  0.6760
 6224SOL    HW230132   1.874   0.527   7.790 -0.7068 -0.6737 -2.3427
 6225SOL     OW30133   4.663   3.421   4.639  0.7349  0.4957  0.7067
 6225SOL    HW130134   4.636   3.431   4.548  3.1727 -3.0575 -0.4121
 6225SOL    HW230135   4.578   3.401   4.679  0.4249  3.0431  1.2736
 6226SOL     OW30136   3.350   0.803   4.131 -0.8571  0.4451  0.4089
 6226SOL    HW130137   3.328   0.741   4.061 -0.3667  0.9942 -0.2269
 6226SOL    HW230138   3.359   0.876   4.070  1.8836 -1.3832 -1.3428
 6227SOL     OW30139   3.253   2.799   5.381  0.4912  0.2340 -0.4770
 6227SOL    HW130140   3.346   2.823   5.375  0.4182  0.7165  0.2288
 6227SOL    HW230141   3.223   2.802   5.291 -1.8603 -1.4348  0.2537
 6228SOL     OW30142   3.780   1.131   9.013 -0.5383 -0.3478 -0.2176
 6228SOL    HW130143   3.860   1.152   9.062 -0.6643  0.6956 -0.4594
 6228SOL    HW230144   3.757   1.058   9.071 -1.0095 -0.0739 -0.0667
 6229SOL     OW30145   4.307   3.600   4.773  0.0062  0.2977  0.4290
 6229SOL    HW130146   4.380   3.611   4.834  0.2779 -2.2114  0.5730
 6229SOL    HW230147   4.318   3.684   4.729  0.1062  0.8014  1.4163
 6230SOL     OW30148   1.260   1.915  17.574  0.0761  0.0308  0.1454
 6230SOL    HW130149   1.331   1.898  17.512 -0.9589 -1.0118 -0.7572
 6230SOL    HW230150   1.274   1.854  17.646  2.9250  0.7188  0.1617
 6231SOL     OW30151   3.660   3.947   8.611 -0.5354  0.2078  0.3747
 6231SOL    HW130152   3.577   3.996   8.614 -1.4925 -1.3267 -0.6355
 6231SOL    HW230153   3.722   4.020   8.613 -0.5969  0.2470  0.8051
 6232SOL     OW30154   2.696   2.046  17.320  0.3445  1.0090 -0.2806
 6232SOL    HW130155   2.701   1.960  17.362  1.6394  1.9069  1.4124
 6232SOL    HW230156   2.718   2.013  17.232  0.1947 -0.1936  0.1313
 6233SOL     OW30157   0.757   0.697  12.748 -0.0902  0.1080 -0.4128
 6233SOL    HW130158   0.817   0.728  12.816  0.2402  1.3036 -1.2493
 6233SOL    HW230159   0.807   0.733  12.674  1.6157 -1.4186  0.0031
 6234SOL     OW30160   4.275   4.462   8.384 -0.6025 -0.3269  0.0578
 6234SOL    HW130161   4.272   4.453   8.289 -1.8678 -1.0934  0.1733
 6234SOL    HW230162   4.338   4.535   8.383  0.1813 -0.9873  1.5940
 6235SOL     OW30163   3.233   1.352   7.282 -0.4047 -0.7185 -0.3465
 6235SOL    HW130164   3.144   1.318   7.273 -1.2395  1.8050 -1.6732
 6235SOL    HW230165   3.271   1.338   7.195 -0.1329  1.9587 -0.6446
 6236SOL     OW30166   2.010   1.817   6.346 -0.0692  0.0191 -0.1713
 6236SOL    HW130167   1.957   1.848   6.420  0.4646  0.1242  0.1682
 6236SOL    HW230168   1.987   1.877   6.275 -1.7348  0.0230  0.3594
 6237SOL     OW30169   4.564   1.585  11.354 -0.3533  0.2838 -0.3732
 6237SOL    HW130170   4.531   1.663  11.399  2.8733  0.5646  1.4971
 6237SOL    HW230171   4.586   1.614  11.266 -2.6033  1.5714 -0.5332
 6238SOL     OW30172   0.116   0.476  16.423  0.3961 -0.5970  0.3813
 6238SOL    HW130173   0.172   0.497  16.497 -1.7500  2.3541  1.1666
 6238SOL    HW230174   0.027   0.478  16.460  0.0947  0.1846 -0.3841
 6239SOL     OW30175   4.683   1.711   3.911 -0.5365 -0.1136  0.0636
 6239SOL    HW130176   0.049   1.736   3.947 -0.0302 -0.9088 -0.5678
 6239SOL    HW230177   4.633   1.745   3.985 -0.3565 -2.2530  1.1350
 6240SOL     OW30178   2.326   0.405  10.451 -0.0992  0.3153 -0.4230
 6240SOL    HW130179   2.334   0.315  10.481 -4.0402  0.2798  0.5171
 6240SOL    HW230180   2.371   0.389  10.368  2.4056  0.4321  0.9029
 6241SOL     OW30181   3.573   1.708   8.076  0.1820  0.3333 -0.1377
 6241SOL    HW130182   3.567   1.613   8.076  3.5854  0.0959  4.4460
 6241SOL    HW230183   3.668   1.712   8.083  0.3962 -1.7395 -1.9997
 6242SOL     OW30184   2.133   3.647   3.817 -0.5137 -0.1450 -0.3230
 6242SOL    HW130185   2.079   3.621   3.892 -0.0615 -1.5876 -0.4944
 6242SOL    HW230186   2.197   3.576   3.812  1.7628  2.3318 -7.0932
 6243SOL     OW30187   0.008   1.318   7.929 -0.2411 -0.4252 -0.9872
 6243SOL    HW130188   4.668   1.393   7.922 -1.1541 -0.7849  2.8079
 6243SOL    HW230189   0.016   1.287   7.839  1.2641  1.8360 -1.6312
 6244SOL     OW30190   4.220   1.845   5.441  0.2154  0.9125  0.0394
 6244SOL    HW130191   4.275   1.774   5.408 -0.7683  0.6808 -1.1016
 6244SOL    HW230192   4.145   1.852   5.381 -1.0748 -1.5748  1.3872
 6245SOL     OW30193   0.664   1.078  11.392 -0.2354 -0.2833  0.4241
 6245SOL    HW130194   0.610   1.157  11.390 -1.0967 -1.0181 -3.7580
 6245SOL    HW230195   0.743   1.130  11.403  0.1002 -0.3476 -1.6757
 6246SOL     OW30196   4.334   0.840   9.608  0.4665 -0.2959  0.1332
 6246SOL    HW130197   4.426   0.832   9.584  0.9231 -4.0178  3.0618
 6246SOL    HW230198   4.327   0.933   9.627  0.3997 -0.6981  2.0914
 6247SOL     OW30199   0.200   1.312   4.274 -0.1094 -0.0020 -0.0431
 6247SOL    HW130200   0.124   1.333   4.219 -0.1914 -1.2413 -0.3920
 6247SOL    HW230201   0.154   1.276   4.350  0.3411 -0.3417  0.0632
 6248SOL     OW30202   2.189   3.482   4.076 -0.0693 -0.0091 -0.6756
 6248SOL    HW130203   2.230   3.478   3.990  0.2461  3.0310 -0.6349
 6248SOL    HW230204   2.261   3.505   4.135  0.6180  1.3722 -2.0809
 6249SOL     OW30205   2.106   2.312   2.348 -0.3286 -0.3968 -0.4534
 6249SOL    HW130206   2.139   2.303   2.438  0.4222  1.3524 -0.5609
 6249SOL    HW230207   2.179   2.273   2.298  0.7822  0.9376  0.1240
 6250SOL     OW30208   1.738   2.944  15.923  0.0061 -0.6159 -0.5943
 6250SOL    HW130209   1.652   2.933  15.883  0.2465 -0.5134 -1.1408
 6250SOL    HW230210   1.743   3.038  15.940 -0.6436 -0.4440 -1.3836
 6251SOL     OW30211   4.350   3.757   6.198 -0.0138 -0.6568 -0.1307
 6251SOL    HW130212   4.438   3.729   6.173 -0.1352  0.9699 -2.3831
 6251SOL    HW230213   4.302   3.703   6.135  1.0849 -1.5543 -0.1992
 6252SOL     OW30214   0.004   0.512   7.834 -0.2982  0.4876  0.5292
 6252SOL    HW130215   0.079   0.559   7.870  1.3142 -2.0525  0.5128
 6252SOL    HW230216   4.651   0.550   7.884  0.9843  1.8349  1.3743
 6253SOL     OW30217   2.945   4.154   0.712  0.7534 -0.6814  0.0761
 6253SOL    HW130218   3.027   4.139   0.665  1.6465  0.2737  1.3704
 6253SOL    HW230219   2.915   4.065   0.733  0.1554  0.1975  2.8828
 6254SOL     OW30220   3.085   3.228   4.147 -0.1750  0.5634 -0.1419
 6254SOL    HW130221   3.038   3.145   4.145 -0.0216  0.5035 -2.0931
 6254SOL    HW230222   3.028   3.285   4.095 -2.2143 -0.2083  1.2545
 6255SOL     OW30223   4.626   3.314  10.508 -0.7946 -0.3853  1.0422
 6255SOL    HW130224   4.686   3.298  10.580 -0.3119  2.2438  1.2177
 6255SOL    HW230225   4.577   3.392  10.533 -0.4971 -0.4368  1.7874
 6256SOL     OW30226   3.459   4.022   2.739  0.4571 -0.6196  0.1441
 6256SOL    HW130227   3.459   3.931   2.709 -1.4177 -0.7193  0.4594
 6256SOL    HW230228   3.542   4.025   2.787  0.9853  1.2668 -0.8822
 6257SOL     OW30229   1.283   4.228  10.833 -0.0991 -0.0248  0.4193
 6257SOL    HW130230   1.241   4.205  10.916 -0.7770 -0.8312 -0.1529
 6257SOL    HW230231   1.213   4.267  10.780 -0.3206 -2.0556 -0.7847
 6258SOL     OW30232   0.036   1.230   7.669  0.0718 -0.1504 -0.1183
 6258SOL    HW130233   0.129   1.246   7.650 -0.4350 -0.4862 -2.8411
 6258SOL    HW230234   0.005   1.179   7.594  0.8733  0.1075 -0.6311
 6259SOL     OW30235   0.389   3.806   4.880 -0.4068  0.5305  0.5718
 6259SOL    HW130236   0.337   3.821   4.959  0.0725  5.1403 -0.0177
 6259SOL    HW230237   0.376   3.711   4.873 -3.0293  0.8885  0.5859
 6260SOL     OW30238   0.416   3.310   4.771 -0.1620 -0.2460 -0.0035
 6260SOL    HW130239   0.464   3.241   4.817  0.4442 -0.5918 -1.1528
 6260SOL    HW230240   0.438   3.273   4.686  0.1997 -0.8596  0.3565
 6261SOL     OW30241   0.066   3.474   0.642 -0.4519  0.3130  0.6450
 6261SOL    HW130242   0.147   3.434   0.610 -0.6029  1.0773 -0.6806
 6261SOL    HW230243   0.007   3.416   0.593 -0.8144  0.3913  0.9883
 6262SOL     OW30244   1.049   0.685  16.784 -0.1777  0.0768  0.1769
 6262SOL    HW130245   0.967   0.672  16.831  0.6946 -0.1341  1.6133
 6262SOL    HW230246   1.042   0.775  16.752 -2.3519  0.5143  1.8713
 6263SOL     OW30247   4.023   0.264  16.992  0.3849  0.3014 -0.2832
 6263SOL    HW130248   4.018   0.352  17.028 -2.3244  0.9361 -2.2106
 6263SOL    HW230249   4.058   0.208  17.061 -0.9261  1.1002  1.0348
 6264SOL     OW30250   0.439   1.730   6.395  0.1841 -0.0509 -0.4338
 6264SOL    HW130251   0.415   1.823   6.395  1.6616  0.3136  2.4939
 6264SOL    HW230252   0.355   1.687   6.378  0.6714 -2.0422  2.2891
 6265SOL     OW30253   1.554   4.069   6.244  0.0373  0.5013 -0.1578
 6265SOL    HW130254   1.621   4.026   6.297 -0.9403  1.5298  1.8986
 6265SOL    HW230255   1.588   4.152   6.210 -0.2035  1.6997  2.5494
 6266SOL     OW30256   1.179   1.607   7.021 -0.1861  0.0460 -0.1955
 6266SOL    HW130257   1.105   1.645   7.069  0.2345  1.3779 -0.6105
 6266SOL    HW230258   1.164   1.515   7.045 -1.4632  0.6036  1.1267
 6267SOL     OW30259   2.151   1.629   4.579 -0.3871 -0.2177  0.1778
 6267SOL    HW130260   2.196   1.593   4.504 -0.7410  0.7133 -0.4853
 6267SOL    HW230261   2.195   1.714   4.582 -3.2830  1.2786  1.1438
 6268SOL     OW30262   1.559   3.691   1.084 -0.8377 -0.5218  0.7348
 6268SOL    HW130263   1.585   3.611   1.039 -2.3348 -1.5375  1.6631
 6268SOL    HW230264   1.500   3.661   1.153 -0.6603 -1.2888  0.5546
 6269SOL     OW30265   2.986   2.700  15.212 -0.3249 -0.1681  0.0355
 6269SOL    HW130266   3.052   2.631  15.214  0.5477  0.6859  0.9142
 6269SOL    HW230267   2.899   2.660  15.220 -1.5599  3.2919  4.3132
 6270SOL     OW30268   3.022   1.381   4.361  0.6444  0.3068 -0.2139
 6270SOL    HW130269   3.099   1.387   4.418  1.7596 -0.1712 -1.6582
 6270SOL    HW230270   3.041   1.297   4.318 -2.7658 -1.6410  2.1173
 6271SOL     OW30271   3.638   0.331   6.811 -0.2177  0.4335 -0.4890
 6271SOL    HW130272   3.574   0.271   6.773 -0.1746 -1.7023  2.8330
 6271SOL    HW230273   3.712   0.318   6.751 -0.6970 -0.5760 -0.8554
 6272SOL     OW30274   1.042   3.722   3.186  0.7030 -0.0935 -0.7831
 6272SOL    HW130275   1.053   3.703   3.279  1.3973 -2.1189 -1.2946
 6272SOL    HW230276   1.130   3.757   3.169  0.1435  1.2576 -0.9537
 6273SOL     OW30277   0.565   0.207   0.207  0.1436 -0.2787 -0.8977
 6273SOL    HW130278   0.640   0.254   0.244  0.3495 -2.2300  1.1654
 6273SOL    HW230279   0.507   0.222   0.282  1.7090  1.7797 -0.1027
 6274SOL     OW30280   1.121   2.581   4.145  0.3033 -0.0484 -0.1481
 6274SOL    HW130281   1.108   2.642   4.217 -0.4658  0.5883 -0.8307
 6274SOL    HW230282   1.210   2.609   4.123  0.0321  0.5452 -0.4993
 6275SOL     OW30283   0.536   4.644   7.983 -0.1125  0.3695  0.4930
 6275SOL    HW130284   0.628   4.623   7.969  0.0217  0.1524  1.7092
 6275SOL    HW230285   0.498   4.558   7.964  1.3650 -0.1463 -0.1223
 6276SOL     OW30286   2.339   3.616   5.192 -0.2119  0.2476  0.4456
 6276SOL    HW130287   2.285   3.629   5.114 -0.7149 -0.1912  0.7250
 6276SOL    HW230288   2.413   3.673   5.169  1.2617 -1.4196  1.1064
 6277SOL     OW30289   0.204   0.358   2.869  0.4066  0.2069  0.5656
 6277SOL    HW130290   0.269   0.308   2.818 -0.3160 -0.2168  0.0570
 6277SOL    HW230291   0.252   0.379   2.949  1.7445 -0.0230 -0.1818
 6278SOL     OW30292   1.050   4.436   6.841 -0.3484 -0.2990 -0.7780
 6278SOL    HW130293   1.050   4.341   6.843  0.1293 -0.2978 -0.7169
 6278SOL    HW230294   1.044   4.459   6.934 -0.1315  0.7304 -1.0124
 6279SOL     OW30295   2.703   3.109   3.205 -0.1080  0.9552 -0.1549
 6279SOL    HW130296   2.688   3.159   3.285 -0.7330 -1.1830  1.0658
 6279SOL    HW230297   2.739   3.029   3.243 -0.9518  0.7390  0.1890
 6280SOL     OW30298   0.939   3.010   5.105 -0.1056  0.9504  0.6219
 6280SOL    HW130299   0.863   3.061   5.076 -0.2020 -0.4864 -1.6098
 6280SOL    HW230300   0.918   2.988   5.196 -1.6215  0.4628  0.1523
 6281SOL     OW30301   0.129   0.772   9.747  0.1247 -0.1434 -0.5376
 6281SOL    HW130302   0.084   0.769   9.831  1.4291  0.6952  0.1925
 6281SOL    HW230303   0.115   0.688   9.703  1.2943 -0.2721 -0.6524
 6282SOL     OW30304   2.506   0.172  10.460 -0.0831  0.3066  0.2274
 6282SOL    HW130305   2.584   0.122  10.437 -0.6888 -0.6327  0.2603
 6282SOL    HW230306   2.432   0.115  10.443 -0.0535  0.7941 -1.5743
 6283SOL     OW30307   3.352   2.454  15.952 -0.0202  0.7817 -0.1115
 6283SOL    HW130308   3.380   2.431  16.040 -0.4326  1.5530  0.2224
 6283SOL    HW230309   3.421   2.407  15.905 -0.3609  3.2224 -3.0590
 6284SOL     OW30310   3.590   3.312   2.262  0.7550 -0.5093  0.9842
 6284SOL    HW130311   3.592   3.238   2.201 -0.7431  1.7734 -1.8521
 6284SOL    HW230312   3.544   3.271   2.335 -2.3172  0.7706 -0.2465
 6285SOL     OW30313   3.814   4.129   5.650 -0.4474 -0.0038 -0.1195
 6285SOL    HW130314   3.789   4.193   5.717  0.4795  1.3867 -1.1167
 6285SOL    HW230315   3.725   4.112   5.618 -0.9806  1.3617  0.6571
 6286SOL     OW30316   3.956   1.089   7.841  0.6318 -0.1038 -0.4297
 6286SOL    HW130317   3.928   1.005   7.805 -0.8385 -1.0133  2.8454
 6286SOL    HW230318   4.046   1.073   7.868  0.6429  0.3350 -0.2038
 6287SOL     OW30319   3.665   1.348   4.378  0.2129  0.1883  0.3377
 6287SOL    HW130320   3.677   1.255   4.361 -0.2991 -0.2022  2.0996
 6287SOL    HW230321   3.736   1.388   4.329  0.4408 -0.0961  0.4384
 6288SOL     OW30322   2.918   2.478   5.300 -0.3834 -0.5976  0.3779
 6288SOL    HW130323   2.841   2.524   5.269 -0.7845 -0.8334  1.0271
 6288SOL    HW230324   2.950   2.534   5.371  0.0207  0.0367 -0.3003
 6289SOL     OW30325   3.352   3.394   5.115  0.5633  0.0450 -0.0517
 6289SOL    HW130326   3.372   3.349   5.032 -0.9086  1.2315 -1.0494
 6289SOL    HW230327   3.257   3.392   5.118  0.5750  0.4651  0.6655
 6290SOL     OW30328   2.213   2.569   6.847 -0.0582  0.3412 -0.0458
 6290SOL    HW130329   2.240   2.482   6.877 -0.9039 -0.5873 -1.9215
 6290SOL    HW230330   2.158   2.585   6.924  1.4647  0.6792  0.9642
 6291SOL     OW30331   3.844   1.636   5.472  0.5973 -0.0109  0.2070
 6291SOL    HW130332   3.867   1.728   5.486  2.4239 -0.6024  1.1223
 6291SOL    HW230333   3.789   1.636   5.394 -1.3490  0.5219  1.5568
 6292SOL     OW30334   3.278   3.463  14.378 -0.2319  0.2300  0.7316
 6292SOL    HW130335   3.245   3.470  14.467  0.7949 -0.0472  1.1266
 6292SOL    HW230336   3.255   3.373  14.355 -0.3158  0.3408  0.3745
 6293SOL     OW30337   2.849   3.308   0.720  0.2633  0.2817  0.0142
 6293SOL    HW130338   2.784   3.238   0.710 -0.0240  0.4278  0.8613
 6293SOL    HW230339   2.804   3.372   0.774  0.9764  1.5725 -0.9362
 6294SOL     OW30340   1.792   2.140   4.854 -0.2360 -0.2754  0.2883
 6294SOL    HW130341   1.809   2.063   4.800 -0.8458  0.5502 -1.0567
 6294SOL    HW230342   1.881   2.149   4.888 -0.5339 -0.5683  1.1555
 6295SOL     OW30343   0.095   4.527   0.594 -0.1286 -0.0404 -0.1676
 6295SOL    HW130344   0.038   4.604   0.599  0.7607  0.4577  2.1537
 6295SOL    HW230345   0.070   4.492   0.508 -0.8360 -0.2278  0.1160
 6296SOL     OW30346   3.724   1.738   3.247 -0.7205  0.4314  0.8539
 6296SOL    HW130347   3.638   1.709   3.218 -0.7235 -1.1997  2.4807
 6296SOL    HW230348   3.741   1.681   3.322 -0.5180 -0.6554 -0.0304
 6297SOL     OW30349   3.287   2.924   1.933  0.5920  0.2787 -0.2200
 6297SOL    HW130350   3.219   2.992   1.937  1.0964  1.0013 -3.6218
 6297SOL    HW230351   3.261   2.863   1.864 -0.9790  0.1172  0.5215
 6298SOL     OW30352   2.787   0.431   9.472  0.4244 -0.8175  0.7317
 6298SOL    HW130353   2.802   0.341   9.442  0.7925 -0.7064  0.5792
 6298SOL    HW230354   2.873   0.453   9.507  0.7921 -2.6437  0.9989
 6299SOL     OW30355   1.349   2.178   8.368 -0.4088 -0.7037 -0.7682
 6299SOL    HW130356   1.362   2.229   8.288  0.5647  1.9974  1.0775
 6299SOL    HW230357   1.259   2.202   8.389  0.3713 -0.2926  2.1697
 6300SOL     OW30358   2.196   2.710   4.960  0.2418  0.4302  0.2413
 6300SOL    HW130359   2.215   2.619   4.979 -2.6986 -0.5023 -1.3063
 6300SOL    HW230360   2.154   2.735   5.042  2.4006 -0.7548  1.6935
 6301SOL     OW30361   2.420   2.775   2.067 -0.1492  0.1609  0.3627
 6301SOL    HW130362   2.433   2.831   1.990  1.0161  0.3784  0.7220
 6301SOL    HW230363   2.430   2.837   2.139 -1.1031  0.5265  0.1832
 6302SOL     OW30364   2.418   0.492   8.204  0.3169  0.2057 -0.0953
 6302SOL    HW130365   2.506   0.522   8.182  1.6705 -1.6416  2.8245
 6302SOL    HW230366   2.437   0.423   8.268  1.1879 -1.2605 -1.9122
 6303SOL     OW30367   3.089   4.256   9.257  0.6234 -0.1940 -0.1814
 6303SOL    HW130368   3.176   4.296   9.252  0.2198  0.7187  0.1287
 6303SOL    HW230369   3.103   4.201   9.334 -1.7772 -1.4977 -0.6803
 6304SOL     OW30370   1.596   2.139   2.683 -0.8244  0.0808  0.3921
 6304SOL    HW130371   1.649   2.151   2.604  0.7836 -0.6459  1.3710
 6304SOL    HW230372   1.659   2.127   2.754  0.7912 -1.6761 -1.3223
 6305SOL     OW30373   3.465   1.090   4.919 -0.1357  0.0788  0.1233
 6305SOL    HW130374   3.526   1.074   4.991  1.1264 -2.1903 -1.4923
 6305SOL    HW230375   3.394   1.028   4.935 -0.0544 -0.2448 -0.7536
 6306SOL     OW30376   2.888   0.013  15.792  0.0306  0.4284 -0.2087
 6306SOL    HW130377   2.880   4.641  15.764  0.4277  0.9993 -2.2372
 6306SOL    HW230378   2.939   0.049  15.719  1.2455  1.2107  1.0328
 6307SOL     OW30379   4.012   0.210   8.440  0.2498 -0.2374  0.1440
 6307SOL    HW130380   3.964   0.135   8.474 -0.9841  0.5146  0.0363
 6307SOL    HW230381   4.058   0.156   8.375  1.5299 -2.2086  2.6877
 6308SOL     OW30382   2.942   1.996   6.553 -0.3157 -0.1041 -0.1493
 6308SOL    HW130383   2.952   1.911   6.597  0.2387 -1.0698 -2.1264
 6308SOL    HW230384   2.942   2.052   6.630  1.2147 -0.8100  0.3749
 6309SOL     OW30385   2.618   1.841   0.963  0.1244 -0.0443 -0.2912
 6309SOL    HW130386   2.667   1.898   1.022  0.1455 -0.8806  0.4992
 6309SOL    HW230387   2.670   1.854   0.884  0.0725  0.8154 -0.1861
 6310SOL     OW30388   0.828   2.708   0.412  0.1842  0.4157  0.2102
 6310SOL    HW130389   0.890   2.742   0.476  0.0916  0.6523  0.1765
 6310SOL    HW230390   0.882   2.644   0.365  0.2795  1.1724 -0.7156
 6311SOL     OW30391   2.006   1.732   9.766  0.0656  0.0588  0.2622
 6311SOL    HW130392   2.016   1.691   9.852 -2.4326 -1.5730 -0.2053
 6311SOL    HW230393   2.074   1.683   9.719 -2.2964 -1.3903 -1.6702
 6312SOL     OW30394   2.523   4.604  16.949  0.4124  0.5425 -0.0244
 6312SOL    HW130395   2.497   4.543  16.880 -1.0975 -0.5614  1.5349
 6312SOL    HW230396   2.611   4.634  16.923  0.3372  1.8584  1.2243
 6313SOL     OW30397   2.453   4.608  11.198  0.1614  0.1872 -0.6480
 6313SOL    HW130398   2.379   4.564  11.239  1.9500 -1.4817  0.7772
 6313SOL    HW230399   2.455   4.561  11.114 -1.1151 -1.1294  0.0732
 6314SOL     OW30400   2.945   3.033   7.591  0.1850  0.9240 -0.0123
 6314SOL    HW130401   2.932   3.106   7.531 -0.6392  1.6641  1.0645
 6314SOL    HW230402   3.040   3.042   7.602  0.1429  0.0472  1.0557
 6315SOL     OW30403   1.142   0.964  14.843 -0.7403  0.4604  0.1920
 6315SOL    HW130404   1.233   0.937  14.839 -0.9612 -0.1351 -0.6522
 6315SOL    HW230405   1.148   0.998  14.933  1.7662  1.0370 -0.1869
 6316SOL     OW30406   2.440   0.397   5.229  0.2383  0.2603 -0.4900
 6316SOL    HW130407   2.509   0.365   5.171  0.9865  0.1114  0.4657
 6316SOL    HW230408   2.446   0.485   5.191  0.0633  0.9877  1.1417
 6317SOL     OW30409   3.471   0.967  12.882  0.0402  0.0402 -0.4775
 6317SOL    HW130410   3.376   0.962  12.872  0.0550 -1.0176  0.0059
 6317SOL    HW230411   3.486   1.058  12.909 -1.0682  0.4635 -1.2924
 6318SOL     OW30412   0.519   3.856   2.879  0.2451  0.2328 -0.5466
 6318SOL    HW130413   0.444   3.851   2.821  0.5515 -1.2614 -0.8087
 6318SOL    HW230414   0.494   3.905   2.958 -1.1604 -2.8575  0.9172
 6319SOL     OW30415   2.132   4.440   1.679  0.0920  0.3010  0.0598
 6319SOL    HW130416   2.107   4.393   1.759  0.6652 -0.9412 -0.4880
 6319SOL    HW230417   2.139   4.376   1.609 -0.8288 -0.8117  0.9956
 6320SOL     OW30418   2.697   1.187   8.683  0.2243 -0.0119  0.0640
 6320SOL    HW130419   2.766   1.244   8.717 -0.5128  0.7973  0.2024
 6320SOL    HW230420   2.749   1.137   8.620 -0.2705 -0.2980 -0.1198
 6321SOL     OW30421   2.217   4.158   2.934 -0.5556  0.2208 -0.5520
 6321SOL    HW130422   2.232   4.114   2.850 -0.3757 -0.2436 -0.2794
 6321SOL    HW230423   2.265   4.237   2.909  3.2079 -1.3820  1.5712
 6322SOL     OW30424   4.538   0.465   8.398  0.0250  0.5724  0.5120
 6322SOL    HW130425   4.579   0.400   8.455 -0.7413  0.0886  0.5115
 6322SOL    HW230426   4.548   0.545   8.451  2.0639  0.0394  0.9320
 6323SOL     OW30427   2.847   2.231   5.402  0.1761 -0.1492 -0.2738
 6323SOL    HW130428   2.876   2.320   5.381  0.4968 -0.2645 -0.3102
 6323SOL    HW230429   2.777   2.246   5.465  0.6042  1.5983 -0.2258
 6324SOL     OW30430   3.104   2.292   8.579  0.3945 -0.9106  0.3229
 6324SOL    HW130431   3.157   2.246   8.643  0.2013 -1.1347  0.3223
 6324SOL    HW230432   3.041   2.224   8.556  0.1119 -0.5369 -0.0297
 6325SOL     OW30433   4.639   1.153   2.633 -0.5605  0.3730 -0.7223
 6325SOL    HW130434   4.611   1.244   2.646 -0.0578  0.2277  1.2456
 6325SOL    HW230435   4.548   1.122   2.625 -0.1367 -1.1370  0.5720
 6326SOL     OW30436   1.829   1.131  17.318  0.2732 -0.0022 -0.0476
 6326SOL    HW130437   1.849   1.222  17.293  3.0645  0.5764  4.2859
 6326SOL    HW230438   1.813   1.157  17.409 -0.9135 -0.9730  0.0160
 6327SOL     OW30439   0.820   2.766   4.176 -0.3556  0.0611 -0.0268
 6327SOL    HW130440   0.862   2.834   4.123  0.0420  0.9063  1.3913
 6327SOL    HW230441   0.887   2.711   4.215 -0.7531 -0.7359 -0.4522
 6328SOL     OW30442   2.631   1.342   8.254 -0.3871 -0.5470  0.4396
 6328SOL    HW130443   2.537   1.330   8.260 -0.2947 -1.3770  0.1973
 6328SOL    HW230444   2.644   1.381   8.341 -1.1256  0.0719  0.2756
 6329SOL     OW30445   3.040   2.651   8.030 -0.3366  0.3515  0.8892
 6329SOL    HW130446   3.030   2.745   8.018  0.9541  0.2128 -1.1817
 6329SOL    HW230447   3.135   2.641   8.032 -0.0830  2.0076 -4.2214
 6330SOL     OW30448   1.248   3.349   3.227 -0.1190  0.3248 -0.2606
 6330SOL    HW130449   1.210   3.421   3.277  3.4775  0.2697  2.5123
 6330SOL    HW230450   1.308   3.313   3.292  0.5049  1.4726 -0.2171
 6331SOL     OW30451   0.501   4.008   5.277 -0.7099 -0.3320 -0.2414
 6331SOL    HW130452   0.456   4.091   5.263 -0.4743 -0.4330 -1.5535
 6331SOL    HW230453   0.534   4.013   5.367 -1.5552  0.0793  0.0540
 6332SOL     OW30454   3.161   3.060   9.174  0.1774 -0.1850  0.8354
 6332SOL    HW130455   3.092   3.120   9.146  0.1709 -0.3556  0.4881
 6332SOL    HW230456   3.236   3.085   9.121 -0.3569 -2.7518 -1.1590
 6333SOL     OW30457   1.889   1.586   2.629 -0.2704  0.3793 -0.3071
 6333SOL    HW130458   1.835   1.653   2.670 -2.7733 -0.6450 -1.9355
 6333SOL    HW230459   1.929   1.640   2.560  0.1705  0.1567 -0.2301
 6334SOL     OW30460   1.032   2.062   0.769  0.3000  0.0532  0.0847
 6334SOL    HW130461   0.996   2.056   0.681 -0.4478  1.5477  0.2766
 6334SOL    HW230462   1.048   2.156   0.781  0.9800 -0.1916  1.1365
 6335SOL     OW30463   1.292   1.749   6.721  0.4006  0.4536 -0.1482
 6335SOL    HW130464   1.230   1.735   6.793 -0.2003  0.1886 -0.7185
 6335SOL    HW230465   1.245   1.718   6.644  0.5270  1.0837 -0.4799
 6336SOL     OW30466   1.063   2.073  14.800 -0.1613 -0.0324  0.1511
 6336SOL    HW130467   0.986   2.130  14.798 -0.4065 -0.3913 -0.7651
 6336SOL    HW230468   1.047   2.004  14.736  1.0236 -0.3136  0.1570
 6337SOL     OW30469   3.544   2.448  16.451 -0.1015  0.1871  0.4196
 6337SOL    HW130470   3.571   2.357  16.457  0.6027  0.3077 -0.9953
 6337SOL    HW230471   3.522   2.468  16.542 -2.9408  0.8120 -0.3892
 6338SOL     OW30472   3.799   3.265   3.620  0.0061  0.2451 -0.0441
 6338SOL    HW130473   3.785   3.253   3.714 -1.4529 -1.7687 -0.5036
 6338SOL    HW230474   3.787   3.174   3.592  3.1901 -0.3057  0.4300
 6339SOL     OW30475   4.342   4.416   9.238  0.0068  0.6560 -0.0999
 6339SOL    HW130476   4.316   4.430   9.329 -0.8625 -1.6703  0.0142
 6339SOL    HW230477   4.356   4.505   9.208  2.4468  0.5561  0.7691
 6340SOL     OW30478   0.400   0.226   2.742 -0.5223 -0.0086 -0.1973
 6340SOL    HW130479   0.490   0.261   2.748  0.4326 -2.2945 -1.3330
 6340SOL    HW230480   0.421   0.134   2.755 -0.9964 -0.2063 -0.8223
 6341SOL     OW30481   3.174   2.338   0.016 -0.0427 -0.1300 -0.1837
 6341SOL    HW130482   3.086   2.302   0.023  0.1080  0.0745  3.0092
 6341SOL    HW230483   3.214   2.285  17.628 -1.9366 -0.7917 -0.7656
 6342SOL     OW30484   3.477   4.510  11.465 -0.2818  0.3651  0.5722
 6342SOL    HW130485   3.453   4.426  11.504  1.7247 -0.1922  0.6202
 6342SOL    HW230486   3.488   4.574  11.535 -1.1450  0.1350  0.9068
 6343SOL     OW30487   3.992   4.557  14.820 -0.2909 -0.1362 -0.6304
 6343SOL    HW130488   3.979   4.498  14.746  0.0811 -0.0826 -0.7345
 6343SOL    HW230489   4.070   4.524  14.864 -0.2021  0.3790 -0.4081
 6344SOL     OW30490   0.817   1.251   1.439  0.9249  0.7690  0.1557
 6344SOL    HW130491   0.891   1.199   1.406  1.4277  1.8781 -0.4705
 6344SOL    HW230492   0.814   1.229   1.532 -1.6741 -1.3273 -0.4370
 6345SOL     OW30493   4.409   3.067   3.090  0.1743 -0.1181 -0.0552
 6345SOL    HW130494   4.488   3.042   3.042 -1.3544 -2.1236 -1.5316
 6345SOL    HW230495   4.345   3.044   3.022 -0.1039  0.5543 -0.0191
 6346SOL     OW30496   4.344   1.252   0.279 -0.2745  0.3751 -0.3884
 6346SOL    HW130497   4.313   1.224   0.193 -2.6669  2.9236 -0.3729
 6346SOL    HW230498   4.380   1.173   0.318 -2.0227  0.0734  0.6428
 6347SOL     OW30499   0.219   4.464   8.945  0.2137  0.2313 -0.2291
 6347SOL    HW130500   0.263   4.405   9.006  0.8694  0.5328 -0.4113
 6347SOL    HW230501   0.287   4.530   8.942 -1.0767  1.5617 -0.3545
 6348SOL     OW30502   4.602   1.063   4.051 -0.0219  0.2012 -0.5158
 6348SOL    HW130503   4.602   1.002   3.977 -1.7673 -1.3490  0.7624
 6348SOL    HW230504   4.535   1.032   4.112  0.1659 -1.7745 -1.3318
 6349SOL     OW30505   1.041   0.443   5.028 -0.3423 -0.0932  0.0053
 6349SOL    HW130506   1.021   0.349   5.035 -0.0454 -0.0707  1.2103
 6349SOL    HW230507   0.956   0.478   5.002 -0.5023 -0.3288  0.2123
 6350SOL     OW30508   2.176   2.454   5.066 -0.1613  0.3798  0.1320
 6350SOL    HW130509   2.157   2.383   5.128  2.7591 -0.9076 -0.4624
 6350SOL    HW230510   2.108   2.437   5.002 -0.1966  1.7840 -0.2150
 6351SOL     OW30511   3.689   4.648  10.394  0.2779  0.0557 -0.3444
 6351SOL    HW130512   3.645   4.566  10.417  0.4877  0.3158  1.0273
 6351SOL    HW230513   3.767   4.611  10.353 -0.1667 -1.4281  0.1199
 6352SOL     OW30514   1.940   3.251  11.579  0.2883  0.2702  0.0291
 6352SOL    HW130515   1.987   3.313  11.523  1.9287  1.4371  2.6909
 6352SOL    HW230516   2.009   3.219  11.636  0.3800  0.7038  0.1654
 6353SOL     OW30517   2.239   4.020  11.745 -0.2713 -0.9361  0.1789
 6353SOL    HW130518   2.284   4.003  11.828  1.8780 -0.0914 -0.8071
 6353SOL    HW230519   2.241   4.116  11.751  0.3033 -0.8594 -1.2825
 6354SOL     OW30520   3.505   3.898   5.436 -0.2159  0.2565 -0.6873
 6354SOL    HW130521   3.480   3.988   5.457 -0.0732  0.1942 -0.2517
 6354SOL    HW230522   3.433   3.868   5.380 -1.1591  1.2540  0.0032
 6355SOL     OW30523   2.404   2.228  13.678  0.1129 -0.0339 -0.6013
 6355SOL    HW130524   2.342   2.281  13.628 -0.3965  0.8920  1.0134
 6355SOL    HW230525   2.463   2.190  13.612 -0.0390  1.0132 -1.3421
 6356SOL     OW30526   0.089   3.295  11.557 -0.0446 -0.1220  0.0281
 6356SOL    HW130527   0.178   3.330  11.560 -1.0715  2.5401 -0.8337
 6356SOL    HW230528   0.068   3.297  11.651 -1.3895  0.8192 -0.3029
 6357SOL     OW30529   4.291   0.913   5.359 -0.6570 -0.2803  0.5551
 6357SOL    HW130530   4.206   0.939   5.395 -2.0465 -3.3793 -0.4683
 6357SOL    HW230531   4.326   1.002   5.365 -3.6406  1.0283 -1.4119
 6358SOL     OW30532   0.881   3.494  12.927 -0.6689  0.1997 -0.4740
 6358SOL    HW130533   0.935   3.439  12.984 -0.1502  2.2741  1.0480
 6358SOL    HW230534   0.955   3.540  12.888 -2.1464  1.7969 -1.3809
 6359SOL     OW30535   1.427   0.534   7.523 -0.0205  0.0957 -0.1451
 6359SOL    HW130536   1.333   0.521   7.538  0.1560 -0.2507  0.6867
 6359SOL    HW230537   1.437   0.519   7.429 -1.6765  1.2931 -0.5096
 6360SOL     OW30538   3.034   0.309   6.811  0.3396 -0.1307 -0.1093
 6360SOL    HW130539   3.038   0.343   6.900  1.3425  1.0866 -0.6391
 6360SOL    HW230540   3.092   0.363   6.759  0.7781 -1.3573 -0.8998
 6361SOL     OW30541   4.660   3.837   3.166  0.5709 -0.4170  1.0416
 6361SOL    HW130542   4.611   3.845   3.248 -1.7152 -1.7030 -0.2147
 6361SOL    HW230543   4.711   3.918   3.158  1.0838 -0.8668 -0.3123
 6362SOL     OW30544   0.234   2.640  14.065  0.4696  0.8291 -0.0826
 6362SOL    HW130545   0.286   2.713  14.098 -0.0187  0.7970  0.7462
 6362SOL    HW230546   0.291   2.566  14.085 -0.7181 -0.0416  0.0769
 6363SOL     OW30547   1.374   1.111  16.855 -0.4676  0.0128  0.2188
 6363SOL    HW130548   1.289   1.106  16.897 -0.7158  0.7986 -0.2103
 6363SOL    HW230549   1.384   1.206  16.858 -0.2763  0.0348 -1.5089
 6364SOL     OW30550   2.203   1.246   9.260 -0.0348 -0.9077 -0.2468
 6364SOL    HW130551   2.245   1.238   9.174  0.0609 -1.2370 -0.1696
 6364SOL    HW230552   2.112   1.254   9.231 -0.2995 -0.2187  0.7600
 6365SOL     OW30553   3.059   2.418   1.914  0.0138 -0.3702 -0.6017
 6365SOL    HW130554   3.131   2.374   1.958  1.3191  0.8097 -1.5513
 6365SOL    HW230555   3.011   2.341   1.884 -0.0901 -0.3988 -0.3603
 6366SOL     OW30556   0.871   2.532  13.482 -0.7048 -0.0050  0.8732
 6366SOL    HW130557   0.944   2.478  13.511 -0.9472 -1.2652 -0.8219
 6366SOL    HW230558   0.920   2.610  13.457  1.2591 -1.7536 -0.6919
 6367SOL     OW30559   2.397   0.923   3.185  0.1807  0.2543  0.3184
 6367SOL    HW130560   2.325   0.987   3.191  0.3074  0.5403 -1.3224
 6367SOL    HW230561   2.387   0.889   3.274 -1.7926  1.3070  0.5232
 6368SOL     OW30562   1.473   2.346  11.173  0.2867 -0.6224 -0.2613
 6368SOL    HW130563   1.555   2.347  11.124 -1.0075  0.5449 -2.3919
 6368SOL    HW230564   1.505   2.297  11.249 -0.8116 -1.9766 -0.6708
 6369SOL     OW30565   2.203   3.323  14.846 -0.4288  0.0569  0.1610
 6369SOL    HW130566   2.153   3.404  14.832  1.0988  0.4475 -2.8312
 6369SOL    HW230567   2.167   3.260  14.784  1.0367  0.2489 -0.8637
 6370SOL     OW30568   0.077   3.784  16.333  0.2646 -0.2918  0.6833
 6370SOL    HW130569   4.706   3.816  16.334  0.1086 -0.6937 -0.5328
 6370SOL    HW230570   0.107   3.810  16.420  1.7776 -0.5550  0.2368
 6371SOL     OW30571   1.946   2.828   5.900 -0.0815  0.2131  0.3498
 6371SOL    HW130572   1.962   2.878   5.981 -0.8655  0.0599  0.5941
 6371SOL    HW230573   1.852   2.816   5.889 -0.3744  2.4623  0.3787
 6372SOL     OW30574   0.690   4.162   3.095 -0.0151  0.3138 -0.7250
 6372SOL    HW130575   0.765   4.137   3.042 -0.1262 -3.4240  0.8964
 6372SOL    HW230576   0.640   4.082   3.111 -0.2059  0.2808 -1.4617
 6373SOL     OW30577   0.343   1.754   0.015 -0.2868 -0.4633  0.3660
 6373SOL    HW130578   0.262   1.760   0.065  0.3469  0.6013  1.2582
 6373SOL    HW230579   0.341   1.828  17.634 -1.1886 -0.8077 -0.0326
 6374SOL     OW30580   1.975   4.504   2.942 -0.2383  0.1772  0.4010
 6374SOL    HW130581   1.923   4.582   2.922 -1.6022 -1.0835 -1.0281
 6374SOL    HW230582   2.041   4.530   3.006  1.3434 -0.3170 -1.0605
 6375SOL     OW30583   1.055   1.231   8.613 -0.2183  0.6394  0.1841
 6375SOL    HW130584   1.116   1.253   8.683  0.6526  2.2009 -1.0594
 6375SOL    HW230585   1.102   1.243   8.530  0.0865 -0.4584  0.1914
 6376SOL     OW30586   2.308   1.187   9.002  0.2455 -0.5809 -0.0315
 6376SOL    HW130587   2.384   1.135   9.026  0.4361 -1.4726 -2.5394
 6376SOL    HW230588   2.329   1.208   8.911  1.2626  2.2306  0.8375
 6377SOL     OW30589   1.065   2.407   4.907 -0.3816  0.4261 -0.6522
 6377SOL    HW130590   1.145   2.433   4.863 -1.4438 -0.5991 -3.1725
 6377SOL    HW230591   1.033   2.493   4.933 -2.0178 -0.3787  0.0365
 6378SOL     OW30592   1.560   1.635   3.716  0.0890 -0.0237 -0.3121
 6378SOL    HW130593   1.466   1.643   3.733  0.7251  1.8261  2.4148
 6378SOL    HW230594   1.565   1.688   3.636  1.5652 -0.8553 -0.7832
 6379SOL     OW30595   3.322   0.533   7.522  0.7936  0.6223  0.0610
 6379SOL    HW130596   3.261   0.464   7.549 -0.6772  0.8990 -2.5499
 6379SOL    HW230597   3.325   0.587   7.601 -0.4904  2.0529 -0.8746
 6380SOL     OW30598   3.768   2.473   2.520 -0.4239  0.3816 -0.2948
 6380SOL    HW130599   3.796   2.563   2.500 -1.2268  0.6011 -0.4416
 6380SOL    HW230600   3.795   2.433   2.437 -2.1804 -0.6516 -0.3695
 6381SOL     OW30601   2.147   3.152   4.182 -0.3403 -0.2316 -0.3991
 6381SOL    HW130602   2.057   3.181   4.166 -0.0833  0.5627 -0.4089
 6381SOL    HW230603   2.143   3.067   4.137 -0.5468 -0.0826 -0.6623
 6382SOL     OW30604   3.418   1.133   5.197  0.3358  0.1480  0.1398
 6382SOL    HW130605   3.438   1.225   5.186 -0.5556  0.3075 -0.1385
 6382SOL    HW230606   3.323   1.125   5.188  0.3422  0.2117  0.0222
 6383SOL     OW30607   2.460   1.075  14.150  0.0934  1.5316  0.3660
 6383SOL    HW130608   2.453   1.158  14.198 -2.5974  1.8814 -0.6062
 6383SOL    HW230609   2.490   1.101  14.063  3.1446  0.1074  0.9921
 6384SOL     OW30610   0.087   0.130   1.360  0.1109  0.5913  0.0177
 6384SOL    HW130611   0.127   0.063   1.304  0.0233  1.0728 -0.6291
 6384SOL    HW230612   0.160   0.192   1.350  1.6680 -1.3055 -0.3259
 6385SOL     OW30613   0.206   0.319  15.494  0.1596  0.4809 -0.5459
 6385SOL    HW130614   0.301   0.323  15.492  0.3564 -0.7745  4.3315
 6385SOL    HW230615   0.190   0.381  15.565 -3.3460 -0.6223 -0.3521
 6386SOL     OW30616   1.871   0.440   7.310 -0.0101 -0.4479  0.2458
 6386SOL    HW130617   1.822   0.505   7.360  0.8351  1.8530 -1.8899
 6386SOL    HW230618   1.863   0.366   7.370 -0.7239  0.5199  1.3405
 6387SOL     OW30619   2.719   0.303  15.731 -0.0187 -0.3028  0.2904
 6387SOL    HW130620   2.746   0.219  15.768 -0.0489 -1.2474 -1.8547
 6387SOL    HW230621   2.758   0.299  15.644 -0.4799  0.0940  0.0675
 6388SOL     OW30622   2.914   3.986   6.861  0.2374  0.8115 -0.1992
 6388SOL    HW130623   2.958   3.916   6.814 -1.7443  0.3258 -1.3390
 6388SOL    HW230624   2.916   4.059   6.799  0.8901  1.4584  0.5922
 6389SOL     OW30625   1.371   1.213   4.896  0.3904 -0.2750 -0.2065
 6389SOL    HW130626   1.288   1.247   4.928  0.4254 -0.3957  0.0122
 6389SOL    HW230627   1.431   1.270   4.944  0.0539 -0.9733  1.0368
 6390SOL     OW30628   4.027   4.166   2.260  0.4947  0.1541  0.0729
 6390SOL    HW130629   4.027   4.257   2.291  1.9133  0.3639 -0.5316
 6390SOL    HW230630   4.101   4.172   2.199 -0.6247 -0.1529 -1.3144
 6391SOL     OW30631   1.370   3.064   5.539  0.2489 -0.3389  0.2569
 6391SOL    HW130632   1.397   3.113   5.462  0.6605  0.6656  1.0424
 6391SOL    HW230633   1.382   3.133   5.604 -3.0148  1.9659 -1.5685
 6392SOL     OW30634   3.936   4.686  10.962  0.4381  0.2049  0.0327
 6392SOL    HW130635   3.992   0.012  10.898 -0.2505  1.2919  0.2079
 6392SOL    HW230636   4.004   4.659  11.024 -0.2984  0.7038  1.0404
 6393SOL     OW30637   2.397   3.827   9.234 -0.3573  0.1858 -0.0362
 6393SOL    HW130638   2.399   3.820   9.139  0.2673  1.8397 -0.1397
 6393SOL    HW230639   2.456   3.901   9.250 -0.1137  0.3818 -1.8310
 6394SOL     OW30640   3.014   4.451   3.632 -0.1642 -0.6643 -0.1875
 6394SOL    HW130641   2.996   4.543   3.652 -1.3432 -1.1062  0.8145
 6394SOL    HW230642   2.955   4.401   3.690 -0.1567 -0.6111 -0.1338
 6395SOL     OW30643   1.427   1.667   7.106 -0.3338  0.0669 -0.1578
 6395SOL    HW130644   1.423   1.736   7.172  1.2122 -0.3461  0.3799
 6395SOL    HW230645   1.337   1.663   7.074  0.0191 -1.5868 -0.9455
 6396SOL     OW30646   3.238   0.456   3.510 -0.0731  0.8961  0.3349
 6396SOL    HW130647   3.220   0.546   3.537 -3.3315  0.3251  0.0919
 6396SOL    HW230648   3.202   0.451   3.421 -0.9134 -0.4512  0.7414
 6397SOL     OW30649   1.390   0.172  10.325  0.0690  0.0067 -0.1222
 6397SOL    HW130650   1.320   0.197  10.264  1.4972  1.4103 -1.1654
 6397SOL    HW230651   1.335   0.164  10.403  0.4045 -0.8773  0.0180
 6398SOL     OW30652   1.836   4.164  10.786  0.0414 -0.0455 -0.4959
 6398SOL    HW130653   1.811   4.222  10.714  0.3854  0.5760 -0.1160
 6398SOL    HW230654   1.871   4.224  10.853 -1.6152 -0.9879  1.2010
 6399SOL     OW30655   3.378   0.733   0.597  0.4060  0.0489  0.2468
 6399SOL    HW130656   3.329   0.651   0.587 -2.2298  1.9751 -2.5650
 6399SOL    HW230657   3.391   0.744   0.503 -2.4889 -1.8062 -0.3641
 6400SOL     OW30658   4.433   1.732   5.078  0.5726  0.0618  0.2784
 6400SOL    HW130659   4.397   1.677   5.008  2.1822 -1.4539  0.6493
 6400SOL    HW230660   4.370   1.803   5.086  0.0920 -0.2441 -0.7060
 6401SOL     OW30661   3.615   0.233   5.268  0.0319  0.6221  0.8432
 6401SOL    HW130662   3.694   0.240   5.216 -0.1199 -0.9055  0.4070
 6401SOL    HW230663   3.607   0.305   5.331 -0.0920  1.4535 -0.1216
 6402SOL     OW30664   1.725   4.666   1.154  0.2616  0.3609 -0.3425
 6402SOL    HW130665   1.773   4.601   1.102  2.4137 -0.1957  2.3657
 6402SOL    HW230666   1.800   4.701   1.202  0.9047 -1.0255 -0.3313
 6403SOL     OW30667   2.127   4.622   2.017 -0.4725  0.0365  0.1217
 6403SOL    HW130668   2.216   4.616   1.983 -1.1930  0.5068 -1.8394
 6403SOL    HW230669   2.081   4.684   1.959  0.2517  2.2777  1.9373
 6404SOL     OW30670   4.165   4.224   1.656  0.0132 -0.0562 -0.2821
 6404SOL    HW130671   4.225   4.234   1.729  0.7235  0.3704 -0.9278
 6404SOL    HW230672   4.196   4.149   1.604 -0.2363 -1.3237  1.3879
 6405SOL     OW30673   0.742   2.825   6.764  0.1031  0.0378  0.7290
 6405SOL    HW130674   0.687   2.858   6.835  0.0983  1.1440  0.2180
 6405SOL    HW230675   0.740   2.896   6.700 -0.5810 -0.4929  0.1592
 6406SOL     OW30676   1.753   3.661   8.244 -0.4162  0.1066 -0.6640
 6406SOL    HW130677   1.671   3.654   8.195 -1.4735 -0.2178  1.1493
 6406SOL    HW230678   1.787   3.748   8.224  1.3848 -0.2746  0.8367
 6407SOL     OW30679   3.882   4.393  16.184 -0.2647 -0.2826  0.8247
 6407SOL    HW130680   3.977   4.398  16.175 -0.3946  0.0105 -0.4879
 6407SOL    HW230681   3.864   4.440  16.265 -1.2270  1.2827 -0.2680
 6408SOL     OW30682   0.326   0.917   2.356 -0.0987  0.2232  0.6298
 6408SOL    HW130683   0.280   0.870   2.285  0.5953  1.8153 -0.8737
 6408SOL    HW230684   0.412   0.877   2.347  0.2533  1.2018 -0.2876
 6409SOL     OW30685   2.875   2.945   1.894  0.2198  0.0890 -0.0357
 6409SOL    HW130686   2.809   2.973   1.957 -0.8824 -1.2932 -0.5735
 6409SOL    HW230687   2.898   2.857   1.925 -1.5784  0.2311  1.6587
 6410SOL     OW30688   1.794   4.056   5.279  0.0091  0.7708  0.1040
 6410SOL    HW130689   1.853   3.989   5.313 -1.1283  0.4276  1.3711
 6410SOL    HW230690   1.776   4.021   5.191  3.4362  1.0767 -0.7369
 6411SOL     OW30691   4.008   3.772   9.247 -0.0035 -1.0603 -0.4242
 6411SOL    HW130692   3.925   3.734   9.276 -0.6722  0.4423 -0.3935
 6411SOL    HW230693   4.058   3.692   9.233  0.8949 -0.5472 -0.1236
 6412SOL     OW30694   0.685   4.531  16.113 -0.3990 -0.0256 -0.1135
 6412SOL    HW130695   0.616   4.565  16.055  1.1427  0.4102 -1.6796
 6412SOL    HW230696   0.755   4.510  16.052  0.0903  0.6454  0.2200
 6413SOL     OW30697   2.587   3.283  10.389  0.6682  0.4372 -0.5508
 6413SOL    HW130698   2.536   3.217  10.436  1.8185 -0.1753 -0.1732
 6413SOL    HW230699   2.519   3.340  10.353  0.3834  0.7395  0.4695
 6414SOL     OW30700   1.168   0.424   4.783  0.1397  0.2410  0.1679
 6414SOL    HW130701   1.086   0.421   4.733  0.6234  0.8213 -0.6488
 6414SOL    HW230702   1.132   0.425   4.872 -3.2029 -2.4061 -1.1406
 6415SOL     OW30703   0.040   1.534   4.590 -0.3693 -0.3697 -0.9684
 6415SOL    HW130704   0.021   1.524   4.683 -2.2800  0.3316 -1.2709
 6415SOL    HW230705   0.001   1.620   4.572  1.3384  0.3160 -1.3121
 6416SOL     OW30706   2.587   4.664  13.767 -0.0732 -0.1203 -0.3336
 6416SOL    HW130707   2.657   4.677  13.832  0.3142 -1.2372 -0.5168
 6416SOL    HW230708   2.556   0.035  13.761  1.3798  0.3361 -0.9109
 6417SOL     OW30709   2.507   0.696   0.316  0.0999  0.1352 -0.3766
 6417SOL    HW130710   2.412   0.700   0.311  0.1950  0.0856 -2.2195
 6417SOL    HW230711   2.526   0.723   0.226  1.3922 -2.1057 -0.7756
 6418SOL     OW30712   4.409   4.281   3.742 -0.1293  0.2635 -0.0723
 6418SOL    HW130713   4.388   4.310   3.830  2.2047 -0.9349  0.8834
 6418SOL    HW230714   4.359   4.332   3.678  0.3044 -0.0081 -0.6282
 6419SOL     OW30715   2.872   1.168   7.709 -0.0110 -0.1761 -0.3911
 6419SOL    HW130716   2.794   1.213   7.678  0.0337  2.1419  2.8066
 6419SOL    HW230717   2.864   1.184   7.803  0.5678 -0.4547 -0.2924
 6420SOL     OW30718   2.073   0.671   4.720  0.0759 -0.0745 -0.1844
 6420SOL    HW130719   1.983   0.673   4.754  0.6056  0.1968  1.2363
 6420SOL    HW230720   2.104   0.589   4.759 -0.3481 -0.1840 -0.0742
 6421SOL     OW30721   0.619   2.142   1.602  0.1991 -0.3396  0.3604
 6421SOL    HW130722   0.696   2.156   1.658  1.0358 -1.2939 -0.5384
 6421SOL    HW230723   0.590   2.219   1.554 -0.8521 -0.7664  0.3160
 6422SOL     OW30724   1.934   2.912   2.731 -0.3278 -0.0472  0.6465
 6422SOL    HW130725   1.997   2.955   2.674 -0.9076 -0.8379 -0.6106
 6422SOL    HW230726   1.954   2.959   2.812 -0.5904 -0.7205  1.1059
 6423SOL     OW30727   0.017   2.234  12.962  0.3071  0.5409 -0.3740
 6423SOL    HW130728   0.018   2.303  13.029  0.4409 -1.6934  1.9375
 6423SOL    HW230729   0.090   2.180  12.994 -1.0552 -1.1758 -0.1513
 6424SOL     OW30730   1.575   2.971   8.617 -0.3330 -0.1523 -0.9909
 6424SOL    HW130731   1.497   2.926   8.648  0.6566 -1.2750 -0.1605
 6424SOL    HW230732   1.640   2.920   8.665 -2.8403 -1.6440  0.7947
 6425SOL     OW30733   2.414   2.239   8.865 -0.3589  0.0113 -0.3350
 6425SOL    HW130734   2.363   2.255   8.944  0.0260  0.0379 -0.0901
 6425SOL    HW230735   2.381   2.311   8.812 -1.0631 -0.9186 -1.1760
 6426SOL     OW30736   1.763   0.798   6.452 -0.7177  0.4567  0.4973
 6426SOL    HW130737   1.809   0.729   6.498 -1.0765  1.2338  2.0295
 6426SOL    HW230738   1.814   0.877   6.471  2.5090 -1.4566 -0.2965
 6427SOL     OW30739   0.755   3.764   2.161  0.2180 -0.0904 -0.1808
 6427SOL    HW130740   0.769   3.679   2.118  1.9579 -1.6975  3.5991
 6427SOL    HW230741   0.666   3.756   2.196 -1.0481  0.1148 -3.3194
 6428SOL     OW30742   3.423   0.683   6.131  0.1802  0.2152 -0.1155
 6428SOL    HW130743   3.399   0.761   6.080 -0.2271  0.4785  0.4731
 6428SOL    HW230744   3.386   0.691   6.220 -0.6344 -0.2888 -0.4064
 6429SOL     OW30745   4.468   2.038   3.000  0.1145  0.2878 -0.2277
 6429SOL    HW130746   4.518   2.013   2.922  1.8139 -0.8112  1.2223
 6429SOL    HW230747   4.496   1.971   3.063 -0.0726 -0.2241 -0.6817
 6430SOL     OW30748   1.365   0.738   6.804 -0.5313 -0.9116  0.1092
 6430SOL    HW130749   1.389   0.819   6.849 -0.0185 -1.8657  1.5396
 6430SOL    HW230750   1.449   0.695   6.818 -0.6442 -1.1293  0.1331
 6431SOL     OW30751   4.438   2.884   4.308  0.3488  0.2337 -0.2305
 6431SOL    HW130752   4.486   2.876   4.225 -0.3011  1.1758 -0.6971
 6431SOL    HW230753   4.517   2.888   4.362 -0.3967 -1.1922  0.9435
 6432SOL     OW30754   2.579   1.359   1.989  0.0477  0.2133 -0.0007
 6432SOL    HW130755   2.549   1.413   2.062  0.6774 -0.4298  0.7247
 6432SOL    HW230756   2.643   1.418   1.947  0.5380  0.3622  0.9670
 6433SOL     OW30757   1.806   1.304  14.588 -0.2970  0.2755  0.2236
 6433SOL    HW130758   1.762   1.233  14.634  0.4501 -0.4691 -0.2079
 6433SOL    HW230759   1.897   1.285  14.612  0.1513 -0.9484 -2.3438
 6434SOL     OW30760   4.218   0.970   4.381 -0.4890  0.4080 -0.4316
 6434SOL    HW130761   4.173   0.907   4.437  2.4184 -0.7688  0.5827
 6434SOL    HW230762   4.238   0.911   4.309  0.0900 -0.9877  0.8708
 6435SOL     OW30763   0.021   1.441   3.873  0.0193 -0.3785  0.0586
 6435SOL    HW130764   4.711   1.529   3.898 -2.0497 -0.4409 -2.2143
 6435SOL    HW230765   0.027   1.395   3.957 -2.2855 -1.1775 -0.2418
 6436SOL     OW30766   1.801   0.581   3.601 -0.1203  0.2309 -0.8423
 6436SOL    HW130767   1.894   0.561   3.589 -0.4984 -2.0981  0.1556
 6436SOL    HW230768   1.775   0.513   3.663 -1.9158  0.3308 -1.4800
 6437SOL     OW30769   0.177   1.168   1.953 -0.0240 -0.1445  0.6535
 6437SOL    HW130770   0.147   1.082   1.981 -2.3814  0.1764 -0.8891
 6437SOL    HW230771   0.217   1.193   2.036 -0.4426  0.8100  0.5673
 6438SOL     OW30772   0.328   0.244   0.819 -0.5040 -0.2120  0.2572
 6438SOL    HW130773   0.285   0.222   0.902 -0.3829 -0.3361  0.2870
 6438SOL    HW230774   0.362   0.158   0.794  0.1112  0.1074 -0.0059
 6439SOL     OW30775   0.945   1.614   9.291  0.4716  0.1820  0.1593
 6439SOL    HW130776   0.856   1.590   9.316  0.9812 -1.9812 -0.1821
 6439SOL    HW230777   0.964   1.670   9.366  3.6490 -0.3438 -0.2532
 6440SOL     OW30778   1.356   2.807   8.696  0.0451  0.0481 -0.5254
 6440SOL    HW130779   1.342   2.778   8.786 -1.3021 -0.9062 -1.0395
 6440SOL    HW230780   1.272   2.780   8.657 -0.0218 -1.5147  0.7349
 6441SOL     OW30781   1.662   2.477   8.262  0.4902 -0.1395  0.4686
 6441SOL    HW130782   1.711   2.463   8.181 -1.9644 -1.3598 -0.7842
 6441SOL    HW230783   1.665   2.572   8.262 -1.2639 -0.0835 -1.3011
 6442SOL     OW30784   1.835   0.902  10.659  0.5623 -0.0595 -0.2412
 6442SOL    HW130785   1.882   0.819  10.659  0.8011  0.0662  1.4647
 6442SOL    HW230786   1.793   0.906  10.745 -1.7453 -0.4148 -1.3638
 6443SOL     OW30787   3.053   0.916  15.392  0.0809  0.4235 -0.4159
 6443SOL    HW130788   2.992   0.870  15.448  2.4122 -3.3685 -0.9913
 6443SOL    HW230789   3.126   0.941  15.449 -0.9036  0.9549  0.6186
 6444SOL     OW30790   0.255   1.936  10.980 -0.2156 -0.6896 -0.6253
 6444SOL    HW130791   0.268   1.919  11.073 -0.1968 -0.4954 -0.5942
 6444SOL    HW230792   0.197   2.012  10.980 -2.3307 -2.3125 -1.3567
 6445SOL     OW30793   4.576   3.347   7.182 -0.0676  0.2858 -0.5201
 6445SOL    HW130794   4.612   3.348   7.270 -0.2640 -0.1150 -0.4361
 6445SOL    HW230795   4.521   3.425   7.176  0.4397  0.5592 -1.6296
 6446SOL     OW30796   4.602   0.484  10.027  0.2549  0.3718 -0.0319
 6446SOL    HW130797   4.622   0.430  10.103 -0.9184  1.8547  1.3280
 6446SOL    HW230798   4.553   0.422   9.972  0.4288  0.3501 -0.1623
 6447SOL     OW30799   2.672   0.600   1.990 -0.3358  0.0438  0.2224
 6447SOL    HW130800   2.692   0.693   1.986 -1.6309  0.4594  2.8677
 6447SOL    HW230801   2.657   0.587   2.084 -0.7174  0.5402  0.2294
 6448SOL     OW30802   0.519   4.566  17.105  0.4865  0.3611 -0.2367
 6448SOL    HW130803   0.573   4.576  17.027  1.8318 -1.3599  0.4623
 6448SOL    HW230804   0.504   4.471  17.101  3.1747 -0.0763  0.3299
 6449SOL     OW30805   4.531   2.195   9.419  0.0165 -0.1756  0.5594
 6449SOL    HW130806   4.516   2.204   9.513 -4.3728  0.1817 -0.1999
 6449SOL    HW230807   4.542   2.287   9.397 -2.3875 -0.2522 -0.9349
 6450SOL     OW30808   0.146   0.612   2.007  0.5679  0.7098 -0.1548
 6450SOL    HW130809   0.238   0.597   1.981  0.6175 -1.6303  1.4049
 6450SOL    HW230810   0.141   0.565   2.090  2.0840  0.6290 -0.1002
 6451SOL     OW30811   1.936   4.217   8.803 -0.2009  0.2840 -0.4642
 6451SOL    HW130812   1.874   4.161   8.851 -1.8828  1.3238 -1.4159
 6451SOL    HW230813   1.940   4.303   8.846  0.9204  1.6317 -3.2624
 6452SOL     OW30814   0.011   3.158  14.531  0.2174  0.1138 -0.6614
 6452SOL    HW130815   0.039   3.203  14.611  1.5769 -1.2398 -0.3807
 6452SOL    HW230816   0.010   3.065  14.555 -2.6278  1.2438  3.5456
 6453SOL     OW30817   1.714   3.873   2.196  0.5890  0.0728  0.1071
 6453SOL    HW130818   1.749   3.826   2.120  0.7866  1.8610 -0.8880
 6453SOL    HW230819   1.621   3.872   2.174  0.9046 -0.1274 -1.2086
 6454SOL     OW30820   1.965   0.455   3.247 -0.0788  0.1936  0.1555
 6454SOL    HW130821   2.002   0.541   3.225  0.3496 -0.0039  0.1082
 6454SOL    HW230822   2.039   0.402   3.218 -0.3735 -0.2001  0.1227
 6455SOL     OW30823   1.267   1.224   5.540  0.0318  0.0403  0.3836
 6455SOL    HW130824   1.356   1.237   5.572  0.4592  1.8023 -1.5040
 6455SOL    HW230825   1.264   1.129   5.552 -1.7814 -0.0688 -0.8725
 6456SOL     OW30826   3.011   0.849  12.725 -0.5067  0.5455  0.3041
 6456SOL    HW130827   2.937   0.792  12.745  0.0690 -0.4121 -0.2731
 6456SOL    HW230828   3.009   0.850  12.629  1.8273  2.8717  0.2609
 6457SOL     OW30829   1.843   1.595  16.617  0.8758  0.2146 -0.4955
 6457SOL    HW130830   1.883   1.680  16.598 -1.4181  1.5533  0.5489
 6457SOL    HW230831   1.915   1.551  16.662 -0.3191 -2.0089 -0.7393
 6458SOL     OW30832   3.718   2.929  10.189 -0.1301  0.2095 -0.2470
 6458SOL    HW130833   3.662   2.923  10.266  1.4485 -0.3915  0.8700
 6458SOL    HW230834   3.757   3.016  10.199 -1.7609  0.9305 -0.1503
 6459SOL     OW30835   4.023   3.246   4.258 -0.4065 -0.3716  0.6641
 6459SOL    HW130836   3.932   3.268   4.276  0.2554  3.2779 -0.5251
 6459SOL    HW230837   4.048   3.336   4.240 -1.9168 -0.0460  0.2193
 6460SOL     OW30838   1.053   1.478   6.695 -0.2544  0.0262  0.0280
 6460SOL    HW130839   1.122   1.423   6.658  1.0817  0.2476  2.1921
 6460SOL    HW230840   1.036   1.547   6.630  2.2720 -0.0523 -0.7165
 6461SOL     OW30841   2.641   2.266  12.181 -0.3629  0.2465 -0.5152
 6461SOL    HW130842   2.732   2.279  12.206 -0.3666 -0.2094 -0.2722
 6461SOL    HW230843   2.662   2.233  12.093  0.7466  1.4471 -0.6973
 6462SOL     OW30844   0.753   0.706  13.446 -0.5296  0.5576  0.0658
 6462SOL    HW130845   0.815   0.777  13.429 -0.3041  0.3766  0.1339
 6462SOL    HW230846   0.811   0.637  13.479 -1.3055 -0.8537 -1.5207
 6463SOL     OW30847   2.421   1.250   3.398 -0.1414 -0.2371  0.0098
 6463SOL    HW130848   2.355   1.187   3.370 -0.3756  1.2337 -2.7135
 6463SOL    HW230849   2.364   1.327   3.400 -1.4524 -1.2421  1.0484
 6464SOL     OW30850   3.588   3.506   9.097  0.1666  0.5537  0.4375
 6464SOL    HW130851   3.510   3.492   9.043  0.3872  3.3586 -0.6345
 6464SOL    HW230852   3.544   3.504   9.182 -1.8722  0.8171 -0.5931
 6465SOL     OW30853   4.006   1.681  16.443  0.0350 -0.2642 -0.0776
 6465SOL    HW130854   4.047   1.767  16.434 -1.4801  0.7793  3.0749
 6465SOL    HW230855   3.976   1.673  16.534 -1.7963  1.6690 -0.5202
 6466SOL     OW30856   0.510   0.300   3.254 -0.4926 -0.1863 -0.3925
 6466SOL    HW130857   0.456   0.345   3.188 -0.1291  2.6662  1.2566
 6466SOL    HW230858   0.440   0.267   3.309  0.3588  0.8932  1.3621
 6467SOL     OW30859   3.058   1.298   6.942  0.0039 -0.1036 -0.1219
 6467SOL    HW130860   3.133   1.279   6.998 -1.2418  1.8683  2.2183
 6467SOL    HW230861   3.092   1.260   6.861  1.0962 -2.2598  1.3395
 6468SOL     OW30862   2.832   1.117  16.821 -0.1551  0.5388  0.3998
 6468SOL    HW130863   2.874   1.034  16.801  1.6185  1.9995 -1.9491
 6468SOL    HW230864   2.741   1.095  16.840  1.1961 -3.9347  1.6499
 6469SOL     OW30865   1.444   0.273  16.145 -0.1365  0.0361 -0.7039
 6469SOL    HW130866   1.419   0.259  16.236  0.0357  2.1127 -0.3197
 6469SOL    HW230867   1.524   0.221  16.136 -0.5843 -0.9636  0.9943
 6470SOL     OW30868   4.554   4.648   6.557 -0.9373 -0.3122  0.1685
 6470SOL    HW130869   4.555   4.627   6.651  0.3363  0.7991  0.4055
 6470SOL    HW230870   4.463   4.676   6.549 -0.8365  0.1449  0.6307
 6471SOL     OW30871   0.473   4.715   5.848 -0.5084  0.0811 -0.4029
 6471SOL    HW130872   0.470   0.083   5.887  0.2469  0.0908 -0.3647
 6471SOL    HW230873   0.386   4.677   5.856 -1.6369  3.0777  1.6911
 6472SOL     OW30874   1.200   2.594   2.235  0.0911  0.3651 -0.1501
 6472SOL    HW130875   1.146   2.518   2.258 -0.4277  1.6303  2.8752
 6472SOL    HW230876   1.187   2.607   2.141 -0.6379 -2.5513 -0.4469
 6473SOL     OW30877   0.672   2.506   3.198  0.3377  0.4346 -0.6395
 6473SOL    HW130878   0.609   2.570   3.163 -1.4157 -0.9748 -0.0630
 6473SOL    HW230879   0.618   2.427   3.196 -0.9872  1.2989  0.7738
 6474SOL     OW30880   4.607   1.714   5.992  0.3669 -0.2253 -0.3684
 6474SOL    HW130881   4.546   1.710   5.918  1.2790  1.7677 -1.2200
 6474SOL    HW230882   4.575   1.797   6.026  0.3595  0.2447 -1.5378
 6475SOL     OW30883   2.115   0.551   2.766  0.4832  0.5641  0.5248
 6475SOL    HW130884   2.202   0.523   2.738 -0.2137  0.8871 -1.9426
 6475SOL    HW230885   2.061   0.473   2.774  1.8419 -0.4016  0.2211
 6476SOL     OW30886   3.796   0.495   2.997  0.2837  0.3282 -0.0947
 6476SOL    HW130887   3.813   0.404   2.970  0.2894  0.7660 -1.5531
 6476SOL    HW230888   3.814   0.547   2.918  0.6302  1.3975  0.6913
 6477SOL     OW30889   1.319   0.966   7.051  0.8231 -0.4924  0.7374
 6477SOL    HW130890   1.226   0.952   7.066  0.6304 -1.0033 -0.9292
 6477SOL    HW230891   1.360   0.944   7.134  0.9680  1.5737  1.2278
 6478SOL     OW30892   3.885   0.890   1.296  0.4565  0.0397  0.3413
 6478SOL    HW130893   3.928   0.925   1.218 -1.2503  0.2740 -0.4897
 6478SOL    HW230894   3.795   0.904   1.266 -0.0254  0.1725  1.8637
 6479SOL     OW30895   3.560   0.360   7.574 -0.5495  0.0863 -0.5079
 6479SOL    HW130896   3.490   0.409   7.531 -1.0816 -0.5926 -0.4222
 6479SOL    HW230897   3.582   0.419   7.646 -0.4622 -0.4101 -0.1234
 6480SOL     OW30898   1.232   0.463  11.117  0.0862  0.1301 -0.3728
 6480SOL    HW130899   1.208   0.456  11.025  1.4184 -0.1477 -0.7132
 6480SOL    HW230900   1.326   0.441  11.123  0.0584 -0.1153 -0.8547
 6481SOL     OW30901   3.809   4.299   0.769 -0.1486 -0.0521 -0.0354
 6481SOL    HW130902   3.720   4.321   0.741 -0.3274  0.0956  0.6370
 6481SOL    HW230903   3.805   4.204   0.754 -0.5676  0.2127 -1.6235
 6482SOL     OW30904   3.263   3.866  14.095 -0.0825 -0.1461 -0.9267
 6482SOL    HW130905   3.173   3.869  14.129  0.8490 -2.2626  1.7227
 6482SOL    HW230906   3.292   3.776  14.111  3.3326  1.1801  0.1857
 6483SOL     OW30907   2.473   3.537  12.831  0.2212 -0.0118 -0.1690
 6483SOL    HW130908   2.402   3.573  12.883  0.7660 -0.5253  0.9135
 6483SOL    HW230909   2.438   3.462  12.784 -0.5242  0.0675  0.2627
 6484SOL     OW30910   1.832   0.108   7.940 -0.6175 -0.8159 -0.6156
 6484SOL    HW130911   1.779   0.145   8.010 -1.3743  0.9579 -2.1189
 6484SOL    HW230912   1.915   0.139   7.976 -1.0412  0.3594 -0.6359
 6485SOL     OW30913   1.342   4.604  15.466 -0.2379  0.1795  0.2218
 6485SOL    HW130914   1.270   4.594  15.404  0.0065 -1.1016  0.1580
 6485SOL    HW230915   1.373   4.516  15.485 -1.5898 -0.4017 -0.2963
 6486SOL     OW30916   2.557   4.092  17.518 -0.6352 -0.1131 -0.4111
 6486SOL    HW130917   2.642   4.093  17.474 -0.1793 -3.4319  0.4235
 6486SOL    HW230918   2.596   4.089  17.606 -1.3069 -0.5115 -0.1353
 6487SOL     OW30919   3.723   2.454   3.970  0.1116 -0.3352  0.1589
 6487SOL    HW130920   3.656   2.388   3.953 -0.1266  0.1069 -0.6119
 6487SOL    HW230921   3.779   2.448   3.892 -0.4907 -0.2941 -0.2844
 6488SOL     OW30922   0.490   3.780   9.228 -0.1911 -0.0247 -0.1206
 6488SOL    HW130923   0.434   3.710   9.264 -0.3006  0.4285  0.5961
 6488SOL    HW230924   0.433   3.856   9.231  3.1296  2.4232  1.0254
 6489SOL     OW30925   0.675   1.525   2.368 -0.1028  0.4431  0.3863
 6489SOL    HW130926   0.689   1.536   2.462 -1.3260  0.7825  0.5254
 6489SOL    HW230927   0.647   1.612   2.340  0.8535  0.4660 -0.4914
 6490SOL     OW30928   2.344   2.539   2.275 -0.0200 -0.1474  0.1592
 6490SOL    HW130929   2.412   2.606   2.281  2.3476 -2.4841 -0.7372
 6490SOL    HW230930   2.395   2.462   2.299 -0.3652 -0.4593 -0.1123
 6491SOL     OW30931   0.965   3.023   7.744 -0.1425  0.2285  0.5776
 6491SOL    HW130932   1.034   2.959   7.760  0.1040  0.6214  1.1009
 6491SOL    HW230933   0.922   3.049   7.826 -2.8882  0.4050 -0.9037
 6492SOL     OW30934   1.106   1.126   7.841 -0.0484 -0.2364  0.1265
 6492SOL    HW130935   1.188   1.168   7.815 -0.5199  0.1382 -0.7812
 6492SOL    HW230936   1.076   1.077   7.764  1.3540  0.5949 -0.9542
 6493SOL     OW30937   2.839   1.140   8.955  0.2447 -0.3450  0.0611
 6493SOL    HW130938   2.915   1.127   9.010  0.4148 -1.4234 -0.4322
 6493SOL    HW230939   2.859   1.084   8.880  0.0235  0.6815 -0.7782
 6494SOL     OW30940   4.085   4.281   6.920 -0.1350  0.9853 -0.7561
 6494SOL    HW130941   4.002   4.319   6.891 -1.2815 -0.9676 -0.0805
 6494SOL    HW230942   4.073   4.186   6.916  1.1988  0.8156 -0.5263
 6495SOL     OW30943   3.832   0.985  16.380 -0.2302 -0.0324 -0.4168
 6495SOL    HW130944   3.913   0.936  16.395  1.1278  1.5695 -2.5126
 6495SOL    HW230945   3.804   0.939  16.302 -1.0994 -1.6821  0.8765
 6496SOL     OW30946   1.926   2.005  15.937  0.0312  0.5085  0.2132
 6496SOL    HW130947   1.976   2.080  15.905 -0.4449  0.4512 -0.6555
 6496SOL    HW230948   1.945   1.941  15.868  1.5930  0.0410  1.0823
 6497SOL     OW30949   4.236   1.307  11.939 -0.4331  0.1110  0.1487
 6497SOL    HW130950   4.198   1.321  12.025 -0.8415  1.8723 -0.3101
 6497SOL    HW230951   4.200   1.223  11.911  0.1272 -1.0685  2.9687
 6498SOL     OW30952   1.849   4.296   3.279 -0.7423 -0.3263  0.0884
 6498SOL    HW130953   1.803   4.313   3.197 -2.2635  1.2632  1.2695
 6498SOL    HW230954   1.908   4.371   3.280  0.6178 -1.3616 -1.1167
 6499SOL     OW30955   0.974   0.590   1.832  0.1955  0.0630 -0.1879
 6499SOL    HW130956   1.020   0.664   1.793  1.0062  0.5918  1.7777
 6499SOL    HW230957   0.996   0.598   1.925 -1.1386 -1.0775  0.2234
 6500SOL     OW30958   2.540   2.437   6.035 -0.0790 -0.0997 -0.2280
 6500SOL    HW130959   2.451   2.428   6.000 -0.3393 -0.5412  0.5427
 6500SOL    HW230960   2.572   2.515   5.990  0.6792 -0.3420 -0.1126
 6501SOL     OW30961   2.409   4.664   2.925 -0.3830 -0.2232 -0.5248
 6501SOL    HW130962   2.422   0.035   2.953 -2.0979  0.0729 -0.7048
 6501SOL    HW230963   2.412   4.678   2.830 -0.0328  0.5754 -0.3930
 6502SOL     OW30964   3.095   1.216  10.764  0.5438  0.5809 -0.6668
 6502SOL    HW130965   3.139   1.299  10.783  0.0234  1.3045 -2.7160
 6502SOL    HW230966   3.051   1.205  10.848  0.8900 -1.7131 -0.7890
 6503SOL     OW30967   2.321   0.243  13.386 -0.2837  0.4408 -0.1794
 6503SOL    HW130968   2.268   0.233  13.465  2.1340 -0.5927  1.3088
 6503SOL    HW230969   2.400   0.194  13.411  0.7823  1.2818 -1.9047
 6504SOL     OW30970   0.100   1.277   4.733 -0.0949 -0.0430  0.5367
 6504SOL    HW130971   0.079   1.293   4.641 -1.3174  0.8533  0.9700
 6504SOL    HW230972   0.019   1.237   4.764 -0.1906  0.3830  0.8242
 6505SOL     OW30973   0.520   0.013  10.392  1.0423  0.4016  0.5730
 6505SOL    HW130974   0.490   0.048  10.476 -0.4841 -2.2650  1.1475
 6505SOL    HW230975   0.470   0.062  10.326  1.4024 -0.7297 -0.5255
 6506SOL     OW30976   1.051   1.846  14.660 -0.5122  0.3073  0.7923
 6506SOL    HW130977   1.068   1.754  14.683  1.0663  1.2135  3.1726
 6506SOL    HW230978   1.057   1.841  14.564 -0.2455  2.1595  0.7225
 6507SOL     OW30979   0.674   4.616  17.370 -0.3241 -0.3491  0.2853
 6507SOL    HW130980   0.614   4.601  17.297 -0.0546 -1.5482  0.3193
 6507SOL    HW230981   0.720   4.533  17.380  0.6192  0.1655  0.1673
 6508SOL     OW30982   2.591   0.453   6.893  0.1324 -0.8423  0.0734
 6508SOL    HW130983   2.656   0.446   6.824 -2.6343 -1.9233 -2.4603
 6508SOL    HW230984   2.617   0.521   6.956 -2.7302 -0.4317  0.8171
 6509SOL     OW30985   4.688   1.989   0.301 -0.6471 -0.1841  0.9720
 6509SOL    HW130986   0.041   2.013   0.358  1.5373 -3.2182 -0.5333
 6509SOL    HW230987   4.672   2.072   0.255  2.1099  0.4242  1.1340
 6510SOL     OW30988   4.437   0.625   6.612 -0.9845 -0.3765 -0.3323
 6510SOL    HW130989   4.440   0.554   6.676 -2.3446  0.2546  0.4365
 6510SOL    HW230990   4.341   0.630   6.616 -0.8320  2.8118 -0.5200
 6511SOL     OW30991   0.047   1.428   6.616  0.1838 -0.4957 -0.3461
 6511SOL    HW130992   0.021   1.477   6.538 -2.1359 -0.9368  0.1611
 6511SOL    HW230993   4.691   1.369   6.619  0.9039 -1.3244  1.7786
 6512SOL     OW30994   4.455   2.553   1.454 -0.4858  0.3724 -0.3646
 6512SOL    HW130995   4.467   2.638   1.411 -3.2199  1.4530  1.0038
 6512SOL    HW230996   4.364   2.566   1.479  0.1916  0.8692  1.7947
 6513SOL     OW30997   3.877   2.188   5.987 -0.1268  0.0586 -0.2114
 6513SOL    HW130998   3.811   2.132   5.946 -1.7480  1.0118  1.1275
 6513SOL    HW230999   3.876   2.269   5.935  1.9159  1.0253  1.2442
 6514SOL     OW31000   1.459   1.726   2.688  0.4215 -0.2034  0.3803
 6514SOL    HW131001   1.438   1.815   2.659 -1.6762 -1.0111 -0.6485
 6514SOL    HW231002   1.396   1.672   2.640  0.6981 -0.3529  0.1874
 6515SOL     OW31003   4.356   3.497  10.353 -0.7602 -0.1099  0.2676
 6515SOL    HW131004   4.397   3.532  10.432  0.0475 -0.0710 -0.1657
 6515SOL    HW231005   4.429   3.456  10.306 -0.2881  0.6841  0.3095
 6516SOL     OW31006   1.554   1.252   2.110 -0.3022 -0.5785  0.1391
 6516SOL    HW131007   1.567   1.344   2.134  2.5761 -0.6442 -1.2014
 6516SOL    HW231008   1.567   1.215   2.197  0.7645  2.2212  1.1937
 6517SOL     OW31009   1.066   2.190   8.363 -0.8093  0.3490 -0.1495
 6517SOL    HW131010   1.060   2.113   8.420 -1.0825  0.2829 -0.2675
 6517SOL    HW231011   0.992   2.175   8.304 -0.4083 -0.8041 -0.3624
 6518SOL     OW31012   3.446   0.045   5.088  0.2783  0.5178 -0.0356
 6518SOL    HW131013   3.485   0.113   5.144  0.2319  0.9402 -0.5253
 6518SOL    HW231014   3.524   0.001   5.053 -1.4498  0.5711 -3.9148
 6519SOL     OW31015   0.027   2.586   8.275 -0.3351  0.1440 -0.4654
 6519SOL    HW131016   4.712   2.593   8.364  1.6579  1.4895  0.2041
 6519SOL    HW231017   4.678   2.627   8.222 -1.3513 -2.8354 -1.4401
 6520SOL     OW31018   1.675   0.115   1.673  0.4915 -0.0965 -0.2635
 6520SOL    HW131019   1.769   0.131   1.680  1.1139 -2.0764 -3.9417
 6520SOL    HW231020   1.675   0.107   1.578  3.6301 -2.1165 -0.0711
 6521SOL     OW31021   2.264   3.244   6.602 -0.3920 -0.2705  0.0575
 6521SOL    HW131022   2.200   3.295   6.553  1.4876  0.2404 -1.8691
 6521SOL    HW231023   2.324   3.318   6.605 -0.8621  0.0734  0.8786
 6522SOL     OW31024   3.866   3.454  16.447  0.3874 -0.6844  0.5236
 6522SOL    HW131025   3.779   3.484  16.422 -0.2912 -2.0782  1.2315
 6522SOL    HW231026   3.886   3.377  16.394  1.4312 -0.7875  1.0736
 6523SOL     OW31027   2.189   4.615  13.221 -0.2394  0.0298 -0.0033
 6523SOL    HW131028   2.141   4.696  13.203  0.4114  0.0453 -1.7224
 6523SOL    HW231029   2.271   4.642  13.180  0.0219 -0.4201  0.2196
 6524SOL     OW31030   0.986   2.643   4.399  0.5617  0.3973 -0.0273
 6524SOL    HW131031   0.913   2.600   4.444 -0.6427 -2.1175 -4.3828
 6524SOL    HW231032   1.018   2.695   4.472  1.4491 -1.4230  0.8929
 6525SOL     OW31033   0.445   4.409   7.202  0.1436  0.7186 -0.2393
 6525SOL    HW131034   0.493   4.339   7.156 -0.7136  0.2948 -0.4879
 6525SOL    HW231035   0.511   4.453   7.255 -0.5232  0.0030  1.1848
 6526SOL     OW31036   4.418   3.449   7.479  0.0142 -0.5037 -0.1894
 6526SOL    HW131037   4.334   3.463   7.437  0.3360 -0.7589 -0.9124
 6526SOL    HW231038   4.402   3.442   7.573 -0.0766  2.4689  0.0317
 6527SOL     OW31039   1.520   2.929   8.197  0.6853 -0.5148  0.4594
 6527SOL    HW131040   1.516   3.022   8.217  2.1617 -0.4518  0.4827
 6527SOL    HW231041   1.475   2.892   8.273  0.1162  0.7490  0.7220
 6528SOL     OW31042   3.840   0.616   2.568  0.0911 -0.3348  0.1653
 6528SOL    HW131043   3.923   0.573   2.547  0.0520  0.4173 -1.4663
 6528SOL    HW231044   3.773   0.571   2.517  1.3487 -1.6215 -0.3774
 6529SOL     OW31045   3.344   0.434   0.322 -0.1618  0.5093 -0.3722
 6529SOL    HW131046   3.427   0.387   0.320  0.1310  1.1785 -3.1516
 6529SOL    HW231047   3.357   0.494   0.249 -0.9674 -0.9027 -1.6697
 6530SOL     OW31048   0.308   3.540  12.519  0.1958 -0.7214  0.2780
 6530SOL    HW131049   0.293   3.555  12.425  0.6633  0.4602  0.3922
 6530SOL    HW231050   0.229   3.494  12.548  2.0074 -2.9493  1.6846
 6531SOL     OW31051   1.042   4.024  13.962 -0.3066  0.1428  0.4031
 6531SOL    HW131052   1.099   3.977  14.023  0.6912  0.3019 -0.4178
 6531SOL    HW231053   0.957   4.012  14.005 -0.7429 -3.1023 -1.3910
 6532SOL     OW31054   2.277   0.151  15.561 -0.4905  0.1382 -0.1545
 6532SOL    HW131055   2.314   0.068  15.590 -1.3422  0.0345  0.6449
 6532SOL    HW231056   2.354   0.208  15.568  0.8048 -1.7275  0.7718
 6533SOL     OW31057   0.051   2.484   2.268 -0.2820  0.0360 -0.6572
 6533SOL    HW131058   0.019   2.555   2.324  1.4651  1.0121 -0.9210
 6533SOL    HW231059   4.690   2.435   2.246  1.5960 -1.7135 -3.5280
 6534SOL     OW31060   0.702   2.916   3.581 -0.1171  0.2160  0.3600
 6534SOL    HW131061   0.608   2.899   3.578 -0.3436  1.2290  1.2687
 6534SOL    HW231062   0.739   2.828   3.577  0.4129  0.3931  1.2681
 6535SOL     OW31063   2.774   2.320   3.177  0.3571 -0.1642  0.5793
 6535SOL    HW131064   2.701   2.271   3.215  0.6143 -1.6127 -0.8107
 6535SOL    HW231065   2.767   2.302   3.084 -0.0577 -0.3175  0.6395
 6536SOL     OW31066   4.481   2.277   6.535 -0.0366 -0.3745  0.2262
 6536SOL    HW131067   4.466   2.321   6.451 -0.1601 -2.4493 -0.8583
 6536SOL    HW231068   4.406   2.218   6.542  1.2539 -2.3528 -2.2649
 6537SOL     OW31069   3.498   2.328   7.449  0.0715 -0.2627  0.2035
 6537SOL    HW131070   3.408   2.299   7.438  1.2979 -3.2192 -1.9578
 6537SOL    HW231071   3.493   2.408   7.397 -0.4985  0.5951  1.5983
 6538SOL     OW31072   2.470   2.701   4.805 -0.0561 -0.1278  0.0640
 6538SOL    HW131073   2.544   2.760   4.790  0.2972 -0.1193  1.7694
 6538SOL    HW231074   2.412   2.765   4.845 -0.7806 -0.1058 -1.0245
 6539SOL     OW31075   3.873   2.451  13.860  0.2252 -0.0318  0.9369
 6539SOL    HW131076   3.962   2.476  13.884  0.1125  2.1067 -0.8798
 6539SOL    HW231077   3.892   2.373  13.809  3.2544  0.7042  0.9231
 6540SOL     OW31078   3.104   3.063   4.806 -0.2834 -0.5139 -0.0240
 6540SOL    HW131079   3.042   2.996   4.778  1.2112 -1.7091 -0.4546
 6540SOL    HW231080   3.189   3.025   4.787 -0.2433 -1.4520  2.1664
 6541SOL     OW31081   3.189   0.801   3.101 -0.3162 -0.1195  0.2984
 6541SOL    HW131082   3.188   0.873   3.164  3.7176  1.0596 -1.0205
 6541SOL    HW231083   3.278   0.825   3.077 -1.4191  2.3180 -1.4292
 6542SOL     OW31084   1.303   3.207   8.026  0.3508 -0.4539  0.0086
 6542SOL    HW131085   1.232   3.232   7.967 -0.1954  1.2717  1.3932
 6542SOL    HW231086   1.383   3.192   7.974 -0.1620 -2.8561 -0.0575
 6543SOL     OW31087   2.755   2.971   3.636 -0.3572 -0.1754 -0.4181
 6543SOL    HW131088   2.788   2.883   3.654  2.2125  1.0903  1.0176
 6543SOL    HW231089   2.822   3.013   3.691  1.4999 -0.1579 -2.7230
 6544SOL     OW31090   0.828   2.822  14.920 -0.2544 -0.8395  0.3008
 6544SOL    HW131091   0.872   2.893  14.967  2.7777 -2.0296 -0.7454
 6544SOL    HW231092   0.902   2.804  14.862  0.9859  2.6147  0.8071
 6545SOL     OW31093   0.504   3.938  16.782 -0.3151 -0.2542  0.0755
 6545SOL    HW131094   0.422   3.921  16.827 -0.3814  1.0786  0.4615
 6545SOL    HW231095   0.562   3.941  16.858 -0.3693 -1.1431  0.1453
 6546SOL     OW31096   0.075   4.064   5.808 -0.5061 -0.4874 -0.1433
 6546SOL    HW131097   0.034   4.111   5.880 -1.9730 -1.2211 -0.5076
 6546SOL    HW231098   0.120   4.135   5.761 -1.9041 -1.5722 -3.1645
 6547SOL     OW31099   2.234   1.329   8.601 -0.7236  0.0506  0.1382
 6547SOL    HW131100   2.300   1.291   8.659  2.9605 -0.3849 -4.4140
 6547SOL    HW231101   2.152   1.340   8.649 -0.4712  3.3653 -0.1930
 6548SOL     OW31102   1.939   3.877   3.138 -0.1356  0.5064 -0.2345
 6548SOL    HW131103   1.894   3.918   3.211 -0.4232  0.2439 -0.2631
 6548SOL    HW231104   1.862   3.835   3.098 -0.7378 -1.2645  2.8071
 6549SOL     OW31105   1.596   0.848  13.256  0.5208 -0.2459  0.2499
 6549SOL    HW131106   1.575   0.766  13.301 -1.0537  1.0004  1.8132
 6549SOL    HW231107   1.545   0.911  13.308  1.7415  0.1906  0.9197
 6550SOL     OW31108   1.102   1.353   1.554  0.4844  0.5293 -0.5684
 6550SOL    HW131109   1.039   1.425   1.555  0.0697  0.1503  0.4126
 6550SOL    HW231110   1.104   1.336   1.460  1.7682 -0.3387 -0.3786
 6551SOL     OW31111   3.972   1.338   0.869  0.4678  0.8146 -0.1512
 6551SOL    HW131112   4.005   1.283   0.940  1.7200  1.9193  0.1281
 6551SOL    HW231113   3.885   1.300   0.855 -0.3014  2.0496  1.2168
 6552SOL     OW31114   0.564   2.988   0.357 -0.0543  0.3156  0.1470
 6552SOL    HW131115   0.554   3.024   0.269 -0.1141 -0.9615 -0.3608
 6552SOL    HW231116   0.576   2.900   0.321  0.1111 -0.4629  2.0951
 6553SOL     OW31117   0.367   1.856   2.148 -0.6357 -0.0552  0.2271
 6553SOL    HW131118   0.287   1.908   2.155 -0.1732  0.9300 -1.8061
 6553SOL    HW231119   0.402   1.879   2.062  0.5294 -0.8712  0.4854
 6554SOL     OW31120   3.558   1.390   3.824 -0.6644 -0.3691 -0.2301
 6554SOL    HW131121   3.567   1.481   3.795 -0.8881 -0.4645 -0.6102
 6554SOL    HW231122   3.629   1.353   3.770 -0.2203 -3.0869  2.2255
 6555SOL     OW31123   0.183   3.924   4.245  0.0742 -0.5373  0.2650
 6555SOL    HW131124   0.223   3.957   4.326  0.4172  0.3611 -0.2687
 6555SOL    HW231125   0.156   3.838   4.277  0.0711 -0.4041  0.6180
 6556SOL     OW31126   2.726   0.100   8.681  0.1868 -0.6431  0.1227
 6556SOL    HW131127   2.696   0.166   8.618 -0.5334  1.6184  2.8457
 6556SOL    HW231128   2.647   0.049   8.698  0.9338 -2.3902 -1.6496
 6557SOL     OW31129   0.708   3.761  15.600 -0.0847  0.0554  0.4529
 6557SOL    HW131130   0.675   3.770  15.511 -0.3323  0.8631  0.6261
 6557SOL    HW231131   0.646   3.696  15.635 -0.1897 -1.1188 -1.9453
 6558SOL     OW31132   2.173   1.381   1.577 -0.1961 -0.4194 -0.0675
 6558SOL    HW131133   2.256   1.372   1.530 -0.0914 -0.0030  0.0385
 6558SOL    HW231134   2.164   1.473   1.600  0.6049 -0.2377 -0.4553
 6559SOL     OW31135   2.956   4.344   7.490  0.3634 -0.2990  0.0551
 6559SOL    HW131136   2.961   4.440   7.489 -1.5712 -0.1762  3.1100
 6559SOL    HW231137   2.972   4.322   7.581 -1.7577  1.7651  0.9035
 6560SOL     OW31138   4.047   3.088   2.732 -0.0278 -0.1042 -0.5167
 6560SOL    HW131139   4.015   3.174   2.705  1.4313  0.9618  1.1287
 6560SOL    HW231140   3.974   3.059   2.787  2.0569 -2.9210  0.7468
 6561SOL     OW31141   0.830   0.746   8.490  0.6306  0.0863 -0.0894
 6561SOL    HW131142   0.860   0.673   8.435  1.5014 -0.7321  1.4566
 6561SOL    HW231143   0.873   0.716   8.570 -1.2535  1.5239  1.4490
 6562SOL     OW31144   0.332   0.093   2.210  0.6847 -0.0799 -0.0034
 6562SOL    HW131145   0.361   0.003   2.228  2.1132  0.0085 -1.9087
 6562SOL    HW231146   0.380   0.142   2.277 -2.3244  0.5148  1.7157
 6563SOL     OW31147   2.392   2.443  15.027 -0.1471 -0.1769  0.1254
 6563SOL    HW131148   2.399   2.349  15.014  0.1857 -0.0704 -0.4769
 6563SOL    HW231149   2.479   2.476  15.004  0.6909 -1.3871  1.5318
 6564SOL     OW31150   4.411   0.255   2.345  0.0389  0.1097  0.5656
 6564SOL    HW131151   4.378   0.169   2.371 -0.2448  0.1172  0.2323
 6564SOL    HW231152   4.491   0.232   2.298 -1.3386 -0.6682 -1.3944
 6565SOL     OW31153   1.366   3.079  16.457  0.2142  0.3437 -0.1510
 6565SOL    HW131154   1.433   3.048  16.517 -2.9833 -2.5639  1.9438
 6565SOL    HW231155   1.309   3.129  16.516  1.8078 -0.8152  2.3631
 6566SOL     OW31156   0.460   2.830   5.627  0.3095  0.3077  0.1706
 6566SOL    HW131157   0.520   2.832   5.701 -2.0354 -0.7648  2.1071
 6566SOL    HW231158   0.422   2.742   5.632 -0.0815  0.4670 -0.0085
 6567SOL     OW31159   1.973   4.059   4.780 -0.1363 -0.2643 -0.5291
 6567SOL    HW131160   1.940   4.138   4.735  3.3037  2.2254  1.2967
 6567SOL    HW231161   1.900   4.043   4.839  0.9632 -1.5177  0.4900
 6568SOL     OW31162   1.549   2.195   8.683 -0.1235  0.4578  0.3361
 6568SOL    HW131163   1.576   2.287   8.693 -2.1503  1.0371  0.5371
 6568SOL    HW231164   1.550   2.174   8.776  0.6399  2.6788  0.8266
 6569SOL     OW31165   0.934   0.075  14.500 -0.2469  0.2294 -0.9777
 6569SOL    HW131166   0.963   0.087  14.410  0.7531  2.7423 -0.3212
 6569SOL    HW231167   0.845   0.109  14.496 -0.9708 -1.1859  2.7836
 6570SOL     OW31168   1.282   0.046  14.165  0.0114 -0.0605  0.2012
 6570SOL    HW131169   1.265   0.014  14.077  0.0546  0.7965 -0.1082
 6570SOL    HW231170   1.340   4.692  14.186 -1.3283 -1.7317 -1.8839
 6571SOL     OW31171   2.827   4.542   5.236 -0.7584  0.2395  0.0345
 6571SOL    HW131172   2.862   4.630   5.251 -0.2325  0.0306  0.0242
 6571SOL    HW231173   2.827   4.507   5.324 -0.0799  2.2773  0.8563
 6572SOL     OW31174   0.189   3.811   0.427 -0.2089  0.3171  0.1243
 6572SOL    HW131175   0.146   3.735   0.386 -0.6563  0.9208 -0.5220
 6572SOL    HW231176   0.260   3.765   0.471  1.7508  0.6138 -2.7114
 6573SOL     OW31177   1.464   3.709   6.522  0.0122 -0.5088 -0.7893
 6573SOL    HW131178   1.413   3.780   6.560 -1.5571 -2.5978  1.0461
 6573SOL    HW231179   1.433   3.647   6.588 -0.4862  0.4619 -0.1182
 6574SOL     OW31180   1.183   0.019   1.501  0.2518  0.1691  0.5208
 6574SOL    HW131181   1.244   0.051   1.435 -1.3099 -0.6962 -1.3533
 6574SOL    HW231182   1.191   4.644   1.489  0.5552  0.3583 -0.7599
 6575SOL     OW31183   0.384   2.819   6.304  0.5121  0.1321  0.1206
 6575SOL    HW131184   0.308   2.855   6.350  0.8307  0.8015  0.1306
 6575SOL    HW231185   0.447   2.885   6.333 -0.1475  0.6151  0.4623
 6576SOL     OW31186   3.873   0.676   8.010 -0.4531 -0.2895 -0.2277
 6576SOL    HW131187   3.942   0.668   8.075  0.3978  0.5466 -1.0437
 6576SOL    HW231188   3.897   0.754   7.960  0.8966 -0.1459  0.6490
 6577SOL     OW31189   2.111   0.984   9.065  0.2043  0.4731  0.4961
 6577SOL    HW131190   2.041   1.035   9.026  2.8369  3.1558 -0.7641
 6577SOL    HW231191   2.182   1.044   9.041  0.6756  0.2480  1.2995
 6578SOL     OW31192   0.964   2.129  11.094  0.6344 -0.2400 -0.1863
 6578SOL    HW131193   0.911   2.206  11.076  1.1746 -0.1503 -1.3769
 6578SOL    HW231194   1.053   2.163  11.109  0.0402  0.6220  1.4442
 6579SOL     OW31195   1.644   2.329   4.723  0.2360 -0.0077 -0.5112
 6579SOL    HW131196   1.695   2.275   4.783  0.9885 -0.7810 -1.8468
 6579SOL    HW231197   1.628   2.258   4.661 -1.2696 -1.1427  1.1649
 6580SOL     OW31198   3.147   2.777   3.806 -0.2072 -0.1327  0.5678
 6580SOL    HW131199   3.112   2.689   3.815 -0.9314  0.3372  2.2317
 6580SOL    HW231200   3.107   2.801   3.722 -0.9866 -2.5684  0.2489
 6581SOL     OW31201   4.222   0.558  14.201  0.2723  0.4074 -0.2555
 6581SOL    HW131202   4.212   0.627  14.265  1.4886  0.8613 -0.5455
 6581SOL    HW231203   4.231   0.482  14.259  0.6061  0.7603  0.1525
 6582SOL     OW31204   3.650   4.136  12.159 -0.0978 -0.1262 -0.0510
 6582SOL    HW131205   3.695   4.062  12.118 -1.3399  0.0445 -1.7120
 6582SOL    HW231206   3.589   4.088  12.216 -0.6994  0.7427  0.0348
 6583SOL     OW31207   2.518   3.835  17.374  0.2030  0.4105  0.0418
 6583SOL    HW131208   2.507   3.852  17.468  2.9577 -1.1881  0.6352
 6583SOL    HW231209   2.521   3.924  17.337  2.1243  0.6524  0.7762
 6584SOL     OW31210   2.434   3.202  15.579 -0.2880  0.1187 -0.3729
 6584SOL    HW131211   2.469   3.135  15.637 -2.5228 -1.1142 -0.4435
 6584SOL    HW231212   2.507   3.239  15.528 -0.1155  1.7061  1.0404
 6585SOL     OW31213   2.709   1.392   6.142 -0.6892 -0.4311  0.6247
 6585SOL    HW131214   2.614   1.389   6.132 -0.5380 -0.4384 -0.7597
 6585SOL    HW231215   2.732   1.450   6.069 -0.5762  0.0934  1.0710
 6586SOL     OW31216   2.086   0.263   3.811  0.1786 -0.1191 -0.3174
 6586SOL    HW131217   2.178   0.287   3.823  0.5394 -0.9725 -1.3894
 6586SOL    HW231218   2.078   0.255   3.716  0.1493 -0.4172 -0.2909
 6587SOL     OW31219   2.330   1.147  11.909 -0.1365 -0.0605 -0.1037
 6587SOL    HW131220   2.396   1.139  11.841  0.4693 -0.5068  0.5444
 6587SOL    HW231221   2.335   1.223  11.968 -1.7180  0.4353 -0.5832
 6588SOL     OW31222   4.099   2.082  14.170  0.6156  0.1252 -0.3282
 6588SOL    HW131223   4.068   2.066  14.081 -0.7050 -0.6967  0.2732
 6588SOL    HW231224   4.145   2.166  14.163  1.0821 -0.0369  0.7885
 6589SOL     OW31225   2.507   2.351   6.299 -0.6217 -0.5141 -0.4254
 6589SOL    HW131226   2.531   2.404   6.222 -0.4113 -0.2227 -0.1577
 6589SOL    HW231227   2.412   2.356   6.286 -0.5080  0.7039 -0.8311
 6590SOL     OW31228   2.486   1.724   8.868 -0.1955  0.0092 -0.7028
 6590SOL    HW131229   2.491   1.818   8.857  1.0495  0.1670  1.3696
 6590SOL    HW231230   2.391   1.708   8.871 -0.3111  0.7469 -0.5318
 6591SOL     OW31231   2.047   2.005   0.097  0.3232 -0.7106 -0.7747
 6591SOL    HW131232   2.072   2.062   0.170  2.0857  0.3552 -2.2168
 6591SOL    HW231233   2.035   1.922   0.142 -4.0245  0.3598  0.0884
 6592SOL     OW31234   0.265   2.223   6.912 -0.4428 -0.1411 -0.2530
 6592SOL    HW131235   0.217   2.188   6.987  4.1200 -0.8278  2.3295
 6592SOL    HW231236   0.332   2.156   6.895  0.7598  1.1009 -0.3514
 6593SOL     OW31237   1.149   1.892   1.738 -0.0021  0.6315  0.3634
 6593SOL    HW131238   1.114   1.829   1.801  0.2292 -1.0361 -1.1721
 6593SOL    HW231239   1.136   1.842   1.657 -1.8973  0.8721  0.5268
 6594SOL     OW31240   4.458   0.947   8.805  0.5834 -0.2698  0.2893
 6594SOL    HW131241   4.477   0.984   8.719 -0.7779 -1.4463 -0.5003
 6594SOL    HW231242   4.465   1.012   8.875  2.8729  0.3630 -0.5045
 6595SOL     OW31243   4.709   4.451   1.222 -0.2634  0.4093  0.0496
 6595SOL    HW131244   0.018   4.486   1.307  0.0447 -0.1688  0.1857
 6595SOL    HW231245   0.022   4.519   1.163  0.5746  0.0984  0.1468
 6596SOL     OW31246   3.360   4.052   7.099 -0.1889 -0.0125  0.1447
 6596SOL    HW131247   3.272   4.084   7.080 -0.2188  1.3460  2.5377
 6596SOL    HW231248   3.379   4.022   7.010  0.5373  1.3976 -0.1741
 6597SOL     OW31249   2.016   1.095  13.795 -0.0060 -0.1855  0.4818
 6597SOL    HW131250   2.023   1.109  13.890 -0.1364  0.3142  0.4121
 6597SOL    HW231251   2.108   1.102  13.768 -0.1493  1.2594  0.3992
 6598SOL     OW31252   0.342   1.781  11.827  0.7658 -0.1720 -0.0325
 6598SOL    HW131253   0.356   1.787  11.732 -1.4475  0.4206 -0.3132
 6598SOL    HW231254   0.271   1.843  11.841 -0.3854 -1.0108 -2.1183
 6599SOL     OW31255   4.444   0.227  17.539 -0.6719 -0.6095  0.1948
 6599SOL    HW131256   4.436   0.176  17.458 -0.9501 -1.0699  0.5160
 6599SOL    HW231257   4.372   0.187  17.587 -2.1668  0.7215 -0.9422
 6600SOL     OW31258   0.542   0.574   8.228 -0.7451  0.0163  0.6924
 6600SOL    HW131259   0.620   0.630   8.234  1.1677 -2.7002  1.4016
 6600SOL    HW231260   0.546   0.551   8.136  0.4061  4.2524 -0.2911
 6601SOL     OW31261   2.755   0.280   7.858  0.0995  0.4067 -0.2948
 6601SOL    HW131262   2.786   0.254   7.944 -2.9645 -0.7854  0.4278
 6601SOL    HW231263   2.672   0.326   7.873  0.5004  1.2941 -0.7812
 6602SOL     OW31264   2.271   1.450   3.662 -0.0445 -0.4914  0.1330
 6602SOL    HW131265   2.184   1.413   3.680  0.1625 -0.6959  0.7000
 6602SOL    HW231266   2.309   1.438   3.749 -0.3320  0.2671  0.3658
 6603SOL     OW31267   1.852   4.260   7.376  0.8761  0.5861 -0.0723
 6603SOL    HW131268   1.872   4.169   7.351  1.4879  0.1707  1.9527
 6603SOL    HW231269   1.925   4.279   7.435  0.0100 -2.7051  2.0608
 6604SOL     OW31270   3.974   3.179   6.237  0.0892 -0.0399  0.1913
 6604SOL    HW131271   4.063   3.214   6.242  0.3774 -0.5596 -1.2265
 6604SOL    HW231272   3.971   3.118   6.311 -0.5418  0.6167  0.7125
 6605SOL     OW31273   0.816   0.610   5.406 -0.4089 -0.4760  0.0623
 6605SOL    HW131274   0.847   0.661   5.481  0.3005 -1.9294  0.7585
 6605SOL    HW231275   0.849   0.666   5.336  1.5299  0.5867  1.8008
 6606SOL     OW31276   1.181   2.330   6.319  0.0539  0.0574  0.0163
 6606SOL    HW131277   1.090   2.326   6.290 -0.3979 -1.1328  1.6167
 6606SOL    HW231278   1.197   2.419   6.349  1.9061 -0.0428 -0.6690
 6607SOL     OW31279   2.225   3.281   3.512  0.1006 -0.2926 -0.1834
 6607SOL    HW131280   2.163   3.321   3.451 -1.1437  1.7525  2.4483
 6607SOL    HW231281   2.248   3.194   3.478  0.0999  0.3995 -1.9785
 6608SOL     OW31282   4.456   2.430   9.286 -0.4018  0.2126  0.2297
 6608SOL    HW131283   4.372   2.452   9.325  0.4240  1.3101  1.3985
 6608SOL    HW231284   4.470   2.496   9.218  3.5457  1.4653  2.2966
 6609SOL     OW31285   1.576   3.647   4.402 -0.1218 -0.2117 -0.3035
 6609SOL    HW131286   1.497   3.681   4.358  0.2698 -0.0841 -0.9014
 6609SOL    HW231287   1.634   3.715   4.368  0.1485  1.6059  3.7356
 6610SOL     OW31288   4.661   1.137   9.701 -0.1602  0.3107  0.5529
 6610SOL    HW131289   4.681   1.091   9.783 -0.6308 -0.0286  0.4766
 6610SOL    HW231290   4.694   1.082   9.630  0.6051  2.1351 -0.5155
 6611SOL     OW31291   1.140   2.601   1.974  0.2079 -0.2256 -0.4533
 6611SOL    HW131292   1.182   2.578   1.891 -1.3442  1.2750 -1.6708
 6611SOL    HW231293   1.048   2.576   1.961 -0.3346  1.3269  0.4137
 6612SOL     OW31294   1.105   2.311   0.786 -0.4685 -0.6119 -0.5126
 6612SOL    HW131295   1.138   2.368   0.717 -2.5005  2.3447  0.9605
 6612SOL    HW231296   1.039   2.364   0.830  1.8591  0.5422  1.6443
 6613SOL     OW31297   4.691   1.400   0.133 -0.1811  0.1348 -0.1518
 6613SOL    HW131298   4.624   1.336   0.111 -2.5640  3.1617 -1.7118
 6613SOL    HW231299   4.639   1.478   0.118 -1.4392 -1.1747 -2.5621
 6614SOL     OW31300   3.931   3.458   0.747  0.3861  0.5570 -0.6083
 6614SOL    HW131301   3.970   3.399   0.683 -1.1542 -1.4902  0.3328
 6614SOL    HW231302   3.938   3.409   0.829  1.5018  3.2006  0.8797
 6615SOL     OW31303   0.254   0.514  10.620 -0.3732 -0.2495  0.1091
 6615SOL    HW131304   0.272   0.520  10.526  0.1055  1.9762  0.3398
 6615SOL    HW231305   0.168   0.471  10.624 -0.5299  0.1403  0.9826
 6616SOL     OW31306   0.622   0.423   3.553  0.1096 -0.2831 -0.2103
 6616SOL    HW131307   0.617   0.392   3.462 -1.1510  1.2044 -0.6593
 6616SOL    HW231308   0.531   0.414   3.581  0.0338  0.8411 -0.0945
 6617SOL     OW31309   2.468   1.391   7.022 -0.3858 -0.6339  0.2823
 6617SOL    HW131310   2.385   1.345   7.007 -0.4939 -1.7342  4.2697
 6617SOL    HW231311   2.450   1.466   7.078 -0.9200  1.0721 -2.1781
 6618SOL     OW31312   2.591   3.409   8.521 -0.5107  0.0241  0.4410
 6618SOL    HW131313   2.551   3.462   8.452  0.1648 -1.7528 -1.2786
 6618SOL    HW231314   2.520   3.356   8.557 -0.7585 -1.1856 -1.8643
 6619SOL     OW31315   2.723   0.150  16.455 -0.3653 -0.1511  0.6883
 6619SOL    HW131316   2.645   0.148  16.510 -0.9492 -0.2337 -0.1339
 6619SOL    HW231317   2.708   0.072  16.402  1.5474 -0.9815  1.3969
 6620SOL     OW31318   2.899   0.728   6.061 -0.0220  0.0603  0.0856
 6620SOL    HW131319   2.886   0.767   6.147 -2.8685  2.3544 -1.3766
 6620SOL    HW231320   2.841   0.653   6.067  0.3055 -0.2604 -0.7275
 6621SOL     OW31321   2.779   0.589   3.072 -0.2143 -0.3941 -0.1478
 6621SOL    HW131322   2.735   0.505   3.059  1.8325 -1.7230  1.5265
 6621SOL    HW231323   2.853   0.586   3.013 -2.4888 -2.3476 -2.8994
 6622SOL     OW31324   1.521   2.541   2.387 -0.1317  0.1720 -0.4163
 6622SOL    HW131325   1.452   2.488   2.428 -0.2041  0.8661  0.3636
 6622SOL    HW231326   1.591   2.479   2.370  0.6694  1.2613 -1.0948
 6623SOL     OW31327   1.190   1.725  11.669  0.3539  0.4550 -0.0589
 6623SOL    HW131328   1.269   1.678  11.696  0.1213 -0.2661 -0.6186
 6623SOL    HW231329   1.136   1.710  11.747 -0.6598 -1.6255 -1.1372
 6624SOL     OW31330   2.912   1.252  12.282 -0.5644 -0.1573 -0.6810
 6624SOL    HW131331   2.819   1.263  12.265 -0.6919 -0.4668 -0.1794
 6624SOL    HW231332   2.911   1.178  12.343  0.7497 -0.0328 -0.5039
 6625SOL     OW31333   3.011   3.525   7.086 -0.4010 -0.1714  0.1234
 6625SOL    HW131334   2.976   3.545   7.173 -0.7256 -0.3352  0.0315
 6625SOL    HW231335   3.079   3.464   7.113 -0.7106  0.2858  1.9786
 6626SOL     OW31336   2.567   1.801  10.963  0.1636 -0.0604  0.8669
 6626SOL    HW131337   2.609   1.752  11.033 -2.3567 -1.1756  1.6001
 6626SOL    HW231338   2.630   1.786  10.893 -0.3784  1.8066 -0.0128
 6627SOL     OW31339   0.426   0.645  17.508  0.2293  1.0844  0.1436
 6627SOL    HW131340   0.426   0.720  17.448 -0.3077  1.3982  0.5390
 6627SOL    HW231341   0.483   0.673  17.579  2.0210 -0.8865 -0.5313
 6628SOL     OW31342   1.333   1.934   1.942  0.4579 -0.0857 -0.0773
 6628SOL    HW131343   1.242   1.930   1.972 -0.8647  3.2644 -3.7775
 6628SOL    HW231344   1.318   1.915   1.850 -0.4756  1.2161 -0.1823
 6629SOL     OW31345   2.167   3.126   6.042 -1.2688  0.1578 -0.3655
 6629SOL    HW131346   2.202   3.053   5.991  0.6015  1.3615 -0.8230
 6629SOL    HW231347   2.229   3.195   6.020  1.8601 -2.1317  1.2967
 6630SOL     OW31348   2.485   4.195   8.232  0.1416 -0.1331 -0.1661
 6630SOL    HW131349   2.486   4.237   8.317 -0.0685 -2.9302  1.2375
 6630SOL    HW231350   2.453   4.272   8.185  0.3921  0.0656 -0.0026
 6631SOL     OW31351   2.758   0.836   6.270  0.1413  0.5696 -0.6413
 6631SOL    HW131352   2.712   0.755   6.291 -0.1101  0.3308 -2.1199
 6631SOL    HW231353   2.728   0.886   6.346  0.2334  1.3954 -1.1552
 6632SOL     OW31354   4.643   4.125   2.891  0.4198 -0.7338 -0.1750
 6632SOL    HW131355   4.645   4.062   2.819  2.2696 -3.7278  2.5103
 6632SOL    HW231356   0.002   4.177   2.873 -2.0330  3.2473  0.6097
 6633SOL     OW31357   2.529   1.808   5.050  0.0165 -0.4476 -0.7384
 6633SOL    HW131358   2.572   1.738   5.099  0.9556 -0.0216 -0.9414
 6633SOL    HW231359   2.603   1.866   5.029 -1.0236  1.1176 -0.0778
 6634SOL     OW31360   4.490   1.538   6.717 -0.2134  0.8558 -0.4755
 6634SOL    HW131361   4.490   1.448   6.751 -1.2884  1.5063  1.2765
 6634SOL    HW231362   4.395   1.552   6.717 -0.3751 -0.1953  1.2833
 6635SOL     OW31363   4.519   3.568   1.655 -0.4138 -0.1342 -0.4313
 6635SOL    HW131364   4.564   3.626   1.593  1.4399 -2.0200 -0.8551
 6635SOL    HW231365   4.517   3.484   1.608 -1.9141  0.0780 -0.7416
 6636SOL     OW31366   1.261   1.190   6.892 -0.0001 -0.3556 -0.2987
 6636SOL    HW131367   1.298   1.124   6.951 -2.0018  1.1246  2.6183
 6636SOL    HW231368   1.327   1.191   6.823  0.7645 -0.6843  0.4266
 6637SOL     OW31369   1.044   0.396  14.882  0.1749 -0.1907 -0.1612
 6637SOL    HW131370   1.075   0.430  14.966  2.0377  0.3417 -1.0670
 6637SOL    HW231371   1.056   0.473  14.827 -1.0114  0.7362  0.8725
 6638SOL     OW31372   3.989   3.768   3.042 -0.2598  0.0615  0.2081
 6638SOL    HW131373   3.975   3.698   3.106  1.1131  2.2081  2.8791
 6638SOL    HW231374   4.065   3.722   3.007  0.9944  0.1629  2.7693
 6639SOL     OW31375   0.773   1.105  11.127 -0.5911 -0.0247  0.2509
 6639SOL    HW131376   0.832   1.041  11.087 -2.4196 -0.2226 -2.1003
 6639SOL    HW231377   0.755   1.060  11.210  0.2606  0.1439  0.5271
 6640SOL     OW31378   2.537   3.099  10.601  0.3770 -0.3771  0.0837
 6640SOL    HW131379   2.594   3.026  10.577  0.6579  0.0515 -0.5440
 6640SOL    HW231380   2.584   3.129  10.679  1.3015  0.1563 -0.6668
 6641SOL     OW31381   1.832   1.140   7.455  0.0399 -0.0842  0.4906
 6641SOL    HW131382   1.741   1.166   7.443  1.0221  1.8420 -2.7430
 6641SOL    HW231383   1.844   1.179   7.542  0.7991 -2.0411  1.2771
 6642SOL     OW31384   0.503   1.801  13.389 -0.8673 -0.0704  0.4730
 6642SOL    HW131385   0.480   1.819  13.481  1.6524 -1.3948  1.3501
 6642SOL    HW231386   0.563   1.728  13.401  0.2471  0.7569 -0.1609
 6643SOL     OW31387   2.542   2.137   2.570  0.1496 -0.1010 -0.3699
 6643SOL    HW131388   2.612   2.184   2.616 -0.9623  0.0679  1.1483
 6643SOL    HW231389   2.520   2.201   2.502  1.2410  0.0851 -0.5528
 6644SOL     OW31390   1.011   3.384   4.519  0.1817  0.0098  0.2403
 6644SOL    HW131391   0.953   3.435   4.462  0.0544  1.2334  1.4764
 6644SOL    HW231392   1.066   3.338   4.456 -0.2646 -1.8673  1.2392
 6645SOL     OW31393   0.626   0.128   4.036  0.0771 -0.0626  0.1796
 6645SOL    HW131394   0.610   0.104   3.945 -0.1047  1.2014 -0.1283
 6645SOL    HW231395   0.653   0.219   4.024 -1.7336  0.1768 -2.1715
 6646SOL     OW31396   3.325   4.290   9.395  0.1880  0.5423 -0.5592
 6646SOL    HW131397   3.307   4.274   9.488 -0.8837  1.3678 -0.6180
 6646SOL    HW231398   3.417   4.317   9.400  0.3613  0.5599 -4.0367
 6647SOL     OW31399   1.010   1.483   2.936  0.5832  0.1157  0.3717
 6647SOL    HW131400   0.920   1.469   2.965  0.0970 -0.0405 -1.1882
 6647SOL    HW231401   1.056   1.522   3.010  0.3283 -0.7836  0.9960
 6648SOL     OW31402   0.712   1.589  13.528  0.1000 -0.3498  0.4617
 6648SOL    HW131403   0.671   1.640  13.597 -1.3490  0.7625 -1.2125
 6648SOL    HW231404   0.797   1.632  13.518 -1.4954  2.3435 -1.7916
 6649SOL     OW31405   1.511   0.036   2.441 -0.1326 -0.1304 -0.3360
 6649SOL    HW131406   1.598   0.055   2.477  0.0862  0.3956 -1.1230
 6649SOL    HW231407   1.525   0.035   2.346  2.1591 -1.7045  0.0106
 6650SOL     OW31408   2.218   4.719   4.211  0.3756  0.0003 -0.4033
 6650SOL    HW131409   2.293   4.675   4.250 -0.5899 -2.0210 -0.8160
 6650SOL    HW231410   2.267   0.049   4.145  1.2828 -0.6163 -0.1898
 6651SOL     OW31411   0.002   3.947   2.677 -0.3746 -0.4520  0.3103
 6651SOL    HW131412   4.636   3.904   2.668 -0.5820 -0.0938  0.5816
 6651SOL    HW231413   0.019   3.928   2.585  1.3091  1.9989  0.1330
 6652SOL     OW31414   2.731   1.419   2.325 -0.2770  0.0143 -0.1394
 6652SOL    HW131415   2.775   1.357   2.268 -0.0380  1.2097 -1.2549
 6652SOL    HW231416   2.716   1.358   2.398  3.0465  0.2933  0.7851
 6653SOL     OW31417   4.503   2.861   5.696 -0.7436  0.2507  0.5073
 6653SOL    HW131418   4.549   2.797   5.642  1.1789  1.8416  0.2817
 6653SOL    HW231419   4.434   2.804   5.731 -1.1471 -1.0286 -2.3835
 6654SOL     OW31420   1.025   1.301  11.023  0.5322 -0.0972  0.2588
 6654SOL    HW131421   1.040   1.323  10.931 -0.5044  2.7982  0.7968
 6654SOL    HW231422   1.056   1.211  11.014 -0.9112 -0.3647 -2.1190
 6655SOL     OW31423   3.783   0.858   3.648 -0.0848 -0.1766 -0.0632
 6655SOL    HW131424   3.757   0.874   3.739 -1.9785 -0.1133 -0.6263
 6655SOL    HW231425   3.703   0.811   3.625  0.0957 -0.4473 -0.1417
 6656SOL     OW31426   2.550   3.906   2.623 -0.2942 -0.4916 -0.0030
 6656SOL    HW131427   2.520   3.957   2.699  1.1437  1.3246 -0.6511
 6656SOL    HW231428   2.642   3.889   2.642 -0.3999  0.4534  1.4558
 6657SOL     OW31429   3.597   4.447  12.778 -0.4361 -0.7826  0.1250
 6657SOL    HW131430   3.532   4.379  12.757  0.4773 -1.5194 -0.3169
 6657SOL    HW231431   3.591   4.456  12.873  0.6400 -0.0584  0.1139
 6658SOL     OW31432   4.146   2.736   1.087  0.3035 -0.7319 -0.1968
 6658SOL    HW131433   4.149   2.651   1.131 -0.0507 -1.5916 -1.8041
 6658SOL    HW231434   4.217   2.725   1.024  0.8275  1.2062  0.0689
 6659SOL     OW31435   2.673   3.785  15.877 -0.1687 -0.2598 -0.1556
 6659SOL    HW131436   2.605   3.851  15.868 -0.2921 -0.0271  2.6128
 6659SOL    HW231437   2.671   3.759  15.969  1.3793  1.1759  0.2858
 6660SOL     OW31438   0.469   0.413  12.503 -0.5783  0.0133  0.3107
 6660SOL    HW131439   0.423   0.339  12.463 -0.0674  1.9199 -3.7402
 6660SOL    HW231440   0.439   0.490  12.455 -1.2329 -0.4250  0.0220
 6661SOL     OW31441   3.458   3.377   0.399  0.5462  0.2684 -0.3914
 6661SOL    HW131442   3.449   3.282   0.406  1.3207  0.2762  0.8141
 6661SOL    HW231443   3.534   3.388   0.457  0.2129  3.6680 -0.6032
 6662SOL     OW31444   2.325   4.193  17.592  0.4798 -0.2783  0.0109
 6662SOL    HW131445   2.399   4.153  17.546 -0.3587 -0.5169 -1.1367
 6662SOL    HW231446   2.339   4.167   0.003  1.2098  2.2887  0.5999
 6663SOL     OW31447   2.966   2.812   4.696  0.2673 -0.1466  0.3072
 6663SOL    HW131448   3.053   2.774   4.682  2.3447  3.3446  3.7294
 6663SOL    HW231449   2.902   2.747   4.666  0.5461 -0.2401 -0.0764
 6664SOL     OW31450   1.449   3.240   5.328 -0.1539  0.0516 -0.5888
 6664SOL    HW131451   1.392   3.315   5.310  1.8033  2.0838  1.8380
 6664SOL    HW231452   1.470   3.202   5.243  1.6908  0.4309 -0.2836
 6665SOL     OW31453   1.006   2.552  11.091 -0.0790 -0.0781  0.5159
 6665SOL    HW131454   1.036   2.620  11.151  0.5001 -0.4782  0.6732
 6665SOL    HW231455   1.075   2.554  11.025  0.6555  1.1308  1.3134
 6666SOL     OW31456   2.742   4.455  11.220  0.1520 -0.3951 -0.4139
 6666SOL    HW131457   2.780   4.543  11.226  0.2208 -0.3755 -1.1174
 6666SOL    HW231458   2.738   4.438  11.126  0.3100  0.3973 -0.5674
 6667SOL     OW31459   2.357   2.186   3.879  0.1399 -0.5049 -0.3250
 6667SOL    HW131460   2.297   2.260   3.872  0.4465 -0.2399 -0.1326
 6667SOL    HW231461   2.312   2.122   3.823 -1.5444  0.3038  0.0888
 6668SOL     OW31462   0.346   1.841   7.230 -0.3767 -0.2481  0.7398
 6668SOL    HW131463   0.413   1.774   7.237 -0.5491 -0.4195  0.7278
 6668SOL    HW231464   0.274   1.793   7.191 -1.8237  2.0439  0.5480
 6669SOL     OW31465   4.404   4.425   2.939  0.0243  0.5410 -0.4427
 6669SOL    HW131466   4.443   4.344   2.973 -1.1628 -0.2058 -0.8380
 6669SOL    HW231467   4.397   4.417   2.844  2.6533  2.6523 -0.7921
 6670SOL     OW31468   3.187   2.256  16.273 -0.3820 -0.5460 -0.5081
 6670SOL    HW131469   3.242   2.243  16.196 -1.0128  0.5948 -1.1510
 6670SOL    HW231470   3.158   2.165  16.285  1.1617 -1.0456 -0.5795
 6671SOL     OW31471   3.656   1.257  14.825  1.0683 -0.2538  0.0846
 6671SOL    HW131472   3.599   1.181  14.833 -0.9891  1.3047  0.4067
 6671SOL    HW231473   3.615   1.310  14.756  0.3910  2.5665  2.6638
 6672SOL     OW31474   4.419   4.142   5.911  0.7989 -0.0695 -0.0935
 6672SOL    HW131475   4.364   4.127   5.988 -0.7708 -1.4629 -1.4874
 6672SOL    HW231476   4.501   4.176   5.945  0.8189 -1.0687  0.8429
 6673SOL     OW31477   1.640   2.147  17.417  0.1344  0.2140 -0.1488
 6673SOL    HW131478   1.726   2.162  17.456  0.2743 -0.7919 -0.0798
 6673SOL    HW231479   1.600   2.082  17.475  0.6125 -0.6093 -0.7574
 6674SOL     OW31480   0.074   2.216   4.068 -0.5718 -0.1179 -0.0529
 6674SOL    HW131481   4.718   2.224   4.126  0.2903 -1.4224  1.2157
 6674SOL    HW231482   0.095   2.126   4.092 -1.4207 -0.3144 -0.0437
 6675SOL     OW31483   3.953   3.365   6.040  0.5196  0.4790 -0.2884
 6675SOL    HW131484   3.990   3.301   5.979 -2.0612  1.1231 -2.5109
 6675SOL    HW231485   3.935   3.313   6.118 -0.5064  0.1650 -0.7312
 6676SOL     OW31486   4.523   3.940   6.620  0.3800  0.1896  0.3846
 6676SOL    HW131487   4.565   3.858   6.647  1.7625 -0.1721 -2.8850
 6676SOL    HW231488   4.480   3.915   6.539  2.7747 -0.0732 -0.8002
 6677SOL     OW31489   1.713   0.968   0.788 -0.8854  0.3214 -0.2601
 6677SOL    HW131490   1.652   0.924   0.847  0.7482  0.7891  1.7746
 6677SOL    HW231491   1.701   0.907   0.715 -1.5467  1.4145 -1.0590
 6678SOL     OW31492   3.783   0.994  12.723 -0.0920  0.0427  0.3912
 6678SOL    HW131493   3.818   0.919  12.772  0.9507  0.3697  0.1519
 6678SOL    HW231494   3.707   1.020  12.775  0.8161 -0.7802  2.1369
 6679SOL     OW31495   0.822   4.590   4.500  0.6067 -0.3210  0.1739
 6679SOL    HW131496   0.839   4.629   4.585 -0.1288  1.4092 -0.4660
 6679SOL    HW231497   0.905   4.610   4.456  0.8583 -0.7072  0.4827
 6680SOL     OW31498   0.786   1.199   1.720  0.4230  0.1710  0.3754
 6680SOL    HW131499   0.723   1.133   1.749 -1.6163  1.8830 -0.2200
 6680SOL    HW231500   0.768   1.273   1.779 -0.1470 -0.1865  0.6540
 6681SOL     OW31501   4.544   1.531   7.977  0.0741 -0.3269 -0.0787
 6681SOL    HW131502   4.505   1.614   8.003  1.6078 -0.0421  1.3280
 6681SOL    HW231503   4.476   1.466   7.999 -0.8086  0.5163 -0.3277
 6682SOL     OW31504   1.469   0.575   3.653 -1.0454  0.5228 -0.2260
 6682SOL    HW131505   1.377   0.551   3.666 -1.2876  2.2874  1.2794
 6682SOL    HW231506   1.510   0.496   3.619 -2.4831  0.4098 -1.7434
 6683SOL     OW31507   2.260   0.808   9.594  0.0097 -0.0983  0.4844
 6683SOL    HW131508   2.189   0.760   9.552  0.3475  0.4939 -0.7605
 6683SOL    HW231509   2.289   0.859   9.518  1.0488 -0.4227  0.6615
 6684SOL     OW31510   0.820   0.644  11.287 -0.1251  0.1938  0.6050
 6684SOL    HW131511   0.832   0.556  11.323  2.8165  0.6056  0.6217
 6684SOL    HW231512   0.736   0.627  11.242 -0.0798  0.2900  0.4844
 6685SOL     OW31513   2.143   0.076   6.399  0.2931  0.3150  0.3392
 6685SOL    HW131514   2.161   0.158   6.446  0.7720 -0.2108  1.0759
 6685SOL    HW231515   2.234   0.049   6.387 -0.9973 -3.2631 -1.2267
 6686SOL     OW31516   3.134   3.683   9.969  0.6851  0.5217  0.1659
 6686SOL    HW131517   3.093   3.627   9.903  0.8017  1.7537 -0.9480
 6686SOL    HW231518   3.061   3.740   9.993  0.6140  0.6294 -0.3172
 6687SOL     OW31519   2.401   3.503  11.562 -0.0638 -0.2468  0.1669
 6687SOL    HW131520   2.469   3.568  11.580 -0.6514 -0.2880  2.5204
 6687SOL    HW231521   2.327   3.547  11.605 -0.1806 -1.3106  1.0367
 6688SOL     OW31522   2.693   2.199   2.232 -0.8663  0.0232  0.0622
 6688SOL    HW131523   2.712   2.106   2.245  1.9597  0.5333 -0.3038
 6688SOL    HW231524   2.782   2.234   2.231 -1.5436  1.7765  1.2127
 6689SOL     OW31525   0.127   1.456  17.572  0.4970  0.0653 -0.1134
 6689SOL    HW131526   0.090   1.433  17.657  0.4473  2.3766  0.5075
 6689SOL    HW231527   0.220   1.444  17.593  0.4486  1.0083  0.6657
 6690SOL     OW31528   3.766   1.327   9.702 -0.2014 -0.3320 -0.1376
 6690SOL    HW131529   3.837   1.288   9.652  0.6669  2.1001 -0.8091
 6690SOL    HW231530   3.812   1.344   9.784 -2.7026 -1.1029  1.4413
 6691SOL     OW31531   3.272   0.739   9.411 -0.3495  0.3052 -0.9375
 6691SOL    HW131532   3.316   0.823   9.424 -1.3477  0.5666  0.7555
 6691SOL    HW231533   3.338   0.687   9.366  0.5682  0.1116  0.6439
 6692SOL     OW31534   0.225   1.809  10.601  0.4820 -0.7794 -0.3688
 6692SOL    HW131535   0.160   1.759  10.649  0.2445  1.4614  1.6458
 6692SOL    HW231536   0.183   1.821  10.516 -0.5360 -1.1961  0.0705
 6693SOL     OW31537   0.420   2.153   2.969 -0.2364  0.2969  0.2764
 6693SOL    HW131538   0.392   2.170   2.879 -3.2344  1.3029  1.4144
 6693SOL    HW231539   0.342   2.125   3.016  0.7311 -1.9774  0.5318
 6694SOL     OW31540   1.174   3.389   5.853 -0.0358 -0.4097  0.0757
 6694SOL    HW131541   1.163   3.458   5.787  0.9047 -0.9115 -0.6044
 6694SOL    HW231542   1.246   3.340   5.815 -0.8152 -1.7959  0.3995
 6695SOL     OW31543   1.905   0.123  14.065 -0.1136 -0.4666 -0.0978
 6695SOL    HW131544   1.882   0.163  13.981  1.2871 -0.7109 -0.5948
 6695SOL    HW231545   1.952   0.045  14.036  0.9874 -0.0413  0.5478
 6696SOL     OW31546   1.963   4.144  14.377 -0.0327  0.0140  0.3518
 6696SOL    HW131547   2.033   4.086  14.346  0.3149  1.4665 -1.6078
 6696SOL    HW231548   2.010   4.202  14.438 -0.7240  0.4070  0.5068
 6697SOL     OW31549   1.107   3.324  14.965  0.7507 -0.2472 -0.3946
 6697SOL    HW131550   1.054   3.402  14.948  2.2421  1.6972  4.0882
 6697SOL    HW231551   1.171   3.363  15.023  0.4721 -4.4304  2.7596
 6698SOL     OW31552   2.451   1.128   9.354 -0.3000 -0.1819  0.1483
 6698SOL    HW131553   2.356   1.131   9.344 -0.1509  3.1295 -0.0211
 6698SOL    HW231554   2.478   1.218   9.340 -0.5526  0.2602  2.5782
 6699SOL     OW31555   3.560   1.661  13.161 -0.5067 -0.4800 -0.0466
 6699SOL    HW131556   3.467   1.644  13.146 -0.6416 -0.2823  0.5629
 6699SOL    HW231557   3.575   1.731  13.098  0.5246 -1.1532 -0.5641
 6700SOL     OW31558   0.832   0.685   3.375  0.3221 -0.1422 -0.2062
 6700SOL    HW131559   0.808   0.764   3.424 -1.0167  0.6519 -2.1454
 6700SOL    HW231560   0.918   0.672   3.415  0.2040 -0.0701  0.0748
 6701SOL     OW31561   0.494   4.066  12.328 -0.4024 -0.5336 -0.3457
 6701SOL    HW131562   0.434   3.993  12.312  0.2231 -0.8991 -1.0151
 6701SOL    HW231563   0.548   4.027  12.398 -0.9245 -0.1449  0.2728
 6702SOL     OW31564   2.531   2.139   4.200  0.7373 -0.1251 -0.0695
 6702SOL    HW131565   2.455   2.197   4.185  0.0614 -0.3432  2.5556
 6702SOL    HW231566   2.480   2.068   4.238 -0.0486 -0.0500 -0.9757
 6703SOL     OW31567   1.747   1.440  10.329 -0.6749  0.0437 -0.3723
 6703SOL    HW131568   1.680   1.397  10.382  0.0410 -2.5309 -1.5795
 6703SOL    HW231569   1.751   1.378  10.257 -1.2688  2.4530 -2.4892
 6704SOL     OW31570   4.313   0.115   6.031  0.3521 -0.2432 -0.5308
 6704SOL    HW131571   4.266   0.064   5.965 -0.4612  1.5598 -1.3367
 6704SOL    HW231572   4.249   0.186   6.034  0.3165 -0.2494 -1.0638
 6705SOL     OW31573   3.345   3.244  15.065  0.7452  0.4590 -0.0134
 6705SOL    HW131574   3.368   3.248  15.158 -0.2103  0.5844  0.2266
 6705SOL    HW231575   3.319   3.153  15.056  1.0325  0.3561  0.2021
 6706SOL     OW31576   2.715   0.966  12.772  0.6287  0.8931  0.2111
 6706SOL    HW131577   2.717   0.872  12.787  1.1475  0.8843  0.1094
 6706SOL    HW231578   2.625   0.986  12.749  0.5671 -0.0879 -0.3547
 6707SOL     OW31579   2.005   0.684   2.058 -0.5410  0.5391  0.1074
 6707SOL    HW131580   2.075   0.647   2.111 -1.2643  2.6937  2.5529
 6707SOL    HW231581   2.034   0.775   2.063 -1.4035  0.8591 -0.6718
 6708SOL     OW31582   2.556   0.095   6.142 -0.0894 -0.1771 -1.0166
 6708SOL    HW131583   2.500   0.029   6.101  0.9888 -0.6654 -1.6924
 6708SOL    HW231584   2.554   0.156   6.068  3.2347  0.5859 -0.4471
 6709SOL     OW31585   0.101   0.616   4.978 -0.7108 -0.3745 -0.1298
 6709SOL    HW131586   0.061   0.563   5.048 -0.7171 -2.1076 -1.4416
 6709SOL    HW231587   0.033   0.681   4.963  0.4996  0.7522 -0.7708
 6710SOL     OW31588   2.922   3.768   8.134  0.3150 -0.2199 -0.1939
 6710SOL    HW131589   2.924   3.864   8.136 -0.2305 -0.1691 -1.6890
 6710SOL    HW231590   2.970   3.743   8.213 -1.5684 -2.8211  0.1213
 6711SOL     OW31591   3.792   0.168   7.593 -0.3225  0.4831 -0.4081
 6711SOL    HW131592   3.727   0.238   7.587 -1.0665 -0.3473 -2.1071
 6711SOL    HW231593   3.837   0.189   7.675  0.0267 -0.2737 -0.4074
 6712SOL     OW31594   2.256   2.616   9.946 -0.0275  0.0880  0.0756
 6712SOL    HW131595   2.196   2.677   9.904 -1.1431 -2.0089 -1.3881
 6712SOL    HW231596   2.314   2.683   9.982  0.9349 -0.3314 -0.6508
 6713SOL     OW31597   3.253   1.966   4.669  0.3404 -0.5461  0.2135
 6713SOL    HW131598   3.336   2.012   4.656  0.5643 -0.9548  0.1799
 6713SOL    HW231599   3.208   1.987   4.587 -1.5511 -2.2325  0.8135
 6714SOL     OW31600   2.693   0.578  15.741  0.5914 -0.1933 -0.3328
 6714SOL    HW131601   2.712   0.485  15.749  1.6084  0.0190 -0.3556
 6714SOL    HW231602   2.604   0.588  15.775  1.1518  0.5705  0.8902
 6715SOL     OW31603   2.948   4.264   9.814  0.3566 -0.1129 -0.0427
 6715SOL    HW131604   2.871   4.278   9.869 -1.4966 -0.2836 -2.6160
 6715SOL    HW231605   2.908   4.276   9.728  1.0638 -1.6050 -0.5755
 6716SOL     OW31606   3.424   4.439   5.712  0.4021  0.3608 -0.2133
 6716SOL    HW131607   3.346   4.440   5.766  0.1084 -1.0684 -0.5914
 6716SOL    HW231608   3.465   4.518   5.747  0.5277  0.3532 -0.3411
 6717SOL     OW31609   3.448   1.372   5.427 -0.2511  0.0247  0.0697
 6717SOL    HW131610   3.444   1.426   5.506 -0.3445 -0.1087  0.1554
 6717SOL    HW231611   3.364   1.332   5.447  0.2034 -0.3981  1.1271
 6718SOL     OW31612   4.622   3.028   2.899 -0.5448  0.2343 -0.3314
 6718SOL    HW131613   4.579   2.980   2.828 -0.8290 -0.6151  0.4195
 6718SOL    HW231614   4.689   2.965   2.928 -1.3644 -1.6032 -2.3849
 6719SOL     OW31615   1.136   0.877   0.130 -0.0525 -0.9226  0.5571
 6719SOL    HW131616   1.096   0.957   0.162 -0.4691 -0.2274 -1.7767
 6719SOL    HW231617   1.210   0.907   0.078  1.3839 -2.0703  1.9276
 6720SOL     OW31618   1.784   4.144  13.092  0.2332  0.0299 -0.2823
 6720SOL    HW131619   1.711   4.159  13.152 -0.5005 -0.0133 -1.1827
 6720SOL    HW231620   1.807   4.053  13.112  0.6919 -0.1513 -1.6166
 6721SOL     OW31621   3.452   2.754  13.693  0.1753  0.9125 -0.3808
 6721SOL    HW131622   3.540   2.737  13.727  0.2296  0.8441 -0.5562
 6721SOL    HW231623   3.449   2.849  13.710  0.3181  0.3684  2.5781
 6722SOL     OW31624   1.958   2.307   6.240  0.0741  0.1068 -0.0037
 6722SOL    HW131625   1.907   2.344   6.169 -1.5800 -4.5179 -1.2544
 6722SOL    HW231626   1.893   2.265   6.297  2.5496 -2.2540  1.1201
 6723SOL     OW31627   1.415   2.049  17.220  0.5031 -0.3847 -0.5174
 6723SOL    HW131628   1.492   2.040  17.162 -0.4384 -1.9638 -1.5148
 6723SOL    HW231629   1.454   2.067  17.305  0.4304  2.2979 -1.0618
 6724SOL     OW31630   1.951   1.284   7.041 -0.0890 -0.4517 -0.2512
 6724SOL    HW131631   1.863   1.274   7.077 -0.6452  0.1711 -1.4203
 6724SOL    HW231632   1.966   1.195   7.011  3.2311 -0.0135  0.0802
 6725SOL     OW31633   0.166   0.747  10.697  0.0508  0.0973  0.2634
 6725SOL    HW131634   0.213   0.669  10.668 -0.5580  0.3587 -1.4199
 6725SOL    HW231635   0.141   0.786  10.613 -2.4541 -0.1358  0.9011
 6726SOL     OW31636   1.835   2.273  11.861 -0.1170 -0.0606  0.1940
 6726SOL    HW131637   1.773   2.284  11.934  0.3871 -3.0744  1.0825
 6726SOL    HW231638   1.912   2.319  11.895  0.1108  1.4999 -2.4875
 6727SOL     OW31639   3.022   4.053   9.479 -0.0479 -0.1824 -0.3984
 6727SOL    HW131640   2.998   4.012   9.562  1.1958 -0.1007  0.0030
 6727SOL    HW231641   3.083   3.988   9.447 -0.0912 -0.8003  0.7813
 6728SOL     OW31642   2.358   3.329   5.915 -0.7427  0.2529  0.3502
 6728SOL    HW131643   2.395   3.242   5.930  2.7450  1.3824 -1.7476
 6728SOL    HW231644   2.428   3.357   5.856 -0.4771 -0.4078  0.3502
 6729SOL     OW31645   1.707   3.283   5.938  0.4520 -0.0392  0.0944
 6729SOL    HW131646   1.734   3.223   5.869 -1.5219 -3.5653  2.4104
 6729SOL    HW231647   1.691   3.363   5.888  0.5003  0.2845  0.5929
 6730SOL     OW31648   0.800   1.605   4.863  0.0662 -0.3246 -0.6214
 6730SOL    HW131649   0.858   1.597   4.939  0.4991 -0.4462 -0.9615
 6730SOL    HW231650   0.714   1.609   4.904  0.1525 -2.1868 -0.2557
 6731SOL     OW31651   3.955   2.260   7.621  0.3051 -0.5128  0.5715
 6731SOL    HW131652   3.992   2.180   7.659 -1.6590 -1.7245 -0.0160
 6731SOL    HW231653   3.960   2.243   7.527 -0.2117  0.3493  0.3866
 6732SOL     OW31654   4.399   2.071  11.411  0.2956  0.0644 -0.5301
 6732SOL    HW131655   4.437   1.983  11.417 -1.5368 -0.7637 -1.2554
 6732SOL    HW231656   4.382   2.085  11.318 -2.1181  3.9664  0.5121
 6733SOL     OW31657   0.184   3.752   2.215  0.4553  0.4789 -0.3338
 6733SOL    HW131658   0.093   3.725   2.223  0.2006  1.1978 -0.8140
 6733SOL    HW231659   0.210   3.712   2.132 -1.8693  0.1223 -0.8817
 6734SOL     OW31660   0.667   1.486   0.414  0.1767 -0.0386 -0.0880
 6734SOL    HW131661   0.655   1.532   0.330 -0.5216  0.9774  0.5717
 6734SOL    HW231662   0.576   1.459   0.426 -0.3500  1.9616  0.4901
 6735SOL     OW31663   0.866   4.669   3.210  0.0740 -0.1360  0.1689
 6735SOL    HW131664   0.860   0.036   3.252  2.4070  0.2648 -0.3495
 6735SOL    HW231665   0.828   4.692   3.125 -2.2047  0.0187  1.2165
 6736SOL     OW31666   0.680   1.229   6.488 -0.0481  0.0600 -0.7208
 6736SOL    HW131667   0.608   1.236   6.425 -0.4500 -0.6722 -0.3441
 6736SOL    HW231668   0.745   1.194   6.427 -1.0623 -0.2670 -1.6238
 6737SOL     OW31669   3.444   3.367   0.804 -0.2245 -0.1061  0.1366
 6737SOL    HW131670   3.429   3.273   0.801  0.9960 -0.2159 -2.4466
 6737SOL    HW231671   3.360   3.404   0.832 -0.3760  0.3499 -0.9303
 6738SOL     OW31672   3.928   3.808   5.824 -0.3826  0.7812 -0.8184
 6738SOL    HW131673   3.957   3.884   5.875 -0.1801  0.1106  0.0774
 6738SOL    HW231674   3.852   3.852   5.786 -1.9300 -0.9025  0.3411
 6739SOL     OW31675   3.885   4.549   6.330 -0.4747  0.3060 -0.4871
 6739SOL    HW131676   3.948   4.614   6.361  0.6905 -0.7116 -0.7200
 6739SOL    HW231677   3.885   4.498   6.411  0.9554 -1.4599 -1.6129
 6740SOL     OW31678   1.850   3.558  10.800  0.2314  0.1419  0.4990
 6740SOL    HW131679   1.851   3.606  10.717 -2.9811 -0.4471  0.1243
 6740SOL    HW231680   1.920   3.604  10.847  1.1486 -0.4554 -0.2902
 6741SOL     OW31681   1.647   4.014  10.476 -0.0448 -0.0726 -0.8686
 6741SOL    HW131682   1.583   4.055  10.534 -0.9857  0.7289 -2.4502
 6741SOL    HW231683   1.627   3.923  10.497 -1.0522 -0.1210 -2.0037
 6742SOL     OW31684   2.468   3.313   5.464  0.6110  0.1551 -0.2664
 6742SOL    HW131685   2.387   3.262   5.469 -0.0020  1.0104 -1.4358
 6742SOL    HW231686   2.529   3.246   5.431  0.4356  0.9372 -2.1747
 6743SOL     OW31687   3.659   1.225   1.204 -0.3212  0.0290  0.7397
 6743SOL    HW131688   3.569   1.249   1.180  0.2043 -1.8251 -3.0589
 6743SOL    HW231689   3.643   1.132   1.222 -1.5532  0.2008  0.5229
 6744SOL     OW31690   2.591   1.415   4.641 -0.0587  0.1243 -0.3921
 6744SOL    HW131691   2.653   1.400   4.569  0.8294  0.1895  0.3479
 6744SOL    HW231692   2.650   1.470   4.694 -0.4470 -0.3594  0.5461
 6745SOL     OW31693   2.564   0.312   7.567 -0.1163 -0.1732  0.3216
 6745SOL    HW131694   2.570   0.218   7.549  1.0250 -0.2306  1.0372
 6745SOL    HW231695   2.479   0.307   7.612 -0.1427 -2.6022  0.0117
 6746SOL     OW31696   4.133   3.716   7.766  0.5139  0.0267  0.3818
 6746SOL    HW131697   4.118   3.726   7.672 -1.6042 -0.0373  0.7129
 6746SOL    HW231698   4.063   3.776   7.792 -0.1288 -1.2258  1.5404
 6747SOL     OW31699   0.324   0.177   4.755 -0.1955  0.2771  0.6038
 6747SOL    HW131700   0.291   0.125   4.682  1.2142  0.5007 -0.1948
 6747SOL    HW231701   0.257   0.244   4.767  0.1645  0.7566 -0.0330
 6748SOL     OW31702   3.102   2.298   3.371  0.3688  0.0607 -0.1789
 6748SOL    HW131703   3.140   2.228   3.424  1.1440 -0.5806 -1.5964
 6748SOL    HW231704   3.044   2.240   3.321 -1.9698  1.3676  0.9989
 6749SOL     OW31705   0.840   0.735   1.177 -0.0685 -0.4698  0.1347
 6749SOL    HW131706   0.887   0.748   1.260 -1.5991 -0.7077  1.0428
 6749SOL    HW231707   0.908   0.683   1.134  1.0449 -0.5214  1.9513
 6750SOL     OW31708   0.926   4.460   6.424  0.0590  0.6682 -0.3509
 6750SOL    HW131709   0.852   4.516   6.449  0.7193  1.6021 -0.4624
 6750SOL    HW231710   0.921   4.466   6.328 -0.4761 -1.6027 -0.4541
 6751SOL     OW31711   4.408   0.784  13.120 -0.5583 -0.0494  0.1811
 6751SOL    HW131712   4.501   0.785  13.140 -0.0413  1.4120 -2.2466
 6751SOL    HW231713   4.411   0.726  13.043  1.1714  0.5755 -0.2128
 6752SOL     OW31714   2.340   3.104   1.724 -0.4000 -0.7062  0.3342
 6752SOL    HW131715   2.340   3.015   1.759  0.7333 -0.1919  1.6230
 6752SOL    HW231716   2.431   3.129   1.711 -1.2985  1.4074 -1.8348
 6753SOL     OW31717   0.107   1.935   1.839 -0.1852 -0.1173 -0.2540
 6753SOL    HW131718   0.082   1.945   1.747  2.5717 -0.7448 -1.0553
 6753SOL    HW231719   0.142   2.022   1.859  0.0717 -0.3933  0.4850
 6754SOL     OW31720   0.202   2.906   2.745  0.0519  0.6630  0.0253
 6754SOL    HW131721   0.136   2.874   2.807  0.1940  0.8579  0.2779
 6754SOL    HW231722   0.267   2.838   2.760  1.7439  2.9760  3.1936
 6755SOL     OW31723   4.395   1.868   7.127  0.0585 -0.0732  0.8405
 6755SOL    HW131724   4.463   1.853   7.061  0.7048 -0.6814  1.6426
 6755SOL    HW231725   4.342   1.937   7.088  1.2058  1.8624  2.6847
 6756SOL     OW31726   4.089   0.399   1.848  0.0968  0.4623  0.0641
 6756SOL    HW131727   4.026   0.408   1.920  1.0640 -0.8335  1.0879
 6756SOL    HW231728   4.168   0.425   1.895 -0.1098  0.5162  0.3820
 6757SOL     OW31729   2.036   1.280  10.143  0.1092 -0.1807 -0.3336
 6757SOL    HW131730   2.064   1.354  10.197 -1.3265  0.7555 -0.8670
 6757SOL    HW231731   1.945   1.303  10.123 -0.1727 -0.5283  0.5596
 6758SOL     OW31732   3.699   0.925   2.937 -0.0780 -0.1714 -0.2123
 6758SOL    HW131733   3.665   0.973   2.862  2.9644  0.7379 -0.9750
 6758SOL    HW231734   3.725   0.839   2.904 -0.2233 -0.2188 -0.2069
 6759SOL     OW31735   3.639   2.616   3.055  0.1768  0.3383 -0.4121
 6759SOL    HW131736   3.555   2.624   3.099 -0.4718  0.3569 -1.6428
 6759SOL    HW231737   3.621   2.673   2.980 -1.2489  0.4982  0.0612
 6760SOL     OW31738   3.843   2.287   2.323 -0.4915  0.3436  0.2177
 6760SOL    HW131739   3.867   2.342   2.248 -1.2563  0.5890  0.1545
 6760SOL    HW231740   3.836   2.200   2.283  0.3213 -0.2764  1.4150
 6761SOL     OW31741   0.586   3.944   7.102 -0.3011  0.1857  0.7661
 6761SOL    HW131742   0.568   3.859   7.144  2.5826 -1.5548 -1.5511
 6761SOL    HW231743   0.531   3.947   7.024 -0.1381  1.7649  0.7104
 6762SOL     OW31744   4.326   3.037   2.475 -0.2242  0.0965 -0.3932
 6762SOL    HW131745   4.332   2.944   2.497 -0.9190  0.1428 -0.0087
 6762SOL    HW231746   4.370   3.033   2.390  1.7762 -0.4536  0.6899
 6763SOL     OW31747   2.727   2.400   3.566  0.0981  0.3644  0.2641
 6763SOL    HW131748   2.794   2.427   3.504 -0.6970 -4.1199 -2.5228
 6763SOL    HW231749   2.647   2.437   3.529 -0.0161  1.5316  1.6481
 6764SOL     OW31750   3.909   2.041   5.016  0.4424 -0.0921  0.3097
 6764SOL    HW131751   3.845   2.102   5.053  0.3848 -0.7111  1.2220
 6764SOL    HW231752   3.936   2.088   4.937  1.3420 -0.1249  0.5893
 6765SOL     OW31753   0.128   2.998   6.164  0.4497 -0.0465 -0.3076
 6765SOL    HW131754   0.144   2.910   6.197 -1.8433 -0.8633 -1.3647
 6765SOL    HW231755   0.095   2.999   6.074 -1.1856 -1.1924  0.2973
 6766SOL     OW31756   2.476   0.483   1.687  0.5810  0.2673 -0.0998
 6766SOL    HW131757   2.413   0.538   1.735  3.8257  3.9208 -0.0193
 6766SOL    HW231758   2.508   0.425   1.756 -0.0994  0.7141  0.5990
 6767SOL     OW31759   1.978   3.762   4.778  0.0547  0.2945 -0.5069
 6767SOL    HW131760   1.918   3.696   4.742 -0.9608  1.5195 -1.0520
 6767SOL    HW231761   1.956   3.834   4.719  1.9038  0.4694 -0.9795
 6768SOL     OW31762   1.469   4.612   7.077 -0.4311 -0.1130 -0.1020
 6768SOL    HW131763   1.437   4.700   7.057  2.0295  0.7401 -0.3060
 6768SOL    HW231764   1.560   4.617   7.049 -0.5769  2.7836 -0.0051
 6769SOL     OW31765   2.542   1.999   7.656 -0.5287  0.2115 -0.3963
 6769SOL    HW131766   2.568   2.085   7.688  0.1155 -0.7856  1.7595
 6769SOL    HW231767   2.609   1.991   7.589  1.0585 -0.2448  1.2492
 6770SOL     OW31768   2.237   1.235   6.366 -0.1304 -0.4161 -0.1867
 6770SOL    HW131769   2.330   1.249   6.385  0.4113 -2.7007 -1.1717
 6770SOL    HW231770   2.236   1.242   6.271 -0.7483 -1.8390 -0.2845
 6771SOL     OW31771   3.181   1.467   3.828 -0.3058  0.0315  0.1577
 6771SOL    HW131772   3.241   1.409   3.875 -0.0862  0.0631 -0.0810
 6771SOL    HW231773   3.103   1.445   3.878  0.3646  0.1154  1.2360
 6772SOL     OW31774   1.549   2.388   9.035  0.3733  0.3678  0.1840
 6772SOL    HW131775   1.522   2.297   9.021 -1.3710  1.1144 -1.2074
 6772SOL    HW231776   1.635   2.382   8.993 -0.4434 -1.0053 -1.2674
 6773SOL     OW31777   4.341   0.872   0.931 -0.0325 -0.1855 -0.0817
 6773SOL    HW131778   4.324   0.823   1.012  0.4863 -1.7729 -0.9240
 6773SOL    HW231779   4.419   0.833   0.892  1.1366  1.3457  0.7078
 6774SOL     OW31780   4.058   4.182   9.008 -0.1223  0.9140 -0.3506
 6774SOL    HW131781   4.147   4.145   9.001  0.1043  1.3730  0.1288
 6774SOL    HW231782   4.008   4.115   8.961 -1.1281  1.0125  0.5772
 6775SOL     OW31783   3.009   2.974  15.174  0.5400  0.2704 -0.3769
 6775SOL    HW131784   2.987   2.888  15.211 -0.2251 -0.2009 -1.8730
 6775SOL    HW231785   2.945   2.978  15.103 -0.4137  0.3614  0.4977
 6776SOL     OW31786   0.400   2.125   5.192  0.2847  0.5359 -0.2858
 6776SOL    HW131787   0.337   2.065   5.154 -0.1110  1.3532 -0.9171
 6776SOL    HW231788   0.350   2.206   5.204 -2.4786 -1.3190  0.5086
 6777SOL     OW31789   2.586   3.423   5.061  0.2668 -0.5099 -0.6315
 6777SOL    HW131790   2.534   3.495   5.098 -0.2148 -0.7172 -0.9050
 6777SOL    HW231791   2.517   3.389   5.003  1.3736 -0.8668 -1.7354
 6778SOL     OW31792   1.734   0.268   3.991  0.1077  0.2682  0.5999
 6778SOL    HW131793   1.807   0.207   3.981 -1.6281 -1.4687 -1.5935
 6778SOL    HW231794   1.732   0.260   4.087 -0.9933 -0.8026  0.4859
 6779SOL     OW31795   0.321   3.276   6.911  0.5247  0.2607 -0.2722
 6779SOL    HW131796   0.365   3.315   6.987 -0.6223 -0.8029  0.9155
 6779SOL    HW231797   0.231   3.287   6.942  0.1412  2.1620 -2.0770
 6780SOL     OW31798   2.375   2.313   8.142 -0.3298 -0.1285 -0.3443
 6780SOL    HW131799   2.417   2.398   8.149 -0.7885  0.0246  0.5242
 6780SOL    HW231800   2.421   2.260   8.207 -1.1826  0.9151  1.1094
 6781SOL     OW31801   3.827   4.507   1.900  0.0251 -0.0204 -0.2855
 6781SOL    HW131802   3.788   4.446   1.837  0.8599 -1.0607  0.1997
 6781SOL    HW231803   3.902   4.455   1.931  1.4358  1.2492 -1.5251
 6782SOL     OW31804   0.708   3.116   5.731  0.4233  0.2465  0.0626
 6782SOL    HW131805   0.672   3.030   5.752  0.5891  0.6930  2.1415
 6782SOL    HW231806   0.800   3.091   5.737 -0.1411 -1.4504  1.3888
 6783SOL     OW31807   3.163   1.889   9.292  0.4644  0.0010  0.5747
 6783SOL    HW131808   3.109   1.925   9.222  0.4484 -1.4167 -0.1239
 6783SOL    HW231809   3.205   1.813   9.254 -1.8943 -0.6492 -0.6850
 6784SOL     OW31810   4.653   3.922   0.532  0.2678  0.3116 -0.0033
 6784SOL    HW131811   4.650   4.018   0.525  0.7467  0.1710 -2.4583
 6784SOL    HW231812   0.027   3.900   0.525  0.6024  1.4074  0.9650
 6785SOL     OW31813   0.060   0.926   8.487  0.0960 -0.0575  0.4436
 6785SOL    HW131814   0.106   0.906   8.569 -1.6242 -2.1856  0.8919
 6785SOL    HW231815   0.121   0.918   8.413  0.9701 -1.1678  1.2834
 6786SOL     OW31816   4.689   0.378  11.391  0.3018 -0.6328  0.3244
 6786SOL    HW131817   0.026   0.307  11.360 -0.6034 -1.4849  0.6274
 6786SOL    HW231818   4.677   0.423  11.307  0.8917 -1.3182 -0.1298
 6787SOL     OW31819   4.385   4.007   3.650  0.3203 -0.4553  0.1166
 6787SOL    HW131820   4.352   4.054   3.573 -0.3214  0.1504  0.7589
 6787SOL    HW231821   4.418   4.081   3.702 -1.4329  1.3498 -1.3107
 6788SOL     OW31822   0.648   0.498   0.164 -0.6735  0.2114  0.1994
 6788SOL    HW131823   0.741   0.479   0.154 -0.7844 -0.3441  0.2387
 6788SOL    HW231824   0.640   0.494   0.259  0.6089  2.6237  0.4209
 6789SOL     OW31825   0.585   3.136  15.984 -0.0450  0.5362  0.4719
 6789SOL    HW131826   0.631   3.055  16.006  0.0153  0.2595 -0.7253
 6789SOL    HW231827   0.657   3.198  15.995  1.5176 -1.2314  0.2580
 6790SOL     OW31828   4.467   3.100  10.413 -0.5758  0.5697  0.0547
 6790SOL    HW131829   4.393   3.130  10.465 -2.2912 -0.0221 -2.0532
 6790SOL    HW231830   4.524   3.177  10.408  2.2865 -1.5017  0.6069
 6791SOL     OW31831   1.845   2.964   9.448  0.0928 -0.1395  0.2505
 6791SOL    HW131832   1.904   2.983   9.374 -2.2778 -1.4678 -1.9629
 6791SOL    HW231833   1.775   3.023   9.421  1.9647  2.4139  0.8812
 6792SOL     OW31834   2.345   4.279   2.498  0.0105 -0.6947 -0.1468
 6792SOL    HW131835   2.268   4.226   2.520 -0.1282 -0.4531 -0.0493
 6792SOL    HW231836   2.416   4.218   2.517  1.0833  0.4097 -0.5984
 6793SOL     OW31837   0.178   3.813   3.911 -0.0617  0.2528 -0.2936
 6793SOL    HW131838   0.224   3.746   3.962  1.7437  0.2806 -1.8935
 6793SOL    HW231839   0.244   3.824   3.842 -2.3822  0.9276 -2.3773
 6794SOL     OW31840   4.095   4.364   7.910  0.0086 -0.7104  0.3857
 6794SOL    HW131841   4.174   4.348   7.961  0.0469 -0.3233  0.4463
 6794SOL    HW231842   4.030   4.382   7.978  0.2982 -1.9001  0.9664
 6795SOL     OW31843   0.080   2.874   5.635 -0.8004  0.5212  0.0142
 6795SOL    HW131844   0.086   2.950   5.577  0.0648  1.0244  0.7560
 6795SOL    HW231845   0.133   2.812   5.585 -1.7418 -0.6622  0.5218
 6796SOL     OW31846   0.473   1.078   7.814 -0.0015 -0.2077 -0.0754
 6796SOL    HW131847   0.552   1.024   7.806  0.2757  0.4477 -1.6912
 6796SOL    HW231848   0.504   1.167   7.799  0.8993 -0.5032  0.0150
 6797SOL     OW31849   1.726   2.982   9.001 -0.0886  0.2519  0.8314
 6797SOL    HW131850   1.632   2.994   9.011 -0.2122 -0.2975  0.2711
 6797SOL    HW231851   1.762   3.068   9.025 -0.4073  0.4533  0.5846
 6798SOL     OW31852   2.211   1.324   4.992  0.6644 -0.2483 -0.0997
 6798SOL    HW131853   2.160   1.344   4.914 -1.5761 -1.2385  1.1269
 6798SOL    HW231854   2.301   1.331   4.961  0.2921  0.8430 -0.9459
 6799SOL     OW31855   4.435   1.049  12.995  0.7039 -0.2191 -0.1721
 6799SOL    HW131856   4.422   1.010  12.909 -0.4527  0.9616 -0.5323
 6799SOL    HW231857   4.394   0.981  13.048  0.5270  1.0207  1.2864
 6800SOL     OW31858   4.207   0.573   3.916 -0.0944  0.0343 -0.2122
 6800SOL    HW131859   4.140   0.611   3.859  0.6862 -2.1257 -2.6079
 6800SOL    HW231860   4.162   0.495   3.949 -0.5856  0.1441 -0.6204
 6801SOL     OW31861   2.590   1.607   0.020 -0.4637 -0.2147  0.4452
 6801SOL    HW131862   2.639   1.671  17.649 -0.8749 -0.5664 -0.3885
 6801SOL    HW231863   2.643   1.587   0.097  0.2489  1.0824  0.2961
 6802SOL     OW31864   1.565   1.777   5.571  0.2735  0.0837 -0.0983
 6802SOL    HW131865   1.596   1.757   5.483  0.5394  1.2455 -0.2567
 6802SOL    HW231866   1.644   1.780   5.624 -0.5370  0.7441  1.0679
 6803SOL     OW31867   2.067   3.703   0.429  0.2587  0.1875  0.4522
 6803SOL    HW131868   2.094   3.624   0.382  2.7081  0.7450  0.9040
 6803SOL    HW231869   2.136   3.716   0.494  0.2659  2.9356 -0.0943
 6804SOL     OW31870   0.225   3.506   4.611  0.0946  0.6698  0.0732
 6804SOL    HW131871   0.232   3.478   4.702 -0.0546  1.7188  0.4148
 6804SOL    HW231872   0.140   3.474   4.582 -1.0998  3.1371  0.8068
 6805SOL     OW31873   1.285   1.078   0.047  0.7362  0.6741 -0.3849
 6805SOL    HW131874   1.233   1.104  17.651 -1.8218 -0.0029  1.1555
 6805SOL    HW231875   1.369   1.095   0.003  0.5602  0.3703 -0.8307
 6806SOL     OW31876   3.058   1.994   0.186 -0.5231  0.5318 -0.4770
 6806SOL    HW131877   3.059   2.063   0.120  1.7486  0.1881 -0.7712
 6806SOL    HW231878   2.965   1.974   0.193 -0.5801  0.8600 -0.2547
 6807SOL     OW31879   2.727   2.744  11.990  0.4352 -0.1435  0.4538
 6807SOL    HW131880   2.660   2.813  11.986  0.5328 -0.0513  0.4143
 6807SOL    HW231881   2.679   2.677  12.038  1.9127 -1.3401  0.2608
 6808SOL     OW31882   1.106   4.471   5.301 -0.7333  0.4879 -0.2839
 6808SOL    HW131883   1.054   4.428   5.369 -0.9680 -0.6021 -1.1569
 6808SOL    HW231884   1.183   4.494   5.353  0.6101  2.2740 -3.0241
 6809SOL     OW31885   3.819   3.104  14.329  0.0198 -0.2922  0.3544
 6809SOL    HW131886   3.911   3.086  14.349 -0.9023 -0.0251  4.8104
 6809SOL    HW231887   3.782   3.015  14.330  1.1474 -0.7574  1.3612
 6810SOL     OW31888   0.168   3.464   7.057  0.8757 -0.4406  0.1013
 6810SOL    HW131889   0.088   3.450   7.007  0.4059  1.0307  0.4472
 6810SOL    HW231890   0.184   3.558   7.043 -0.8979  0.3347  3.3634
 6811SOL     OW31891   1.735   1.365   0.873  0.5393  0.1334 -0.1155
 6811SOL    HW131892   1.675   1.430   0.835  0.6073 -0.2157 -0.8178
 6811SOL    HW231893   1.672   1.296   0.895  0.8724 -1.2147 -3.3272
 6812SOL     OW31894   3.294   0.092   6.477 -0.2619 -0.0640  0.3177
 6812SOL    HW131895   3.271   0.148   6.402  1.5828  0.6220  0.2597
 6812SOL    HW231896   3.249   0.009   6.462 -1.2798  0.3571  1.0416
 6813SOL     OW31897   4.228   4.174   4.872  0.2722 -0.0449  0.5200
 6813SOL    HW131898   4.249   4.126   4.792 -1.0791 -1.5531  1.0670
 6813SOL    HW231899   4.241   4.105   4.938  2.6799  0.1035  0.1912
 6814SOL     OW31900   4.522   3.261   1.927 -0.2331  0.1467  0.1120
 6814SOL    HW131901   4.555   3.232   1.842 -0.8916 -0.3716  0.0367
 6814SOL    HW231902   4.572   3.204   1.986 -0.5115 -0.2010  0.0069
 6815SOL     OW31903   3.131   2.446   3.612 -0.2805 -0.2963  0.3867
 6815SOL    HW131904   3.059   2.406   3.661  0.1305 -0.3271  0.9618
 6815SOL    HW231905   3.107   2.405   3.529  1.2152  1.2106 -0.7845
 6816SOL     OW31906   4.508   0.670   7.236 -0.1817 -0.1422 -0.4951
 6816SOL    HW131907   4.555   0.593   7.203  0.0741 -0.7616  1.3125
 6816SOL    HW231908   4.437   0.665   7.172 -1.1860  1.7688  0.4672
 6817SOL     OW31909   1.382   0.897   8.584 -0.1551  0.5161  0.3392
 6817SOL    HW131910   1.425   0.875   8.667  0.6638  1.7095  0.2120
 6817SOL    HW231911   1.446   0.904   8.514 -0.3890 -1.2467 -0.0650
 6818SOL     OW31912   1.723   0.938   4.010  0.2981  0.1636  0.1437
 6818SOL    HW131913   1.746   0.846   3.996 -1.5666  0.0528 -2.0984
 6818SOL    HW231914   1.743   0.959   4.101  0.3226  0.7165  0.0081
 6819SOL     OW31915   4.047   4.227   7.659 -0.6219  0.6133  0.0786
 6819SOL    HW131916   4.036   4.302   7.718  0.4234  0.8447 -0.0211
 6819SOL    HW231917   3.998   4.253   7.581 -3.4115  1.6309  2.1727
 6820SOL     OW31918   2.337   1.692  14.918 -0.3760  0.0825  0.7675
 6820SOL    HW131919   2.414   1.725  14.872 -0.0900 -0.8152  0.5935
 6820SOL    HW231920   2.310   1.773  14.960  2.5666  0.5284  1.7999
 6821SOL     OW31921   3.754   3.810   9.445 -0.3275  0.3623  0.3575
 6821SOL    HW131922   3.767   3.739   9.381  3.4300  2.1423 -0.8730
 6821SOL    HW231923   3.686   3.863   9.405  1.6666  1.1056 -1.9854
 6822SOL     OW31924   1.081   4.165  13.716 -0.5505  0.4946  0.1058
 6822SOL    HW131925   1.085   4.133  13.806 -0.6827 -0.1794 -0.1316
 6822SOL    HW231926   1.007   4.225  13.728 -0.3593  0.8459 -0.4344
 6823SOL     OW31927   2.047   3.833   7.232 -0.1420  0.2537 -0.1817
 6823SOL    HW131928   2.042   3.737   7.242 -0.0794  0.2857  0.1844
 6823SOL    HW231929   2.054   3.844   7.138 -1.4138  1.1997 -0.1566
 6824SOL     OW31930   1.950   3.417   1.619 -0.2137 -0.3371 -0.1755
 6824SOL    HW131931   1.980   3.335   1.659 -0.7473 -0.2581  0.3762
 6824SOL    HW231932   2.033   3.454   1.589 -0.1480 -0.5964 -0.3148
 6825SOL     OW31933   0.457   4.454   1.900 -0.0481 -0.2651  0.0090
 6825SOL    HW131934   0.495   4.450   1.812 -1.9900  0.0363 -0.8417
 6825SOL    HW231935   0.496   4.537   1.928  2.8683 -0.8822 -2.2180
 6826SOL     OW31936   2.053   1.832   5.262 -0.4444  0.3326 -0.7554
 6826SOL    HW131937   2.024   1.917   5.230  1.7712  0.6891 -1.8413
 6826SOL    HW231938   2.147   1.850   5.255  0.1069 -1.6494  1.3470
 6827SOL     OW31939   2.207   3.100   6.821 -0.6181  0.0433  0.1671
 6827SOL    HW131940   2.212   3.139   6.734 -1.2290  0.6214  0.3906
 6827SOL    HW231941   2.199   3.011   6.787 -0.6328 -0.7186  2.1367
 6828SOL     OW31942   0.052   3.282   4.141 -0.5656  0.6278 -0.2185
 6828SOL    HW131943   0.062   3.218   4.211 -0.5317  4.2292  3.0692
 6828SOL    HW231944   0.111   3.241   4.077  1.0599  0.2995  1.5163
 6829SOL     OW31945   1.078   3.955   6.686 -0.2266  0.3485  0.0704
 6829SOL    HW131946   1.071   3.977   6.593 -1.7679 -1.3515 -0.2150
 6829SOL    HW231947   0.984   3.944   6.698 -0.5139  0.4270 -2.1008
 6830SOL     OW31948   3.834   1.490   7.860 -0.6199 -0.3307  0.1201
 6830SOL    HW131949   3.790   1.412   7.829 -2.7231  1.8855 -2.4069
 6830SOL    HW231950   3.917   1.468   7.818 -1.0346 -2.3921  0.3814
 6831SOL     OW31951   3.824   1.385   4.008  0.1724 -0.1601  0.4153
 6831SOL    HW131952   3.746   1.430   3.974  2.3592  0.6423 -3.5249
 6831SOL    HW231953   3.811   1.298   3.971  0.1115 -0.7384  1.8171
 6832SOL     OW31954   3.777   1.008   5.378 -0.1460  0.0793  0.4550
 6832SOL    HW131955   3.699   0.957   5.401 -1.0562  1.6080  0.7046
 6832SOL    HW231956   3.725   1.088   5.381  0.5456  0.6007 -1.2096
 6833SOL     OW31957   2.935   4.161   4.647 -0.3013  0.2232  0.5364
 6833SOL    HW131958   3.023   4.186   4.617 -1.4140  0.2935 -2.6073
 6833SOL    HW231959   2.947   4.159   4.742  1.2872 -0.5237  0.3269
 6834SOL     OW31960   4.179   2.009   8.866  0.0442  0.0340  0.6572
 6834SOL    HW131961   4.104   1.992   8.924 -0.8060 -3.4398 -1.4899
 6834SOL    HW231962   4.205   2.094   8.903 -0.3302  0.5427 -0.2465
 6835SOL     OW31963   3.812   2.520   9.212  0.1342 -0.4451  0.4635
 6835SOL    HW131964   3.722   2.537   9.237  0.6360 -0.0764  2.0373
 6835SOL    HW231965   3.830   2.604   9.170  0.2277 -0.7275 -0.0632
 6836SOL     OW31966   1.676   0.066   7.264 -0.9383  0.1473  0.4781
 6836SOL    HW131967   1.627   0.117   7.199 -0.0227 -0.0317 -0.3428
 6836SOL    HW231968   1.709   4.713   7.210  2.7234  0.6947  2.0359
 6837SOL     OW31969   0.016   2.441  10.130 -0.8240 -0.4661  0.2592
 6837SOL    HW131970   0.098   2.392  10.128 -2.0936 -2.6431  1.1301
 6837SOL    HW231971   4.690   2.419  10.048 -0.7034 -1.4692  0.4521
 6838SOL     OW31972   1.574   3.579  10.584  0.1167  0.0469 -0.4981
 6838SOL    HW131973   1.558   3.572  10.490 -0.1632 -0.5831 -0.4054
 6838SOL    HW231974   1.659   3.622  10.591  0.3730 -0.8173  1.9268
 6839SOL     OW31975   4.070   0.632   9.789  0.1628 -0.2212 -0.0393
 6839SOL    HW131976   4.050   0.558   9.733 -1.5080 -0.5412  0.9772
 6839SOL    HW231977   3.982   0.658   9.817 -0.0286 -0.6717 -0.2190
 6840SOL     OW31978   4.482   1.828   2.079  0.3693  0.7935  0.6864
 6840SOL    HW131979   4.564   1.789   2.051  0.3634  2.0486 -1.0353
 6840SOL    HW231980   4.490   1.920   2.056 -0.4490  0.6727 -0.0909
 6841SOL     OW31981   2.062   3.676   6.276  0.0733  0.1898 -0.0141
 6841SOL    HW131982   2.046   3.765   6.309 -1.1039 -0.5382  1.3717
 6841SOL    HW231983   1.986   3.664   6.218 -0.6070 -1.3309  1.2016
 6842SOL     OW31984   4.192   4.385  10.499 -0.1301  0.2935 -1.0897
 6842SOL    HW131985   4.177   4.448  10.569 -1.9221 -1.9693  0.5370
 6842SOL    HW231986   4.251   4.326  10.544 -0.3779  0.7163 -0.2116
 6843SOL     OW31987   3.521   2.873   5.394 -0.1221 -0.2062  0.0366
 6843SOL    HW131988   3.542   2.929   5.320 -0.2524  1.1478  1.0070
 6843SOL    HW231989   3.599   2.890   5.447 -0.2234 -1.2982  0.5436
 6844SOL     OW31990   1.828   1.852   7.811 -0.3045 -0.3029  0.1360
 6844SOL    HW131991   1.882   1.928   7.830  1.0613 -0.6947 -2.2007
 6844SOL    HW231992   1.841   1.828   7.719  1.9378  1.3497  0.0199
 6845SOL     OW31993   2.624   0.955   4.765  0.1536 -0.2873 -0.9335
 6845SOL    HW131994   2.580   0.956   4.850  1.9377 -2.9265  0.0272
 6845SOL    HW231995   2.578   1.027   4.722 -1.8568  0.8360  3.0967
 6846SOL     OW31996   0.476   1.045   4.281 -0.1964  0.3668  0.0639
 6846SOL    HW131997   0.448   1.049   4.373 -0.8662 -0.0062 -0.1237
 6846SOL    HW231998   0.467   0.951   4.263 -1.6032  0.7054 -0.9601
 6847SOL     OW31999   1.482   2.185   1.898  0.0381 -0.0921 -0.0937
 6847SOL    HW132000   1.555   2.126   1.920  0.7787  1.2887  1.1600
 6847SOL    HW232001   1.422   2.120   1.861 -2.9144  2.9059 -0.5069
 6848SOL     OW32002   0.504   3.352   7.930  0.3771 -0.1735  0.1279
 6848SOL    HW132003   0.571   3.348   7.999 -0.2365 -1.8467  0.6266
 6848SOL    HW232004   0.433   3.300   7.968 -1.6599  1.8171 -0.9345
 6849SOL     OW32005   3.019   0.042   1.128 -0.1766 -0.1154  0.0459
 6849SOL    HW132006   3.066   4.683   1.099  0.5569  1.1791 -2.2697
 6849SOL    HW232007   3.096   0.098   1.119 -0.8117  0.8760  0.8051
 6850SOL     OW32008   3.586   3.188   3.807 -0.0486 -0.3142 -0.1800
 6850SOL    HW132009   3.559   3.217   3.894  2.4003  0.8904  0.1815
 6850SOL    HW232010   3.567   3.270   3.761  0.6849  0.2748  0.5584
 6851SOL     OW32011   1.273   0.550   3.336  0.3125 -0.2089 -0.1032
 6851SOL    HW132012   1.232   0.506   3.262 -1.3925 -1.9478  1.8578
 6851SOL    HW232013   1.364   0.519   3.331  1.0237  1.8411  0.1696
 6852SOL     OW32014   4.609   1.607   0.550 -0.1662 -0.1943  0.5257
 6852SOL    HW132015   4.567   1.672   0.605  2.4341 -1.1113  3.6512
 6852SOL    HW232016   4.548   1.617   0.477 -0.2065 -0.1816  0.5619
 6853SOL     OW32017   1.279   0.005   3.534  0.2630 -0.1201  0.2266
 6853SOL    HW132018   1.362   4.710   3.579  0.0132 -2.1041  0.0398
 6853SOL    HW232019   1.300   0.023   3.443  1.0444  0.7666  0.5756
 6854SOL     OW32020   0.419   3.158   9.518 -0.0208  0.0806  0.4475
 6854SOL    HW132021   0.362   3.105   9.463 -1.0212  1.7246 -0.1238
 6854SOL    HW232022   0.492   3.098   9.534  0.7284  0.4134 -1.6967
 6855SOL     OW32023   3.358   3.845   0.167 -1.0583  1.0691  0.3409
 6855SOL    HW132024   3.379   3.789   0.242  2.6975  1.3496 -0.5015
 6855SOL    HW232025   3.397   3.926   0.199  1.1895 -1.0126  2.8384
 6856SOL     OW32026   1.839   4.096   3.705 -0.3269 -0.2273 -0.0824
 6856SOL    HW132027   1.922   4.090   3.659 -1.8414  1.9379 -3.1488
 6856SOL    HW232028   1.780   4.123   3.634  0.3688 -0.6151 -0.8112
 6857SOL     OW32029   1.478   1.869  14.576  0.2335  0.1504  0.5552
 6857SOL    HW132030   1.519   1.909  14.500 -1.4563 -1.6620 -1.2744
 6857SOL    HW232031   1.430   1.931  14.632 -0.9000 -1.5519  1.4919
 6858SOL     OW32032   4.168   3.033   4.903  0.2303 -0.6308  0.8396
 6858SOL    HW132033   4.166   3.084   4.822 -4.1325 -0.7401  0.8500
 6858SOL    HW232034   4.260   3.055   4.920  0.2236 -1.1209  1.5082
 6859SOL     OW32035   0.758   4.323  16.686 -0.2840  0.0743  0.2700
 6859SOL    HW132036   0.713   4.284  16.761 -1.4785  2.4281  0.7524
 6859SOL    HW232037   0.731   4.264  16.615  1.9512 -2.9775  1.9292
 6860SOL     OW32038   2.792   0.519   7.720 -0.2774  0.6921 -0.2923
 6860SOL    HW132039   2.779   0.428   7.747  2.9085 -0.3577 -2.2997
 6860SOL    HW232040   2.706   0.534   7.683 -0.4829 -1.6804 -0.7525
 6861SOL     OW32041   3.250   0.630   8.515 -0.4863  0.3621  0.1948
 6861SOL    HW132042   3.194   0.595   8.584 -2.9044  0.4606 -1.7312
 6861SOL    HW232043   3.185   0.637   8.446 -1.2911  0.0269  0.9200
 6862SOL     OW32044   3.451   4.251   3.004  1.3070  0.3997  0.5130
 6862SOL    HW132045   3.467   4.327   2.947 -1.7960  0.8602  0.2531
 6862SOL    HW232046   3.478   4.291   3.087  1.3540 -1.3125  1.3186
 6863SOL     OW32047   2.944   0.461   4.261  0.1123  0.4117 -0.2335
 6863SOL    HW132048   2.848   0.461   4.266 -0.0376 -0.1596 -2.9803
 6863SOL    HW232049   2.972   0.370   4.276 -0.5428  0.2659  0.1356
 6864SOL     OW32050   1.567   4.375   7.846 -0.3356  0.4132  0.2369
 6864SOL    HW132051   1.548   4.451   7.791 -2.0790  0.1767  0.5137
 6864SOL    HW232052   1.655   4.346   7.821 -0.3158  0.2859  0.4566
 6865SOL     OW32053   0.733   3.760   4.285  0.0379 -0.5646  0.4121
 6865SOL    HW132054   0.644   3.730   4.273  0.7036 -1.7251 -1.6604
 6865SOL    HW232055   0.740   3.822   4.212  2.0460 -1.1956  0.0571
 6866SOL     OW32056   3.587   3.754   3.309  0.2444  0.0565 -0.1897
 6866SOL    HW132057   3.615   3.841   3.281  1.0144 -0.4287 -0.9268
 6866SOL    HW232058   3.618   3.748   3.399 -3.9394  0.1333  1.2660
 6867SOL     OW32059   3.298   0.093   3.316 -0.2121 -0.4518 -0.1174
 6867SOL    HW132060   3.368   0.157   3.305  0.3887 -1.4114 -1.9334
 6867SOL    HW232061   3.277   0.107   3.408  0.2968 -0.6376  0.0232
 6868SOL     OW32062   2.796   4.371  12.372  0.3257 -0.3092 -0.2582
 6868SOL    HW132063   2.710   4.394  12.406  0.8269 -0.7091  1.2453
 6868SOL    HW232064   2.765   4.367  12.281  1.4612  0.0090 -0.6671
 6869SOL     OW32065   3.494   3.588   3.101 -0.1167 -0.1361  0.3495
 6869SOL    HW132066   3.548   3.635   3.165 -0.0302 -0.0798  0.2342
 6869SOL    HW232067   3.416   3.643   3.104 -1.1596 -1.6751  1.4700
 6870SOL     OW32068   3.709   4.513   4.611 -0.1573  0.3907  0.4132
 6870SOL    HW132069   3.801   4.526   4.633 -0.0145 -0.8767  0.5755
 6870SOL    HW232070   3.686   4.456   4.685  2.0229 -0.0455  0.7375
 6871SOL     OW32071   3.215   0.530   0.550  0.2263 -0.1255 -0.4009
 6871SOL    HW132072   3.255   0.478   0.480  1.0000  0.4320 -0.3763
 6871SOL    HW232073   3.159   0.461   0.586  1.0937 -1.2442 -1.1739
 6872SOL     OW32074   4.139   0.954   8.814  0.4207 -0.0810  0.4155
 6872SOL    HW132075   4.177   0.956   8.902  0.8271  0.5806  0.2232
 6872SOL    HW232076   4.074   1.024   8.815  1.3978  0.8102 -0.0275
 6873SOL     OW32077   1.614   4.557   4.933  0.1404  0.6538 -0.2059
 6873SOL    HW132078   1.527   4.523   4.911  0.9543 -2.1840  1.1012
 6873SOL    HW232079   1.618   4.512   5.017 -3.6285 -0.6685 -0.7281
 6874SOL     OW32080   1.960   1.738   2.898  0.3766 -0.2217 -0.1682
 6874SOL    HW132081   1.866   1.754   2.888  0.3919 -1.3232 -2.0283
 6874SOL    HW232082   1.983   1.810   2.957  1.0945 -0.2956 -0.3640
 6875SOL     OW32083   1.465   3.456   3.677 -0.3482 -0.4828 -0.0182
 6875SOL    HW132084   1.406   3.461   3.752 -1.7646 -2.3306 -1.0014
 6875SOL    HW232085   1.533   3.523   3.690 -0.9118  0.6369 -2.9104
 6876SOL     OW32086   3.789   0.700  11.493  0.2571 -0.1938 -0.0245
 6876SOL    HW132087   3.748   0.777  11.454 -2.4604 -1.4691  0.3155
 6876SOL    HW232088   3.855   0.728  11.556 -0.3550  0.9827  0.0957
 6877SOL     OW32089   0.655   1.659   8.921 -0.4704 -0.2020 -0.1982
 6877SOL    HW132090   0.702   1.705   8.852  0.8970 -2.7016 -0.9385
 6877SOL    HW232091   0.642   1.580   8.867  1.3281 -1.4305  1.1668
 6878SOL     OW32092   4.468   0.500  15.457  0.5233 -0.1254  0.1624
 6878SOL    HW132093   4.401   0.440  15.488  0.3538 -0.7307 -1.3471
 6878SOL    HW232094   4.526   0.434  15.419  2.3405 -0.0475  2.9134
 6879SOL     OW32095   1.869   0.620  16.197  0.3803 -0.2333 -0.2393
 6879SOL    HW132096   1.903   0.532  16.182  2.1421  0.4165 -0.1661
 6879SOL    HW232097   1.870   0.622  16.293  1.2559 -0.3068 -0.2410
 6880SOL     OW32098   2.650   3.748   4.233  0.5624 -0.1438  0.2351
 6880SOL    HW132099   2.657   3.767   4.326 -3.4596  1.2050  0.2494
 6880SOL    HW232100   2.742   3.735   4.208  1.0134  1.7435  0.9183
 6881SOL     OW32101   1.833   4.005  15.951 -0.4358  0.3132  0.2665
 6881SOL    HW132102   1.851   4.084  16.002 -2.4124  0.3338  0.9411
 6881SOL    HW232103   1.793   3.950  16.019 -0.2279 -0.6458 -0.3818
 6882SOL     OW32104   0.508   4.088   8.755 -0.7145 -0.1596  0.3082
 6882SOL    HW132105   0.413   4.074   8.759  0.0468 -5.7620 -1.2778
 6882SOL    HW232106   0.512   4.175   8.714  0.8352 -0.3920 -0.0274
 6883SOL     OW32107   3.365   3.709   8.111  0.1412  0.1766 -0.0489
 6883SOL    HW132108   3.312   3.762   8.170  1.0703  0.3015  0.6913
 6883SOL    HW232109   3.310   3.691   8.035 -0.5862  1.0087  0.2891
 6884SOL     OW32110   3.198   1.716  17.659 -0.3899 -0.5253  0.0304
 6884SOL    HW132111   3.159   1.635   0.013 -0.4788  0.2046  1.6977
 6884SOL    HW232112   3.140   1.724  17.583 -1.4151 -0.1757  0.8346
 6885SOL     OW32113   3.695   1.050   4.373  0.0566  0.1671 -0.2502
 6885SOL    HW132114   3.636   1.000   4.317 -1.0079 -0.7529  1.6907
 6885SOL    HW232115   3.678   1.021   4.462 -2.1096  1.2417 -0.3068
 6886SOL     OW32116   2.031   4.704  12.539 -0.1094  0.1633 -0.2905
 6886SOL    HW132117   2.009   0.004  12.448  0.8882  3.5462  0.1801
 6886SOL    HW232118   1.961   0.036  12.581  0.4362 -0.0470  0.8594
 6887SOL     OW32119   2.791   1.258   4.517 -0.2845 -0.3151 -0.0296
 6887SOL    HW132120   2.863   1.284   4.459 -1.8233  3.0987 -0.4147
 6887SOL    HW232121   2.840   1.264   4.600  0.2320  0.6343 -0.3980
 6888SOL     OW32122   1.057   4.227   3.704  0.0569  0.4149  0.1492
 6888SOL    HW132123   1.140   4.229   3.657  0.4974 -0.7022  0.8954
 6888SOL    HW232124   1.002   4.227   3.625  2.9209 -0.7821 -1.8273
 6889SOL     OW32125   3.477   4.426   6.522 -0.0087  0.2844 -0.1047
 6889SOL    HW132126   3.493   4.354   6.461  0.8579  1.5962 -1.4106
 6889SOL    HW232127   3.387   4.399   6.540 -0.3779  0.8201 -1.1429
 6890SOL     OW32128   1.505   3.109   6.011  0.0081  0.6474 -0.1740
 6890SOL    HW132129   1.549   3.058   6.079  0.7684  1.0880 -0.3353
 6890SOL    HW232130   1.560   3.187   6.005 -0.0963  0.6067 -1.5519
 6891SOL     OW32131   0.834   2.361   6.963 -0.4489 -0.1155  0.1624
 6891SOL    HW132132   0.765   2.310   6.920 -0.0252  0.4908 -1.2435
 6891SOL    HW232133   0.806   2.449   6.939  0.5234  0.3843  0.8607
 6892SOL     OW32134   4.642   1.861   0.890 -0.2531 -0.2729 -0.1797
 6892SOL    HW132135   0.003   1.913   0.887 -0.0486 -0.5718  0.0530
 6892SOL    HW232136   4.615   1.870   0.799  0.2076 -0.8815 -0.3748
 6893SOL     OW32137   3.220   1.177   5.440 -0.4198 -0.6791 -0.2016
 6893SOL    HW132138   3.184   1.109   5.383  0.7460 -2.0960  0.7914
 6893SOL    HW232139   3.163   1.182   5.517  0.6212 -1.0404  0.5824
 6894SOL     OW32140   2.332   2.053   5.932  0.0772  0.1896 -0.2149
 6894SOL    HW132141   2.238   2.048   5.950  0.5102 -0.7251  1.7495
 6894SOL    HW232142   2.337   2.148   5.942  1.1273  0.1148  0.0220
 6895SOL     OW32143   4.566   0.930   3.828 -0.8278  0.1630 -0.3382
 6895SOL    HW132144   4.491   0.984   3.803 -0.1065  1.2210 -0.1785
 6895SOL    HW232145   4.528   0.844   3.849  1.2913 -1.0773 -1.5698
 6896SOL     OW32146   2.041   2.655   6.598 -0.6447 -0.5469  0.4032
 6896SOL    HW132147   1.954   2.695   6.605 -0.0122  0.9887 -0.4196
 6896SOL    HW232148   2.021   2.565   6.625  0.4172 -0.7084  0.6537
 6897SOL     OW32149   1.330   0.573  14.979  0.3845  0.5522  0.2333
 6897SOL    HW132150   1.381   0.637  14.929  1.8116 -1.4626 -0.8995
 6897SOL    HW232151   1.239   0.598  14.960  1.2518  0.6995 -3.7001
 6898SOL     OW32152   0.952   1.252  15.904  0.5856  0.1565 -0.2545
 6898SOL    HW132153   0.946   1.211  15.817 -2.4476  1.4668 -0.6529
 6898SOL    HW232154   1.042   1.234  15.931  0.8006  0.2829 -0.8843
 6899SOL     OW32155   4.364   2.700   3.332  0.1197  0.4848 -0.2759
 6899SOL    HW132156   4.360   2.795   3.347  0.7457  1.0007 -3.4212
 6899SOL    HW232157   4.423   2.669   3.401 -1.8195  1.0871  1.6705
 6900SOL     OW32158   3.112   2.187  13.413 -0.0172 -0.2455 -0.2093
 6900SOL    HW132159   3.043   2.138  13.368  1.6342 -1.9514 -0.9181
 6900SOL    HW232160   3.160   2.236  13.346  1.0469 -0.7828  0.1486
 6901SOL     OW32161   3.156   4.589   1.945 -0.1197  0.6785  0.5223
 6901SOL    HW132162   3.199   4.674   1.956  0.6625  0.1174  1.8969
 6901SOL    HW232163   3.107   4.572   2.025 -1.1208  1.5769  0.0973
 6902SOL     OW32164   0.934   2.128   3.466  0.1756 -0.0961 -0.1210
 6902SOL    HW132165   0.972   2.168   3.544 -2.7343  1.6600  0.3775
 6902SOL    HW232166   0.917   2.043   3.509  1.9587 -1.7443 -2.6891
 6903SOL     OW32167   1.409   1.615   1.779  0.5119  0.0082 -0.3393
 6903SOL    HW132168   1.334   1.614   1.838 -0.5520 -1.3118 -1.7308
 6903SOL    HW232169   1.488   1.590   1.826 -0.4902  0.6070  1.6556
 6904SOL     OW32170   1.313   2.829   8.366 -0.2290  0.1384 -0.1342
 6904SOL    HW132171   1.245   2.821   8.300  0.3534 -3.6435 -0.2879
 6904SOL    HW232172   1.270   2.783   8.438 -0.3062 -0.4519 -0.5623
 6905SOL     OW32173   1.131   3.800  14.869  0.0177  0.2955 -0.4247
 6905SOL    HW132174   1.147   3.864  14.938 -2.6286  0.6116 -0.1145
 6905SOL    HW232175   1.108   3.861  14.799  0.4381  0.6489 -0.2541
 6906SOL     OW32176   0.935   4.172   4.115 -0.1621  0.3205 -0.1891
 6906SOL    HW132177   0.934   4.267   4.126 -0.1124  0.1794  1.0372
 6906SOL    HW232178   0.854   4.154   4.163  1.2858 -1.2568  1.6576
 6907SOL     OW32179   1.396   4.597  11.947  0.4046 -0.1218  0.4939
 6907SOL    HW132180   1.432   4.621  12.033 -1.2158  1.6214  0.6959
 6907SOL    HW232181   1.470   4.555  11.903 -0.3758  0.3160 -1.2242
 6908SOL     OW32182   1.640   4.189   8.697 -0.3737  0.8375 -0.3503
 6908SOL    HW132183   1.549   4.179   8.670 -0.0499 -1.2041 -0.6779
 6908SOL    HW232184   1.688   4.164   8.618  3.4603  3.2178  1.1999
 6909SOL     OW32185   3.186   1.229   4.819 -0.2062  0.2653 -0.6080
 6909SOL    HW132186   3.278   1.249   4.835  0.3717 -1.2774 -2.0799
 6909SOL    HW232187   3.145   1.194   4.898  1.8785  1.1360  0.8563
 6910SOL     OW32188   4.551   1.259   4.859  0.2438  0.0347  0.4166
 6910SOL    HW132189   4.562   1.352   4.880 -2.4586  0.3118  0.6040
 6910SOL    HW232190   4.529   1.219   4.943 -2.3413  0.0119 -0.2461
 6911SOL     OW32191   3.028   3.544  13.877 -0.4327  0.0480  0.2919
 6911SOL    HW132192   3.037   3.639  13.871 -0.9847  0.2164  2.2450
 6911SOL    HW232193   3.118   3.530  13.907  0.2309  0.7985 -1.3372
 6912SOL     OW32194   0.194   4.648   1.143  0.1016  0.3563  0.2391
 6912SOL    HW132195   0.289   4.658   1.148  0.0427  0.7326  0.6310
 6912SOL    HW232196   0.174   4.659   1.050 -0.9816  0.7502  0.5116
 6913SOL     OW32197   1.289   2.337  12.637  0.2445  0.0051  0.3001
 6913SOL    HW132198   1.196   2.327  12.617  0.1996  0.2338  0.3934
 6913SOL    HW232199   1.321   2.381  12.559 -0.1443 -0.9910 -0.4292
 6914SOL     OW32200   0.084   4.469   9.262 -0.3521  0.2615  0.2392
 6914SOL    HW132201   0.024   4.493   9.191  0.1203  0.5952 -0.0540
 6914SOL    HW232202   0.028   4.450   9.337 -2.1989  2.5362 -0.5793
 6915SOL     OW32203   1.793   1.870  15.107  0.2711 -0.3228 -0.3681
 6915SOL    HW132204   1.747   1.848  15.026 -3.0181 -0.0369  1.3977
 6915SOL    HW232205   1.884   1.852  15.085  0.8411  0.9792  0.9320
 6916SOL     OW32206   0.966   3.323   7.664 -0.3543 -0.4893 -0.0376
 6916SOL    HW132207   1.049   3.310   7.709  0.2457  1.0712 -0.7232
 6916SOL    HW232208   0.969   3.251   7.601 -0.2372  1.4811 -2.2665
 6917SOL     OW32209   2.728   0.509   3.707  0.0125  0.4638 -0.0401
 6917SOL    HW132210   2.813   0.512   3.749  0.8101  2.5708 -1.7958
 6917SOL    HW232211   2.673   0.515   3.786  1.3712  2.3955  0.7573
 6918SOL     OW32212   2.949   3.669   4.146 -0.2968 -0.3009  0.1885
 6918SOL    HW132213   2.942   3.582   4.107  2.3205 -0.1896 -0.5546
 6918SOL    HW232214   2.970   3.722   4.068  1.1855  1.8035  2.0156
 6919SOL     OW32215   3.960   2.733  15.808 -0.4343 -0.2490 -0.2315
 6919SOL    HW132216   3.991   2.820  15.781  1.3304 -1.0977 -0.8704
 6919SOL    HW232217   4.032   2.699  15.861 -0.0452  2.1487  0.8051
 6920SOL     OW32218   1.723   3.476   5.046 -0.5397  0.1674  1.2261
 6920SOL    HW132219   1.697   3.398   4.996 -0.9380 -0.0440  1.7663
 6920SOL    HW232220   1.744   3.445   5.134  1.0695 -2.4041 -0.0362
 6921SOL     OW32221   0.858   3.017  13.519  0.0364 -0.2172  0.5697
 6921SOL    HW132222   0.769   2.992  13.495 -0.6098  2.3777  0.3138
 6921SOL    HW232223   0.867   3.089  13.456 -0.2587 -2.4073 -1.9942
 6922SOL     OW32224   1.961   1.074   5.846 -0.2187  0.4732  0.0434
 6922SOL    HW132225   1.889   1.130   5.876  0.7017  2.1466 -0.8856
 6922SOL    HW232226   1.942   1.068   5.752  0.1922  0.9463 -0.0689
 6923SOL     OW32227   3.209   1.408  13.358 -0.1397  0.6012 -0.0864
 6923SOL    HW132228   3.151   1.337  13.331 -0.5807  1.1753 -0.6452
 6923SOL    HW232229   3.229   1.457  13.279 -0.2880 -0.4958 -0.8016
 6924SOL     OW32230   4.713   0.199   2.717 -0.1323  0.0971  1.0731
 6924SOL    HW132231   4.649   0.132   2.694  0.7543 -0.1507 -0.6852
 6924SOL    HW232232   0.077   0.156   2.698 -0.5415 -0.3512  0.2623
 6925SOL     OW32233   4.310   3.938   8.600 -0.5952  0.7173  0.4340
 6925SOL    HW132234   4.368   3.970   8.531  0.0099 -0.5721  0.3322
 6925SOL    HW232235   4.260   4.017   8.617 -0.8622  0.3616  1.3009
 6926SOL     OW32236   1.002   1.545   0.788  0.0317  0.3278 -0.2849
 6926SOL    HW132237   1.012   1.468   0.842 -1.9108 -0.1733 -0.6417
 6926SOL    HW232238   0.962   1.512   0.708 -0.9490 -0.0952  0.3854
 6927SOL     OW32239   0.913   0.976   8.360  0.0732  0.0593  0.0539
 6927SOL    HW132240   0.888   0.916   8.431 -2.2713  0.1059 -0.7599
 6927SOL    HW232241   1.009   0.983   8.366  0.1222  1.1821 -2.1566
 6928SOL     OW32242   4.630   0.166   2.202 -0.3107 -0.6287 -0.1322
 6928SOL    HW132243   4.682   0.162   2.121 -0.7261 -1.2765 -0.3679
 6928SOL    HW232244   4.699   0.183   2.265  1.0741  0.4063 -1.9278
 6929SOL     OW32245   0.643   1.487   9.330 -0.4007  0.2328  0.1590
 6929SOL    HW132246   0.650   1.414   9.268 -2.9056 -0.1189  0.2714
 6929SOL    HW232247   0.702   1.456   9.398 -1.6486 -2.2026  0.1154
 6930SOL     OW32248   2.900   4.652   0.270  0.9938 -0.5796  0.1770
 6930SOL    HW132249   2.925   0.003   0.329  0.3616  3.8585 -4.8487
 6930SOL    HW232250   2.815   4.683   0.237  0.4177 -1.8509  0.4731
 6931SOL     OW32251   1.035   2.821   3.801  0.2060 -0.2014 -0.2309
 6931SOL    HW132252   1.027   2.852   3.892  0.6067 -1.9366  0.3948
 6931SOL    HW232253   1.047   2.908   3.764 -1.0172 -0.0368 -0.2232
 6932SOL     OW32254   2.317   1.582   5.774  0.8800 -0.3176  0.3544
 6932SOL    HW132255   2.344   1.570   5.683 -0.4818  0.1395 -0.1084
 6932SOL    HW232256   2.231   1.539   5.773  0.3428  0.7648  0.8651
 6933SOL     OW32257   1.023   2.381   7.152 -0.2465  0.1679  0.8006
 6933SOL    HW132258   0.961   2.367   7.080  2.4550 -1.7333 -1.1832
 6933SOL    HW232259   0.971   2.364   7.231  1.2746  1.1129  1.9977
 6934SOL     OW32260   2.186   3.769   2.994  0.2803 -0.0304 -0.0883
 6934SOL    HW132261   2.131   3.834   3.037 -0.6809  0.7162 -2.4522
 6934SOL    HW232262   2.121   3.722   2.941 -0.4826 -0.0248  0.8504
 6935SOL     OW32263   0.316   4.173   3.665  0.0963 -0.0765  0.3063
 6935SOL    HW132264   0.274   4.141   3.585 -0.3518 -0.5856  0.7388
 6935SOL    HW232265   0.241   4.194   3.720  1.1295  1.5733  1.0770
 6936SOL     OW32266   0.171   3.773   7.011  0.0629  0.3075 -0.1626
 6936SOL    HW132267   0.125   3.787   6.929 -0.0316 -2.0779 -0.5070
 6936SOL    HW232268   0.098   3.792   7.070 -0.2303 -0.3947 -0.3077
 6937SOL     OW32269   0.823   2.797   4.910  0.2101  0.0764 -0.5449
 6937SOL    HW132270   0.753   2.826   4.969  0.3458  0.2641 -0.4763
 6937SOL    HW232271   0.880   2.763   4.978  2.7983 -0.1987 -2.8445
 6938SOL     OW32272   0.048   2.361  15.529 -0.1722 -0.0302  0.2337
 6938SOL    HW132273   0.100   2.435  15.497 -1.1304  1.5026  2.2065
 6938SOL    HW232274   0.047   2.307  15.450 -0.6416  1.6750 -0.9339
 6939SOL     OW32275   1.163   0.504   7.501 -0.1411 -0.1969  0.0307
 6939SOL    HW132276   1.155   0.424   7.449 -1.4708  0.1456 -0.2930
 6939SOL    HW232277   1.100   0.492   7.572 -0.1482 -0.2389  0.0174
 6940SOL     OW32278   3.497   2.808   7.966  0.4301  0.0671  0.0479
 6940SOL    HW132279   3.563   2.780   8.030  0.9658  1.6348  0.1843
 6940SOL    HW232280   3.426   2.747   7.983  0.7968 -0.0226  1.2909
 6941SOL     OW32281   4.399   3.702   4.115  0.4910  0.0652  0.1521
 6941SOL    HW132282   4.393   3.793   4.089  3.7763  0.4304  0.7332
 6941SOL    HW232283   4.492   3.680   4.108  0.8782  2.0069 -0.6785
 6942SOL     OW32284   1.758   1.440   6.611  0.4448 -0.2792  0.1328
 6942SOL    HW132285   1.778   1.386   6.687  0.1233 -1.3298 -0.5261
 6942SOL    HW232286   1.846   1.468   6.587  1.2935 -2.1626  1.0573
 6943SOL     OW32287   2.193   2.272   2.589 -0.6977 -0.0323 -0.7131
 6943SOL    HW132288   2.267   2.333   2.587 -0.1652 -0.6741 -0.8361
 6943SOL    HW232289   2.167   2.296   2.677  0.8263 -2.7849  0.5077
 6944SOL     OW32290   3.437   1.337   7.755  0.1238 -0.4351  0.5619
 6944SOL    HW132291   3.515   1.281   7.764 -2.2124 -3.7420  0.2137
 6944SOL    HW232292   3.404   1.297   7.674  1.0277  0.2662 -0.1503
 6945SOL     OW32293   1.363   0.214   8.198 -0.0959 -0.0980  0.4216
 6945SOL    HW132294   1.454   0.193   8.221  0.1395  0.7821  0.2665
 6945SOL    HW232295   1.316   0.149   8.250 -1.3011 -1.0953 -1.9212
 6946SOL     OW32296   3.531   4.586   2.479 -0.0167 -0.2791 -0.1505
 6946SOL    HW132297   3.443   4.616   2.502  0.8551 -0.0386  2.7568
 6946SOL    HW232298   3.561   4.538   2.556  0.7045 -2.2591 -1.6679
 6947SOL     OW32299   3.434   3.870   7.847 -0.0719 -0.2328 -0.2674
 6947SOL    HW132300   3.365   3.808   7.869  0.7408 -1.0329  0.0746
 6947SOL    HW232301   3.459   3.901   7.934 -0.3267  1.4818 -0.8112
 6948SOL     OW32302   2.082   0.238  17.281 -0.3790 -0.2838  0.0079
 6948SOL    HW132303   2.141   0.165  17.301  1.3083  0.8059 -0.9714
 6948SOL    HW232304   2.141   0.307  17.251  1.0478 -2.0115 -1.1734
 6949SOL     OW32305   2.912   2.389  13.940  0.1496  0.0713 -0.3804
 6949SOL    HW132306   2.948   2.332  13.872 -1.0017 -0.1281 -0.8074
 6949SOL    HW232307   2.819   2.368  13.931  0.0569  0.7966 -1.0770
 6950SOL     OW32308   4.008   1.661   6.215  0.0146  0.1504  0.1077
 6950SOL    HW132309   4.009   1.747   6.174 -0.5190  0.5478  0.9239
 6950SOL    HW232310   3.915   1.651   6.238  0.0571 -0.7666 -0.1440
 6951SOL     OW32311   1.462   3.329   7.235  0.4967  0.4879 -0.0000
 6951SOL    HW132312   1.371   3.341   7.261  0.5089 -0.1608  0.3418
 6951SOL    HW232313   1.509   3.384   7.298  1.6056  1.2440 -1.4994
 6952SOL     OW32314   4.466   0.376  14.070  0.1132 -0.0829 -0.3909
 6952SOL    HW132315   4.410   0.299  14.082  4.0875 -2.9998 -0.5314
 6952SOL    HW232316   4.400   0.444  14.082  0.9678  0.9935 -1.7495
 6953SOL     OW32317   2.789   4.694   5.902  0.9812 -0.1304 -0.4340
 6953SOL    HW132318   2.807   0.063   5.868  1.9139  0.6469  2.1110
 6953SOL    HW232319   2.726   4.665   5.836 -0.0961 -1.6153  1.2715
 6954SOL     OW32320   2.014   0.118   8.897 -0.3969 -0.2280  0.1929
 6954SOL    HW132321   2.102   0.145   8.923 -0.6807 -0.1612  1.0602
 6954SOL    HW232322   1.958   0.110   8.974 -2.2625  1.7025 -0.9250
 6955SOL     OW32323   1.087   0.861   2.847  0.1737  0.3038  0.3854
 6955SOL    HW132324   1.163   0.862   2.905 -1.0988 -1.5222  2.0758
 6955SOL    HW232325   1.103   0.783   2.793  0.8282  0.0376  0.9691
 6956SOL     OW32326   0.541   2.309   0.579  0.1714  0.2472 -0.0018
 6956SOL    HW132327   0.545   2.238   0.642 -1.0806 -1.0548 -1.3932
 6956SOL    HW232328   0.447   2.328   0.572 -0.5642 -3.1814  0.6461
 6957SOL     OW32329   3.609   1.751   0.462  0.0057 -0.0272 -0.2403
 6957SOL    HW132330   3.522   1.732   0.427  0.3954 -0.0438 -1.1967
 6957SOL    HW232331   3.620   1.842   0.436 -0.1810 -0.2828 -1.2238
 6958SOL     OW32332   1.501   2.575   6.903 -0.1259 -0.3409 -0.0820
 6958SOL    HW132333   1.503   2.480   6.910  3.6280 -0.2213  0.6408
 6958SOL    HW232334   1.494   2.595   6.810 -1.8837  1.2889  0.4064
 6959SOL     OW32335   0.875   1.428   0.589  0.0105  0.0276 -0.0735
 6959SOL    HW132336   0.799   1.440   0.533  1.3410  0.5293 -1.7829
 6959SOL    HW232337   0.835   1.353   0.633 -1.4054  1.0117  0.3033
 6960SOL     OW32338   3.314   4.718   4.540 -0.1268 -0.2807  0.3460
 6960SOL    HW132339   3.408   4.713   4.557 -0.3812 -3.4472  0.6919
 6960SOL    HW232340   3.272   4.645   4.585  1.5241 -1.1558  0.4520
 6961SOL     OW32341   1.724   2.511   5.630  0.3033  0.2207  0.8608
 6961SOL    HW132342   1.634   2.525   5.660  0.9530  2.2732  1.9209
 6961SOL    HW232343   1.720   2.418   5.612 -0.6785  1.0259 -3.1568
 6962SOL     OW32344   2.712   3.750  10.573 -0.4731  0.2264  0.2821
 6962SOL    HW132345   2.670   3.666  10.553 -1.3850  0.6180  0.5552
 6962SOL    HW232346   2.700   3.798  10.490 -3.5298 -4.1106 -1.7783
 6963SOL     OW32347   2.031   2.251   5.621  0.4387  0.6090  0.5318
 6963SOL    HW132348   2.019   2.284   5.532  0.7579  1.3575  0.7644
 6963SOL    HW232349   2.119   2.215   5.610 -0.1522 -0.4246 -0.8947
 6964SOL     OW32350   0.045   2.518   0.746 -0.0033 -0.3620 -0.2723
 6964SOL    HW132351   0.037   2.567   0.827  0.5273 -1.5700  0.5138
 6964SOL    HW232352   0.132   2.481   0.762  0.2129  0.4524  0.4400
 6965SOL     OW32353   2.798   3.658   3.796  0.6105  0.2944 -0.1580
 6965SOL    HW132354   2.713   3.642   3.838  1.5145 -1.1105  1.1384
 6965SOL    HW232355   2.805   3.752   3.811 -0.1090  0.3777 -0.3707
 6966SOL     OW32356   2.616   3.758  16.354  0.4301 -0.0268 -0.1363
 6966SOL    HW132357   2.601   3.722  16.441  2.7226  1.6614  0.9623
 6966SOL    HW232358   2.689   3.703  16.326  0.7555 -1.4293  3.5285
 6967SOL     OW32359   1.827   2.939   5.054 -0.0068 -0.5426 -0.3195
 6967SOL    HW132360   1.876   2.891   5.122 -0.1786 -1.5168 -0.8834
 6967SOL    HW232361   1.881   2.920   4.977  0.7994  0.2149  0.0567
 6968SOL     OW32362   0.926   1.903  10.882  0.2965  0.4990  0.2141
 6968SOL    HW132363   0.923   1.975  10.945 -0.3147 -1.1893  2.1294
 6968SOL    HW232364   0.897   1.949  10.804  1.5341 -0.2681 -0.6826
 6969SOL     OW32365   0.547   3.423   0.113 -0.1488  0.0510 -0.1861
 6969SOL    HW132366   0.594   3.340   0.109  0.0412  0.0829  1.3329
 6969SOL    HW232367   0.493   3.404   0.037  2.2145 -0.2956 -1.7881
 6970SOL     OW32368   0.389   0.105  11.792  0.0779  0.4776  0.0148
 6970SOL    HW132369   0.456   0.171  11.808  0.0854  0.6953 -0.9337
 6970SOL    HW232370   0.306   0.148  11.814 -0.3991  0.1101 -1.0586
 6971SOL     OW32371   3.190   2.829   9.581  0.6387 -0.3615 -0.5622
 6971SOL    HW132372   3.158   2.915   9.554  1.1864  0.8116  2.5128
 6971SOL    HW232373   3.146   2.769   9.521  0.6227 -1.6202  0.7278
 6972SOL     OW32374   1.068   0.722  11.920 -0.1863 -0.7093  0.2790
 6972SOL    HW132375   1.022   0.699  12.001  0.8233 -0.3789  0.9417
 6972SOL    HW232376   1.016   0.673  11.856  2.1731 -0.5560 -1.7598
 6973SOL     OW32377   3.092   3.039   9.442 -0.1220  0.2137  0.3814
 6973SOL    HW132378   3.007   3.081   9.451  0.0843  0.9647 -1.0776
 6973SOL    HW232379   3.115   3.059   9.351 -0.6073  0.3121  0.2806
 6974SOL     OW32380   4.221   1.906   4.755  0.5571  0.1531  0.1164
 6974SOL    HW132381   4.233   1.907   4.850 -2.2399 -2.5000  0.4982
 6974SOL    HW232382   4.151   1.840   4.751 -0.0859  0.8289  0.1582
 6975SOL     OW32383   1.737   4.267  11.156  0.3095  0.3725  0.1461
 6975SOL    HW132384   1.772   4.252  11.243  0.4896 -0.4498 -0.0688
 6975SOL    HW232385   1.644   4.244  11.163  0.5920 -0.4755  1.0835
 6976SOL     OW32386   1.753   3.554   7.008 -0.0963  0.2430 -0.1249
 6976SOL    HW132387   1.848   3.546   6.999 -0.2686 -2.4178  0.4395
 6976SOL    HW232388   1.751   3.649   7.020 -0.1292  0.4111 -1.5208
 6977SOL     OW32389   3.291   3.965   1.357  0.1037  0.6096 -0.1562
 6977SOL    HW132390   3.336   3.943   1.276 -0.8948  1.0974 -0.8482
 6977SOL    HW232391   3.342   4.042   1.383 -2.1190  1.3162  2.2690
 6978SOL     OW32392   3.399   3.543   9.294 -0.3185  0.7784 -0.0144
 6978SOL    HW132393   3.318   3.524   9.342 -0.5387 -0.2701 -0.7977
 6978SOL    HW232394   3.400   3.638   9.284  0.3961  0.5585 -1.9159
 6979SOL     OW32395   3.937   0.216   6.264  0.4264  0.1975 -0.4448
 6979SOL    HW132396   3.986   0.139   6.294  2.7836  0.7947 -2.7766
 6979SOL    HW232397   3.868   0.204   6.330  2.0821  1.9754  1.6236
 6980SOL     OW32398   4.460   1.152   0.788  0.3915 -0.1870  0.2239
 6980SOL    HW132399   4.505   1.232   0.761  0.0228 -0.4396 -1.1050
 6980SOL    HW232400   4.526   1.116   0.848  1.6627  0.3196 -0.8703
 6981SOL     OW32401   2.886   2.754   5.100 -0.0063  0.0016  0.1601
 6981SOL    HW132402   2.856   2.844   5.086 -1.0784 -0.5752 -1.2819
 6981SOL    HW232403   2.808   2.706   5.128  0.5578 -0.7164  0.5056
 6982SOL     OW32404   1.970   0.434   1.921  0.3186  0.3861 -0.6362
 6982SOL    HW132405   1.897   0.428   1.860  0.3460  0.1371 -0.6410
 6982SOL    HW232406   1.962   0.528   1.938  1.5818  0.4595 -0.4506
 6983SOL     OW32407   1.583   3.100  14.125 -0.1836  0.1149  0.0285
 6983SOL    HW132408   1.567   3.172  14.064  0.8216  2.0257  2.0333
 6983SOL    HW232409   1.534   3.128  14.202  1.0724  0.0926  0.8355
 6984SOL     OW32410   2.360   0.119   7.126 -0.1597  0.1966 -0.2743
 6984SOL    HW132411   2.406   0.073   7.197  1.6059  3.5719  0.7685
 6984SOL    HW232412   2.375   0.210   7.152  0.0723 -0.5236  2.1180
 6985SOL     OW32413   4.648   1.988   9.303  0.1387  0.0748 -0.3590
 6985SOL    HW132414   4.575   1.927   9.313 -0.2729  0.2611 -2.2652
 6985SOL    HW232415   4.616   2.065   9.351 -1.4007 -0.9334  0.2573
 6986SOL     OW32416   2.485   0.215   4.332 -0.0278  0.4627 -0.0211
 6986SOL    HW132417   2.525   0.175   4.409  0.9522 -0.2544 -0.8996
 6986SOL    HW232418   2.418   0.271   4.372 -0.5965 -1.0867  1.2142
 6987SOL     OW32419   4.011   0.582   6.205  0.5620  0.0085  0.5607
 6987SOL    HW132420   3.956   0.600   6.128  0.4401  1.8643  1.0764
 6987SOL    HW232421   3.942   0.561   6.267  1.2698 -3.8191  0.0664
 6988SOL     OW32422   4.642   0.595   7.584  0.1949 -0.8942  0.1941
 6988SOL    HW132423   0.006   0.566   7.546  0.5161  2.6222 -1.8012
 6988SOL    HW232424   4.661   0.553   7.668 -0.6754  1.1569  1.4213
 6989SOL     OW32425   1.122   1.786   0.627  0.5075 -0.3012  0.2869
 6989SOL    HW132426   1.035   1.824   0.639  0.7545  0.8570 -1.6187
 6989SOL    HW232427   1.151   1.757   0.714  1.3351  0.8190  0.3841
 6990SOL     OW32428   0.314   1.380  13.872 -0.6626  0.6755 -0.0137
 6990SOL    HW132429   0.337   1.428  13.792 -0.8187  0.3119 -0.2775
 6990SOL    HW232430   0.261   1.450  13.909  0.5904  0.7776  1.5689
 6991SOL     OW32431   4.582   2.140   5.809 -0.0620 -0.1371 -0.0860
 6991SOL    HW132432   4.500   2.164   5.766 -0.6775 -0.7572  0.7492
 6991SOL    HW232433   4.560   2.163   5.899  0.8124 -1.3647  0.4488
 6992SOL     OW32434   2.467   2.716  12.307  0.0991 -0.6749  0.5202
 6992SOL    HW132435   2.509   2.724  12.392  0.0085  0.3462  0.4807
 6992SOL    HW232436   2.436   2.806  12.293  0.5179 -0.8024 -1.1552
 6993SOL     OW32437   0.332   3.062   1.319  0.8291  0.3449  0.3958
 6993SOL    HW132438   0.239   3.056   1.343  0.7604 -1.9583 -0.4987
 6993SOL    HW232439   0.332   3.009   1.239 -1.0617 -2.3943  2.2135
 6994SOL     OW32440   0.760   0.873   3.176 -0.2473  0.2465  0.3669
 6994SOL    HW132441   0.788   0.856   3.086  0.5020  0.8952  0.4821
 6994SOL    HW232442   0.803   0.799   3.219 -0.0505  1.4870  2.3133
 6995SOL     OW32443   0.526   4.438   3.660  0.7284 -0.0433  0.0073
 6995SOL    HW132444   0.441   4.464   3.697  0.3874  0.4748 -1.1514
 6995SOL    HW232445   0.492   4.351   3.639  0.9536 -0.5513  1.7681
 6996SOL     OW32446   2.275   3.518   2.201  0.8881 -0.4916  0.4341
 6996SOL    HW132447   2.318   3.539   2.118  1.6183  0.8666  1.1623
 6996SOL    HW232448   2.347   3.529   2.262  0.7009  0.6118  0.4539
 6997SOL     OW32449   3.183   2.185   2.331  0.4227 -0.0979 -0.0222
 6997SOL    HW132450   3.108   2.244   2.331 -0.6604 -1.4674  2.7326
 6997SOL    HW232451   3.238   2.236   2.390 -1.2693  0.6326  0.9347
 6998SOL     OW32452   2.583   4.167   4.241 -0.4646  0.4062 -0.2297
 6998SOL    HW132453   2.524   4.137   4.309 -0.3486 -2.5028 -1.4168
 6998SOL    HW232454   2.648   4.219   4.289 -0.1121 -0.9705  0.7873
 6999SOL     OW32455   1.589   1.114   7.740 -0.1150 -0.4247 -0.3481
 6999SOL    HW132456   1.674   1.156   7.729  1.3954 -3.0785  1.2522
 6999SOL    HW232457   1.607   1.033   7.787 -1.3225  0.7176  2.0763
 7000SOL     OW32458   4.699   3.762   5.285  0.1398 -0.3854 -0.1800
 7000SOL    HW132459   0.019   3.813   5.355  0.5481 -1.2987  0.2546
 7000SOL    HW232460   4.610   3.748   5.319  0.0231  1.2224  0.1722
 7001SOL     OW32461   1.805   3.750  10.563  0.1741 -0.1256  0.6420
 7001SOL    HW132462   1.861   3.812  10.610  1.7881 -1.3771  0.3580
 7001SOL    HW232463   1.877   3.692  10.539 -0.1379 -0.7295  1.1881
 7002SOL     OW32464   0.365   4.450   9.335 -0.0062 -0.0059 -0.0075
 7002SOL    HW132465   0.279   4.470   9.298  0.8473 -2.0660 -3.1331
 7002SOL    HW232466   0.367   4.505   9.414  0.5508  0.6026 -0.4480
 7003SOL     OW32467   1.943   1.082  16.879 -0.1487 -0.2585 -0.0575
 7003SOL    HW132468   2.008   1.150  16.864 -0.5594  0.8596  3.1469
 7003SOL    HW232469   1.872   1.118  16.826  0.7111 -1.5753 -2.0816
 7004SOL     OW32470   1.805   3.193   6.689 -0.3755  0.4654 -0.0568
 7004SOL    HW132471   1.886   3.157   6.653 -0.9725 -0.1066 -0.8356
 7004SOL    HW232472   1.805   3.150   6.774  4.1584 -1.9750 -1.2831
 7005SOL     OW32473   4.550   2.721  10.907  0.0582 -0.4894  0.4073
 7005SOL    HW132474   4.578   2.660  10.839 -0.1539 -0.5941  0.4123
 7005SOL    HW232475   4.568   2.805  10.864 -1.0330 -0.7101 -0.4991
 7006SOL     OW32476   3.168   3.371   2.968 -0.0233 -0.2536 -0.1514
 7006SOL    HW132477   3.206   3.395   3.052 -1.5980  0.2393  0.4143
 7006SOL    HW232478   3.077   3.380   2.993 -0.2318  0.7152 -1.2362
 7007SOL     OW32479   3.117   0.326   8.221  0.4433 -0.3887  0.4728
 7007SOL    HW132480   3.147   0.325   8.130 -0.9473 -0.5588  0.0138
 7007SOL    HW232481   3.120   0.420   8.239 -3.3374 -0.3723  0.9410
 7008SOL     OW32482   3.192   0.191   3.561 -0.4604 -0.2123  0.0205
 7008SOL    HW132483   3.147   0.204   3.644 -2.0472  1.5876 -1.1297
 7008SOL    HW232484   3.229   0.279   3.553  0.7104 -0.5243  1.9111
 7009SOL     OW32485   3.241   4.417  17.498  0.0536 -0.4771  0.5357
 7009SOL    HW132486   3.330   4.449  17.511 -0.0633  0.5661 -1.2026
 7009SOL    HW232487   3.203   4.501  17.472  0.9347  0.0929  1.0771
 7010SOL     OW32488   1.333   3.757   3.831  0.0362 -0.0699 -0.0592
 7010SOL    HW132489   1.309   3.791   3.917  1.4096  1.9509 -0.4705
 7010SOL    HW232490   1.309   3.665   3.842 -1.9947  0.4287 -0.4543
 7011SOL     OW32491   4.221   2.925  13.468  0.3481  0.2936 -0.0565
 7011SOL    HW132492   4.224   2.921  13.564  0.7328 -0.7232 -0.1178
 7011SOL    HW232493   4.133   2.961  13.456  0.2203  0.0290  0.0882
 7012SOL     OW32494   3.600   3.561   6.192 -0.3468  0.4412  0.4245
 7012SOL    HW132495   3.693   3.564   6.170 -0.5486 -0.8081 -0.5766
 7012SOL    HW232496   3.557   3.606   6.119 -1.6589 -2.8670 -0.8151
 7013SOL     OW32497   0.973   1.080   2.722 -0.1288 -0.2006  0.2612
 7013SOL    HW132498   0.992   1.013   2.788  1.1623 -0.6535 -0.5750
 7013SOL    HW232499   0.878   1.090   2.731 -0.5341 -3.5550 -0.2860
 7014SOL     OW32500   1.904   2.400  13.835  1.2007  0.3771 -0.2227
 7014SOL    HW132501   1.840   2.340  13.797  0.1112  1.2228  0.2596
 7014SOL    HW232502   1.880   2.479  13.785 -3.5939  0.0342  1.4698
 7015SOL     OW32503   2.551   1.223   3.618 -0.3123  0.0082 -0.0559
 7015SOL    HW132504   2.527   1.215   3.526 -1.9022 -0.4590  0.3863
 7015SOL    HW232505   2.601   1.304   3.617 -0.2375 -0.0378 -0.0620
 7016SOL     OW32506   0.500   3.068   1.537  0.2419  0.0588 -0.0314
 7016SOL    HW132507   0.425   3.068   1.597  0.1342 -1.0848 -0.1653
 7016SOL    HW232508   0.464   3.052   1.450  1.4187 -1.3419 -0.2635
 7017SOL     OW32509   4.215   0.692   8.976  0.1807 -0.0266  0.1486
 7017SOL    HW132510   4.213   0.613   8.921 -2.7393  1.0924 -1.3912
 7017SOL    HW232511   4.287   0.744   8.940 -0.3576  0.2352 -0.5589
 7018SOL     OW32512   1.587   4.717   8.338  0.1550 -0.6702 -0.2611
 7018SOL    HW132513   1.678   4.713   8.307  1.0497 -1.2642  2.4309
 7018SOL    HW232514   1.617   0.006   8.429 -4.4801 -1.6060  1.3399
 7019SOL     OW32515   3.989   0.339  13.655  0.6572 -0.8457  0.2548
 7019SOL    HW132516   4.059   0.310  13.596 -0.0972 -1.2372 -0.4397
 7019SOL    HW232517   4.036   0.316  13.735  0.4268  0.2167  0.6936
 7020SOL     OW32518   2.772   1.547   5.922 -0.2593  0.2846  0.3662
 7020SOL    HW132519   2.764   1.618   5.986  2.0674 -0.6867  1.7331
 7020SOL    HW232520   2.829   1.583   5.854  0.0305  1.5074  1.2598
 7021SOL     OW32521   0.146   2.260  11.343 -0.3432 -0.3302 -0.2511
 7021SOL    HW132522   0.166   2.194  11.409 -0.2721  0.3092  0.3744
 7021SOL    HW232523   0.081   2.214  11.291  0.6150 -1.8095 -0.1172
 7022SOL     OW32524   1.057   4.349  13.103  0.2636  0.3298 -0.3561
 7022SOL    HW132525   1.036   4.365  13.194 -1.9085 -0.0834 -0.7955
 7022SOL    HW232526   0.968   4.354  13.067 -0.4017  2.2633  1.5349
 7023SOL     OW32527   1.099   0.771   6.827 -0.1504  0.1496 -0.4243
 7023SOL    HW132528   1.192   0.759   6.842 -0.4277  0.6997  1.7599
 7023SOL    HW232529   1.075   0.793   6.917 -0.5008  0.0866 -0.5007
 7024SOL     OW32530   3.215   0.859  16.411  0.2592  0.6858 -0.1409
 7024SOL    HW132531   3.232   0.859  16.317  2.6670 -0.8348  0.2907
 7024SOL    HW232532   3.128   0.899  16.412 -0.0173  0.1401 -1.9475
 7025SOL     OW32533   4.694   2.406  10.399 -0.3703 -0.3268  0.3622
 7025SOL    HW132534   4.633   2.332  10.401  0.3412 -0.9155  0.2085
 7025SOL    HW232535   4.701   2.410  10.304  1.5030 -1.4064  0.4478
 7026SOL     OW32536   1.513   0.694   2.421  0.3939  0.0717  0.2221
 7026SOL    HW132537   1.482   0.608   2.393 -0.7858  0.9578 -1.2224
 7026SOL    HW232538   1.606   0.671   2.429 -0.0806 -2.7760 -2.7479
 7027SOL     OW32539   1.882   4.555   1.735 -0.6698  0.5709  0.6737
 7027SOL    HW132540   1.845   4.564   1.647  0.1759 -1.2553  0.1243
 7027SOL    HW232541   1.964   4.512   1.713 -0.9809  1.4659 -2.3675
 7028SOL     OW32542   0.806   3.343   4.017  0.5795  0.5093  0.4250
 7028SOL    HW132543   0.813   3.298   4.101  0.3164  1.7900  1.1185
 7028SOL    HW232544   0.878   3.306   3.965 -1.6432 -2.0830 -0.7948
 7029SOL     OW32545   4.359   0.852  10.194 -0.1942  0.0295 -0.6549
 7029SOL    HW132546   4.304   0.844  10.271  2.5525  0.6655  1.3901
 7029SOL    HW232547   4.330   0.772  10.150  1.5065  0.1604 -2.0184
 7030SOL     OW32548   0.042   1.594   2.670  0.0001 -0.0702 -0.2641
 7030SOL    HW132549   0.109   1.662   2.678 -1.1654  1.0208  0.2970
 7030SOL    HW232550   4.686   1.653   2.664 -1.8147 -2.2709  0.9596
 7031SOL     OW32551   1.847   2.617   9.873  0.5152 -0.0445 -0.5956
 7031SOL    HW132552   1.921   2.677   9.868 -0.2417  0.8932 -0.6967
 7031SOL    HW232553   1.801   2.625   9.790  0.5189  0.8494 -0.5153
 7032SOL     OW32554   4.611   2.924   6.440  0.6130  0.3117  0.8255
 7032SOL    HW132555   4.574   2.980   6.509  1.3874  0.0893  1.4194
 7032SOL    HW232556   4.574   2.961   6.360 -2.2764 -0.6364  1.7132
 7033SOL     OW32557   3.968   3.968   8.850 -1.2356  0.0371  0.3979
 7033SOL    HW132558   4.035   3.900   8.844 -0.2806  0.9732  0.4876
 7033SOL    HW232559   3.916   3.955   8.929 -0.7746  2.2620  1.0672
 7034SOL     OW32560   3.759   0.180  17.095 -0.2228  0.1228 -0.2372
 7034SOL    HW132561   3.787   0.088  17.091 -0.6731  0.0502 -1.8433
 7034SOL    HW232562   3.845   0.220  17.085 -1.1985  1.0232 -5.1913
 7035SOL     OW32563   2.994   0.264  15.107 -0.1913  0.4974  0.8363
 7035SOL    HW132564   2.953   0.181  15.084 -0.3793  0.4120  1.4813
 7035SOL    HW232565   3.070   0.226  15.152 -0.5427 -0.3346  0.7333
 7036SOL     OW32566   4.141   2.762   1.487  0.8423 -0.0199  0.8153
 7036SOL    HW132567   4.058   2.715   1.483  0.1041  1.3350  0.0475
 7036SOL    HW232568   4.143   2.807   1.402  0.6035 -0.6636  0.4704
 7037SOL     OW32569   2.325   0.064   0.562 -0.4115 -0.2010 -0.4493
 7037SOL    HW132570   2.400   0.112   0.527  0.5135 -2.0904 -1.0469
 7037SOL    HW232571   2.344   0.020   0.644 -0.4028  0.6021 -0.0195
 7038SOL     OW32572   3.333   1.993  12.641  0.1156 -0.1160 -0.2527
 7038SOL    HW132573   3.282   2.060  12.595  0.4331  0.8369  0.7606
 7038SOL    HW232574   3.376   1.951  12.567  0.0218 -0.6924  0.0251
 7039SOL     OW32575   3.234   4.646   3.087 -0.2173 -1.0555  0.2157
 7039SOL    HW132576   3.309   4.677   3.036  0.0200 -0.2968  1.0399
 7039SOL    HW232577   3.223   4.706   3.160 -2.8625 -3.0383  1.4807
 7040SOL     OW32578   4.061   3.077   1.708 -0.5035 -0.5531 -0.6068
 7040SOL    HW132579   4.120   3.124   1.649 -2.4238  0.0791 -2.0680
 7040SOL    HW232580   4.039   3.138   1.778  3.1196 -1.2653  1.1146
 7041SOL     OW32581   4.440   1.433   2.361  0.0336 -0.0915  0.6483
 7041SOL    HW132582   4.532   1.454   2.378 -0.1075  0.1362  1.1294
 7041SOL    HW232583   4.453   1.365   2.296 -2.6035  0.2174 -0.2198
 7042SOL     OW32584   2.796   3.267  15.915  0.7608 -0.6765  0.6883
 7042SOL    HW132585   2.888   3.279  15.892  0.1250  0.3147 -1.3961
 7042SOL    HW232586   2.758   3.352  15.891 -0.0665 -0.1980  3.7681
 7043SOL     OW32587   2.963   1.547   3.507 -0.3594  0.3642  0.2657
 7043SOL    HW132588   3.000   1.459   3.518 -0.3921  0.2571 -0.4564
 7043SOL    HW232589   3.038   1.599   3.534 -1.2855  1.0553  1.5151
 7044SOL     OW32590   2.070   4.482   6.718 -0.5463 -0.1503 -0.0925
 7044SOL    HW132591   2.091   4.575   6.726 -0.2673 -0.1977 -0.2959
 7044SOL    HW232592   2.056   4.471   6.624 -1.8790 -0.1255  0.1105
 7045SOL     OW32593   3.849   1.672   1.674 -0.2201  0.8176 -0.5010
 7045SOL    HW132594   3.917   1.682   1.607  2.6746 -2.2792  1.9738
 7045SOL    HW232595   3.836   1.577   1.675  0.1070  0.7838  0.3118
 7046SOL     OW32596   1.414   4.439   7.271 -0.0909 -1.0504 -0.4770
 7046SOL    HW132597   1.413   4.511   7.334 -0.4211 -0.8324 -0.7334
 7046SOL    HW232598   1.432   4.494   7.195 -0.6864 -1.5193 -0.9585
 7047SOL     OW32599   0.366   0.434   1.732 -0.4026 -0.3024  0.4601
 7047SOL    HW132600   0.342   0.495   1.802 -0.0306  0.7358 -0.3201
 7047SOL    HW232601   0.391   0.357   1.782 -0.6223 -0.1967  0.7319
 7048SOL     OW32602   0.954   0.649   6.027 -0.2210 -0.1823 -0.2760
 7048SOL    HW132603   0.949   0.669   5.934  0.3673 -0.6238 -0.4012
 7048SOL    HW232604   0.965   0.738   6.061 -0.8322 -0.2109  0.0021
 7049SOL     OW32605   0.366   4.359   5.326 -0.4217  0.1501 -0.1565
 7049SOL    HW132606   0.445   4.402   5.294  0.0137 -1.0063 -0.6383
 7049SOL    HW232607   0.333   4.326   5.243 -2.2425  1.3370  0.0800
 7050SOL     OW32608   0.544   4.531   9.752 -0.1504  0.6330 -0.2084
 7050SOL    HW132609   0.552   4.626   9.743 -0.2447  0.5341 -1.3130
 7050SOL    HW232610   0.603   4.523   9.827 -0.9049 -1.7227  0.1407
 7051SOL     OW32611   0.340   1.185   4.086 -0.2545 -0.5069 -0.0906
 7051SOL    HW132612   0.397   1.127   4.137 -1.7565  0.4893  2.7158
 7051SOL    HW232613   0.278   1.209   4.154 -0.0382 -0.9740  0.2717
 7052SOL     OW32614   4.470   1.234   2.162  0.3147 -0.3930  0.8364
 7052SOL    HW132615   4.511   1.154   2.193  1.1810 -0.7143 -1.1191
 7052SOL    HW232616   4.529   1.254   2.089  1.0778  0.7354  1.7510
 7053SOL     OW32617   3.805   0.197   4.529 -0.1688 -0.2824 -0.2596
 7053SOL    HW132618   3.883   0.166   4.575 -0.3626 -0.8632 -0.3322
 7053SOL    HW232619   3.829   0.172   4.440  1.5286 -2.2352  0.7534
 7054SOL     OW32620   0.639   2.623   1.818 -0.5931  0.7167  0.7759
 7054SOL    HW132621   0.601   2.711   1.818 -1.1595  0.4687  0.5464
 7054SOL    HW232622   0.731   2.644   1.803 -1.2934  2.1886 -1.5688
 7055SOL     OW32623   2.091   2.717  14.288 -0.0160 -0.5256 -0.2965
 7055SOL    HW132624   2.094   2.681  14.199  1.8625  0.1301 -0.4999
 7055SOL    HW232625   2.000   2.707  14.314 -0.1665  2.5080  0.3526
 7056SOL     OW32626   2.899   2.766   7.574 -0.7114 -0.1018 -0.0613
 7056SOL    HW132627   2.878   2.769   7.667  2.5560  1.7311  0.6093
 7056SOL    HW232628   2.905   2.861   7.571 -0.0713 -0.1703 -0.8912
 7057SOL     OW32629   0.204   0.963  11.467 -0.1865 -0.2356  0.2878
 7057SOL    HW132630   0.192   0.880  11.422 -2.0731  0.2652 -0.1424
 7057SOL    HW232631   0.299   0.968  11.477 -0.2124  0.4388  0.2232
 7058SOL     OW32632   0.107   2.715  12.605  0.1786  0.2394  0.5066
 7058SOL    HW132633   0.063   2.741  12.687 -1.4609 -0.0853 -0.2672
 7058SOL    HW232634   0.172   2.783  12.621 -0.4604  1.8081 -3.8930
 7059SOL     OW32635   1.572   3.843   4.030  0.4050 -0.1269  0.4998
 7059SOL    HW132636   1.644   3.883   3.981 -0.8761  0.4794 -0.8855
 7059SOL    HW232637   1.617   3.761   4.053 -1.8559 -1.2649  0.8816
 7060SOL     OW32638   0.890   2.478  10.101  0.3842 -0.3589  0.2211
 7060SOL    HW132639   0.880   2.522  10.186 -0.4438 -3.2733  1.6357
 7060SOL    HW232640   0.950   2.412  10.135 -1.3749 -1.7409  0.6095
 7061SOL     OW32641   1.210   3.439  14.250  0.3981  0.7038 -0.2730
 7061SOL    HW132642   1.218   3.534  14.244  0.1628  0.5651 -2.5389
 7061SOL    HW232643   1.127   3.424  14.205 -0.4166  0.9875  1.1205
 7062SOL     OW32644   4.622   4.616   5.469 -0.2006  0.1532 -0.1463
 7062SOL    HW132645   4.680   4.651   5.402 -0.3440  0.2855 -0.2019
 7062SOL    HW232646   4.587   4.534   5.435  0.2643  0.8619 -2.3519
 7063SOL     OW32647   1.126   3.787   1.620  0.4165  0.1097 -0.0838
 7063SOL    HW132648   1.062   3.808   1.688 -0.6091 -0.5335 -0.8608
 7063SOL    HW232649   1.165   3.872   1.599 -0.0034  0.1916 -0.5289
 7064SOL     OW32650   2.463   4.424   9.472  0.5398  0.1224  0.3205
 7064SOL    HW132651   2.470   4.331   9.491  2.0791  0.2202  0.2109
 7064SOL    HW232652   2.370   4.447   9.467  0.1463 -1.4210  0.8513
 7065SOL     OW32653   3.560   0.064  17.549 -0.1099 -0.0824 -0.5513
 7065SOL    HW132654   3.560   4.700  17.597  4.4608 -0.2237 -0.7902
 7065SOL    HW232655   3.527   0.133  17.607  0.9000  1.5368 -1.9245
 7066SOL     OW32656   0.424   0.029   8.417 -0.7417  0.0994  0.3583
 7066SOL    HW132657   0.446   0.122   8.418  2.2212 -0.5773 -0.4489
 7066SOL    HW232658   0.492   4.717   8.357 -1.9053  1.1351 -1.4828
 7067SOL     OW32659   1.460   2.462   4.473 -0.3829 -0.0669  0.4981
 7067SOL    HW132660   1.528   2.495   4.533  0.6375 -1.4309  0.0987
 7067SOL    HW232661   1.509   2.388   4.436  2.7928  1.8756  0.7275
 7068SOL     OW32662   4.104   3.335   9.118  0.1101 -0.5203 -0.2293
 7068SOL    HW132663   4.027   3.313   9.067 -0.3969 -0.9560  0.7224
 7068SOL    HW232664   4.091   3.286   9.199 -2.2374  0.0232 -0.2721
 7069SOL     OW32665   3.791   1.308  12.861 -0.0705 -0.2148  0.0049
 7069SOL    HW132666   3.805   1.393  12.903  0.2962  1.1666 -2.9147
 7069SOL    HW232667   3.877   1.298  12.821  0.7835  0.0816  1.7801
 7070SOL     OW32668   1.676   1.262   7.076 -0.8044 -0.2772  0.1348
 7070SOL    HW132669   1.641   1.308   7.000  0.2676 -0.6604 -0.5926
 7070SOL    HW232670   1.626   1.290   7.153 -0.8627 -2.0261  0.7156
 7071SOL     OW32671   1.749   3.634   4.075  0.0267  0.3647 -0.6052
 7071SOL    HW132672   1.831   3.672   4.105  1.0045 -2.9358  0.9167
 7071SOL    HW232673   1.790   3.587   4.002 -0.3639 -0.5907 -0.2144
 7072SOL     OW32674   2.874   0.181  12.193 -0.1739 -0.7093  0.6029
 7072SOL    HW132675   2.823   0.258  12.171 -0.2978 -1.0763 -0.3838
 7072SOL    HW232676   2.935   0.216  12.258 -1.2376  0.8921  0.7072
 7073SOL     OW32677   0.768   1.475   6.230 -0.5723 -0.2565  0.5679
 7073SOL    HW132678   0.722   1.525   6.297 -1.5807  0.6391 -0.7718
 7073SOL    HW232679   0.857   1.487   6.264  0.3685 -0.0037 -1.9511
 7074SOL     OW32680   1.692   3.173   9.333  0.5501  0.2947 -0.5706
 7074SOL    HW132681   1.759   3.210   9.275  2.0207 -3.8624 -1.5690
 7074SOL    HW232682   1.701   3.229   9.410 -0.2946  1.3157 -1.2134
 7075SOL     OW32683   4.234   1.377   6.283 -0.6746 -0.7147 -0.4144
 7075SOL    HW132684   4.287   1.371   6.204  0.7002 -0.7526  0.5041
 7075SOL    HW232685   4.161   1.315   6.278 -0.0800 -1.3853 -0.8863
 7076SOL     OW32686   1.290   3.978   5.926 -0.0091  0.2371  0.5624
 7076SOL    HW132687   1.382   3.980   5.899  1.0152 -0.0086  3.9595
 7076SOL    HW232688   1.258   3.973   5.836 -0.2623 -1.6510  0.7593
 7077SOL     OW32689   2.455   0.833   3.852  0.3181 -0.1692 -0.1968
 7077SOL    HW132690   2.546   0.845   3.823  0.9131  0.6309  2.0753
 7077SOL    HW232691   2.460   0.874   3.938 -0.7419 -0.2414 -0.0978
 7078SOL     OW32692   4.100   1.459  13.050  0.2038 -0.1452  0.4911
 7078SOL    HW132693   4.064   1.456  13.139  3.5996 -2.7685  1.7727
 7078SOL    HW232694   4.186   1.489  13.081  1.2319 -1.0764 -1.5209
 7079SOL     OW32695   3.923   4.522   0.855 -0.1106 -0.1649  0.1794
 7079SOL    HW132696   3.964   4.557   0.776 -0.3635 -1.1899 -0.3967
 7079SOL    HW232697   3.880   4.442   0.824  0.1915 -1.5188  3.2654
 7080SOL     OW32698   4.692   1.377   7.333  0.0338  0.1547  0.4199
 7080SOL    HW132699   4.659   1.295   7.371 -1.4255 -0.6742 -2.6840
 7080SOL    HW232700   4.649   1.375   7.248 -0.8801 -0.8168  0.9041
 7081SOL     OW32701   1.992   2.484   4.693 -0.0092  0.0251 -0.6537
 7081SOL    HW132702   1.965   2.569   4.659 -1.2068 -0.4153 -0.8206
 7081SOL    HW232703   1.957   2.429   4.622 -0.7227  0.0048 -0.2836
 7082SOL     OW32704   2.860   3.485   4.772  0.1348  0.2595  0.1021
 7082SOL    HW132705   2.906   3.569   4.770  2.8159 -1.2025 -0.1783
 7082SOL    HW232706   2.919   3.433   4.718 -1.3418  0.1785 -1.4153
 7083SOL     OW32707   0.358   4.269   6.391  0.3975  0.3908  0.0646
 7083SOL    HW132708   0.450   4.277   6.413  0.3444 -0.2049  0.5238
 7083SOL    HW232709   0.362   4.218   6.311  0.0847  1.3201 -0.5440
 7084SOL     OW32710   0.201   1.793   2.693  0.3724  0.3761  0.3559
 7084SOL    HW132711   0.259   1.760   2.625 -0.2746  0.4588 -0.2393
 7084SOL    HW232712   0.252   1.870   2.718  3.3627 -1.4347 -0.1024
 7085SOL     OW32713   3.177   2.902   2.933  0.2884 -0.2493  0.1301
 7085SOL    HW132714   3.156   2.952   3.012  0.9218 -1.3057  0.9628
 7085SOL    HW232715   3.169   2.812   2.965 -0.0970  0.3008  1.5945
 7086SOL     OW32716   2.366   4.602  15.597 -0.5533 -0.0240 -0.0014
 7086SOL    HW132717   2.411   4.545  15.659  0.8561  1.5595  0.4256
 7086SOL    HW232718   2.393   4.565  15.513  1.8284 -0.2227  0.8504
 7087SOL     OW32719   0.848   2.680   3.662 -0.0394  0.0188 -0.1245
 7087SOL    HW132720   0.902   2.735   3.719 -0.7300 -1.7569  2.2736
 7087SOL    HW232721   0.791   2.643   3.730 -0.7894  0.3597 -0.5709
 7088SOL     OW32722   1.975   0.031   4.343 -0.1462 -0.7182  0.1121
 7088SOL    HW132723   2.060   0.027   4.298 -0.0206 -0.9234  0.3660
 7088SOL    HW232724   1.919   4.691   4.293  0.5029  0.7245 -2.3322
 7089SOL     OW32725   4.500   2.321   4.594  0.0577 -0.4107  0.0247
 7089SOL    HW132726   4.422   2.268   4.610 -0.0538 -0.1233  0.4184
 7089SOL    HW232727   4.508   2.362   4.680  2.4280 -1.2312  0.2229
 7090SOL     OW32728   2.044   2.653   4.052  0.6885  0.6882  0.3904
 7090SOL    HW132729   2.035   2.558   4.051  2.1296  0.5545 -0.2362
 7090SOL    HW232730   2.030   2.669   3.958  0.0812 -0.1516  0.3440
 7091SOL     OW32731   1.806   3.017  14.386 -0.2809  0.6769  0.2111
 7091SOL    HW132732   1.734   3.079  14.399  2.9496  4.7239 -0.9603
 7091SOL    HW232733   1.852   2.996  14.468 -0.2347 -2.8447 -0.7242
 7092SOL     OW32734   2.336   0.551   2.432 -0.6985 -0.6164  0.2581
 7092SOL    HW132735   2.255   0.561   2.383 -0.1634  0.3369 -0.4437
 7092SOL    HW232736   2.330   0.460   2.461  0.0397 -1.1766 -1.3007
 7093SOL     OW32737   2.849   3.688   9.398  0.2308 -0.2935  0.0994
 7093SOL    HW132738   2.860   3.705   9.491 -0.3984 -0.0709  0.1306
 7093SOL    HW232739   2.783   3.752   9.372  0.4881  0.3840  1.1685
 7094SOL     OW32740   0.893   2.747   8.429  0.7141  0.1150 -0.2050
 7094SOL    HW132741   0.818   2.807   8.426  1.3434  0.9097 -0.1255
 7094SOL    HW232742   0.931   2.760   8.342  0.4666 -2.9669 -0.7580
 7095SOL     OW32743   0.809   3.370   2.322 -0.3989  0.1577  0.0723
 7095SOL    HW132744   0.851   3.403   2.243 -1.4316  1.1266 -0.0728
 7095SOL    HW232745   0.715   3.360   2.305 -0.4707 -0.0704  0.6244
 7096SOL     OW32746   2.534   4.017   1.378  0.4807 -0.2975  0.3139
 7096SOL    HW132747   2.602   3.998   1.443  0.7480 -0.9850 -0.1666
 7096SOL    HW232748   2.566   3.987   1.293 -0.3912  0.1221 -0.1631
 7097SOL     OW32749   4.313   3.636   2.054  0.5529  0.0553  0.1993
 7097SOL    HW132750   4.294   3.561   2.111  1.0722  0.9697  1.5725
 7097SOL    HW232751   4.272   3.700   2.112  0.0210 -0.9376  0.9187
 7098SOL     OW32752   1.398   1.730  16.789  0.0040 -0.0070  0.3211
 7098SOL    HW132753   1.446   1.702  16.711  1.1017 -0.1124  1.0452
 7098SOL    HW232754   1.313   1.757  16.753  0.5352  3.2470  1.4650
 7099SOL     OW32755   3.192   3.845   2.653 -0.3938 -0.1677 -0.4257
 7099SOL    HW132756   3.283   3.815   2.651 -0.0343  0.7768  1.6205
 7099SOL    HW232757   3.171   3.762   2.695 -2.1978 -0.1939 -1.3985
 7100SOL     OW32758   1.825   0.052   9.140  0.1559 -0.3672 -0.6283
 7100SOL    HW132759   1.866   0.035   9.225 -1.5355 -0.3146  0.1964
 7100SOL    HW232760   1.758   4.703   9.141 -0.1997 -0.0172 -0.5962
 7101SOL     OW32761   1.963   3.810   3.550 -0.3732  0.0142  0.0760
 7101SOL    HW132762   2.055   3.820   3.575 -0.1593 -0.5781 -0.4750
 7101SOL    HW232763   1.954   3.881   3.486  2.4829  1.1858  0.9499
 7102SOL     OW32764   0.662   4.462  11.229  0.1818  0.6030 -0.2370
 7102SOL    HW132765   0.594   4.526  11.206 -0.4966 -0.1772 -0.4305
 7102SOL    HW232766   0.702   4.456  11.142  2.6294 -1.1775  1.0196
 7103SOL     OW32767   4.124   4.218   2.507  0.0681  0.0497  0.3305
 7103SOL    HW132768   4.093   4.169   2.431 -0.4515  1.2483 -0.2271
 7103SOL    HW232769   4.037   4.223   2.546  0.6268  0.1480  1.5796
 7104SOL     OW32770   2.652   0.469   4.297  0.2571  0.2983 -0.4898
 7104SOL    HW132771   2.603   0.389   4.282 -1.4790  1.0685  1.1065
 7104SOL    HW232772   2.592   0.537   4.328 -0.6090 -0.5003 -0.4424
 7105SOL     OW32773   2.401   3.201   3.960 -0.6689  0.5935  0.6698
 7105SOL    HW132774   2.439   3.113   3.960 -1.4455  0.2471  1.2665
 7105SOL    HW232775   2.417   3.214   4.053 -0.3868 -0.3985  0.7635
 7106SOL     OW32776   2.933   0.573  13.081  0.1986 -0.1348 -0.6400
 7106SOL    HW132777   2.922   0.551  13.174  2.2101 -3.0556 -1.0773
 7106SOL    HW232778   2.937   0.668  13.073  2.3109 -0.0432  1.1285
 7107SOL     OW32779   1.594   3.513   3.070 -0.6986  0.4901 -0.2578
 7107SOL    HW132780   1.537   3.461   3.014 -0.3334 -2.7141  2.3820
 7107SOL    HW232781   1.529   3.561   3.121 -0.1386  1.3296 -0.3187
 7108SOL     OW32782   0.786   0.158   5.368  0.4843 -0.5255  0.0455
 7108SOL    HW132783   0.850   0.105   5.321  1.7114  0.2015  0.8920
 7108SOL    HW232784   0.780   0.110   5.451  0.3082  0.5605  0.6634
 7109SOL     OW32785   3.624   3.890   2.225 -0.4293 -0.3830  0.2601
 7109SOL    HW132786   3.548   3.891   2.284 -0.1720 -0.8080  0.5982
 7109SOL    HW232787   3.701   3.867   2.276 -0.6921  0.0004  0.8426
 7110SOL     OW32788   3.268   3.353   8.826 -0.1691 -0.3015 -0.1218
 7110SOL    HW132789   3.234   3.423   8.882 -0.0933 -1.0311  0.8507
 7110SOL    HW232790   3.205   3.340   8.755 -1.6766  0.3687  1.0966
 7111SOL     OW32791   2.973   1.255   7.288 -0.0391  0.2963  0.4178
 7111SOL    HW132792   2.887   1.289   7.311 -0.5490 -0.7951  0.1155
 7111SOL    HW232793   2.951   1.163   7.282  3.0700 -0.4478  0.2106
 7112SOL     OW32794   2.715   3.114   6.653  0.1689 -0.4391  0.2422
 7112SOL    HW132795   2.698   3.051   6.582 -1.6726 -1.3532  1.5055
 7112SOL    HW232796   2.651   3.184   6.649 -0.0413 -0.5995  0.8636
 7113SOL     OW32797   3.565   2.024   8.969  0.3845  0.8793 -0.5648
 7113SOL    HW132798   3.543   2.027   8.876 -1.1775  1.2175 -0.1848
 7113SOL    HW232799   3.621   2.100   8.984  0.8473  0.3559  0.3561
 7114SOL     OW32800   1.028   2.937  11.980 -0.5347  0.3601  0.1055
 7114SOL    HW132801   1.076   3.019  11.965  1.2454 -0.4073  1.6099
 7114SOL    HW232802   1.098   2.898  12.032 -1.1103  0.6277  1.0640
 7115SOL     OW32803   1.059   2.339   8.909  0.1699 -0.3705 -0.1465
 7115SOL    HW132804   1.030   2.250   8.891 -0.9921 -0.0459  0.1013
 7115SOL    HW232805   0.995   2.367   8.974  0.2236  0.6496 -0.5285
 7116SOL     OW32806   1.654   4.505   2.245 -0.0019 -0.2419  0.5370
 7116SOL    HW132807   1.693   4.538   2.326  1.7298 -0.0811 -0.3636
 7116SOL    HW232808   1.669   4.571   2.177  3.8852 -1.0772  0.5590
 7117SOL     OW32809   4.440   1.696   7.333 -0.6701  0.2140  0.1324
 7117SOL    HW132810   4.414   1.771   7.280 -1.3804  0.1070  0.3405
 7117SOL    HW232811   4.357   1.649   7.331 -1.0743  1.0484 -2.3346
 7118SOL     OW32812   4.341   3.087   1.167 -0.2156 -0.5611  0.0405
 7118SOL    HW132813   4.374   3.133   1.244  0.1429 -1.8668  0.6644
 7118SOL    HW232814   4.416   3.049   1.120  0.4758  1.6019 -0.6193
 7119SOL     OW32815   1.640   2.825  10.686  0.4131 -0.5675 -0.1892
 7119SOL    HW132816   1.630   2.910  10.641  2.3433 -1.3191 -2.0408
 7119SOL    HW232817   1.715   2.839  10.743  1.7446 -0.2395 -2.0419
 7120SOL     OW32818   3.801   3.958   3.747 -0.1046 -0.1330  0.2500
 7120SOL    HW132819   3.885   3.917   3.724  0.0421  0.4834 -0.3167
 7120SOL    HW232820   3.788   4.015   3.671 -0.7984  0.5662  0.8863
 7121SOL     OW32821   4.437   0.139  10.224  0.1774  0.3343 -0.3628
 7121SOL    HW132822   4.428   0.199  10.298  0.0532 -1.0750  0.7519
 7121SOL    HW232823   4.489   0.068  10.261 -1.4019 -0.1963  0.8170
 7122SOL     OW32824   2.311   3.188   7.053 -0.1946 -0.1956  0.1857
 7122SOL    HW132825   2.282   3.163   6.965  1.2380  0.9851 -0.6182
 7122SOL    HW232826   2.293   3.104   7.095 -1.8572 -0.6659 -1.4755
 7123SOL     OW32827   0.443   0.991   0.007  0.7228 -0.3452 -0.1194
 7123SOL    HW132828   0.421   0.962  17.599  1.5587  0.3379 -0.5497
 7123SOL    HW232829   0.465   0.906   0.044  1.3622  1.3317  3.3477
 7124SOL     OW32830   2.689   0.537   5.955  0.2557 -0.6626  0.3800
 7124SOL    HW132831   2.709   0.552   5.863 -3.0742  2.2523  0.1609
 7124SOL    HW232832   2.604   0.581   5.956  0.6353  0.0673  0.4725
 7125SOL     OW32833   0.697   2.542   4.283  0.3394 -0.4642 -0.1090
 7125SOL    HW132834   0.609   2.523   4.252  0.5649 -0.5039 -0.7135
 7125SOL    HW232835   0.718   2.621   4.234 -0.4781  0.1602  0.5408
 7126SOL     OW32836   0.543   0.967   6.332 -0.2595 -0.6613  0.1286
 7126SOL    HW132837   0.452   0.960   6.359 -0.3350  3.4634  0.9491
 7126SOL    HW232838   0.568   0.874   6.335  1.2712 -0.2438  0.2832
 7127SOL     OW32839   2.672   0.850   3.460 -0.2252 -0.0646 -0.4006
 7127SOL    HW132840   2.649   0.909   3.388  0.3870  0.6362 -0.0275
 7127SOL    HW232841   2.690   0.766   3.418 -2.7140  0.2467 -2.0820
 7128SOL     OW32842   1.377   1.064  11.838  0.0078 -0.0425 -0.1235
 7128SOL    HW132843   1.381   0.976  11.875 -1.6419  0.3856  1.0519
 7128SOL    HW232844   1.470   1.077  11.820 -0.3609  2.9803  0.1763
 7129SOL     OW32845   4.081   2.222   2.790  0.7587  0.1873  0.0008
 7129SOL    HW132846   4.099   2.280   2.864 -1.2263 -0.0675  0.6968
 7129SOL    HW232847   4.097   2.136   2.829 -2.2979 -0.9167 -1.1367
 7130SOL     OW32848   0.577   3.554   5.766 -0.6303 -0.3590 -0.2326
 7130SOL    HW132849   0.538   3.588   5.847 -0.8025 -0.2351 -0.3700
 7130SOL    HW232850   0.533   3.617   5.710 -2.6504 -0.8037  0.8595
 7131SOL     OW32851   3.212   1.494   2.529 -0.4488 -0.4494 -0.2138
 7131SOL    HW132852   3.143   1.508   2.594 -0.3903 -0.3041 -0.1835
 7131SOL    HW232853   3.198   1.560   2.461 -0.0272 -0.1878 -0.0500
 7132SOL     OW32854   1.459   4.372   5.404  0.7846 -0.4851  0.1035
 7132SOL    HW132855   1.480   4.331   5.320 -0.2557 -0.5718 -0.1206
 7132SOL    HW232856   1.539   4.422   5.418 -1.0144  1.8523  2.1152
 7133SOL     OW32857   0.754   2.948   2.007 -0.2131 -0.1165 -0.1195
 7133SOL    HW132858   0.808   2.875   2.036 -2.1613 -1.2628  0.6333
 7133SOL    HW232859   0.822   2.993   1.957 -0.9294 -0.2163 -1.1868
 7134SOL     OW32860   2.285   3.666   6.131 -0.2470 -0.1648 -0.1485
 7134SOL    HW132861   2.206   3.678   6.183  0.6079 -0.1889  1.1627
 7134SOL    HW232862   2.246   3.611   6.063  0.4384  0.3305 -0.9399
 7135SOL     OW32863   2.716   1.145   6.535  0.6423  0.3995 -0.4934
 7135SOL    HW132864   2.655   1.109   6.471 -0.0942 -0.1068  0.5099
 7135SOL    HW232865   2.735   1.228   6.491  0.7137 -0.0820 -1.3784
 7136SOL     OW32866   4.076   0.098   4.007 -0.0224 -0.5012 -0.0945
 7136SOL    HW132867   4.138   0.117   3.936 -1.1819  0.9977 -0.7003
 7136SOL    HW232868   4.138   0.061   4.069  0.0732  1.9159  1.2355
 7137SOL     OW32869   3.971   0.864   5.089  0.2036 -0.4445  0.3177
 7137SOL    HW132870   3.997   0.849   4.998  1.2759  0.8306  0.4047
 7137SOL    HW232871   4.038   0.814   5.135 -0.8729 -1.1073  1.1558
 7138SOL     OW32872   1.875   4.490   2.003 -0.1079 -0.7395 -0.4467
 7138SOL    HW132873   1.889   4.494   1.908  0.1512  0.4659 -0.3585
 7138SOL    HW232874   1.959   4.521   2.036 -0.9211 -0.4796  1.3913
 7139SOL     OW32875   2.824   2.995   3.959  0.0593  0.2529 -0.6699
 7139SOL    HW132876   2.884   3.036   3.897  1.2218  4.2486  3.1047
 7139SOL    HW232877   2.874   2.998   4.041  0.2537 -0.8327 -0.7500
 7140SOL     OW32878   1.761   2.770   8.172 -0.2256  0.3805  0.4549
 7140SOL    HW132879   1.680   2.819   8.160  0.1523  1.1446  1.0210
 7140SOL    HW232880   1.776   2.746   8.080 -1.2815  0.4644  0.2631
 7141SOL     OW32881   3.626   2.578   6.346  0.2741 -0.0547 -0.5302
 7141SOL    HW132882   3.675   2.550   6.423 -0.8320  0.2775  0.2821
 7141SOL    HW232883   3.672   2.661   6.332  0.3839 -0.1501 -0.7406
 7142SOL     OW32884   0.559   4.514   0.391 -0.6526  0.3995 -0.1591
 7142SOL    HW132885   0.634   4.501   0.449 -1.0074 -0.9872 -0.0121
 7142SOL    HW232886   0.482   4.478   0.435 -1.0323 -1.6889 -2.4956
 7143SOL     OW32887   0.262   0.038   0.226 -0.0592  0.0871 -0.1769
 7143SOL    HW132888   0.275   4.663   0.229  0.0536  0.1942  2.6492
 7143SOL    HW232889   0.294   0.055   0.314  3.0120 -1.1183 -1.0634
 7144SOL     OW32890   2.505   1.143   4.600  0.7144  0.1387 -0.0416
 7144SOL    HW132891   2.593   1.174   4.575  0.9186 -0.9648 -0.6991
 7144SOL    HW232892   2.451   1.219   4.622 -0.3303 -0.8695  0.8319
 7145SOL     OW32893   1.782   3.820   7.569 -0.4371  0.0452 -0.1003
 7145SOL    HW132894   1.753   3.750   7.512 -1.3630  0.4230 -0.0912
 7145SOL    HW232895   1.700   3.865   7.587 -0.1741  0.0833  1.0396
 7146SOL     OW32896   2.496   4.406  15.749 -0.0959  0.0878 -0.8135
 7146SOL    HW132897   2.559   4.465  15.790 -0.6536 -1.3944  2.2325
 7146SOL    HW232898   2.561   4.343  15.718  1.1410  0.6361  0.6532
 7147SOL     OW32899   1.176   3.330   7.823  0.8045  0.0931 -0.0119
 7147SOL    HW132900   1.239   3.292   7.762  0.7554 -1.2231  0.7683
 7147SOL    HW232901   1.219   3.410   7.853  1.0077  0.1810 -0.5396
 7148SOL     OW32902   0.222   2.754  12.052 -1.1758  0.0218 -0.4253
 7148SOL    HW132903   0.228   2.661  12.076  0.2511 -0.5768 -3.0310
 7148SOL    HW232904   0.128   2.769  12.049 -0.8597  1.8396 -0.8843
 7149SOL     OW32905   0.734   1.739  11.635  0.1986 -0.2107  0.6131
 7149SOL    HW132906   0.654   1.713  11.590  0.3729 -1.5633  1.0753
 7149SOL    HW232907   0.745   1.831  11.613 -2.7044 -0.1593 -0.5735
 7150SOL     OW32908   4.284   0.671   7.762 -0.0431 -0.5770 -0.1472
 7150SOL    HW132909   4.342   0.642   7.833 -1.2136 -2.6910 -0.0264
 7150SOL    HW232910   4.324   0.638   7.682  0.9544  0.8968 -0.2447
 7151SOL     OW32911   1.687   2.009   6.804 -0.7278  0.3499 -0.4983
 7151SOL    HW132912   1.651   1.976   6.886 -0.2334  2.1308  0.4351
 7151SOL    HW232913   1.645   1.944   6.747 -2.7483 -1.0183  2.5710
 7152SOL     OW32914   1.642   2.897   7.195 -0.0274 -0.4358  0.5135
 7152SOL    HW132915   1.710   2.848   7.148 -0.7113  0.2920 -1.2366
 7152SOL    HW232916   1.564   2.864   7.149 -0.5415  3.2542 -1.2551
 7153SOL     OW32917   1.602   3.015   2.632 -0.4897 -0.0428 -0.1822
 7153SOL    HW132918   1.595   3.111   2.634 -0.0956  0.0144 -1.5193
 7153SOL    HW232919   1.509   2.993   2.634 -0.4275 -0.1818  1.2773
 7154SOL     OW32920   4.088   3.261   7.227 -0.0855  0.6512 -0.3075
 7154SOL    HW132921   4.063   3.175   7.261 -0.3929  0.2598 -1.5109
 7154SOL    HW232922   4.066   3.310   7.305 -0.1024 -0.5922  0.4685
 7155SOL     OW32923   1.924   2.990  16.642 -0.3829 -1.0278  0.0766
 7155SOL    HW132924   1.903   3.071  16.596 -0.6047 -0.8972  0.4064
 7155SOL    HW232925   2.020   2.985  16.640 -0.2319  1.6469 -0.0325
 7156SOL     OW32926   2.981   2.328  14.495 -0.0239 -0.1908 -0.0518
 7156SOL    HW132927   3.033   2.333  14.575 -0.2868  0.7942  0.0641
 7156SOL    HW232928   2.897   2.359  14.527 -0.3654  0.2427 -1.3822
 7157SOL     OW32929   3.097   3.800   6.711 -0.3075 -0.2426  0.3985
 7157SOL    HW132930   3.177   3.788   6.764  0.2503  0.6049 -0.2589
 7157SOL    HW232931   3.051   3.716   6.722 -2.7628  0.7133 -2.8293
 7158SOL     OW32932   1.645   1.291   5.205 -0.3560  0.0153 -0.1721
 7158SOL    HW132933   1.606   1.308   5.291  1.0984 -1.7117  0.8373
 7158SOL    HW232934   1.696   1.211   5.217  0.3512  0.4795 -0.0983
 7159SOL     OW32935   2.007   3.222   2.321 -0.2486 -0.1919 -0.2307
 7159SOL    HW132936   1.996   3.268   2.238  0.4096  2.0530  0.9295
 7159SOL    HW232937   1.949   3.146   2.322  0.4750 -0.7429  0.0279
 7160SOL     OW32938   3.537   0.716   6.768 -0.2575 -0.2690 -0.2979
 7160SOL    HW132939   3.532   0.683   6.858 -0.9416 -0.4186 -0.3935
 7160SOL    HW232940   3.487   0.797   6.779  1.8339  0.7497  1.8420
 7161SOL     OW32941   0.553   0.776   4.515  0.1080  0.1020  0.2338
 7161SOL    HW132942   0.638   0.805   4.484  0.8338 -1.9612  0.2796
 7161SOL    HW232943   0.536   0.705   4.452 -0.9740  0.5423  0.0221
 7162SOL     OW32944   1.668   1.199  10.809  0.2279  0.6511 -0.8565
 7162SOL    HW132945   1.614   1.154  10.745 -0.9855 -1.3561  1.5606
 7162SOL    HW232946   1.618   1.189  10.890  1.3945  2.9902  0.1627
 7163SOL     OW32947   1.385   1.909   9.699 -0.0499 -0.2601 -0.1760
 7163SOL    HW132948   1.375   1.814   9.693 -0.2457 -0.3429  1.3973
 7163SOL    HW232949   1.327   1.923   9.775 -2.5372 -0.6957 -1.9862
 7164SOL     OW32950   3.440   0.397   5.042 -0.6447  0.1740  0.2343
 7164SOL    HW132951   3.473   0.457   5.109  0.7262 -2.0834  1.5602
 7164SOL    HW232952   3.353   0.391   5.083 -1.1517 -0.1954 -0.8698
 7165SOL     OW32953   4.140   2.579  13.936  0.1251  0.4794  0.3520
 7165SOL    HW132954   4.178   2.667  13.942  0.6090  0.3172 -0.2326
 7165SOL    HW232955   4.192   2.546  13.862  2.4786  0.7472  1.8904
 7166SOL     OW32956   2.225   3.603   9.083  0.1913  0.0485 -0.0848
 7166SOL    HW132957   2.247   3.689   9.047  1.3446  0.2007  0.9662
 7166SOL    HW232958   2.297   3.543   9.062  2.2068  1.6009  2.4617
 7167SOL     OW32959   4.057   2.462  15.098 -0.0260 -0.7061  0.1340
 7167SOL    HW132960   4.117   2.528  15.132 -1.1550  0.2619  0.2060
 7167SOL    HW232961   4.074   2.389  15.157 -1.7527 -0.7427  0.5639
 7168SOL     OW32962   1.931   0.583   8.577 -0.4847  0.1990 -0.3415
 7168SOL    HW132963   1.917   0.501   8.623  0.7832 -1.7607 -3.4365
 7168SOL    HW232964   1.895   0.654   8.630  0.6748  1.3371 -1.0514
 7169SOL     OW32965   3.330   3.127   0.801 -0.6370 -0.0007  0.3298
 7169SOL    HW132966   3.234   3.136   0.799 -0.4499  2.0289 -0.3914
 7169SOL    HW232967   3.336   3.051   0.744 -0.6519  0.7826 -0.7251
 7170SOL     OW32968   1.280   0.220   2.871  0.5625  0.0156 -0.2704
 7170SOL    HW132969   1.270   0.229   2.966 -0.0687 -3.6316  0.0317
 7170SOL    HW232970   1.375   0.214   2.869  0.5004 -1.8153  1.5516
 7171SOL     OW32971   2.383   1.674   1.048  0.2969 -0.4114  0.2577
 7171SOL    HW132972   2.401   1.639   0.960 -2.0121  0.3378 -0.4849
 7171SOL    HW232973   2.433   1.755   1.044 -0.3351 -0.0558 -0.3609
 7172SOL     OW32974   3.186   2.992   8.385  0.3331 -0.3988  0.3581
 7172SOL    HW132975   3.198   2.898   8.402 -1.8277 -0.5673  0.9294
 7172SOL    HW232976   3.245   2.991   8.310  0.0317  1.9738  0.1067
 7173SOL     OW32977   2.836   4.556  17.310  0.6205  0.0633 -0.3932
 7173SOL    HW132978   2.838   4.599  17.224 -1.6564 -0.1040 -0.5150
 7173SOL    HW232979   2.928   4.570  17.336  0.6996 -1.5527  0.1568
 7174SOL     OW32980   0.147   4.287   3.850  0.2551 -0.4176  0.1545
 7174SOL    HW132981   0.075   4.325   3.800  0.5383 -0.4234 -0.2617
 7174SOL    HW232982   0.098   4.260   3.928  0.2303 -1.3300 -0.1836
 7175SOL     OW32983   2.179   4.252   5.811  0.5769  0.0422 -0.4390
 7175SOL    HW132984   2.188   4.216   5.723  0.7522 -0.5055 -0.1944
 7175SOL    HW232985   2.110   4.317   5.793  0.7526 -0.6639 -3.6504
 7176SOL     OW32986   0.274   4.688  17.100  0.5817  0.0575  0.1238
 7176SOL    HW132987   0.302   0.051  17.061  1.3534 -0.3411 -0.1567
 7176SOL    HW232988   0.354   4.635  17.093  2.0845  2.5484 -1.2709
 7177SOL     OW32989   4.562   3.281  14.859 -0.0343  0.4175 -0.7070
 7177SOL    HW132990   4.564   3.366  14.902  1.1996  1.2890 -2.4714
 7177SOL    HW232991   4.653   3.251  14.849 -0.7498 -1.7516 -0.7006
 7178SOL     OW32992   3.578   1.674  11.823  0.0430  0.1848  0.1170
 7178SOL    HW132993   3.535   1.591  11.799 -0.2505  0.8766 -1.7708
 7178SOL    HW232994   3.644   1.671  11.753  1.5429  1.5719  1.4934
 7179SOL     OW32995   2.664   4.523   8.569  0.0787 -0.4652 -0.0814
 7179SOL    HW132996   2.752   4.559   8.579 -0.4024  0.7117 -0.0491
 7179SOL    HW232997   2.613   4.593   8.609  0.2756  0.4398 -1.4218
 7180SOL     OW32998   4.359   0.847  16.499 -0.2914  0.3643  0.0579
 7180SOL    HW132999   4.361   0.821  16.407  1.9384 -0.1205  0.2508
 7180SOL    HW233000   4.273   0.809  16.518 -0.0616 -0.4621 -0.5403
 7181SOL     OW33001   0.350   1.945   4.193  0.0931 -0.2436 -0.1502
 7181SOL    HW133002   0.271   1.953   4.246  0.8066 -1.5625  1.0754
 7181SOL    HW233003   0.400   1.870   4.223  0.9353 -0.1436 -1.2922
 7182SOL     OW33004   2.365   3.569   7.767  0.0441 -0.2736  0.1731
 7182SOL    HW133005   2.353   3.602   7.857  0.7535 -0.0478  0.1858
 7182SOL    HW233006   2.295   3.609   7.715  0.0110 -0.4364  0.0931
 7183SOL     OW33007   1.650   0.327   3.619  0.2862 -0.2463  0.3437
 7183SOL    HW133008   1.685   0.333   3.530 -0.4763  0.9968  0.1366
 7183SOL    HW233009   1.592   0.251   3.611 -0.3273  0.4963 -2.1295
 7184SOL     OW33010   2.020   2.409   8.762 -0.6094 -0.5357  0.2366
 7184SOL    HW133011   2.069   2.474   8.813 -0.7590 -1.2784  1.3321
 7184SOL    HW233012   2.076   2.394   8.686 -0.0800  0.2962  0.4560
 7185SOL     OW33013   1.239   1.416  14.131  0.5581 -0.0148  0.4232
 7185SOL    HW133014   1.162   1.457  14.171  1.2288 -0.2153  1.9523
 7185SOL    HW233015   1.303   1.444  14.197  1.3166 -0.6114 -0.0710
 7186SOL     OW33016   1.773   2.446  16.076 -0.7324  0.1592  0.4780
 7186SOL    HW133017   1.726   2.431  15.994  1.7239  0.1680 -0.9240
 7186SOL    HW233018   1.803   2.536  16.086  0.2939 -0.5107  3.5107
 7187SOL     OW33019   3.229   2.648   7.471 -0.2789  0.9427  0.0727
 7187SOL    HW133020   3.277   2.637   7.553 -0.6847 -0.8476  0.0509
 7187SOL    HW233021   3.300   2.621   7.413  0.8509 -0.1247  1.9474
 7188SOL     OW33022   0.770   1.981  14.641  0.4596  0.2491  0.1709
 7188SOL    HW133023   0.773   2.063  14.591 -0.6416  0.5716  0.6245
 7188SOL    HW233024   0.860   1.948  14.640  0.4493  0.2406 -0.5409
 7189SOL     OW33025   1.267   1.411   7.560  0.4277 -0.8446 -0.0531
 7189SOL    HW133026   1.255   1.319   7.538  0.9366 -0.1189 -3.4754
 7189SOL    HW233027   1.321   1.419   7.639 -1.6642 -0.3136  1.3163
 7190SOL     OW33028   1.790   1.029   4.815  0.1429 -0.7693  0.1661
 7190SOL    HW133029   1.853   1.090   4.776  0.2365 -0.2639  1.1126
 7190SOL    HW233030   1.715   1.076   4.779  0.7855 -1.3501 -1.9263
 7191SOL     OW33031   2.151   2.485  12.113  0.1794  0.8180  0.1401
 7191SOL    HW133032   2.233   2.527  12.086  0.7946  0.0690  0.8643
 7191SOL    HW233033   2.145   2.436  12.031  1.0007 -0.2630  0.7247
 7192SOL     OW33034   2.812   1.969   5.731 -0.1222 -0.1059  0.0084
 7192SOL    HW133035   2.871   2.036   5.697 -0.4954 -0.3112 -1.0337
 7192SOL    HW233036   2.876   1.920   5.782  1.1087 -0.2163 -1.6760
 7193SOL     OW33037   3.928   3.482   4.500 -0.1890  0.3164  0.0647
 7193SOL    HW133038   3.911   3.510   4.410 -0.3869 -1.5945 -0.4922
 7193SOL    HW233039   3.853   3.513   4.550 -0.7797  0.1518 -0.7299
 7194SOL     OW33040   0.209   2.518   3.724 -0.5616 -0.4594 -0.2029
 7194SOL    HW133041   0.274   2.517   3.653  0.7527  2.2376  0.9797
 7194SOL    HW233042   0.232   2.589   3.783 -0.5437 -0.4084 -0.2704
 7195SOL     OW33043   1.342   1.149  10.854 -0.6884  0.0884  0.4753
 7195SOL    HW133044   1.262   1.112  10.891 -0.9012 -0.5384 -0.5972
 7195SOL    HW233045   1.377   1.183  10.936 -1.0678 -0.2878  0.7901
 7196SOL     OW33046   3.005   0.262  11.555  0.0752 -0.1044  0.0485
 7196SOL    HW133047   2.955   0.219  11.485 -0.8319  0.4090  0.3720
 7196SOL    HW233048   3.083   0.207  11.562  1.6927  2.1203 -0.4765
 7197SOL     OW33049   4.461   3.856   7.691 -0.0302  0.2239  0.5965
 7197SOL    HW133050   4.553   3.832   7.682 -1.0907 -2.6891 -2.5977
 7197SOL    HW233051   4.470   3.906   7.772  0.3924  1.4506 -0.2036
 7198SOL     OW33052   2.681   4.162   0.073  0.3444 -0.1405  0.2238
 7198SOL    HW133053   2.658   4.230   0.136 -1.7449  0.2297 -0.9569
 7198SOL    HW233054   2.766   4.198   0.049  0.3550  0.1950  0.7695
 7199SOL     OW33055   2.134   3.791  12.430  0.1285  0.2728  0.7351
 7199SOL    HW133056   2.126   3.706  12.475  0.3954  0.2700  0.7798
 7199SOL    HW233057   2.165   3.847  12.501  0.0236  1.5199 -0.2004
 7200SOL     OW33058   4.378   0.445  13.114  0.2781 -0.2821  0.3959
 7200SOL    HW133059   4.427   0.453  13.196  1.1930 -0.6092 -0.1278
 7200SOL    HW233060   4.345   0.356  13.126 -0.2154 -0.3357 -1.3479
 7201SOL     OW33061   2.208   1.661   8.921  0.1362  0.3477 -0.1580
 7201SOL    HW133062   2.157   1.597   8.970 -2.6079 -0.0838 -3.5947
 7201SOL    HW233063   2.160   1.742   8.936  1.9192  1.4664 -0.4947
 7202SOL     OW33064   3.721   3.460   8.328 -0.4810 -0.5813  0.6385
 7202SOL    HW133065   3.790   3.499   8.382  0.7623  0.6400 -1.8538
 7202SOL    HW233066   3.648   3.511   8.363 -2.2229 -0.7120 -2.7972
 7203SOL     OW33067   2.953   4.317   2.079 -0.3417 -0.2455 -0.4918
 7203SOL    HW133068   2.899   4.391   2.106  1.0552  0.0806  1.4078
 7203SOL    HW233069   2.953   4.261   2.156  2.2834  2.7592  1.7090
 7204SOL     OW33070   1.186   0.956   5.921  0.2319 -0.7317 -0.1170
 7204SOL    HW133071   1.236   0.888   5.875  2.4087  0.9666 -0.2298
 7204SOL    HW233072   1.107   0.918   5.882  0.8349  0.2224 -2.2235
 7205SOL     OW33073   3.844   0.297   6.639  0.1657 -0.3862 -0.0123
 7205SOL    HW133074   3.928   0.343   6.647 -0.4642  0.8260 -0.3752
 7205SOL    HW233075   3.867   0.219   6.589  1.0455 -1.2625  1.7619
 7206SOL     OW33076   2.951   3.963   8.859 -0.1260 -0.0903  0.8932
 7206SOL    HW133077   2.863   3.966   8.820  0.2179  1.7354  0.2721
 7206SOL    HW233078   2.959   4.056   8.883 -2.2197  0.3580 -0.0819
 7207SOL     OW33079   1.569   2.206   7.801  0.0188 -0.2120  0.4773
 7207SOL    HW133080   1.615   2.268   7.745  1.2702 -1.3606  0.2262
 7207SOL    HW233081   1.481   2.241   7.787  0.2633 -0.1351 -0.9101
 7208SOL     OW33082   0.829   3.983   6.843 -0.0409 -0.0705 -0.0149
 7208SOL    HW133083   0.864   4.063   6.882 -3.0410  0.7107  1.0847
 7208SOL    HW233084   0.743   3.976   6.885  0.5461 -3.8752  0.6045
 7209SOL     OW33085   3.088   3.108   2.735 -0.0901  0.1669 -0.0907
 7209SOL    HW133086   3.111   3.021   2.769 -0.5339 -1.4390 -3.8696
 7209SOL    HW233087   3.116   3.164   2.807 -1.2745  0.9413 -0.2376
 7210SOL     OW33088   0.273   4.154   6.132 -0.4312  0.4793  0.1920
 7210SOL    HW133089   0.278   4.241   6.092 -0.3497  0.4231  0.0792
 7210SOL    HW233090   0.180   4.135   6.141 -0.1043 -0.4792  1.4177
 7211SOL     OW33091   3.274   1.272   7.543 -0.0448  0.2583 -0.6643
 7211SOL    HW133092   3.278   1.287   7.448  0.9998  1.3692 -0.4276
 7211SOL    HW233093   3.221   1.192   7.552 -2.2735  1.2523 -4.7167
 7212SOL     OW33094   0.330   0.401  17.229  0.0220  0.3897 -0.0881
 7212SOL    HW133095   0.397   0.383  17.296 -0.3765 -0.2400  0.1343
 7212SOL    HW233096   0.253   0.395  17.286  0.7662 -0.3221  0.8428
 7213SOL     OW33097   2.562   0.422   5.497 -0.2966 -0.3589  0.2141
 7213SOL    HW133098   2.609   0.342   5.473  0.2652 -0.0896  0.4190
 7213SOL    HW233099   2.490   0.422   5.434  1.1126  1.1127 -1.4125
 7214SOL     OW33100   4.714   1.661  10.240  0.6902  0.7067  0.0921
 7214SOL    HW133101   4.704   1.626  10.151  0.0166  0.0919  0.4074
 7214SOL    HW233102   4.637   1.718  10.245 -0.0299 -0.4287  2.0451
 7215SOL     OW33103   0.022   3.915   1.355 -0.1172 -0.2633 -0.9653
 7215SOL    HW133104   0.049   3.969   1.281 -1.5564  1.3187 -0.3560
 7215SOL    HW233105   4.658   3.874   1.330 -0.0478 -1.6440  1.0439
 7216SOL     OW33106   1.111   1.703  17.368  0.0733  0.4452  0.0898
 7216SOL    HW133107   1.152   1.766  17.308 -0.3458 -0.2309 -0.9034
 7216SOL    HW233108   1.180   1.674  17.428  1.1608 -3.0060 -2.8324
 7217SOL     OW33109   2.167   0.178   4.500  0.1507  0.3733  0.4302
 7217SOL    HW133110   2.227   0.109   4.527  1.9669  1.5637 -0.5196
 7217SOL    HW233111   2.106   0.128   4.445 -0.3380  0.5998  0.7701
 7218SOL     OW33112   3.370   3.354   1.217  0.7180  0.1640  0.4586
 7218SOL    HW133113   3.389   3.438   1.175  1.0582 -0.2791 -0.2834
 7218SOL    HW233114   3.411   3.370   1.301  3.7182 -1.0187 -0.7863
 7219SOL     OW33115   3.841   3.592  16.127  0.1674 -0.0501 -0.2418
 7219SOL    HW133116   3.932   3.560  16.125  1.0838  2.5736 -0.1744
 7219SOL    HW233117   3.851   3.655  16.198  0.0198 -1.2578  0.8490
 7220SOL     OW33118   2.739   4.650  10.255  0.3786  0.4295  0.4536
 7220SOL    HW133119   2.734   0.019  10.216  1.8640  1.0088  1.5753
 7220SOL    HW233120   2.657   4.613  10.222  2.5465 -3.1595 -0.8260
 7221SOL     OW33121   1.919   0.350   5.282 -0.3716  0.0855 -0.7883
 7221SOL    HW133122   1.894   0.377   5.371  1.3602  0.1201 -0.3149
 7221SOL    HW233123   1.925   0.433   5.234  1.4786  1.3270  1.6025
 7222SOL     OW33124   3.742   4.285   2.844 -0.1235  0.4041  0.1053
 7222SOL    HW133125   3.728   4.199   2.882 -2.3666 -0.4425 -2.6707
 7222SOL    HW233126   3.749   4.341   2.921 -3.1971 -1.2034  1.5315
 7223SOL     OW33127   0.355   0.197   7.167 -0.1027  0.6219  0.2256
 7223SOL    HW133128   0.385   0.121   7.118  0.5398  0.2767  1.1611
 7223SOL    HW233129   0.268   0.171   7.197 -0.4132 -0.2252 -1.4017
 7224SOL     OW33130   4.520   3.361  11.375  0.1408  0.6683  0.5489
 7224SOL    HW133131   4.504   3.379  11.468 -2.5702  0.9999  0.0368
 7224SOL    HW233132   4.530   3.266  11.370  2.2576  0.8598  1.3144
 7225SOL     OW33133   3.311   1.946   0.111  0.5031 -0.2923  0.3673
 7225SOL    HW133134   3.275   1.868   0.070 -2.2581  0.9669  0.3809
 7225SOL    HW233135   3.232   1.988   0.145  1.7166  0.8264  1.8363
 7226SOL     OW33136   3.942   0.510   7.628 -0.5476  0.1271 -0.2540
 7226SOL    HW133137   3.980   0.500   7.540 -0.2361 -1.4720  0.0660
 7226SOL    HW233138   3.915   0.602   7.629 -1.8615 -0.2423 -0.9165
 7227SOL     OW33139   0.412   2.891   8.572  0.1920 -0.5769  0.4082
 7227SOL    HW133140   0.493   2.936   8.548 -1.0192  0.6815 -1.2557
 7227SOL    HW233141   0.442   2.802   8.588  0.2750 -0.8308 -1.1681
 7228SOL     OW33142   2.894   0.747   9.489  0.1822  0.2790  0.0549
 7228SOL    HW133143   2.930   0.680   9.547  1.2639 -0.5807 -1.6034
 7228SOL    HW233144   2.931   0.712   9.408 -1.7073  0.4799 -0.8961
 7229SOL     OW33145   0.316   4.391  12.891 -0.2602 -0.1749  1.1238
 7229SOL    HW133146   0.245   4.452  12.909  0.2493  0.5728  0.6060
 7229SOL    HW233147   0.368   4.388  12.972  1.1606 -0.2792  0.2098
 7230SOL     OW33148   2.093   1.408   4.369  0.5099 -0.4424 -0.4103
 7230SOL    HW133149   2.110   1.335   4.310  0.3243 -0.8532  0.0451
 7230SOL    HW233150   1.998   1.419   4.370  0.6156  0.5553 -0.4197
 7231SOL     OW33151   4.699   1.433  11.669  0.1169  0.1031  0.5944
 7231SOL    HW133152   4.712   1.525  11.645  1.4969 -0.9200 -2.4753
 7231SOL    HW233153   0.037   1.390  11.606  0.9483  0.9660  0.7687
 7232SOL     OW33154   4.472   3.254   2.583 -0.0791 -0.0205 -0.3751
 7232SOL    HW133155   4.547   3.213   2.540 -0.1287 -1.2811  0.7392
 7232SOL    HW233156   4.406   3.188   2.562 -0.8005 -0.3973  3.0109
 7233SOL     OW33157   3.656   4.392   4.843 -0.4082 -0.3576 -0.0185
 7233SOL    HW133158   3.678   4.413   4.934 -0.3000  0.3392 -0.2060
 7233SOL    HW233159   3.575   4.341   4.844 -0.6234 -0.0701 -3.1758
 7234SOL     OW33160   1.690   1.724   7.007 -0.0907  0.2252 -0.1860
 7234SOL    HW133161   1.632   1.686   7.072 -1.6532  0.6323 -1.3293
 7234SOL    HW233162   1.655   1.683   6.928  0.9645  0.1730 -0.6363
 7235SOL     OW33163   1.828   4.369  16.304 -0.4160  1.0042 -0.4501
 7235SOL    HW133164   1.855   4.451  16.261  3.3835 -0.2224 -0.3411
 7235SOL    HW233165   1.860   4.306  16.240  3.2629  1.0393  1.3609
 7236SOL     OW33166   4.029   3.602   2.696 -0.0443 -0.1519 -0.2748
 7236SOL    HW133167   4.075   3.662   2.637  1.0649 -1.9743 -1.2605
 7236SOL    HW233168   4.095   3.583   2.763  1.6692  3.5274 -0.8530
 7237SOL     OW33169   2.886   0.562   7.999 -0.5475  0.4303 -0.3683
 7237SOL    HW133170   2.945   0.490   7.979  0.7221  0.9400  1.5026
 7237SOL    HW233171   2.857   0.575   7.909 -0.3068  1.9735 -0.2323
 7238SOL     OW33172   2.122   2.981   2.545 -0.8627  0.6549  0.3918
 7238SOL    HW133173   2.178   3.045   2.589 -2.7787  1.2975  1.9237
 7238SOL    HW233174   2.188   2.917   2.520  0.1094  0.5853  3.0765
 7239SOL     OW33175   1.960   0.117   0.058  0.5890  0.0045  0.0428
 7239SOL    HW133176   2.047   0.084   0.038  0.3585 -0.0933 -0.8064
 7239SOL    HW233177   1.958   0.182  17.668 -1.4694  0.2883  0.3633
 7240SOL     OW33178   3.634   0.137  13.729 -0.2448 -0.3540 -0.3009
 7240SOL    HW133179   3.560   0.084  13.757 -0.9343  1.2036  0.7893
 7240SOL    HW233180   3.611   0.217  13.681  1.9114  0.7871  0.5315
 7241SOL     OW33181   3.433   2.677   4.619 -0.3188 -0.0245 -0.0916
 7241SOL    HW133182   3.344   2.671   4.584  0.6663 -0.4633 -2.4684
 7241SOL    HW233183   3.407   2.699   4.709 -2.2538 -1.3332 -0.3297
 7242SOL     OW33184   1.368   1.563  11.809  0.7783 -0.1522 -0.1679
 7242SOL    HW133185   1.403   1.496  11.867 -1.9954 -1.5055 -0.0727
 7242SOL    HW233186   1.387   1.643  11.858 -0.6490 -0.2448  0.5268
 7243SOL     OW33187   1.555   0.635   7.151 -0.6121  0.0542  0.0306
 7243SOL    HW133188   1.648   0.659   7.163 -0.0743 -2.3472  0.5385
 7243SOL    HW233189   1.563   0.600   7.063 -1.3397 -0.3784  0.1430
 7244SOL     OW33190   4.639   3.545   1.906  0.0878 -0.4635 -0.2394
 7244SOL    HW133191   4.640   3.572   1.814 -0.1715 -1.3629 -0.5036
 7244SOL    HW233192   4.670   3.455   1.900 -0.0449 -0.7060  2.4163
 7245SOL     OW33193   1.220   3.070   2.941  0.9798  0.2247 -0.2525
 7245SOL    HW133194   1.220   3.014   3.018  0.7445  0.9587  0.2819
 7245SOL    HW233195   1.132   3.107   2.940  0.7621 -0.3402 -1.7511
 7246SOL     OW33196   0.654   1.321   8.159  0.0558 -0.0469  0.4422
 7246SOL    HW133197   0.743   1.352   8.146  0.1937 -1.0303 -0.9306
 7246SOL    HW233198   0.623   1.336   8.070  1.2102  1.8253  0.3453
 7247SOL     OW33199   2.714   3.539  17.530  0.3525 -0.3790 -0.5880
 7247SOL    HW133200   2.689   3.611  17.588  0.8204 -1.8139  1.3952
 7247SOL    HW233201   2.717   3.581  17.444 -0.4172  0.2634 -0.2943
 7248SOL     OW33202   1.554   0.424  17.037 -0.1738 -0.5765 -0.0782
 7248SOL    HW133203   1.525   0.505  16.996  0.5977 -0.5160 -0.4959
 7248SOL    HW233204   1.615   0.457  17.102  0.0387 -2.1354  0.5301
 7249SOL     OW33205   0.968   3.590   4.707  0.2284 -0.1861  0.1513
 7249SOL    HW133206   0.968   3.512   4.651  0.5328 -0.4711  0.5431
 7249SOL    HW233207   0.990   3.653   4.639 -0.3527  0.5666  0.6730
 7250SOL     OW33208   2.966   2.635   1.552  0.0681 -0.0477 -0.4968
 7250SOL    HW133209   2.927   2.577   1.617  0.9997 -1.3708 -1.1083
 7250SOL    HW233210   2.930   2.603   1.469  0.3556  1.5604 -1.2300
 7251SOL     OW33211   4.273   0.074   4.547 -0.1557 -0.1895 -0.4797
 7251SOL    HW133212   4.306   0.018   4.477 -2.6238 -1.2469 -0.8072
 7251SOL    HW233213   4.310   0.035   4.626 -0.5771 -1.1743 -0.7738
 7252SOL     OW33214   1.955   3.142  17.452  0.4496  0.2075  0.3117
 7252SOL    HW133215   1.964   3.142  17.547  0.6612 -0.8735  0.2857
 7252SOL    HW233216   1.958   3.237  17.438  1.0144  0.0906 -0.4045
 7253SOL     OW33217   2.478   3.449   2.751 -1.0569 -0.4003  0.5156
 7253SOL    HW133218   2.568   3.422   2.734 -0.6415  1.1497  0.2241
 7253SOL    HW233219   2.474   3.535   2.709  2.4008 -0.8544 -0.7413
 7254SOL     OW33220   4.131   4.373  14.308 -0.1244 -0.2866  0.0485
 7254SOL    HW133221   4.086   4.435  14.365 -4.3250 -0.5911 -2.9691
 7254SOL    HW233222   4.056   4.315  14.297 -1.0946  1.0504 -0.3481
 7255SOL     OW33223   1.141   1.978   5.312  0.2984 -0.4070 -0.3782
 7255SOL    HW133224   1.045   1.976   5.313  0.2998 -0.1771  0.0241
 7255SOL    HW233225   1.172   1.927   5.237 -0.1448 -1.9146  0.4649
 7256SOL     OW33226   2.119   2.596  15.961 -0.7929  0.2023  0.2149
 7256SOL    HW133227   2.040   2.650  15.968 -0.8497  0.2023 -0.4368
 7256SOL    HW233228   2.135   2.597  16.056  2.2359  2.3654 -0.3057
 7257SOL     OW33229   0.118   2.551  14.628 -0.9280 -0.1420  0.1131
 7257SOL    HW133230   0.150   2.584  14.712  0.6109  0.0209 -0.5321
 7257SOL    HW233231   0.027   2.558  14.656 -0.3467 -1.3314  2.3833
 7258SOL     OW33232   3.452   1.678   3.237  0.3899 -0.2113 -0.1511
 7258SOL    HW133233   3.365   1.646   3.258  1.2137 -1.1573  1.7980
 7258SOL    HW233234   3.447   1.758   3.185 -2.0272 -0.9808 -1.1125
 7259SOL     OW33235   1.513   4.174   5.147 -0.9538 -0.3359  0.3552
 7259SOL    HW133236   1.534   4.081   5.163 -0.7599 -0.6155 -1.5158
 7259SOL    HW233237   1.419   4.169   5.164 -0.9591 -0.4550  0.2910
 7260SOL     OW33238   1.049   2.474   8.221 -0.2739 -0.4461  0.1339
 7260SOL    HW133239   1.099   2.466   8.139  0.9663  0.8021  0.7650
 7260SOL    HW233240   1.053   2.382   8.247 -0.4869 -0.7364 -0.8553
 7261SOL     OW33241   1.905   2.403   4.943  0.3957  0.1379  1.0439
 7261SOL    HW133242   1.917   2.433   4.853  0.4074 -1.0132  0.6666
 7261SOL    HW233243   1.823   2.355   4.931  0.5367  0.2522 -0.3339
 7262SOL     OW33244   1.412   0.411   7.997 -0.2416  0.7811 -0.2322
 7262SOL    HW133245   1.346   0.478   8.011 -0.2731  0.8305 -0.6284
 7262SOL    HW233246   1.389   0.343   8.061 -0.2763 -0.5037 -1.6033
 7263SOL     OW33247   3.652   1.159   8.348  0.1968 -0.5864 -0.3864
 7263SOL    HW133248   3.622   1.218   8.418  1.1123  0.4868 -0.9050
 7263SOL    HW233249   3.742   1.145   8.376 -0.8176 -1.7224  2.3088
 7264SOL     OW33250   1.841   3.867  13.161  0.3356 -0.6065  0.4025
 7264SOL    HW133251   1.845   3.861  13.257 -0.5023  0.7754  0.5109
 7264SOL    HW233252   1.804   3.780  13.145 -0.1577 -0.1880 -0.7249
 7265SOL     OW33253   2.022   0.296   2.138  0.0778  0.1696  0.1845
 7265SOL    HW133254   2.118   0.288   2.138 -0.0636 -1.5133  1.3328
 7265SOL    HW233255   2.013   0.348   2.058 -0.5538  2.0366  1.4779
 7266SOL     OW33256   1.303   0.693   4.675  0.2248  0.3505  0.3490
 7266SOL    HW133257   1.250   0.772   4.662 -0.0870  0.3731  1.8164
 7266SOL    HW233258   1.236   0.633   4.708  1.1734 -0.5634  0.6056
 7267SOL     OW33259   1.071   1.112   7.235  0.0273 -0.2884  0.3424
 7267SOL    HW133260   0.976   1.107   7.251  0.4553 -2.1241  2.2706
 7267SOL    HW233261   1.102   1.058   7.308 -1.7667  0.3648  1.5871
 7268SOL     OW33262   4.585   0.535   9.682  0.5042 -0.6809 -0.3198
 7268SOL    HW133263   4.676   0.513   9.664  0.0127 -1.3313 -1.9731
 7268SOL    HW233264   4.553   0.447   9.703  1.0565 -0.6342  0.7423
 7269SOL     OW33265   3.201   2.849   2.219 -0.3050  0.3917  0.0913
 7269SOL    HW133266   3.197   2.911   2.146  0.2440  0.5362  0.1855
 7269SOL    HW233267   3.257   2.789   2.170 -0.0023  1.6440 -1.1053
 7270SOL     OW33268   0.061   1.563   2.049  0.8016  0.6365  0.3801
 7270SOL    HW133269   0.079   1.640   2.103  1.4196 -0.1996  1.3561
 7270SOL    HW233270   0.038   1.600   1.964  1.0508  0.8497  0.4057
 7271SOL     OW33271   2.085   1.719  15.157 -0.1334  0.3681  0.5507
 7271SOL    HW133272   2.091   1.798  15.103  0.9202 -0.6873 -0.8814
 7271SOL    HW233273   2.022   1.756  15.219 -0.6111  0.0936  0.2255
 7272SOL     OW33274   2.717   3.487  14.930  0.2530 -0.4084  0.3218
 7272SOL    HW133275   2.690   3.557  14.870  1.5921  0.6712  0.9778
 7272SOL    HW233276   2.642   3.429  14.934  0.0799 -0.3227 -1.4973
 7273SOL     OW33277   0.349   3.475  12.046 -0.7600  0.1057  0.8577
 7273SOL    HW133278   0.330   3.568  12.038  1.2733  0.2332 -2.1796
 7273SOL    HW233279   0.285   3.427  11.994 -0.0916  0.7403 -0.5477
 7274SOL     OW33280   3.990   2.971   9.197 -0.3981  0.3344 -0.4485
 7274SOL    HW133281   4.073   2.985   9.242  0.5455 -1.3718 -1.6367
 7274SOL    HW233282   3.947   2.936   9.276 -2.7977 -1.0173 -2.3317
 7275SOL     OW33283   0.233   2.037   7.840  0.2657  0.0961  0.1416
 7275SOL    HW133284   0.242   1.991   7.757 -0.2626 -0.9880  0.6885
 7275SOL    HW233285   0.292   2.112   7.827  0.8138 -0.4235 -0.3580
 7276SOL     OW33286   2.706   0.620  17.538  0.1761 -0.1905  0.1746
 7276SOL    HW133287   2.698   0.599  17.445  1.2480  0.1345  0.0166
 7276SOL    HW233288   2.800   0.636  17.542  0.4688 -1.9295  0.2800
 7277SOL     OW33289   1.966   2.076   5.171 -0.2021 -0.3061 -0.5128
 7277SOL    HW133290   1.977   2.101   5.080  0.4785  1.0489 -0.0548
 7277SOL    HW233291   1.874   2.048   5.170 -0.7910  1.6700 -0.4407
 7278SOL     OW33292   2.294   4.640   1.604 -0.7563  0.2611 -0.3406
 7278SOL    HW133293   2.222   4.581   1.627 -2.2358  1.2633 -2.3166
 7278SOL    HW233294   2.362   4.581   1.636 -0.4621  1.3391  1.0206
 7279SOL     OW33295   3.769   2.882   4.434  0.1797 -0.3727 -0.2139
 7279SOL    HW133296   3.854   2.919   4.460  0.9383 -3.6667  1.8999
 7279SOL    HW233297   3.772   2.796   4.475  1.2945 -0.6277 -0.8109
 7280SOL     OW33298   3.465   0.887   3.082 -0.5917  0.8277 -0.0539
 7280SOL    HW133299   3.504   0.967   3.119 -0.0672  0.6706 -0.2696
 7280SOL    HW233300   3.531   0.866   3.016 -2.2722 -0.3525 -1.3483
 7281SOL     OW33301   0.929   3.790   1.798 -0.3047  0.8627 -0.8731
 7281SOL    HW133302   0.853   3.803   1.743 -1.3732  1.1041  0.6650
 7281SOL    HW233303   0.922   3.698   1.824  0.7163  1.2270  0.7441
 7282SOL     OW33304   2.786   2.337   1.081  0.0125  0.0568 -0.0572
 7282SOL    HW133305   2.741   2.411   1.042  0.7066 -0.0250 -1.0038
 7282SOL    HW233306   2.870   2.327   1.037  0.0722 -1.1569  0.3110
 7283SOL     OW33307   1.455   3.853   2.156 -0.1056 -0.2240  0.1366
 7283SOL    HW133308   1.397   3.911   2.206 -1.3240 -0.5954 -0.8257
 7283SOL    HW233309   1.472   3.910   2.081 -0.0759 -2.6533 -1.7064
 7284SOL     OW33310   2.528   2.909   8.166 -0.1883  0.1367 -0.0307
 7284SOL    HW133311   2.593   2.918   8.096 -0.8753 -0.6054 -0.7653
 7284SOL    HW233312   2.548   2.983   8.224 -0.2092  1.2581 -1.4604
 7285SOL     OW33313   3.540   0.043   5.446 -0.4498  0.6477 -0.0362
 7285SOL    HW133314   3.561   0.101   5.373 -2.1297  3.2701  1.5669
 7285SOL    HW233315   3.625   0.031   5.489  0.5426 -4.3486 -3.4231
 7286SOL     OW33316   0.561   0.192   1.427 -0.9402 -0.1441  0.3569
 7286SOL    HW133317   0.581   0.264   1.486  0.6930  0.6635 -1.1624
 7286SOL    HW233318   0.527   0.130   1.492 -0.6523  0.2121  0.8427
 7287SOL     OW33319   1.839   3.015  13.029  0.2355 -0.2088 -0.4921
 7287SOL    HW133320   1.779   3.040  12.959 -4.0336 -1.1048  2.8619
 7287SOL    HW233321   1.886   2.944  12.984  0.7402 -1.7519  2.4717
 7288SOL     OW33322   2.735   3.999   2.012 -0.2589 -0.1246 -0.5351
 7288SOL    HW133323   2.827   4.008   1.986 -0.6643  0.5968 -1.6885
 7288SOL    HW233324   2.754   4.018   2.104  2.9932  1.0801 -1.4312
 7289SOL     OW33325   3.931   0.783  16.043 -0.0175 -0.0783  0.4730
 7289SOL    HW133326   3.974   0.849  15.989  0.0124  0.8378  1.5996
 7289SOL    HW233327   3.998   0.725  16.079 -1.5117 -1.9349  0.2180
 7290SOL     OW33328   2.459   4.706  17.625  0.4293  0.3719 -0.0429
 7290SOL    HW133329   2.542   4.707  17.577 -0.5530  0.8692 -1.7086
 7290SOL    HW233330   2.451   4.613  17.649 -3.0293  0.2767 -1.6120
 7291SOL     OW33331   0.631   1.730  10.899 -0.5565 -0.5431 -0.2048
 7291SOL    HW133332   0.569   1.722  10.972 -0.1066 -1.2607  0.0908
 7291SOL    HW233333   0.586   1.807  10.864  1.1891 -1.0125 -3.4800
 7292SOL     OW33334   4.512   0.727   8.931  0.1639 -0.2251  0.2352
 7292SOL    HW133335   4.507   0.806   8.876  0.1996  1.4891  2.7071
 7292SOL    HW233336   4.527   0.772   9.014 -3.1495  1.6628 -0.1548
 7293SOL     OW33337   0.771   2.657  16.020  0.3001  0.3074  0.8901
 7293SOL    HW133338   0.714   2.672  15.944  0.1323  0.8160  1.1182
 7293SOL    HW233339   0.845   2.608  15.984 -2.2263 -1.5836 -1.8094
 7294SOL     OW33340   2.576   3.858   3.985  0.1536  0.2834  0.0218
 7294SOL    HW133341   2.555   3.833   4.075 -1.0617 -3.6369 -1.3701
 7294SOL    HW233342   2.623   3.940   4.000  0.8836 -0.3689  1.3450
 7295SOL     OW33343   1.600   2.662   7.587 -0.1009  0.4340 -0.2968
 7295SOL    HW133344   1.617   2.747   7.627  4.0814 -0.9457  0.9011
 7295SOL    HW233345   1.532   2.689   7.526  0.3332  1.6302 -0.2428
 7296SOL     OW33346   3.284   3.545  10.162  0.3062  0.0488 -0.2201
 7296SOL    HW133347   3.232   3.582  10.091 -0.4516  1.6869  1.1877
 7296SOL    HW233348   3.279   3.455  10.131 -1.8863  0.4364 -0.9805
 7297SOL     OW33349   0.915   1.918   6.140 -0.1534 -0.7098  0.7024
 7297SOL    HW133350   0.823   1.939   6.161 -0.6037 -1.1584 -0.8643
 7297SOL    HW233351   0.944   1.998   6.097  1.6755  0.5440  4.2482
 7298SOL     OW33352   3.802   4.364  16.871  0.3112 -0.0285 -0.6705
 7298SOL    HW133353   3.851   4.339  16.949 -0.0023 -1.3895 -0.9056
 7298SOL    HW233354   3.768   4.445  16.909 -0.0084 -0.8937  0.8781
 7299SOL     OW33355   0.584   3.348  17.323  0.1754  0.5282  0.3346
 7299SOL    HW133356   0.556   3.261  17.294 -0.9426  0.7174  0.8145
 7299SOL    HW233357   0.531   3.348  17.403  2.1826 -2.4722  1.6553
 7300SOL     OW33358   2.278   1.943   7.679 -0.9617  0.0053 -0.0613
 7300SOL    HW133359   2.371   1.960   7.697 -1.2352 -1.1858  2.4695
 7300SOL    HW233360   2.288   1.956   7.585 -0.1288  0.0820  0.0390
 7301SOL     OW33361   1.092   1.018   9.052  0.1613 -0.0396  0.3608
 7301SOL    HW133362   1.099   0.949   9.118 -1.4259 -0.5950 -0.0351
 7301SOL    HW233363   1.086   1.095   9.107 -2.9181  0.5071 -0.7386
 7302SOL     OW33364   2.307   3.634   7.108 -0.3950  0.4310 -0.3419
 7302SOL    HW133365   2.375   3.697   7.088 -1.4198  2.2015  1.6980
 7302SOL    HW233366   2.357   3.557   7.080 -0.8784  0.5862 -1.6404
 7303SOL     OW33367   2.659   1.207   2.473 -0.5075  0.3145  0.7449
 7303SOL    HW133368   2.619   1.126   2.440 -0.8015  1.0458 -0.6760
 7303SOL    HW233369   2.730   1.160   2.518  1.1648  0.3316 -1.8980
 7304SOL     OW33370   4.266   0.721   2.560 -0.1156  0.7176  0.5624
 7304SOL    HW133371   4.259   0.781   2.486  2.4563 -0.6438 -0.7919
 7304SOL    HW233372   4.221   0.764   2.633 -1.5832  0.6197 -0.2914
 7305SOL     OW33373   4.666   3.137   4.657 -0.3574 -0.3451 -0.1832
 7305SOL    HW133374   4.701   3.105   4.740 -2.5914  1.5504  1.4916
 7305SOL    HW233375   4.662   3.228   4.685 -0.6656 -0.3939 -0.0683
 7306SOL     OW33376   4.441   3.727   2.979 -0.0276  0.1083  0.3917
 7306SOL    HW133377   4.516   3.715   3.038 -1.0965 -1.2381  1.4758
 7306SOL    HW233378   4.475   3.775   2.904 -0.0673 -1.5078 -0.6699
 7307SOL     OW33379   1.754   1.836  16.138 -0.5751 -0.5352 -0.1605
 7307SOL    HW133380   1.741   1.886  16.218  0.1840 -0.1134 -0.3063
 7307SOL    HW233381   1.817   1.887  16.087  0.0007  1.1763  2.2786
 7308SOL     OW33382   2.027   1.936   3.086  0.4627  0.2377 -0.2985
 7308SOL    HW133383   2.019   1.855   3.136  1.1075 -1.8511 -3.6180
 7308SOL    HW233384   2.121   1.938   3.069  0.4639 -1.4039 -0.4693
 7309SOL     OW33385   3.683   4.284   6.671 -0.0890 -0.4268  0.1267
 7309SOL    HW133386   3.650   4.194   6.662  0.8843 -0.8272  0.5511
 7309SOL    HW233387   3.610   4.329   6.629 -0.4764  0.4328  1.7203
 7310SOL     OW33388   4.165   0.181   9.712 -0.3105 -0.2500 -0.4652
 7310SOL    HW133389   4.179   0.096   9.753  1.3096  1.1704  1.9001
 7310SOL    HW233390   4.194   0.164   9.622  0.4830 -2.4277  0.2068
 7311SOL     OW33391   4.616   1.003  11.374 -0.0675 -0.2837  0.6576
 7311SOL    HW133392   4.537   0.999  11.319  0.8684 -0.5573 -0.6631
 7311SOL    HW233393   4.629   0.918  11.415 -2.0512 -0.6293  0.5909
 7312SOL     OW33394   1.562   1.703  17.069  0.0480  0.1100  0.2935
 7312SOL    HW133395   1.520   1.722  16.985 -0.4549 -0.4449  0.4136
 7312SOL    HW233396   1.576   1.792  17.102  1.7911  0.0779 -0.3606
 7313SOL     OW33397   0.996   1.148   6.873 -0.2491 -0.0621  0.1232
 7313SOL    HW133398   0.986   1.098   6.792 -1.2966 -1.3842  1.0747
 7313SOL    HW233399   1.091   1.143   6.877 -0.1860  0.1211 -1.2698
 7314SOL     OW33400   0.706   3.858   4.030  0.2194  0.3170  0.3562
 7314SOL    HW133401   0.707   3.897   3.943 -1.0162 -1.1360 -0.3257
 7314SOL    HW233402   0.722   3.770   3.996  1.4792  1.0101 -0.8353
 7315SOL     OW33403   2.646   1.305   7.657  0.1607 -0.1299  1.0017
 7315SOL    HW133404   2.698   1.383   7.677  3.9952 -2.1003 -1.3449
 7315SOL    HW233405   2.572   1.320   7.716 -1.4652 -1.2865 -0.7505
 7316SOL     OW33406   4.533   2.718   6.117 -0.3710 -0.2875 -0.3057
 7316SOL    HW133407   4.565   2.767   6.042  0.8985 -2.2853 -1.0642
 7316SOL    HW233408   4.617   2.703   6.159  0.5227  0.6060 -1.7902
 7317SOL     OW33409   1.690   2.164   6.258  0.2683 -0.1080 -0.0106
 7317SOL    HW133410   1.602   2.182   6.291 -0.5454 -2.2861 -0.9504
 7317SOL    HW233411   1.676   2.194   6.169 -0.3560  0.5787  0.3177
 7318SOL     OW33412   2.518   1.300  12.777 -0.7195 -0.0177  0.7385
 7318SOL    HW133413   2.526   1.395  12.765 -0.9995  0.1771  2.1247
 7318SOL    HW233414   2.546   1.284  12.867 -1.9115 -0.7233  0.9771
 7319SOL     OW33415   1.914   4.410  15.001 -0.3540 -0.0893  0.0581
 7319SOL    HW133416   1.845   4.347  14.985  1.0540 -1.7687  0.5817
 7319SOL    HW233417   1.957   4.399  14.916  2.3840  1.7121  1.1968
 7320SOL     OW33418   1.098   1.400   7.980  0.1142 -0.5002  0.5209
 7320SOL    HW133419   1.146   1.447   7.911  0.6598 -1.1202  0.4856
 7320SOL    HW233420   1.064   1.325   7.932 -2.6612  0.0438  1.6395
 7321SOL     OW33421   3.591   1.361  15.989 -0.4085  0.1378 -0.2156
 7321SOL    HW133422   3.507   1.366  16.035  0.0846 -0.3927  0.7454
 7321SOL    HW233423   3.574   1.415  15.912 -0.4195 -1.1485 -1.1155
 7322SOL     OW33424   0.930   1.454   8.208 -0.1779  0.0381 -0.9173
 7322SOL    HW133425   0.964   1.431   8.122  1.1186 -0.6568 -0.2306
 7322SOL    HW233426   1.020   1.465   8.241  0.5632 -1.1198 -2.5800
 7323SOL     OW33427   1.162   2.831   5.067 -0.3331  0.2549  0.4344
 7323SOL    HW133428   1.188   2.817   5.158  1.2190  1.9586  0.2759
 7323SOL    HW233429   1.100   2.902   5.084 -2.2801 -1.7640  1.6575
 7324SOL     OW33430   3.292   3.404  16.405 -0.1808 -0.2952  0.2494
 7324SOL    HW133431   3.203   3.407  16.371  0.4058  0.6261 -1.1925
 7324SOL    HW233432   3.340   3.374  16.328 -0.4717  0.9527 -0.4124
 7325SOL     OW33433   2.244   2.672   6.418 -0.0286  0.1634 -0.0872
 7325SOL    HW133434   2.163   2.635   6.453 -0.1176  0.3105 -0.1351
 7325SOL    HW233435   2.308   2.649   6.485 -0.5476  0.9551  0.6911
 7326SOL     OW33436   0.673   1.315  15.576 -0.3212 -0.6211  0.6022
 7326SOL    HW133437   0.632   1.360  15.651 -0.4244  0.1760  0.0769
 7326SOL    HW233438   0.612   1.350  15.510  1.5370  0.4947 -0.5182
 7327SOL     OW33439   3.254   2.887   2.483 -0.2720 -0.0963  0.0624
 7327SOL    HW133440   3.342   2.924   2.476  0.3413 -1.3911  1.0027
 7327SOL    HW233441   3.241   2.858   2.393 -1.4960  2.9948 -0.7793
 7328SOL     OW33442   1.168   1.930   7.093 -0.5328 -0.0692  0.1665
 7328SOL    HW133443   1.236   1.923   7.160 -1.9064  0.5293  1.6550
 7328SOL    HW233444   1.091   1.886   7.129 -0.9000 -1.4747 -2.3771
 7329SOL     OW33445   3.675   1.789   7.180 -0.2643  0.8423  0.7236
 7329SOL    HW133446   3.650   1.844   7.106  0.7143 -0.1664 -0.3533
 7329SOL    HW233447   3.593   1.785   7.230 -0.6558 -1.3076 -0.0787
 7330SOL     OW33448   3.549   1.392  13.192  0.3954 -0.5764  0.6471
 7330SOL    HW133449   3.456   1.415  13.196 -0.0213 -2.2605  0.3936
 7330SOL    HW233450   3.588   1.480  13.195  0.2964 -0.4783 -1.3362
 7331SOL     OW33451   4.238   1.030   5.026 -0.7107 -0.5980 -0.6293
 7331SOL    HW133452   4.214   1.109   5.074  1.3332  0.9281 -2.1689
 7331SOL    HW233453   4.163   0.972   5.011 -1.7548  0.4116  0.6396
 7332SOL     OW33454   2.425   1.320   7.844  0.5834 -0.2708 -0.5222
 7332SOL    HW133455   2.342   1.366   7.854  1.5768  1.4738 -0.3987
 7332SOL    HW233456   2.480   1.391   7.875  1.9301 -1.2792 -0.5642
 7333SOL     OW33457   4.555   2.454  11.355 -0.3645 -0.0721  0.2099
 7333SOL    HW133458   4.611   2.473  11.430 -1.1133  1.7221  0.3325
 7333SOL    HW233459   4.548   2.537  11.308 -0.0976 -1.5285 -2.3774
 7334SOL     OW33460   0.280   1.322   5.316  0.1904  0.1198 -0.1278
 7334SOL    HW133461   0.270   1.294   5.225 -2.6509  2.2862 -0.4766
 7334SOL    HW233462   0.374   1.342   5.321  0.0256  1.0794 -0.7086
 7335SOL     OW33463   0.707   0.541   1.801 -0.0589  0.1811 -0.0107
 7335SOL    HW133464   0.801   0.554   1.817 -0.3991 -1.1558  3.0893
 7335SOL    HW233465   0.681   0.632   1.803  0.1877  0.2377  0.6822
 7336SOL     OW33466   3.434   2.753   6.372 -0.5249 -0.3857  0.0555
 7336SOL    HW133467   3.472   2.668   6.393  0.4154 -0.1954 -0.8818
 7336SOL    HW233468   3.370   2.731   6.305  0.0094  0.9045 -0.8785
 7337SOL     OW33469   3.456   2.255   6.441 -0.4935 -0.2872  0.2967
 7337SOL    HW133470   3.470   2.296   6.526 -0.7706 -1.6713  0.9962
 7337SOL    HW233471   3.369   2.221   6.460 -0.4523 -0.4790  0.1373
 7338SOL     OW33472   3.753   3.780   8.175  0.4928 -0.2027  0.6984
 7338SOL    HW133473   3.781   3.787   8.084 -2.1416 -0.8112 -0.1749
 7338SOL    HW233474   3.835   3.773   8.223  1.4988  1.3111 -0.8145
 7339SOL     OW33475   0.488   2.057   0.694  0.3284 -0.4862  0.0283
 7339SOL    HW133476   0.517   1.983   0.641  1.5145 -0.8902  1.2574
 7339SOL    HW233477   0.531   2.057   0.779  0.2019 -0.5616  0.0908
 7340SOL     OW33478   3.230   4.007   8.555 -0.5157  0.1886 -0.0037
 7340SOL    HW133479   3.312   4.002   8.605 -0.1759  0.1413 -0.5653
 7340SOL    HW233480   3.225   4.102   8.547 -1.2317  0.1895  0.5332
 7341SOL     OW33481   1.502   4.426   3.834  0.5244  0.3297  0.1601
 7341SOL    HW133482   1.407   4.435   3.847  0.5127  1.6921 -0.8938
 7341SOL    HW233483   1.506   4.340   3.791 -0.6519  0.5525 -0.3995
 7342SOL     OW33484   2.953   4.443   6.201  0.3254  0.3499 -0.3357
 7342SOL    HW133485   2.956   4.426   6.107 -4.1710  0.3550 -0.4581
 7342SOL    HW233486   3.007   4.522   6.202  1.3661 -0.3509 -0.7646
 7343SOL     OW33487   2.337   4.405   6.609  0.0916 -0.2410  0.2863
 7343SOL    HW133488   2.414   4.462   6.605 -1.3671  1.6470 -0.9512
 7343SOL    HW233489   2.299   4.435   6.692 -0.8259  1.2982 -0.6888
 7344SOL     OW33490   3.997   1.509   3.758  0.1527  0.3232  0.0043
 7344SOL    HW133491   4.088   1.504   3.785  0.5594  0.9254 -1.2846
 7344SOL    HW233492   3.964   1.430   3.801  1.9768 -1.0544 -1.0923
 7345SOL     OW33493   3.657   4.113   2.445 -0.0421 -0.0464 -0.0520
 7345SOL    HW133494   3.628   4.205   2.440 -0.4990 -0.3371 -2.9314
 7345SOL    HW233495   3.582   4.073   2.400 -0.1826 -0.6209  0.7123
 7346SOL     OW33496   4.671   3.727  16.732  0.6729 -0.1158 -0.3875
 7346SOL    HW133497   4.662   3.636  16.702 -2.4190 -0.3799  1.3395
 7346SOL    HW233498   4.597   3.736  16.792 -1.1561  2.3643 -3.0166
 7347SOL     OW33499   2.561   4.501  12.420  0.3491  0.2304  0.1683
 7347SOL    HW133500   2.546   4.553  12.340  2.3544  0.6806  0.0892
 7347SOL    HW233501   2.484   4.523  12.473 -1.0148 -0.2407 -1.6162
 7348SOL     OW33502   4.040   4.204   8.299 -0.5829 -0.1068  0.3313
 7348SOL    HW133503   3.951   4.199   8.331 -0.9943 -0.9437 -0.9229
 7348SOL    HW233504   4.034   4.273   8.233 -0.8897 -0.7184 -0.2824
 7349SOL     OW33505   0.247   0.280   5.747 -1.0700 -0.0267  0.8826
 7349SOL    HW133506   0.289   0.281   5.833 -0.7364 -0.0852  0.7193
 7349SOL    HW233507   0.170   0.227   5.770 -0.1530 -1.4715  0.6264
 7350SOL     OW33508   0.873   4.354   3.881 -0.7825 -0.3565 -0.5067
 7350SOL    HW133509   0.928   4.364   3.958 -2.9147  0.9495  0.8567
 7350SOL    HW233510   0.938   4.343   3.811  0.4246  0.3851  0.5154
 7351SOL     OW33511   0.386   3.750  12.894 -0.0657  0.5503 -0.5345
 7351SOL    HW133512   0.479   3.738  12.914 -0.1051  1.6903  0.3354
 7351SOL    HW233513   0.360   3.664  12.929 -2.0055  1.3298 -0.0330
 7352SOL     OW33514   2.848   3.212   9.445  0.5162  0.0803  0.2619
 7352SOL    HW133515   2.753   3.202   9.447  0.5102  0.1337  0.2671
 7352SOL    HW233516   2.863   3.297   9.487 -2.7338  0.8247 -0.0655
 7353SOL     OW33517   2.494   2.227   5.115  0.2150 -0.3119  0.0138
 7353SOL    HW133518   2.443   2.304   5.091  0.9930  0.0893 -0.3428
 7353SOL    HW233519   2.480   2.176   5.036 -0.2879 -1.8392  1.0751
 7354SOL     OW33520   4.220   1.143   0.964  0.3287 -0.4993  0.0017
 7354SOL    HW133521   4.243   1.157   1.056  0.8380 -0.1002 -0.1900
 7354SOL    HW233522   4.209   1.234   0.938 -1.5712 -0.5321  0.6303
 7355SOL     OW33523   0.268   1.470   0.784 -0.2281 -0.0668 -0.2118
 7355SOL    HW133524   0.269   1.426   0.869 -0.8434 -0.8900 -0.6398
 7355SOL    HW233525   0.362   1.489   0.776  0.0348 -0.1913  2.4492
 7356SOL     OW33526   2.042   3.893  15.799  0.1110  0.0750 -0.0726
 7356SOL    HW133527   1.986   3.876  15.724 -1.1697  0.2197  0.8418
 7356SOL    HW233528   1.972   3.941  15.844 -0.3389 -0.1700 -0.5149
 7357SOL     OW33529   2.115   2.137   0.317 -0.1400 -0.2875  0.2057
 7357SOL    HW133530   2.193   2.185   0.291  0.2372 -0.5497  0.8484
 7357SOL    HW233531   2.144   2.099   0.401  0.4006  0.5190  0.3797
 7358SOL     OW33532   3.344   0.027   5.922  0.3351 -0.1537 -0.3303
 7358SOL    HW133533   3.259   0.070   5.920  0.2393 -0.3803 -1.3409
 7358SOL    HW233534   3.396   0.083   5.864 -0.0766 -0.3347 -0.8642
 7359SOL     OW33535   3.707   3.171   0.237 -0.6849  0.4272 -0.3942
 7359SOL    HW133536   3.712   3.077   0.220 -1.2118  0.3647 -0.2000
 7359SOL    HW233537   3.733   3.176   0.329  0.3086 -2.1004 -0.5218
 7360SOL     OW33538   4.018   4.487  15.838 -0.2789 -0.5721 -0.0076
 7360SOL    HW133539   3.957   4.561  15.829  1.2693  0.6010 -0.8226
 7360SOL    HW233540   3.946   4.424  15.838 -1.8569  1.1795 -3.3524
 7361SOL     OW33541   3.798   2.703   6.759 -0.0330 -0.3041 -0.0275
 7361SOL    HW133542   3.786   2.696   6.854 -1.4690 -0.6015 -0.2379
 7361SOL    HW233543   3.749   2.783   6.740 -0.2452 -0.5488 -0.5024
 7362SOL     OW33544   2.978   0.057   6.788 -0.7565 -0.0232 -0.5135
 7362SOL    HW133545   2.997   0.151   6.785 -0.3249 -0.1041 -0.3644
 7362SOL    HW233546   2.883   0.066   6.791 -0.7154  0.1569  0.2933
 7363SOL     OW33547   1.793   1.569  14.552 -0.3746 -0.1668 -0.5672
 7363SOL    HW133548   1.886   1.583  14.571 -0.6733  0.4701  0.3959
 7363SOL    HW233549   1.788   1.475  14.534  0.6820 -0.2760 -0.2686
 7364SOL     OW33550   2.264   2.057   4.636 -0.5266 -0.8160  0.2634
 7364SOL    HW133551   2.200   2.035   4.568 -0.0533  1.5816 -0.9728
 7364SOL    HW233552   2.219   2.004   4.702 -3.1313  0.8065 -0.2058
 7365SOL     OW33553   3.584   4.412  13.046  0.4919  0.1682 -1.1400
 7365SOL    HW133554   3.629   4.427  13.128 -0.0491  1.6346 -1.0973
 7365SOL    HW233555   3.526   4.343  13.078  1.0452 -0.0648 -0.6486
 7366SOL     OW33556   4.512   1.912   2.723  0.2264  0.6247  0.0174
 7366SOL    HW133557   4.577   1.976   2.755  1.6188 -1.4912  1.4141
 7366SOL    HW233558   4.568   1.866   2.661  0.3658 -0.1407  0.7090
 7367SOL     OW33559   4.272   0.641   5.466 -0.3293 -0.7850  0.3120
 7367SOL    HW133560   4.336   0.656   5.536  1.3156  0.3155 -1.4485
 7367SOL    HW233561   4.254   0.732   5.441  1.0449 -0.6236 -0.1167
 7368SOL     OW33562   0.808   1.313  14.014  0.1697  0.3542  0.2299
 7368SOL    HW133563   0.721   1.349  13.996  0.0831 -0.4783 -1.0328
 7368SOL    HW233564   0.835   1.302  13.923  1.7203 -0.2191  0.7557
 7369SOL     OW33565   4.487   2.462   9.634 -0.0574  0.1847 -0.1903
 7369SOL    HW133566   4.484   2.451   9.729  0.6125  1.0640 -0.0593
 7369SOL    HW233567   4.396   2.443   9.613  0.2369 -0.8693 -0.4906
 7370SOL     OW33568   1.521   3.711   8.042 -0.1030 -0.4071 -1.0096
 7370SOL    HW133569   1.516   3.618   8.063 -1.2365  0.2030  1.4010
 7370SOL    HW233570   1.488   3.710   7.952  3.6493  2.5472 -2.4099
 7371SOL     OW33571   2.497   2.921   1.844  0.3622  0.0911 -0.1987
 7371SOL    HW133572   2.562   2.873   1.793 -0.8799 -0.2861 -1.4404
 7371SOL    HW233573   2.554   2.984   1.888 -0.0456 -0.2938  0.8737
 7372SOL     OW33574   3.198   3.641   1.357  0.3320  0.4812  0.7950
 7372SOL    HW133575   3.276   3.665   1.307  0.7957 -1.1245  0.7622
 7372SOL    HW233576   3.130   3.683   1.305  1.9805  1.7687 -0.3391
 7373SOL     OW33577   4.145   4.680  11.156 -0.6560 -0.4685 -0.1734
 7373SOL    HW133578   4.121   4.710  11.244 -1.9352  0.8737 -0.9753
 7373SOL    HW233579   4.229   4.642  11.183 -1.6186 -1.5907  1.1774
 7374SOL     OW33580   1.238   0.203  13.892  0.0888  0.6388  0.4659
 7374SOL    HW133581   1.312   0.150  13.864  0.1733 -0.0829  2.0216
 7374SOL    HW233582   1.263   0.295  13.902 -0.4813  0.6812  1.5802
 7375SOL     OW33583   3.778   2.261  14.046 -0.3169 -0.1589 -0.4743
 7375SOL    HW133584   3.806   2.308  13.968  1.0071  3.0088  1.9482
 7375SOL    HW233585   3.735   2.184  14.008 -1.8199 -0.6228  2.1977
 7376SOL     OW33586   1.757   2.429   5.197 -0.3942 -0.7307 -0.1397
 7376SOL    HW133587   1.814   2.384   5.259  0.4565  2.7911  1.6137
 7376SOL    HW233588   1.815   2.481   5.140 -0.0559 -2.2780 -1.2057
 7377SOL     OW33589   1.755   4.035   4.990  0.0704 -0.0474  0.1121
 7377SOL    HW133590   1.706   3.953   5.000  1.1354 -1.1173 -3.1417
 7377SOL    HW233591   1.692   4.103   4.967  2.0015  1.5629 -0.4312
 7378SOL     OW33592   0.431   0.783   0.333  0.4397 -0.1819  0.1569
 7378SOL    HW133593   0.496   0.747   0.393  0.0685  0.1229  0.7478
 7378SOL    HW233594   0.454   0.745   0.249  0.1823  2.4345 -1.1007
 7379SOL     OW33595   1.230   0.545   8.604 -0.7875  0.0300 -0.7131
 7379SOL    HW133596   1.182   0.624   8.577 -1.6816 -0.9111 -1.9073
 7379SOL    HW233597   1.197   0.534   8.693  1.2717  0.0594  0.0328
 7380SOL     OW33598   0.500   0.898   7.488  0.0932  0.3349  0.4077
 7380SOL    HW133599   0.458   0.920   7.405 -0.0732 -2.8982 -0.3986
 7380SOL    HW233600   0.595   0.903   7.478 -0.0238  2.0864  0.3302
 7381SOL     OW33601   4.517   3.368   8.730  0.2442  1.1534 -0.2616
 7381SOL    HW133602   4.426   3.379   8.701 -0.6907  0.9157  2.6062
 7381SOL    HW233603   4.517   3.439   8.794 -1.1483  1.3692 -0.5086
 7382SOL     OW33604   0.208   0.726  11.334  0.0971  0.2894  0.3931
 7382SOL    HW133605   0.301   0.708  11.321  0.1539 -0.3714  1.6194
 7382SOL    HW233606   0.171   0.655  11.281  0.5215 -0.5783  1.2418
 7383SOL     OW33607   0.139   3.031   1.562 -0.1089 -0.1962  0.1004
 7383SOL    HW133608   0.190   3.065   1.635  2.8740 -1.1549 -1.5418
 7383SOL    HW233609   0.116   2.948   1.603  1.0540 -0.1390  0.8683
 7384SOL     OW33610   3.775   1.786   2.554  0.5147  0.1608  0.3723
 7384SOL    HW133611   3.851   1.844   2.548  1.8122 -1.3015  2.5331
 7384SOL    HW233612   3.817   1.699   2.554 -1.2376 -0.6868  1.8695
 7385SOL     OW33613   2.846   4.193   3.115  0.0237 -0.2943 -0.3986
 7385SOL    HW133614   2.762   4.225   3.082 -1.9279 -3.0527  1.8990
 7385SOL    HW233615   2.834   4.098   3.109  0.4569 -0.3170 -0.9652
 7386SOL     OW33616   2.139   2.931   6.353 -0.0316 -0.0609  0.2613
 7386SOL    HW133617   2.154   2.837   6.341  0.6915  0.0859 -0.0057
 7386SOL    HW233618   2.223   2.948   6.395 -0.4569  0.1999  1.0085
 7387SOL     OW33619   3.034   3.447   7.577 -0.3780  0.6095 -0.2261
 7387SOL    HW133620   3.039   3.537   7.609  0.0622  0.1552  0.9821
 7387SOL    HW233621   3.033   3.399   7.660  0.3172 -0.7216 -0.9866
 7388SOL     OW33622   3.188   3.575   3.804  0.1426 -0.4401 -0.0998
 7388SOL    HW133623   3.274   3.596   3.841 -0.4495 -0.0539  1.0438
 7388SOL    HW233624   3.224   3.509   3.744 -1.2829 -1.4656  0.1661
 7389SOL     OW33625   1.056   2.440   6.816  0.2847  0.6892  0.0567
 7389SOL    HW133626   1.027   2.528   6.839 -1.5425  0.2606 -0.6333
 7389SOL    HW233627   0.978   2.392   6.841  1.3079 -1.6933 -1.3719
 7390SOL     OW33628   2.454   0.614   9.630  0.6448  0.4234  0.1189
 7390SOL    HW133629   2.393   0.688   9.630 -2.4002 -2.0951  0.4970
 7390SOL    HW233630   2.503   0.628   9.549  0.4050 -0.9286 -0.2665
 7391SOL     OW33631   2.168   4.491   3.857  0.1983  0.3209 -0.1840
 7391SOL    HW133632   2.224   4.486   3.779  1.6616  1.5673  0.7859
 7391SOL    HW233633   2.079   4.474   3.826  1.0281 -2.0702 -1.2486
 7392SOL     OW33634   0.039   0.151   9.902 -0.8259 -0.9182 -0.3697
 7392SOL    HW133635   4.681   0.135   9.850 -1.4563  4.4681 -1.1348
 7392SOL    HW233636   0.067   0.224   9.846 -1.1108 -1.8077 -1.6543
 7393SOL     OW33637   0.998   1.518   7.653  0.4326 -0.3054 -0.2986
 7393SOL    HW133638   0.948   1.444   7.686 -2.0571  1.7255  0.4832
 7393SOL    HW233639   1.068   1.483   7.599  1.2529 -3.5653  2.8803
 7394SOL     OW33640   0.412   1.420   8.380 -0.3629 -0.7585 -0.1250
 7394SOL    HW133641   0.408   1.366   8.301 -0.8254 -1.6242  0.4893
 7394SOL    HW233642   0.503   1.451   8.377 -0.2102 -1.2988 -1.1511
 7395SOL     OW33643   0.148   3.147   8.158  0.4054  0.4733 -0.5581
 7395SOL    HW133644   0.214   3.113   8.097  1.0871  1.4859 -0.3913
 7395SOL    HW233645   0.082   3.078   8.162 -0.1705  1.0770  0.5411
 7396SOL     OW33646   4.375   2.041   8.368  0.0848  0.0489  0.2198
 7396SOL    HW133647   4.350   2.010   8.281 -1.2917  1.3305  0.1501
 7396SOL    HW233648   4.361   1.956   8.409 -3.4110  1.1260  1.2786
 7397SOL     OW33649   4.664   2.657   3.264  0.0839 -0.1048  0.0519
 7397SOL    HW133650   4.585   2.648   3.211  0.9363  1.5730 -1.4773
 7397SOL    HW233651   4.682   2.566   3.288 -0.6598 -0.6652 -1.5041
 7398SOL     OW33652   4.140   2.161   9.852  0.1992 -0.0689  0.2238
 7398SOL    HW133653   4.123   2.219   9.925 -2.2111 -1.2541  0.6008
 7398SOL    HW233654   4.229   2.188   9.829 -0.1874  2.3242  1.6210
 7399SOL     OW33655   2.977   0.927  13.676 -0.5322 -0.5451 -0.5748
 7399SOL    HW133656   2.949   1.018  13.674 -1.0901 -0.7111 -0.3743
 7399SOL    HW233657   3.015   0.912  13.589  0.0217  2.4606 -0.8277
 7400SOL     OW33658   3.354   0.629   6.392  0.0695  0.3692 -0.0676
 7400SOL    HW133659   3.328   0.676   6.472  2.0994  1.6707 -0.1887
 7400SOL    HW233660   3.335   0.536   6.405 -0.0628  0.3611 -0.3280
 7401SOL     OW33661   2.239   0.182  14.806  0.1258  0.4416 -0.1757
 7401SOL    HW133662   2.173   0.161  14.872 -1.5846 -0.9289 -2.3500
 7401SOL    HW233663   2.184   0.245  14.760  0.1457  0.6520  0.0855
 7402SOL     OW33664   2.161   4.526   5.299  0.2483 -0.0170  0.2240
 7402SOL    HW133665   2.221   4.497   5.368  0.1583 -2.7110 -0.8175
 7402SOL    HW233666   2.163   4.458   5.231 -1.1175 -0.1585  0.3328
 7403SOL     OW33667   2.558   1.158   6.171 -0.0839  0.1792 -0.2667
 7403SOL    HW133668   2.651   1.135   6.166  0.2228  1.2985  0.4172
 7403SOL    HW233669   2.565   1.222   6.242 -0.7624  0.4672 -0.4589
 7404SOL     OW33670   1.720   0.577  15.234  0.1803 -0.0914  0.3984
 7404SOL    HW133671   1.737   0.506  15.297 -1.9260 -0.2748  0.7679
 7404SOL    HW233672   1.741   0.651  15.291  0.2147 -0.7070  1.1936
 7405SOL     OW33673   3.531   0.398  13.032 -0.2944  0.1461 -0.0901
 7405SOL    HW133674   3.581   0.376  13.111 -0.9397 -1.1470 -0.0370
 7405SOL    HW233675   3.482   0.316  13.023 -1.0001  0.4056  1.3120
 7406SOL     OW33676   3.896   3.970   4.492 -0.0701  0.0905  0.5816
 7406SOL    HW133677   3.969   4.021   4.456 -0.6085  1.3701  1.3102
 7406SOL    HW233678   3.948   3.907   4.543  0.3121  0.3029  0.4577
 7407SOL     OW33679   1.882   0.492  14.907  0.6375 -0.1466  0.0581
 7407SOL    HW133680   1.866   0.418  14.966 -2.1240  1.8975  1.8547
 7407SOL    HW233681   1.974   0.480  14.883  0.1846 -0.1065 -1.6891
 7408SOL     OW33682   3.547   2.129   8.035  0.5777 -0.0632 -0.4378
 7408SOL    HW133683   3.562   2.108   8.127 -2.3732  1.1803  0.3126
 7408SOL    HW233684   3.523   2.041   8.007 -1.2781 -0.2157  1.6219
 7409SOL     OW33685   2.984   1.318   3.974 -0.1470  0.2231  0.4249
 7409SOL    HW133686   2.899   1.283   3.952 -0.0841 -0.2224  0.8824
 7409SOL    HW233687   3.025   1.241   4.013 -1.3788 -0.6667 -0.0540
 7410SOL     OW33688   3.696   3.451  15.397  0.1031 -0.1918 -0.3556
 7410SOL    HW133689   3.623   3.393  15.416  0.6861 -1.2554 -1.3478
 7410SOL    HW233690   3.708   3.492  15.483  0.7050 -0.0801 -0.4896
 7411SOL     OW33691   3.031   0.146   7.779  0.5625  0.4430  0.3590
 7411SOL    HW133692   2.945   0.153   7.738  1.1344 -1.2927 -1.0997
 7411SOL    HW233693   3.030   0.057   7.815 -0.7903  0.4984  0.4653
 7412SOL     OW33694   4.621   1.985   1.412  0.1423 -0.2292  0.0673
 7412SOL    HW133695   4.605   1.903   1.366  1.2665  0.1353 -0.9882
 7412SOL    HW233696   4.541   2.038   1.405  0.8335  1.0116  1.5511
 7413SOL     OW33697   1.274   1.954   6.056 -0.3165 -0.0527  0.4064
 7413SOL    HW133698   1.227   2.036   6.072  1.4740  0.6854  1.9930
 7413SOL    HW233699   1.244   1.929   5.969 -0.1989 -0.1136  0.3836
 7414SOL     OW33700   1.692   3.065  17.437  0.5708 -0.6668 -0.7259
 7414SOL    HW133701   1.680   2.975  17.405  3.4271 -0.2863 -2.9306
 7414SOL    HW233702   1.782   3.083  17.412  0.4920  0.1322 -0.4436
 7415SOL     OW33703   3.650   0.388   6.472 -0.0114  0.0971 -0.3512
 7415SOL    HW133704   3.585   0.423   6.533  0.2096 -2.2629  1.2455
 7415SOL    HW233705   3.707   0.336   6.529 -0.4412  0.5352  0.4749
 7416SOL     OW33706   2.698   2.908   6.475  0.0111 -0.7031 -0.1013
 7416SOL    HW133707   2.685   2.862   6.393  0.5609 -1.8148  0.4446
 7416SOL    HW233708   2.785   2.879   6.504 -0.0403 -0.3725  0.3838
 7417SOL     OW33709   4.206   0.706   6.962 -0.1510  0.3605 -0.4739
 7417SOL    HW133710   4.223   0.637   7.026 -2.0755 -0.0516 -0.4112
 7417SOL    HW233711   4.292   0.744   6.946  0.4551 -0.8189  0.0099
 7418SOL     OW33712   3.455   4.212  11.269  0.1330 -0.0253  0.0980
 7418SOL    HW133713   3.426   4.139  11.215 -1.8094  0.0016  1.1218
 7418SOL    HW233714   3.378   4.264  11.290  0.4799 -0.7578  3.0596
 7419SOL     OW33715   1.525   4.165   2.488 -0.1834  0.3971 -0.8655
 7419SOL    HW133716   1.617   4.189   2.498 -0.2491  0.2304  0.2069
 7419SOL    HW233717   1.495   4.242   2.440 -1.2967  0.5048  0.0104
 7420SOL     OW33718   0.216   4.430  13.819  0.5653 -0.5155  0.4348
 7420SOL    HW133719   0.160   4.357  13.793 -0.2748  0.1074  0.4968
 7420SOL    HW233720   0.302   4.401  13.789  1.3484  1.4215  0.7526
 7421SOL     OW33721   3.167   0.153   5.621 -0.0802 -0.6506 -0.1275
 7421SOL    HW133722   3.157   0.106   5.704 -2.5793 -0.3862 -0.2729
 7421SOL    HW233723   3.099   0.220   5.622  1.1280  0.5979 -2.4199
 7422SOL     OW33724   3.955   0.635   8.453 -0.4342 -0.4826  0.3125
 7422SOL    HW133725   3.996   0.571   8.511  1.8682  0.5215 -0.2143
 7422SOL    HW233726   3.985   0.604   8.367  0.8965 -2.4577  1.5125
 7423SOL     OW33727   1.588   1.963   8.268 -0.6174  0.0592 -0.0308
 7423SOL    HW133728   1.618   2.035   8.212  3.0400 -2.3849 -1.2291
 7423SOL    HW233729   1.588   1.898   8.198 -0.0572 -1.7945  1.6990
 7424SOL     OW33730   3.632   3.020   7.405  0.2846 -0.0346 -0.7531
 7424SOL    HW133731   3.568   3.070   7.456 -0.1892 -1.5620  0.1331
 7424SOL    HW233732   3.589   3.013   7.319 -1.3760  1.2167 -0.0313
 7425SOL     OW33733   4.688   3.134   2.483  0.2423 -0.2054  0.6916
 7425SOL    HW133734   0.060   3.129   2.510 -0.3943 -1.6370  2.5228
 7425SOL    HW233735   4.701   3.221   2.445  1.5014 -1.8925 -2.8009
 7426SOL     OW33736   2.051   1.476   7.219  0.0392  0.0565  0.4821
 7426SOL    HW133737   2.006   1.395   7.196 -1.7110  0.6001  2.0247
 7426SOL    HW233738   2.003   1.529   7.155  0.0954 -1.4560 -0.7909
 7427SOL     OW33739   0.738   1.158   5.852  0.1543 -0.3375  0.1060
 7427SOL    HW133740   0.739   1.158   5.947  2.4898 -0.1645  0.0864
 7427SOL    HW233741   0.791   1.236   5.838  0.5330 -0.8474 -1.3562
 7428SOL     OW33742   0.786   3.798  10.578  0.2620  0.4475  0.2684
 7428SOL    HW133743   0.799   3.727  10.516  1.3514  1.7512 -0.9945
 7428SOL    HW233744   0.788   3.865  10.510 -4.3937  0.1694 -0.1443
 7429SOL     OW33745   2.947   1.176  13.616  0.0533  0.2381  0.3300
 7429SOL    HW133746   3.001   1.251  13.639 -1.0235  0.6702  1.4447
 7429SOL    HW233747   2.871   1.218  13.576  0.3256 -0.6262 -1.0854
 7430SOL     OW33748   1.774   4.548   1.476  0.4845  0.4136 -0.0521
 7430SOL    HW133749   1.821   4.602   1.413 -0.7401 -1.5761 -2.7239
 7430SOL    HW233750   1.685   4.581   1.459 -0.3914 -0.9640  1.8759
 7431SOL     OW33751   0.825   1.173   4.935 -0.1734  0.1512 -0.2850
 7431SOL    HW133752   0.764   1.199   4.866  1.6935  0.6863 -1.7033
 7431SOL    HW233753   0.871   1.257   4.929 -1.6950  1.2201  2.5596
 7432SOL     OW33754   2.459   2.899   2.917 -0.2936 -0.5557  0.2833
 7432SOL    HW133755   2.369   2.875   2.894  0.2886 -1.5427 -0.9973
 7432SOL    HW233756   2.442   2.958   2.990 -1.4375 -0.7425  0.1677
 7433SOL     OW33757   0.689   3.268   4.409  0.0728 -0.0155  0.5422
 7433SOL    HW133758   0.722   3.289   4.496  1.9354  0.8142 -0.3556
 7433SOL    HW233759   0.600   3.255   4.443 -0.1505 -0.4097 -0.1916
 7434SOL     OW33760   3.310   0.041   2.523 -0.2897 -0.2110  0.0374
 7434SOL    HW133761   3.324   0.120   2.469  0.0084  0.3329  0.9210
 7434SOL    HW233762   3.225   0.013   2.488 -1.1509  1.4368  0.7883
 7435SOL     OW33763   4.037   3.499  14.931 -0.3576 -0.0564 -0.2595
 7435SOL    HW133764   4.042   3.447  14.851  2.2816  0.8765 -0.6874
 7435SOL    HW233765   4.121   3.488  14.976 -0.0365  2.2192 -0.2817
 7436SOL     OW33766   0.931   3.949   7.555  0.3517  0.8706  0.0623
 7436SOL    HW133767   0.881   3.924   7.477  2.3935  0.5991 -1.1496
 7436SOL    HW233768   0.900   3.884   7.618 -1.8878  1.5054 -0.3606
 7437SOL     OW33769   0.413   1.361   2.009  0.0129  0.4649 -0.3981
 7437SOL    HW133770   0.416   1.446   2.052 -0.3898  0.5964 -0.6289
 7437SOL    HW233771   0.387   1.379   1.919  0.8635  1.0072 -0.5237
 7438SOL     OW33772   1.165   4.401   1.811 -0.0256  0.2938  0.4265
 7438SOL    HW133773   1.195   4.490   1.796 -1.8468  0.2881 -3.2402
 7438SOL    HW233774   1.106   4.401   1.736  0.8385  1.7276 -0.2518
 7439SOL     OW33775   1.731   3.783   5.090 -0.1424  0.5108 -0.5497
 7439SOL    HW133776   1.710   3.698   5.051 -2.0761  1.2112 -1.0570
 7439SOL    HW233777   1.790   3.758   5.161  0.0152  0.1127 -0.8182
 7440SOL     OW33778   2.588   3.644  16.111  0.2196 -0.0489  1.1051
 7440SOL    HW133779   2.493   3.632  16.102  0.4571 -0.2856 -1.1012
 7440SOL    HW233780   2.587   3.700  16.189 -1.4348  3.0027 -1.0988
 7441SOL     OW33781   3.509   3.433   4.054 -0.2264 -0.3609 -0.4007
 7441SOL    HW133782   3.450   3.504   4.078  0.2834 -1.0529  2.8979
 7441SOL    HW233783   3.448   3.364   4.079 -0.7663  0.7404  1.3109
 7442SOL     OW33784   2.287   1.185   7.048 -0.4692 -0.0914  0.2544
 7442SOL    HW133785   2.229   1.166   7.122 -1.5551  0.3400 -0.4912
 7442SOL    HW233786   2.228   1.239   6.996  0.1949 -0.5143 -0.9287
 7443SOL     OW33787   2.981   4.169   2.312  0.3292 -0.1735 -0.5045
 7443SOL    HW133788   3.066   4.130   2.334  0.9030  1.1883 -0.2600
 7443SOL    HW233789   2.979   4.229   2.386 -0.4588  0.0316 -0.6981
 7444SOL     OW33790   3.728   1.600   5.124 -0.3570 -0.3965  0.3022
 7444SOL    HW133791   3.779   1.661   5.070 -1.7380  1.2383  0.8447
 7444SOL    HW233792   3.770   1.523   5.087  1.1195 -0.4142  2.0291
 7445SOL     OW33793   0.424   1.634   4.992 -0.8703  0.5112  0.1101
 7445SOL    HW133794   0.393   1.624   4.902  1.8571 -0.1269 -0.7466
 7445SOL    HW233795   0.469   1.553   5.014 -0.0933  1.3680  1.6955
 7446SOL     OW33796   1.186   4.253   6.550  1.1907  0.2406 -0.4325
 7446SOL    HW133797   1.183   4.349   6.552 -1.1942  0.1347  1.9165
 7446SOL    HW233798   1.148   4.234   6.636  1.1827  1.1169 -0.2474
 7447SOL     OW33799   2.632   1.881   7.012  0.4020  0.5793  0.1898
 7447SOL    HW133800   2.726   1.899   7.023  0.1848  1.9057 -0.1224
 7447SOL    HW233801   2.636   1.824   6.935  0.1070  1.0437 -0.1694
 7448SOL     OW33802   4.099   3.814  12.848 -0.0391  0.3869  0.3352
 7448SOL    HW133803   4.105   3.720  12.861  2.6762  0.5709  0.4473
 7448SOL    HW233804   4.043   3.821  12.770 -1.8229  0.1054  1.5994
 7449SOL     OW33805   2.181   0.307   1.726 -0.5121 -0.4214 -0.0100
 7449SOL    HW133806   2.249   0.280   1.787 -2.3510 -0.4365  2.0147
 7449SOL    HW233807   2.142   0.382   1.772 -1.0162 -0.7725  0.1378
 7450SOL     OW33808   4.638   1.887   8.217  0.3944 -0.0882 -0.1286
 7450SOL    HW133809   4.570   1.831   8.180 -0.0369  1.5298 -1.7879
 7450SOL    HW233810   4.629   1.870   8.311  3.6039 -2.7847 -0.3384
 7451SOL     OW33811   1.110   0.353  10.852  0.4086  0.4740 -0.0116
 7451SOL    HW133812   1.187   0.300  10.871 -0.8593 -1.7840 -1.1483
 7451SOL    HW233813   1.056   0.280  10.823  1.3243  0.2394 -1.1262
 7452SOL     OW33814   4.479   0.233   1.936 -0.1671 -0.0751  0.4474
 7452SOL    HW133815   4.526   0.162   1.980  0.3119  0.4862  0.8328
 7452SOL    HW233816   4.448   0.182   1.861  1.3849 -1.6388  0.8701
 7453SOL     OW33817   4.636   2.431   7.993  0.3130  0.0127 -0.1461
 7453SOL    HW133818   4.599   2.428   8.082 -2.1569 -1.5987 -1.2374
 7453SOL    HW233819   4.697   2.506   7.995  0.7012 -0.2645 -1.8385
 7454SOL     OW33820   4.279   3.914  16.657  0.2183  0.0127  0.1123
 7454SOL    HW133821   4.195   3.960  16.660  0.0388 -0.0672 -3.0178
 7454SOL    HW233822   4.273   3.841  16.718  1.3403  0.4019  0.6884
 7455SOL     OW33823   2.534   2.505   9.060  0.3504  0.7659 -0.4747
 7455SOL    HW133824   2.447   2.469   9.075 -0.2421  1.1127 -2.9651
 7455SOL    HW233825   2.529   2.593   9.097 -2.8626  0.5702 -0.3770
 7456SOL     OW33826   0.707   0.037   2.979  0.4110  0.2448 -0.3858
 7456SOL    HW133827   0.709   4.697   2.904  2.2460 -1.3238  0.9158
 7456SOL    HW233828   0.787   0.089   2.969  0.9968 -0.5147  0.3586
 7457SOL     OW33829   1.419   1.732   6.384  0.0370  0.2005 -0.4951
 7457SOL    HW133830   1.444   1.642   6.403 -0.3027  0.3721  0.7787
 7457SOL    HW233831   1.323   1.728   6.382  0.0465 -0.3124  0.1647
 7458SOL     OW33832   1.474   4.047   1.955 -0.0922  0.0868 -0.2101
 7458SOL    HW133833   1.527   4.126   1.966  0.5266 -0.4775  0.8496
 7458SOL    HW233834   1.427   4.079   1.878  2.2314 -0.2745 -1.7905
 7459SOL     OW33835   0.101   4.316   5.698 -0.1145  0.2261 -0.3315
 7459SOL    HW133836   0.167   4.350   5.637  0.2720 -1.4812 -0.8696
 7459SOL    HW233837   0.046   4.394   5.703  2.2097  1.8599 -0.4382
 7460SOL     OW33838   2.353   4.329   8.705  0.8061 -0.1814 -0.0864
 7460SOL    HW133839   2.439   4.334   8.747  1.4103 -0.9015 -1.2605
 7460SOL    HW233840   2.300   4.276   8.765 -0.3919  2.0117  0.8107
 7461SOL     OW33841   2.136   1.036  10.171 -0.3606 -0.0503  0.5350
 7461SOL    HW133842   2.058   0.984  10.153  1.8651 -3.5505  1.2007
 7461SOL    HW233843   2.091   1.119  10.150  0.1306  0.3932  1.2239
 7462SOL     OW33844   3.079   0.940   4.028 -0.7753 -0.6886  0.0679
 7462SOL    HW133845   3.027   0.923   3.950 -0.2940  0.6485 -0.5453
 7462SOL    HW233846   3.160   0.975   3.989 -0.2703 -0.5094  1.2700
 7463SOL     OW33847   0.714   2.158   5.783  0.1158 -0.1337 -0.1226
 7463SOL    HW133848   0.638   2.120   5.827  2.2834 -2.3665  1.6741
 7463SOL    HW233849   0.750   2.210   5.854  0.3022 -0.4612  0.0233
 7464SOL     OW33850   0.870   0.828   1.416  0.3613  0.4185 -0.0920
 7464SOL    HW133851   0.806   0.829   1.487  1.2663  1.0612  0.7081
 7464SOL    HW233852   0.877   0.922   1.403  0.1348  0.3986 -0.3431
 7465SOL     OW33853   3.545   2.219  15.930 -0.4756  0.4610 -0.4560
 7465SOL    HW133854   3.602   2.146  15.907 -1.2182 -1.0981  2.7406
 7465SOL    HW233855   3.587   2.245  16.012  1.2301 -1.6661 -0.6823
 7466SOL     OW33856   3.965   0.368   7.187  0.5302  0.0215 -0.1244
 7466SOL    HW133857   3.908   0.408   7.121  1.3614 -1.1777 -1.5963
 7466SOL    HW233858   3.899   0.343   7.251 -1.5192 -0.8185 -2.5358
 7467SOL     OW33859   4.617   2.751   4.898 -0.2136  0.5168 -0.0604
 7467SOL    HW133860   4.543   2.768   4.839 -0.8735 -3.9012 -0.4580
 7467SOL    HW233861   4.618   2.812   4.972  2.3774  0.2927  0.0698
 7468SOL     OW33862   2.389   1.448   4.468  0.3472  0.5393  0.5074
 7468SOL    HW133863   2.328   1.387   4.510 -0.6632  0.4743 -1.0477
 7468SOL    HW233864   2.468   1.441   4.521  0.1271 -2.2111  0.4522
 7469SOL     OW33865   2.366   2.519   6.638 -0.9375  0.1675  0.4306
 7469SOL    HW133866   2.296   2.512   6.703 -0.6944 -2.1019  0.4338
 7469SOL    HW233867   2.410   2.602   6.657  0.2455 -0.6961  1.4333
 7470SOL     OW33868   4.216   2.705   9.018  0.6125  0.3914 -0.5269
 7470SOL    HW133869   4.158   2.715   8.942 -0.1795  1.2695  0.1958
 7470SOL    HW233870   4.166   2.630   9.052 -0.5217  0.0242 -2.9748
 7471SOL     OW33871   3.726   0.255  17.484  0.3589 -0.2983  0.1717
 7471SOL    HW133872   3.654   0.299  17.530  1.2502 -0.0277  1.3227
 7471SOL    HW233873   3.689   0.167  17.481  0.1172 -0.1803 -0.2509
 7472SOL     OW33874   2.584   1.828  14.723 -0.0119  0.3598 -0.1223
 7472SOL    HW133875   2.606   1.760  14.787 -0.1106 -0.5880 -1.0880
 7472SOL    HW233876   2.640   1.796  14.651 -0.0386  2.2369 -0.9730
 7473SOL     OW33877   0.937   3.483   1.850 -0.1169  0.7006  0.3778
 7473SOL    HW133878   0.856   3.440   1.822  0.0958  0.8084 -0.4136
 7473SOL    HW233879   0.999   3.448   1.786 -1.0298  3.6913 -2.1404
 7474SOL     OW33880   3.201   4.096   6.867  0.1968 -0.2707 -0.6697
 7474SOL    HW133881   3.260   4.171   6.869 -0.4389  0.1705  1.1781
 7474SOL    HW233882   3.207   4.065   6.776  0.3314  1.2461 -1.1856
 7475SOL     OW33883   3.278   3.374   3.225 -0.6209 -0.3168  0.0729
 7475SOL    HW133884   3.322   3.303   3.273 -0.1968 -0.0402  0.0940
 7475SOL    HW233885   3.301   3.449   3.280 -0.2347  0.2834 -0.9299
 7476SOL     OW33886   3.166   3.796   3.588  0.3124  0.0732  0.0516
 7476SOL    HW133887   3.214   3.780   3.507 -0.6417 -0.3839 -0.4364
 7476SOL    HW233888   3.150   3.706   3.618  0.5572  0.1910  0.5327
 7477SOL     OW33889   4.283   0.795   4.178 -0.5146  0.2921  0.0166
 7477SOL    HW133890   4.378   0.789   4.166 -0.4978  1.7367 -0.5873
 7477SOL    HW233891   4.259   0.703   4.168 -1.1542  0.6304 -1.6114
 7478SOL     OW33892   3.075   2.439   6.850 -0.1354  0.0992 -0.0101
 7478SOL    HW133893   2.997   2.494   6.856 -0.0095  0.1759  1.0237
 7478SOL    HW233894   3.142   2.507   6.844 -0.4994  0.1389 -3.2369
 7479SOL     OW33895   0.240   1.533   6.820 -0.9682  0.1413  0.2820
 7479SOL    HW133896   0.303   1.495   6.880 -0.3929  0.2948 -0.2233
 7479SOL    HW233897   0.281   1.539   6.734 -0.4489 -0.6124  0.4793
 7480SOL     OW33898   1.239   1.617  15.164 -0.3060 -0.0907 -0.4833
 7480SOL    HW133899   1.286   1.535  15.147 -0.9413 -0.5051 -0.2115
 7480SOL    HW233900   1.284   1.678  15.105  0.9943  0.6675  1.2856
 7481SOL     OW33901   0.254   1.428   8.976 -0.6226  0.1779  0.2418
 7481SOL    HW133902   0.259   1.389   9.064  0.7858 -0.7755 -0.2729
 7481SOL    HW233903   0.344   1.451   8.956  0.0131 -1.2358  1.5231
 7482SOL     OW33904   0.431   3.225   8.361  0.0177  0.4784  0.1159
 7482SOL    HW133905   0.420   3.165   8.287  1.7722  0.9406 -0.5209
 7482SOL    HW233906   0.519   3.199   8.389 -1.1590 -3.8032 -0.1576
 7483SOL     OW33907   1.930   4.500   8.845 -0.0721  0.0672  0.5060
 7483SOL    HW133908   1.954   4.551   8.768  0.9893  1.1546  1.5650
 7483SOL    HW233909   1.844   4.469   8.815 -0.3108 -1.3253  2.6309
 7484SOL     OW33910   1.791   0.823   8.767  0.3048 -0.0137  0.1587
 7484SOL    HW133911   1.728   0.888   8.736  0.6141  0.0476 -0.3387
 7484SOL    HW233912   1.742   0.742   8.780 -1.1596  0.8901  0.3807
 7485SOL     OW33913   1.976   2.653  14.963 -0.2217 -0.2907  0.1447
 7485SOL    HW133914   2.008   2.655  15.052  1.2232  0.4927 -0.4016
 7485SOL    HW233915   1.958   2.743  14.938  0.3386 -0.1868  0.1145
 7486SOL     OW33916   3.638   0.434   4.531 -0.6982  0.5284 -0.6903
 7486SOL    HW133917   3.703   0.366   4.516 -0.8825 -0.2445  2.0726
 7486SOL    HW233918   3.630   0.429   4.626  1.8765 -1.5807 -0.5773
 7487SOL     OW33919   3.222   1.027  17.506  0.3038  0.5747  0.1978
 7487SOL    HW133920   3.245   1.119  17.494  1.0457  0.4417  0.5561
 7487SOL    HW233921   3.132   1.025  17.476 -0.6114  1.4448  2.8543
 7488SOL     OW33922   0.683   1.870   2.827  0.0388 -0.6477  1.2659
 7488SOL    HW133923   0.757   1.848   2.883  1.5284  3.1530  0.8019
 7488SOL    HW233924   0.675   1.961   2.855 -0.6311  0.0427 -1.1932
 7489SOL     OW33925   2.856   1.659   2.390  0.3644 -0.2289 -0.4072
 7489SOL    HW133926   2.923   1.630   2.328 -0.5196 -1.9133 -0.6030
 7489SOL    HW233927   2.792   1.589   2.374 -1.1249  1.3275 -1.2863
 7490SOL     OW33928   2.862   2.798   8.342 -0.1339 -0.4717 -0.2937
 7490SOL    HW133929   2.952   2.770   8.355 -0.1907 -0.3315  0.3875
 7490SOL    HW233930   2.833   2.717   8.384  0.0872 -1.2223 -1.5826
 7491SOL     OW33931   1.864   1.606  17.526  0.3662 -0.0661 -0.0203
 7491SOL    HW133932   1.915   1.578  17.603 -2.4592 -2.0806  1.1285
 7491SOL    HW233933   1.779   1.611  17.569 -0.5325 -0.1419 -1.8321
 7492SOL     OW33934   4.294   4.411   7.708  0.1369 -0.1192 -0.0145
 7492SOL    HW133935   4.236   4.433   7.781  0.9283 -3.6171  1.6354
 7492SOL    HW233936   4.237   4.447   7.640  1.4139 -0.6908 -1.3702
 7493SOL     OW33937   1.099   1.267   3.682 -0.0980 -0.1309  0.6412
 7493SOL    HW133938   1.177   1.306   3.722 -0.9839 -0.1469  2.3992
 7493SOL    HW233939   1.139   1.188   3.645  0.0408 -0.4740  1.5258
 7494SOL     OW33940   4.470   3.112  11.140 -0.7540  0.5040  0.0842
 7494SOL    HW133941   4.400   3.176  11.153 -1.4896 -0.0916 -1.0055
 7494SOL    HW233942   4.522   3.159  11.075 -0.5139 -0.0318 -0.1072
 7495SOL     OW33943   4.055   3.047   8.356 -0.4970  0.5442 -0.4199
 7495SOL    HW133944   4.132   3.067   8.409 -1.8184  1.8414  1.0308
 7495SOL    HW233945   3.992   3.031   8.427 -2.7647  2.4801 -1.9879
 7496SOL     OW33946   2.950   4.562  10.874  0.0145 -0.5147 -0.3015
 7496SOL    HW133947   2.989   4.606  10.799  0.2461 -0.6788 -0.2764
 7496SOL    HW233948   2.999   4.480  10.880 -0.4873 -0.8992 -1.6283
 7497SOL     OW33949   0.535   3.216   3.962 -0.4725  0.4080 -0.5759
 7497SOL    HW133950   0.582   3.209   3.879  0.0341 -1.7775 -0.0867
 7497SOL    HW233951   0.591   3.271   4.017 -0.4535 -0.3002  0.1170
 7498SOL     OW33952   1.057   4.113   4.734 -0.3715 -0.4444  0.2552
 7498SOL    HW133953   1.049   4.150   4.646  1.4920  0.8647  0.6693
 7498SOL    HW233954   0.974   4.067   4.750 -0.7045 -1.2106 -3.5146
 7499SOL     OW33955   4.119   0.625   4.437 -0.1219  0.1337 -0.3477
 7499SOL    HW133956   4.082   0.693   4.493  2.0136  0.5033  0.6151
 7499SOL    HW233957   4.037   0.577   4.428  0.1453 -0.0048 -2.1450
 7500SOL     OW33958   2.220   0.545   6.654 -0.1585 -0.3591  0.8065
 7500SOL    HW133959   2.208   0.610   6.585 -1.5159 -2.3045 -0.8058
 7500SOL    HW233960   2.311   0.518   6.642 -0.7227 -1.2536 -1.4988
 7501SOL     OW33961   4.162   0.035  11.438  0.0571  0.0462 -0.4472
 7501SOL    HW133962   4.216   0.108  11.407  0.0840  1.5509  3.1391
 7501SOL    HW233963   4.171   0.040  11.533 -0.0055 -0.4954 -0.4170
 7502SOL     OW33964   3.976   0.537   5.118  0.6149 -0.4528  0.4312
 7502SOL    HW133965   4.009   0.590   5.046  0.4945 -2.9659 -1.4816
 7502SOL    HW233966   4.040   0.562   5.184 -0.4249  1.8875  0.5582
 7503SOL     OW33967   4.236   2.692   1.988  0.3583 -0.1363 -0.2100
 7503SOL    HW133968   4.201   2.781   1.993 -0.1884 -0.1948 -3.1859
 7503SOL    HW233969   4.328   2.719   1.978 -0.1479  2.9435  3.1287
 7504SOL     OW33970   0.266   2.097   4.636  0.1694  0.4458  0.0059
 7504SOL    HW133971   0.225   2.173   4.677  1.1253 -0.4244  2.5912
 7504SOL    HW233972   0.331   2.137   4.579 -0.1298 -1.3513 -1.5727
 7505SOL     OW33973   1.072   3.069  10.513 -0.0025  0.5392  0.0005
 7505SOL    HW133974   1.134   3.041  10.580  1.0743 -0.6013 -1.4746
 7505SOL    HW233975   1.004   3.113  10.564 -0.0831  0.1209  0.2501
 7506SOL     OW33976   4.467   1.165   5.721  0.2284 -0.2434 -0.0715
 7506SOL    HW133977   4.545   1.120   5.754  0.6956 -0.2128 -1.1300
 7506SOL    HW233978   4.397   1.137   5.779 -0.4363  0.6318 -0.4379
 7507SOL     OW33979   2.801   3.546   3.078  0.5338 -0.3138 -0.2941
 7507SOL    HW133980   2.766   3.616   3.132 -0.1180 -1.4533  0.7765
 7507SOL    HW233981   2.722   3.496   3.058 -0.0485  0.6196 -0.3048
 7508SOL     OW33982   0.510   3.714  15.396 -0.0242 -0.2039 -0.4461
 7508SOL    HW133983   0.502   3.618  15.388  1.9081 -0.4666  0.9831
 7508SOL    HW233984   0.453   3.726  15.472  1.0506  2.4374 -0.0637
 7509SOL     OW33985   3.069   0.930   7.940 -0.2650 -0.1570  0.3326
 7509SOL    HW133986   3.096   0.980   8.016 -0.3286  0.6983 -0.2082
 7509SOL    HW233987   3.012   1.000   7.908  0.3546  0.3776  0.4171
 7510SOL     OW33988   0.225   4.489   4.516 -0.4497 -0.0266  0.1747
 7510SOL    HW133989   0.235   4.408   4.566  1.1346 -0.4451 -0.8273
 7510SOL    HW233990   0.254   4.467   4.428 -0.1535  2.1478 -0.2809
 7511SOL     OW33991   0.693   1.697  11.246  0.1123  0.2590 -0.5294
 7511SOL    HW133992   0.756   1.742  11.189  0.6678 -0.2973 -0.3578
 7511SOL    HW233993   0.614   1.701  11.193  0.5920 -0.4521 -1.3066
 7512SOL     OW33994   0.401   2.574   0.285 -0.1339  0.2052 -0.3918
 7512SOL    HW133995   0.444   2.636   0.226 -0.5783  0.5149 -0.3917
 7512SOL    HW233996   0.332   2.627   0.324 -1.7310 -1.6390 -0.7025
 7513SOL     OW33997   4.327   1.469   0.707 -0.3583  0.0522  0.1227
 7513SOL    HW133998   4.357   1.448   0.796  1.9985 -0.4545 -0.8061
 7513SOL    HW233999   4.379   1.406   0.657  0.7213  1.8893 -1.0502
 7514SOL     OW34000   0.926   0.164   2.921  0.4766  0.0177 -0.4785
 7514SOL    HW134001   0.998   0.202   2.972 -0.0374  0.4329 -0.0700
 7514SOL    HW234002   0.982   0.099   2.878  1.3578 -1.1253  2.4104
 7515SOL     OW34003   2.190   0.082  17.621  0.0365  0.5888 -0.6073
 7515SOL    HW134004   2.232   0.132  17.550 -1.0199  3.5440  0.8385
 7515SOL    HW234005   2.265   0.024  17.633  0.4200  1.7069  2.2903
 7516SOL     OW34006   1.859   3.106  16.150 -0.2501 -0.2099  0.2972
 7516SOL    HW134007   1.822   3.023  16.182 -0.6549 -0.3826 -0.6216
 7516SOL    HW234008   1.951   3.082  16.143 -0.4516 -0.5529 -1.0919
 7517SOL     OW34009   4.392   4.351  14.352  0.1688 -0.4371  0.3445
 7517SOL    HW134010   4.298   4.366  14.341  0.1801 -1.4207 -0.9984
 7517SOL    HW234011   4.423   4.392  14.272  0.9992  2.3813  2.1174
 7518SOL     OW34012   0.746   3.709  15.032 -0.5538 -0.3908 -0.2232
 7518SOL    HW134013   0.666   3.675  14.990  0.9846 -3.9495 -0.3069
 7518SOL    HW234014   0.747   3.802  15.010 -0.7267  0.1853  2.2116
 7519SOL     OW34015   3.495   1.420   5.169  0.5245 -0.2633  0.2748
 7519SOL    HW134016   3.478   1.423   5.263  0.4546 -0.5969  0.2737
 7519SOL    HW234017   3.569   1.481   5.167  0.7233 -0.4351  2.2532
 7520SOL     OW34018   2.717   3.225   2.934  0.4036 -0.3489  0.3172
 7520SOL    HW134019   2.704   3.139   2.895 -1.3515 -0.1558  0.5081
 7520SOL    HW234020   2.735   3.196   3.023  0.6590 -2.1362 -0.3047
 7521SOL     OW34021   0.387   3.584   7.815 -0.4481  0.2794 -0.1836
 7521SOL    HW134022   0.447   3.511   7.831 -2.4352 -1.2058  0.5670
 7521SOL    HW234023   0.430   3.652   7.867  0.8153 -1.1213  0.5764
 7522SOL     OW34024   2.719   3.685   4.932  0.5709  0.3092  0.7548
 7522SOL    HW134025   2.781   3.625   4.890 -0.0308 -1.1537  1.9729
 7522SOL    HW234026   2.644   3.672   4.873  1.0901  0.5901  0.0241
 7523SOL     OW34027   4.353   3.852   7.135 -0.0462  0.8240 -0.7457
 7523SOL    HW134028   4.298   3.919   7.178  1.8789  0.9123  1.5534
 7523SOL    HW234029   4.440   3.891   7.136  0.3638 -0.1251  0.1553
 7524SOL     OW34030   1.140   0.176   1.002 -0.5084  0.2047  0.3922
 7524SOL    HW134031   1.065   0.161   0.944  0.9785  1.3707 -1.8099
 7524SOL    HW234032   1.209   0.219   0.952 -1.2075  1.4015  0.4564
 7525SOL     OW34033   1.765   0.962  10.399  0.1727  0.6256 -0.1633
 7525SOL    HW134034   1.838   0.916  10.357 -0.5485  1.9930 -2.8733
 7525SOL    HW234035   1.777   0.948  10.493  1.5593 -0.6369 -0.5234
 7526SOL     OW34036   1.543   1.113   4.688  0.6736  0.0138  0.1161
 7526SOL    HW134037   1.475   1.125   4.753  1.2015  2.1215  0.2758
 7526SOL    HW234038   1.514   1.033   4.644 -1.1766  1.5272 -1.3782
 7527SOL     OW34039   0.927   0.023   4.074 -0.0493 -0.0389 -0.1040
 7527SOL    HW134040   0.875   0.072   4.139  0.6726  2.3744 -1.3494
 7527SOL    HW234041   0.853   0.003   4.016  0.9547  0.1710 -1.4479
 7528SOL     OW34042   1.603   3.052   5.190  0.1260 -0.3294 -0.2686
 7528SOL    HW134043   1.571   3.018   5.107 -1.7434 -0.6692  0.5792
 7528SOL    HW234044   1.692   3.020   5.179 -0.1011  0.1655 -3.5122
 7529SOL     OW34045   0.532   4.663   0.057 -0.1107 -0.5014  0.0974
 7529SOL    HW134046   0.480   4.706  17.669 -0.7366 -0.9578  0.2881
 7529SOL    HW234047   0.538   0.025   0.107 -1.0240  0.1438 -0.8435
 7530SOL     OW34048   4.398   2.666   0.379 -0.2083 -0.2864 -0.0997
 7530SOL    HW134049   4.383   2.746   0.430  0.4578  0.1540 -0.5899
 7530SOL    HW234050   4.313   2.652   0.338 -0.6422  1.1234  0.3222
 7531SOL     OW34051   3.488   2.647   3.921  0.2379  0.4972  0.4633
 7531SOL    HW134052   3.558   2.620   3.981 -0.6492 -1.4495  0.6019
 7531SOL    HW234053   3.416   2.681   3.975 -0.1149 -0.0715  0.3447
 7532SOL     OW34054   3.892   3.657   7.417  0.1537 -0.0656 -0.2143
 7532SOL    HW134055   3.856   3.732   7.369 -1.1090 -0.6411 -0.1537
 7532SOL    HW234056   3.898   3.707   7.499  2.2248 -0.2432 -0.2455
 7533SOL     OW34057   0.996   3.226  16.386 -0.2776  0.0453 -0.2807
 7533SOL    HW134058   0.919   3.179  16.354  0.3038  0.6691 -2.6156
 7533SOL    HW234059   1.067   3.179  16.341  1.1090  0.6238  1.3256
 7534SOL     OW34060   0.549   3.245   1.897  0.1822  0.0839 -0.1793
 7534SOL    HW134061   0.500   3.287   1.967 -2.0270 -0.2578 -1.5269
 7534SOL    HW234062   0.638   3.236   1.931 -0.5666 -2.1377  1.1937
 7535SOL     OW34063   3.802   1.784  15.481  0.0738 -0.3207 -0.4402
 7535SOL    HW134064   3.846   1.703  15.507 -0.3817 -0.2912  0.4348
 7535SOL    HW234065   3.837   1.852  15.538  1.0473 -0.5134 -0.8044
 7536SOL     OW34066   2.724   3.464   0.886  0.5077 -0.4749  0.4047
 7536SOL    HW134067   2.675   3.417   0.953  1.0717 -2.4251 -0.5724
 7536SOL    HW234068   2.668   3.540   0.871 -0.1063 -0.1712  4.1474
 7537SOL     OW34069   1.074   2.683   6.238 -0.1428 -0.1391 -0.2377
 7537SOL    HW134070   1.071   2.731   6.321 -0.3654 -0.0525 -0.2963
 7537SOL    HW234071   0.983   2.670   6.213  0.7702 -3.1003 -1.9856
 7538SOL     OW34072   2.594   4.689   7.249 -0.1311 -0.2352  0.1940
 7538SOL    HW134073   2.614   4.613   7.195  1.0634  0.3628 -0.2097
 7538SOL    HW234074   2.649   0.037   7.209  1.6893 -1.0531  1.2725
 7539SOL     OW34075   1.837   4.096   6.008  0.0883 -0.3084  0.3072
 7539SOL    HW134076   1.803   4.029   5.948 -1.1141  0.4866  0.0838
 7539SOL    HW234077   1.930   4.084   5.992 -0.0107  0.3019 -0.7707
 7540SOL     OW34078   0.949   0.549   6.939  0.0785 -0.7581 -0.5383
 7540SOL    HW134079   0.860   0.582   6.927 -0.2701 -1.2214  0.8301
 7540SOL    HW234080   0.995   0.615   6.886 -1.7935  1.1735  0.2437
 7541SOL     OW34081   4.333   0.241   8.516 -0.2791 -0.7752  0.2786
 7541SOL    HW134082   4.328   0.189   8.596  1.9558  0.6739  1.3479
 7541SOL    HW234083   4.427   0.253   8.507 -0.2222 -0.3897  1.3787
 7542SOL     OW34084   3.591   3.417   9.907  0.0034  0.0983  0.1325
 7542SOL    HW134085   3.629   3.444   9.824  0.8958  0.7692  0.7542
 7542SOL    HW234086   3.530   3.490   9.915 -0.0047  0.1526 -0.4568
 7543SOL     OW34087   4.154   1.144   7.208 -0.9409 -0.1075 -0.5375
 7543SOL    HW134088   4.098   1.220   7.194 -2.6915 -1.2397  0.2810
 7543SOL    HW234089   4.141   1.098   7.126  0.4020 -1.2456 -0.1088
 7544SOL     OW34090   0.474   3.429   0.366  0.1628  0.1997  0.3914
 7544SOL    HW134091   0.564   3.400   0.382 -0.0169 -1.0283 -0.8105
 7544SOL    HW234092   0.473   3.438   0.271 -0.2065 -1.5199  0.2244
 7545SOL     OW34093   0.721   2.213   6.770  0.4002 -0.0874 -0.1371
 7545SOL    HW134094   0.774   2.246   6.697 -0.4640 -0.5187 -0.9488
 7545SOL    HW234095   0.705   2.122   6.747  0.6339  0.0314 -0.7632
 7546SOL     OW34096   3.654   0.228   9.475  0.0010 -0.0544  0.1902
 7546SOL    HW134097   3.659   0.268   9.561 -0.5871 -0.0646  0.2274
 7546SOL    HW234098   3.579   0.169   9.489 -0.1022 -0.4940 -2.1865
 7547SOL     OW34099   0.180   1.759   3.350  0.0729 -0.0848 -0.0181
 7547SOL    HW134100   0.127   1.704   3.292 -0.5621  0.4072  0.0976
 7547SOL    HW234101   0.224   1.805   3.279 -0.4382  0.2713 -0.1034
 7548SOL     OW34102   0.193   3.805   5.086 -0.2999  0.7611  0.0374
 7548SOL    HW134103   0.199   3.880   5.144  0.3558 -1.2290  2.5316
 7548SOL    HW234104   0.114   3.777   5.131 -1.3976  0.9634 -1.7653
 7549SOL     OW34105   1.447   2.577   5.672 -0.1144  0.6540 -0.2494
 7549SOL    HW134106   1.475   2.640   5.606  0.4488 -0.6298 -1.2421
 7549SOL    HW234107   1.373   2.536   5.626  1.3379 -0.6398 -1.4288
 7550SOL     OW34108   2.884   0.123  11.906  0.2570  0.0378  0.0075
 7550SOL    HW134109   2.843   0.116  11.992 -1.8017  0.8394 -0.9123
 7550SOL    HW234110   2.971   0.102  11.939  0.3690  0.3160 -0.1063
 7551SOL     OW34111   0.929   4.550   6.153  1.0639  0.0509  0.1456
 7551SOL    HW134112   0.887   4.611   6.213 -1.1597 -0.8577 -0.5209
 7551SOL    HW234113   0.856   4.521   6.099  2.2294 -0.1112 -1.3513
 7552SOL     OW34114   0.524   1.538   1.005 -0.7836 -0.3666  0.0041
 7552SOL    HW134115   0.521   1.540   0.909 -2.2837  2.5653  0.1345
 7552SOL    HW234116   0.481   1.621   1.025  1.8385  0.7929  0.8446
 7553SOL     OW34117   2.115   0.916   8.373  0.2681  0.2530  0.1907
 7553SOL    HW134118   2.174   0.850   8.337 -0.3233 -0.5659  0.7083
 7553SOL    HW234119   2.146   0.993   8.325 -0.2040  1.1739  1.3595
 7554SOL     OW34120   2.763   1.325   8.027 -0.0467 -0.0923 -0.0693
 7554SOL    HW134121   2.760   1.412   7.988  1.1080 -0.3224 -0.6515
 7554SOL    HW234122   2.701   1.341   8.099  2.1300  4.1327  0.8795
 7555SOL     OW34123   3.344   2.344   2.480 -0.2831 -0.1039  0.1923
 7555SOL    HW134124   3.429   2.314   2.512 -1.0700 -3.5352 -0.9667
 7555SOL    HW234125   3.370   2.424   2.436 -1.3130  0.9271  1.4478
 7556SOL     OW34126   1.016   1.888   3.228  0.7793 -0.0757  0.1747
 7556SOL    HW134127   0.974   1.837   3.297 -2.0807 -1.6256 -2.6796
 7556SOL    HW234128   0.992   1.979   3.249  1.8266  0.1318  0.4629
 7557SOL     OW34129   4.336   0.011   4.812  0.3474  0.2680 -0.3860
 7557SOL    HW134130   4.370   4.641   4.804  0.8286  0.4662 -0.5471
 7557SOL    HW234131   4.271   4.709   4.880 -2.3250  0.1362 -2.9670
 7558SOL     OW34132   3.610   1.032  10.621  0.1331 -0.0866  0.0012
 7558SOL    HW134133   3.626   1.107  10.678 -2.2889  2.6222 -2.8899
 7558SOL    HW234134   3.666   1.057  10.547 -1.7698  0.6276 -1.1843
 7559SOL     OW34135   2.209   2.013   3.430  0.3431  0.2766 -0.3709
 7559SOL    HW134136   2.243   2.083   3.375  0.0191  1.2554  0.6859
 7559SOL    HW234137   2.116   2.009   3.408 -0.4835  1.0558  2.9028
 7560SOL     OW34138   0.601   2.172   2.090  0.5149  0.4796  0.1997
 7560SOL    HW134139   0.566   2.166   2.002 -1.0170 -0.9757  0.8994
 7560SOL    HW234140   0.621   2.265   2.102 -0.9401  0.7980  0.1358
 7561SOL     OW34141   0.848   0.450  11.036 -0.1862 -0.1477  0.7049
 7561SOL    HW134142   0.912   0.445  10.965  0.0588 -1.9221  1.0538
 7561SOL    HW234143   0.808   0.365  11.021 -0.7820 -0.0601  1.7853
 7562SOL     OW34144   2.378   1.689  10.724 -0.8942  0.4612 -0.0054
 7562SOL    HW134145   2.454   1.632  10.729 -0.2680  1.4833  2.0745
 7562SOL    HW234146   2.352   1.690  10.816  2.0456 -0.8214  0.8382
 7563SOL     OW34147   0.276   3.076   5.016  0.3042  0.2700 -0.0574
 7563SOL    HW134148   0.214   3.070   4.944 -0.3470 -1.3783  0.6565
 7563SOL    HW234149   0.359   3.049   4.977 -0.3222  1.0014 -1.9130
 7564SOL     OW34150   4.178   3.428   4.562  0.3297 -0.2897 -0.2231
 7564SOL    HW134151   4.193   3.504   4.618  1.8669 -0.5469 -0.2896
 7564SOL    HW234152   4.086   3.427   4.537  0.6193 -0.3856 -1.2893
 7565SOL     OW34153   4.035   3.832   5.131  0.3730  0.3065  0.0964
 7565SOL    HW134154   4.040   3.757   5.071 -1.7752 -0.4136  0.8040
 7565SOL    HW234155   3.992   3.789   5.205 -0.1720  0.1955 -0.2848
 7566SOL     OW34156   1.356   0.678   0.713  0.0802  0.2214  0.4036
 7566SOL    HW134157   1.385   0.593   0.746 -0.0994  0.5704  1.4599
 7566SOL    HW234158   1.314   0.662   0.628  0.7103  1.0371 -0.0647
 7567SOL     OW34159   3.536   4.077   5.038  0.3482  0.0087  0.1912
 7567SOL    HW134160   3.588   4.074   4.958 -0.9863 -0.0144 -0.6675
 7567SOL    HW234161   3.545   3.992   5.082 -2.2059  0.6596  1.9704
 7568SOL     OW34162   1.120   4.474   4.664 -0.4910  0.2306 -0.1535
 7568SOL    HW134163   1.110   4.521   4.581 -2.3697 -2.7574 -1.6604
 7568SOL    HW234164   1.035   4.477   4.708 -1.8581  1.1631 -2.8776
 7569SOL     OW34165   1.170   1.323   4.650  0.1494 -0.0632  0.1357
 7569SOL    HW134166   1.245   1.377   4.623  0.9390 -0.9837  0.4725
 7569SOL    HW234167   1.194   1.230   4.646  0.3978 -0.1237  2.9240
 7570SOL     OW34168   0.748   2.423   6.568  0.0249  0.3416  0.2903
 7570SOL    HW134169   0.769   2.508   6.530 -0.1727  0.5587  0.6636
 7570SOL    HW234170   0.733   2.455   6.657  0.3031  0.9555  0.1142
 7571SOL     OW34171   2.392   0.881   2.156  0.1342 -0.0301 -0.3900
 7571SOL    HW134172   2.420   0.848   2.071  1.4268 -0.1888  0.0992
 7571SOL    HW234173   2.301   0.907   2.142 -0.5756 -2.0399  0.5327
 7572SOL     OW34174   2.057   2.991   3.841 -0.0284  0.0316 -0.2135
 7572SOL    HW134175   2.135   3.010   3.789 -1.3934  1.8007 -1.5693
 7572SOL    HW234176   1.997   2.987   3.767 -0.6717 -3.4688  0.4771
 7573SOL     OW34177   2.992   1.812   6.105 -0.1515  0.1624  0.4325
 7573SOL    HW134178   3.016   1.807   6.197  1.4525  1.3294  0.0813
 7573SOL    HW234179   2.899   1.792   6.101 -0.1820  0.6981 -1.5039
 7574SOL     OW34180   4.498   0.800   9.836  0.1108 -0.1633 -0.1522
 7574SOL    HW134181   4.577   0.790   9.784  0.3764  1.9838 -0.1632
 7574SOL    HW234182   4.532   0.786   9.924 -0.2216  0.2512  0.0427
 7575SOL     OW34183   3.352   0.229  13.172 -0.0129  0.0210  0.4846
 7575SOL    HW134184   3.356   0.136  13.150  0.8922  0.4001 -0.9951
 7575SOL    HW234185   3.316   0.235  13.260  2.5278 -0.7797  1.5788
 7576SOL     OW34186   3.498   0.792   7.604 -0.3984  0.0816 -0.4189
 7576SOL    HW134187   3.509   0.820   7.695 -0.4587 -1.4675  0.0687
 7576SOL    HW234188   3.579   0.742   7.594 -1.4020 -1.1206 -2.5247
 7577SOL     OW34189   3.930   3.877  15.917  0.2577 -0.1979 -0.6418
 7577SOL    HW134190   3.941   3.812  15.847 -4.5371 -2.2719  0.5417
 7577SOL    HW234191   3.972   3.830  15.990 -0.7245 -2.2497 -1.4024
 7578SOL     OW34192   0.319   0.002   5.386  0.2257 -0.1327 -0.0142
 7578SOL    HW134193   0.353   0.062   5.452  1.7244  0.8673 -1.6908
 7578SOL    HW234194   0.393   0.010   5.326  0.2154  0.3722  0.0471
 7579SOL     OW34195   2.321   1.163  11.050  0.1287 -0.9641  0.1088
 7579SOL    HW134196   2.298   1.187  10.960 -0.8308 -0.8082  0.3985
 7579SOL    HW234197   2.254   1.096  11.067 -1.1218  0.2238 -0.1641
 7580SOL     OW34198   4.346   1.726   0.401  0.2489  0.1750  0.5143
 7580SOL    HW134199   4.380   1.760   0.318 -0.6823 -0.0784  0.0271
 7580SOL    HW234200   4.272   1.675   0.369 -0.0596  1.7563 -1.3270
 7581SOL     OW34201   2.020   3.673  17.358 -0.3270 -0.2426  0.1105
 7581SOL    HW134202   2.095   3.677  17.298  0.3546 -4.1079  0.7330
 7581SOL    HW234203   1.992   3.765  17.352 -2.0783 -0.8794 -1.5258
 7582SOL     OW34204   0.554   0.170  17.212 -0.2769  0.0687 -0.0810
 7582SOL    HW134205   0.615   0.227  17.166 -1.0174  0.5514 -0.4721
 7582SOL    HW234206   0.484   0.167  17.147  0.7587 -1.5910 -1.1187
 7583SOL     OW34207   4.427   1.737   8.112  0.4211  0.4022 -0.0962
 7583SOL    HW134208   4.397   1.704   8.197  1.8263 -1.9165 -0.5136
 7583SOL    HW234209   4.344   1.749   8.066  0.5596  0.2575 -0.3845
 7584SOL     OW34210   3.452   0.493   6.652 -0.3039 -0.1365  0.2554
 7584SOL    HW134211   3.472   0.580   6.686  0.4269  0.6315 -2.1954
 7584SOL    HW234212   3.455   0.443   6.734  2.2501 -0.2188  0.1086
 7585SOL     OW34213   3.035   0.161  15.609 -0.2493  0.2225 -0.3062
 7585SOL    HW134214   2.971   0.204  15.552  0.6588 -1.3867 -2.4976
 7585SOL    HW234215   3.063   0.223  15.677 -0.7785 -0.3324  0.4181
 7586SOL     OW34216   0.158   0.027  14.989 -0.9220 -0.4671  0.3299
 7586SOL    HW134217   0.184   0.119  14.982  0.7425 -0.9797 -0.2433
 7586SOL    HW234218   0.139   0.023  15.083  1.5248 -1.1170  0.8139
 7587SOL     OW34219   1.601   3.071   2.162 -0.0994  0.5163  0.1595
 7587SOL    HW134220   1.595   3.152   2.111  1.3562  0.7856  0.4241
 7587SOL    HW234221   1.557   3.100   2.241 -0.8318  0.7440 -0.3285
 7588SOL     OW34222   1.999   3.457   8.607  0.1230  0.0557 -0.2804
 7588SOL    HW134223   2.080   3.450   8.557 -0.8409 -1.8976 -1.5887
 7588SOL    HW234224   1.950   3.387   8.564  0.3265 -0.5244  0.4285
 7589SOL     OW34225   3.696   0.949   7.331 -0.2059  0.3608  0.6163
 7589SOL    HW134226   3.768   0.899   7.294 -0.1275  1.4101 -0.6491
 7589SOL    HW234227   3.620   0.918   7.282  1.9388  1.3592 -3.2586
 7590SOL     OW34228   0.084   2.145  10.996 -0.2454 -0.2749 -0.4027
 7590SOL    HW134229   0.074   2.217  10.935  1.1548  2.4183  2.5340
 7590SOL    HW234230   0.014   2.171  11.056 -0.1924  0.3557 -0.6141
 7591SOL     OW34231   4.462   2.993   5.331 -0.5455 -0.1217  0.4048
 7591SOL    HW134232   4.404   3.034   5.396  2.6472  2.5045  1.5917
 7591SOL    HW234233   4.520   2.935   5.380  0.6911 -0.5380 -1.5435
 7592SOL     OW34234   0.228   1.775   0.789 -0.4920 -0.0337  0.0746
 7592SOL    HW134235   0.272   1.799   0.870 -0.8767 -1.5841  0.7581
 7592SOL    HW234236   0.246   1.682   0.772  0.7768  0.0789  0.8142
 7593SOL     OW34237   1.354   2.294  12.093 -0.2384  0.2596 -0.4075
 7593SOL    HW134238   1.381   2.218  12.146  2.7136  1.2268 -0.5184
 7593SOL    HW234239   1.259   2.282  12.091 -0.3895  1.8109 -1.4856
 7594SOL     OW34240   1.883   0.784   3.321 -0.4181 -0.2834 -0.3376
 7594SOL    HW134241   1.800   0.736   3.318 -0.1940 -0.7033  0.1745
 7594SOL    HW234242   1.895   0.807   3.229 -1.4231 -0.0365 -0.4079
 7595SOL     OW34243   2.726   1.941   1.933  0.1906 -0.0465 -0.2297
 7595SOL    HW134244   2.783   2.013   1.959  0.3393 -0.0352 -0.5833
 7595SOL    HW234245   2.783   1.881   1.884 -2.2779 -1.5709 -1.2441
 7596SOL     OW34246   4.651   4.206   8.920 -0.4132 -0.2971  0.0960
 7596SOL    HW134247   0.011   4.164   8.955 -0.5554 -0.8288 -0.2187
 7596SOL    HW234248   4.596   4.205   8.998  0.6629 -0.0839  0.8597
 7597SOL     OW34249   1.041   1.286  13.771  0.3682  0.2205  0.0262
 7597SOL    HW134250   0.960   1.240  13.751  0.3987 -1.0963  2.9338
 7597SOL    HW234251   1.108   1.218  13.763  1.3229  1.0083  1.2836
 7598SOL     OW34252   0.559   4.276   4.879 -0.0974 -0.1141  0.5416
 7598SOL    HW134253   0.592   4.327   4.805  0.0178 -1.6810 -0.4797
 7598SOL    HW234254   0.633   4.217   4.890  0.2220  0.2032  0.0640
 7599SOL     OW34255   0.829   3.689  13.633 -0.4810 -0.5516 -0.1333
 7599SOL    HW134256   0.755   3.748  13.649 -0.2143 -0.6857  1.6003
 7599SOL    HW234257   0.882   3.747  13.578 -1.8094  1.0133  0.2550
 7600SOL     OW34258   2.771   3.016   8.509 -0.2488 -0.1860  0.6232
 7600SOL    HW134259   2.848   2.972   8.476  0.2915 -0.7094  2.5879
 7600SOL    HW234260   2.710   3.017   8.435 -1.2072  4.0707  1.4726
 7601SOL     OW34261   2.680   4.409  13.499  0.5432 -0.2691 -0.0907
 7601SOL    HW134262   2.697   4.503  13.495  0.4132 -0.2701 -0.6495
 7601SOL    HW234263   2.770   4.376  13.500  0.9854  0.9118 -0.6014
 7602SOL     OW34264   3.810   1.227  15.291 -0.0516 -0.1638  0.1749
 7602SOL    HW134265   3.762   1.153  15.254  1.5276 -0.4643 -1.2839
 7602SOL    HW234266   3.892   1.186  15.318  0.4015  1.1985  0.8873
 7603SOL     OW34267   0.530   0.867   5.155 -0.5410 -0.1240 -0.5360
 7603SOL    HW134268   0.515   0.832   5.243  0.5714  2.1209  0.5411
 7603SOL    HW234269   0.470   0.811   5.106  0.0730 -0.8997 -0.3957
 7604SOL     OW34270   4.471   2.225   2.734 -0.4210 -0.3852 -0.1545
 7604SOL    HW134271   4.399   2.195   2.677 -1.0896 -1.2786  1.1635
 7604SOL    HW234272   4.422   2.298   2.772  1.4970  0.8453 -0.0463
 7605SOL     OW34273   0.023   0.356   9.278  0.0608 -0.0371 -0.1831
 7605SOL    HW134274   0.014   0.433   9.333 -0.1609 -1.5050  1.8448
 7605SOL    HW234275   0.088   0.301   9.322  0.2009  0.1806 -0.1209
 7606SOL     OW34276   0.086   1.999  10.097  0.1772 -0.0152  0.6004
 7606SOL    HW134277   0.117   2.087  10.076 -2.2984  0.8775  0.7983
 7606SOL    HW234278   4.715   2.016  10.123 -0.1140 -0.5620 -0.0576
 7607SOL     OW34279   2.221   1.817  12.781 -0.7823 -0.6239  0.0792
 7607SOL    HW134280   2.268   1.890  12.821 -2.1087 -0.1064  0.6833
 7607SOL    HW234281   2.149   1.802  12.843 -0.8429  0.2504  0.2148
 7608SOL     OW34282   4.042   1.529   0.666  0.1544  0.1970  0.3556
 7608SOL    HW134283   4.128   1.518   0.625 -0.7271 -2.4852 -0.7803
 7608SOL    HW234284   4.047   1.466   0.737  0.9528 -0.9142 -0.6921
 7609SOL     OW34285   0.447   2.121   3.423 -0.4695 -0.0656  0.7147
 7609SOL    HW134286   0.489   2.160   3.500  0.3933  0.3372  0.0417
 7609SOL    HW234287   0.359   2.121   3.461 -0.6984  2.6150  0.2133
 7610SOL     OW34288   1.864   3.038   1.058  0.2509  0.0506  0.5047
 7610SOL    HW134289   1.944   2.995   1.089 -0.5376 -2.1206 -0.4478
 7610SOL    HW234290   1.814   3.022   1.138 -1.3896 -0.4977 -0.6305
 7611SOL     OW34291   1.748   2.015  16.322  0.3214  0.1365  0.3404
 7611SOL    HW134292   1.813   2.048  16.384  1.6540 -0.0161 -0.9640
 7611SOL    HW234293   1.671   2.071  16.329 -0.1312 -0.3477 -0.6792
 7612SOL     OW34294   2.004   0.313   2.811 -0.2530  0.0194  0.3955
 7612SOL    HW134295   2.072   0.252   2.839 -0.3160  0.2505  1.0620
 7612SOL    HW234296   1.939   0.254   2.773  0.1231  0.2047 -0.5341
 7613SOL     OW34297   0.580   1.320   7.690 -0.7452 -0.3600 -0.2193
 7613SOL    HW134298   0.498   1.346   7.646 -0.0029 -1.0383 -1.9922
 7613SOL    HW234299   0.638   1.298   7.617  0.3360 -0.3886  0.6484
 7614SOL     OW34300   3.023   4.588   7.161  0.0731  0.0703  0.2900
 7614SOL    HW134301   3.029   4.494   7.143 -0.3987  0.1067 -0.0418
 7614SOL    HW234302   2.995   4.579   7.252 -3.2894 -1.9172 -0.9558
 7615SOL     OW34303   1.464   0.955   8.132 -0.1977 -0.3753 -0.3142
 7615SOL    HW134304   1.537   0.904   8.166 -1.2929 -0.8976  1.2818
 7615SOL    HW234305   1.401   0.889   8.160  2.2244 -2.3150  0.4965
 7616SOL     OW34306   2.528   0.066   6.780  0.0621  0.3895  0.6707
 7616SOL    HW134307   2.592   0.085   6.848  2.3686  0.5373 -1.5616
 7616SOL    HW234308   2.476   0.147   6.780 -0.2105  0.2313 -1.0488
 7617SOL     OW34309   2.510   0.103   7.945 -0.0065 -0.2799 -0.9457
 7617SOL    HW134310   2.473   0.109   8.033 -0.5320  1.6117 -1.2856
 7617SOL    HW234311   2.502   0.192   7.911  1.3380 -0.9836 -3.1453
 7618SOL     OW34312   4.697   4.077   9.643 -0.3707  0.5596 -0.2443
 7618SOL    HW134313   0.012   4.005   9.697 -1.9838 -1.7286 -2.2750
 7618SOL    HW234314   0.016   4.149   9.693  0.2699 -1.2839  1.9499
 7619SOL     OW34315   2.051   2.125   4.906  0.1071  0.0965  0.4475
 7619SOL    HW134316   2.081   2.037   4.883 -3.0092 -0.4137 -1.5327
 7619SOL    HW234317   2.133   2.171   4.885 -0.5128  0.3170 -1.4308
 7620SOL     OW34318   0.833   3.572   1.518  0.1204 -0.2984  0.3727
 7620SOL    HW134319   0.928   3.577   1.513 -0.2051  2.4087 -2.8898
 7620SOL    HW234320   0.817   3.515   1.443  0.9902  1.7392 -1.3454
 7621SOL     OW34321   4.085   4.716   9.267 -0.2170 -0.3911 -0.0417
 7621SOL    HW134322   4.024   0.048   9.321  3.1456  2.9657  0.5478
 7621SOL    HW234323   4.044   4.694   9.183 -0.6426 -1.9259  0.5692
 7622SOL     OW34324   2.210   3.019   7.518 -0.5488  0.3028 -0.3450
 7622SOL    HW134325   2.296   3.046   7.484 -0.8632  3.8579  1.6857
 7622SOL    HW234326   2.221   3.035   7.611 -0.6975  0.5669 -0.3729
 7623SOL     OW34327   0.804   2.341   0.612 -0.0042 -0.1280  0.4289
 7623SOL    HW134328   0.708   2.343   0.611 -0.0517 -2.7816 -0.1494
 7623SOL    HW234329   0.823   2.394   0.690 -1.9227  0.1814  0.6860
 7624SOL     OW34330   4.701   2.825   7.529 -0.1253 -0.0297  0.7462
 7624SOL    HW134331   0.061   2.876   7.513 -0.5572  0.1233 -0.9992
 7624SOL    HW234332   4.671   2.853   7.615 -1.5656  0.5297  0.0482
 7625SOL     OW34333   1.537   0.948   6.434  0.5107  0.0582  0.3421
 7625SOL    HW134334   1.626   0.914   6.427  0.4902  0.2301 -0.7571
 7625SOL    HW234335   1.497   0.887   6.496 -0.2919  0.6497  0.4061
 7626SOL     OW34336   0.942   2.872  10.269 -0.2849 -0.7184 -0.3976
 7626SOL    HW134337   0.927   2.869  10.363  1.8562 -0.7698 -0.0541
 7626SOL    HW234338   0.854   2.902  10.248 -0.1235 -0.8938 -1.3282
 7627SOL     OW34339   2.435   1.135   8.726 -0.4010  0.5098 -0.4271
 7627SOL    HW134340   2.429   1.049   8.768  3.7885 -0.9981 -2.8524
 7627SOL    HW234341   2.530   1.148   8.722 -0.5352  1.6422  0.2354
 7628SOL     OW34342   0.846   0.032   5.639 -0.3394  0.1783 -0.0799
 7628SOL    HW134343   0.921   4.693   5.650 -1.1449 -1.6314 -3.8670
 7628SOL    HW234344   0.772   4.692   5.653  0.6848 -1.2488 -0.7051
 7629SOL     OW34345   1.508   4.365  10.817  0.1240  0.4801 -0.4789
 7629SOL    HW134346   1.425   4.318  10.824  0.2229  0.4813  0.8095
 7629SOL    HW234347   1.525   4.378  10.911 -0.0375  1.9695 -0.6565
 7630SOL     OW34348   0.613   2.914   3.897  0.0334 -0.4686  0.3377
 7630SOL    HW134349   0.557   2.893   3.822  1.2173  0.4177 -0.7821
 7630SOL    HW234350   0.633   3.008   3.889 -1.8659 -0.1531 -0.6860
 7631SOL     OW34351   1.478   1.475  17.520 -0.3846  0.4032  0.0489
 7631SOL    HW134352   1.497   1.434  17.604  0.2874 -1.2234 -0.8988
 7631SOL    HW234353   1.527   1.424  17.456  1.3731 -0.6772  2.2706
 7632SOL     OW34354   0.335   4.652  11.119  0.6676 -0.9363  0.2009
 7632SOL    HW134355   0.317   4.605  11.038 -0.9694 -3.2764  1.9316
 7632SOL    HW234356   0.261   4.632  11.177 -0.7771  1.0891 -0.9118
 7633SOL     OW34357   0.626   2.500   0.805  0.6424 -0.2237 -0.6572
 7633SOL    HW134358   0.587   2.531   0.724  1.8306  1.3323 -0.6444
 7633SOL    HW234359   0.691   2.570   0.811 -0.0825  0.4268 -0.4679
 7634SOL     OW34360   2.703   0.852   2.974 -0.2612  0.1835  0.0305
 7634SOL    HW134361   2.733   0.763   2.961 -2.4551 -0.9887  2.9894
 7634SOL    HW234362   2.785   0.896   2.950 -1.1042  0.6289 -2.0172
 7635SOL     OW34363   3.618   3.474  12.686  0.6621  0.3568  0.0936
 7635SOL    HW134364   3.581   3.561  12.676  1.1786  0.8435  2.2916
 7635SOL    HW234365   3.590   3.427  12.608  0.7698 -0.2667  0.4277
 7636SOL     OW34366   2.163   0.801   2.851  0.3315 -0.2283  0.3540
 7636SOL    HW134367   2.147   0.713   2.819 -1.2914  0.4677 -0.7366
 7636SOL    HW234368   2.099   0.847   2.796 -0.4230  1.4144  2.5971
 7637SOL     OW34369   2.669   2.093   9.136 -0.6336  0.2683 -0.2685
 7637SOL    HW134370   2.725   2.128   9.205 -1.4515  0.0484  0.5050
 7637SOL    HW234371   2.605   2.032   9.173 -0.7668  0.3773 -0.3195
 7638SOL     OW34372   2.993   3.379   5.483  0.6070  0.5037 -0.5953
 7638SOL    HW134373   2.899   3.373   5.498  0.9016 -1.3533  0.5624
 7638SOL    HW234374   2.987   3.427   5.401  1.4212  1.2478 -0.2247
 7639SOL     OW34375   1.288   3.482   3.898 -0.1345 -0.0039 -0.6555
 7639SOL    HW134376   1.222   3.483   3.968  1.9318  0.5088  1.2875
 7639SOL    HW234377   1.327   3.398   3.920 -0.0952  0.0004 -0.7091
 7640SOL     OW34378   4.260   3.327   2.922 -0.3425 -0.2070 -0.5953
 7640SOL    HW134379   4.339   3.298   2.875  0.3305 -0.4445  0.6773
 7640SOL    HW234380   4.210   3.248   2.941  0.2791 -0.8660 -1.6752
 7641SOL     OW34381   2.936   0.883   0.814  0.2164  0.4733 -0.6904
 7641SOL    HW134382   2.959   0.938   0.740 -1.2061  2.9568  0.7011
 7641SOL    HW234383   3.021   0.861   0.852  0.9955  1.7181 -1.7479
 7642SOL     OW34384   3.082   2.766   9.302  0.1006 -0.1070  0.1998
 7642SOL    HW134385   3.057   2.856   9.324 -1.8994 -0.4535 -0.6024
 7642SOL    HW234386   2.994   2.742   9.271  0.2842 -0.4753 -0.0240
 7643SOL     OW34387   0.621   2.032   5.367  0.0337  0.0046 -0.0665
 7643SOL    HW134388   0.573   1.962   5.411  1.3306 -1.2316 -0.6319
 7643SOL    HW234389   0.584   2.039   5.279 -1.3701 -1.3567  0.4117
 7644SOL     OW34390   1.696   1.409   2.662 -0.0322 -0.2380 -0.0869
 7644SOL    HW134391   1.676   1.378   2.574  1.3045 -1.5719  0.0837
 7644SOL    HW234392   1.772   1.465   2.647  1.2195 -1.0183  3.5939
 7645SOL     OW34393   1.878   0.872   6.785  0.3591 -0.3070 -0.1626
 7645SOL    HW134394   1.869   0.784   6.747 -2.5025  0.8016 -2.0320
 7645SOL    HW234395   1.786   0.884   6.807  1.1391  3.9200  0.6913
 7646SOL     OW34396   0.993   3.902   9.502  0.0778  0.0253 -0.0819
 7646SOL    HW134397   0.901   3.875   9.502  0.6548 -1.9358  3.3633
 7646SOL    HW234398   1.003   3.930   9.593 -1.8051  0.0266  0.1350
 7647SOL     OW34399   3.455   0.099   7.594  0.5184  0.5073  0.1181
 7647SOL    HW134400   3.360   0.112   7.600  0.1260 -1.3890 -1.9541
 7647SOL    HW234401   3.474   0.191   7.613 -0.9062  1.0301 -1.0003
 7648SOL     OW34402   4.472   4.249   6.202 -0.3880  0.4046  1.0364
 7648SOL    HW134403   4.515   4.268   6.285 -0.4418 -0.5007  1.2727
 7648SOL    HW234404   4.426   4.329   6.176 -0.4910  0.5085  1.5376
 7649SOL     OW34405   3.450   1.478   8.719 -0.2201 -0.1799 -0.2600
 7649SOL    HW134406   3.370   1.489   8.771  0.8262  2.5729  0.8054
 7649SOL    HW234407   3.498   1.551   8.759  1.6627 -1.0049 -1.0157
 7650SOL     OW34408   2.757   4.689   1.243  0.6322 -0.2656  0.0891
 7650SOL    HW134409   2.834   4.711   1.191  0.1905 -0.7315 -0.7635
 7650SOL    HW234410   2.695   0.040   1.225 -0.3205 -1.0931  0.1026
 7651SOL     OW34411   4.441   1.855   0.183 -0.2116  0.2956 -0.1060
 7651SOL    HW134412   4.506   1.900   0.235 -1.7607  0.5799  1.5845
 7651SOL    HW234413   4.396   1.928   0.140  0.1487  0.0542 -0.8973
 7652SOL     OW34414   1.660   2.374  14.702  0.1158 -0.0799 -0.2835
 7652SOL    HW134415   1.708   2.441  14.751  0.9623 -1.4934  0.8046
 7652SOL    HW234416   1.691   2.306  14.761 -0.0420  0.6744  0.6724
 7653SOL     OW34417   3.982   0.720  10.537 -0.4094 -0.1247 -0.2821
 7653SOL    HW134418   3.900   0.754  10.573 -0.5487  1.7333 -2.3774
 7653SOL    HW234419   4.015   0.664  10.608 -1.1221  0.3901  0.4587
 7654SOL     OW34420   3.972   3.026   2.186  0.2404  0.3116  0.1758
 7654SOL    HW134421   3.919   3.101   2.160  0.8674  0.2819 -1.1886
 7654SOL    HW234422   4.060   3.064   2.191  0.1521  0.7424 -1.9445
 7655SOL     OW34423   1.252   2.347   3.699  0.1267 -0.1267 -0.5476
 7655SOL    HW134424   1.222   2.424   3.747  2.1527  1.0328 -1.1165
 7655SOL    HW234425   1.298   2.393   3.628 -1.4205  1.3361 -0.6014
 7656SOL     OW34426   0.446   2.443  14.181  0.6802 -0.1492  0.3226
 7656SOL    HW134427   0.360   2.404  14.195 -0.0976  0.6646 -2.1083
 7656SOL    HW234428   0.497   2.375  14.137  2.4910  0.6421  1.1881
 7657SOL     OW34429   2.180   2.479   3.058  0.0811 -0.2503  0.1644
 7657SOL    HW134430   2.255   2.538   3.049  1.1997 -1.6415  0.3722
 7657SOL    HW234431   2.201   2.452   3.147  2.0605  2.0805  0.4249
 7658SOL     OW34432   2.613   0.715   9.439  0.1929  0.3193 -0.0484
 7658SOL    HW134433   2.609   0.786   9.374  1.3856 -1.4694 -2.0796
 7658SOL    HW234434   2.700   0.729   9.477 -0.7728 -1.1269  2.7187
 7659SOL     OW34435   1.807   2.699   8.418  0.0903 -0.5070 -0.0413
 7659SOL    HW134436   1.797   2.729   8.327  0.8902 -2.6916 -0.8755
 7659SOL    HW234437   1.719   2.689   8.453 -0.3202  0.8797 -0.6792
 7660SOL     OW34438   0.879   0.491   3.631 -0.3332 -0.1129  0.1825
 7660SOL    HW134439   0.786   0.500   3.613  0.2948  2.2415 -1.8731
 7660SOL    HW234440   0.911   0.566   3.582 -1.2985  0.7009  0.8050
 7661SOL     OW34441   2.578   4.443   0.224  0.9686  0.3954 -0.1015
 7661SOL    HW134442   2.531   4.457   0.142 -2.7701 -1.6942  1.6359
 7661SOL    HW234443   2.558   4.520   0.277  0.6071  0.1721  0.0848
 7662SOL     OW34444   2.406   4.223   1.514  0.2932 -0.1368  0.2494
 7662SOL    HW134445   2.388   4.270   1.432 -0.2977 -1.9739 -0.6729
 7662SOL    HW234446   2.472   4.165   1.477  0.9391 -0.2905  1.6761
 7663SOL     OW34447   0.909   3.767   8.573 -0.1559 -0.1824 -0.3614
 7663SOL    HW134448   0.854   3.830   8.619 -0.8684 -0.5732 -0.6791
 7663SOL    HW234449   0.964   3.737   8.646  0.0810 -1.1690 -0.9476
 7664SOL     OW34450   2.498   0.027   4.784 -0.0311 -0.1863 -0.1766
 7664SOL    HW134451   2.583   0.071   4.793 -0.1544 -0.0463  0.3262
 7664SOL    HW234452   2.441   0.098   4.815 -0.6696 -0.3961 -0.8972
 7665SOL     OW34453   2.872   1.562   5.364 -0.0447  0.2157 -0.4746
 7665SOL    HW134454   2.840   1.632   5.421  1.3836  0.4224  0.0794
 7665SOL    HW234455   2.959   1.557   5.403  1.2713 -0.6484 -3.4716
 7666SOL     OW34456   3.338   1.579   7.348 -0.3720  0.7390  0.6962
 7666SOL    HW134457   3.406   1.543   7.405 -0.4379 -1.1511 -0.4127
 7666SOL    HW234458   3.284   1.501   7.332  0.6348 -0.2400  2.1061
 7667SOL     OW34459   4.376   2.242   3.762  0.1682 -0.1608  0.5835
 7667SOL    HW134460   4.434   2.291   3.821 -3.2734  2.3194  1.8483
 7667SOL    HW234461   4.328   2.311   3.718  0.3807  0.9973  2.1820
 7668SOL     OW34462   4.214   0.240  17.203  0.0925 -0.4970  0.2073
 7668SOL    HW134463   4.169   0.277  17.279  2.1416 -2.2416  2.2698
 7668SOL    HW234464   4.298   0.211  17.239  0.5699 -1.5697 -1.7884
 7669SOL     OW34465   1.361   1.911   7.312  0.0258  0.1687  0.1603
 7669SOL    HW134466   1.350   1.996   7.354 -0.5846 -0.3386  1.0090
 7669SOL    HW234467   1.357   1.853   7.388 -0.1255  1.4775  1.1453
 7670SOL     OW34468   1.389   0.862   5.285  0.4567 -0.3981  0.4794
 7670SOL    HW134469   1.394   0.767   5.287 -0.3786 -0.4095  2.3196
 7670SOL    HW234470   1.396   0.879   5.191  1.0008  0.1500  0.6100
 7671SOL     OW34471   0.472   3.665   6.007 -0.3648 -0.4659 -0.1936
 7671SOL    HW134472   0.472   3.758   6.030  0.5803 -0.7933  1.1506
 7671SOL    HW234473   0.382   3.633   6.020  0.3444 -2.4569 -0.0806
 7672SOL     OW34474   1.455   0.222   3.147  0.0836  0.2405 -0.6426
 7672SOL    HW134475   1.458   0.150   3.210  0.2410 -0.0478 -0.9806
 7672SOL    HW234476   1.550   0.235   3.145  0.0446  0.8704  0.7810
 7673SOL     OW34477   1.670   4.438   8.785 -0.0999 -0.1610  0.2410
 7673SOL    HW134478   1.670   4.342   8.785 -0.6034 -0.1653  0.6569
 7673SOL    HW234479   1.586   4.449   8.740  0.5248  0.8773 -0.6455
 7674SOL     OW34480   0.597   4.592   5.650 -0.1050 -0.2849 -0.2318
 7674SOL    HW134481   0.557   4.651   5.713  1.7746 -0.8624  1.5427
 7674SOL    HW234482   0.522   4.534   5.638 -0.1776  0.0712 -1.4500
 7675SOL     OW34483   2.456   0.906   7.029 -0.1216 -0.1573 -0.0872
 7675SOL    HW134484   2.471   0.997   7.005 -0.8816 -0.2826 -1.0369
 7675SOL    HW234485   2.408   0.883   6.949  0.7378  0.4327 -0.7650
 7676SOL     OW34486   1.700   3.658   8.511  0.2172 -0.0554  0.5028
 7676SOL    HW134487   1.707   3.648   8.416  0.2382 -0.2666  0.5255
 7676SOL    HW234488   1.771   3.602   8.542 -0.6114 -0.6040  1.3950
 7677SOL     OW34489   3.836   3.539  11.292 -0.0338 -0.0096  0.4286
 7677SOL    HW134490   3.871   3.581  11.370 -1.0510 -3.6289  2.8335
 7677SOL    HW234491   3.869   3.583  11.214 -1.3978  0.8905  0.3553
 7678SOL     OW34492   2.709   2.412  15.128 -0.5744  0.0561  0.4868
 7678SOL    HW134493   2.789   2.360  15.125 -1.2508 -1.0505  2.0914
 7678SOL    HW234494   2.711   2.451  15.215  0.1126  1.2283 -0.0454
 7679SOL     OW34495   4.528   1.355  10.130 -0.2761 -0.2166 -0.7684
 7679SOL    HW134496   4.545   1.353  10.224 -0.2527 -3.2661 -0.8603
 7679SOL    HW234497   4.551   1.265  10.108 -0.8424 -0.1500 -1.6354
 7680SOL     OW34498   3.886   3.446   2.161  0.6665 -0.1345 -0.1304
 7680SOL    HW134499   3.931   3.467   2.242 -0.3886  1.9032 -0.0899
 7680SOL    HW234500   3.829   3.522   2.157 -0.1834 -0.7813 -0.4705
 7681SOL     OW34501   4.589   3.905  15.220  0.9752  0.3196  0.4575
 7681SOL    HW134502   4.573   3.870  15.308  0.9524 -0.5599  0.1041
 7681SOL    HW234503   4.625   3.823  15.186 -2.1558 -0.6268 -0.6059
 7682SOL     OW34504   1.870   3.998   7.337  1.1280  0.0259  0.2993
 7682SOL    HW134505   1.839   3.949   7.413  0.7627  0.9797  0.7717
 7682SOL    HW234506   1.946   3.948   7.309  0.6999 -1.1596  1.2297
 7683SOL     OW34507   1.815   1.488   5.439 -0.0124  0.5078 -0.6843
 7683SOL    HW134508   1.823   1.535   5.356  2.6165 -0.2762 -0.8919
 7683SOL    HW234509   1.723   1.464   5.436 -0.5465  2.3396  1.0146
 7684SOL     OW34510   3.059   1.083   7.528  0.0772  0.3831 -0.0890
 7684SOL    HW134511   2.991   1.146   7.552 -1.2289 -0.8063 -0.7128
 7684SOL    HW234512   3.012   1.029   7.465  1.3449 -0.9850  0.1171
 7685SOL     OW34513   4.304   2.733   6.565 -0.3203 -0.4062 -0.0383
 7685SOL    HW134514   4.216   2.699   6.585 -0.1130 -1.8661 -1.6485
 7685SOL    HW234515   4.322   2.690   6.481  0.5290 -1.6461  0.7874
 7686SOL     OW34516   0.097   2.770   2.481  0.2793 -0.7147  0.0197
 7686SOL    HW134517   0.011   2.794   2.447  0.0395 -1.2794  0.2393
 7686SOL    HW234518   0.111   2.842   2.543  1.0346 -0.4089 -0.5061
 7687SOL     OW34519   3.812   4.626  11.215  0.2032  0.6098  0.1202
 7687SOL    HW134520   3.742   4.561  11.217  1.4503 -0.7484 -0.5079
 7687SOL    HW234521   3.833   4.636  11.122 -1.5500  0.4597 -0.2850
 7688SOL     OW34522   4.039   1.201   1.328  0.0558 -0.1948 -0.5796
 7688SOL    HW134523   4.050   1.295   1.312  0.0005 -0.0824  0.0347
 7688SOL    HW234524   4.127   1.166   1.316 -0.1399 -2.0398  3.1700
 7689SOL     OW34525   1.941   1.213   3.279  0.2225 -0.6237  0.7848
 7689SOL    HW134526   1.969   1.192   3.190  0.7278 -0.7655  0.9763
 7689SOL    HW234527   1.863   1.159   3.287 -0.1659  0.1390  2.3761
 7690SOL     OW34528   4.561   4.138  14.344 -0.1632  0.1685 -0.0599
 7690SOL    HW134529   4.505   4.213  14.362 -0.8928 -0.0925 -1.1883
 7690SOL    HW234530   4.647   4.180  14.348 -0.1816  0.2118 -0.1136
 7691SOL     OW34531   2.723   0.721   7.062 -0.2035 -0.5050  0.0865
 7691SOL    HW134532   2.769   0.757   6.986 -0.5729 -1.5927 -0.6571
 7691SOL    HW234533   2.799   0.689   7.109  1.1571 -0.0446 -1.7832
 7692SOL     OW34534   2.782   1.885   8.095  0.4537 -0.0900  0.0007
 7692SOL    HW134535   2.711   1.878   8.031 -0.7494  0.0224  1.3296
 7692SOL    HW234536   2.827   1.804   8.071 -0.8368 -0.9311  0.4025
 7693SOL     OW34537   1.732   3.002   4.668 -0.0153 -0.4228  0.1762
 7693SOL    HW134538   1.669   2.939   4.703 -0.7985 -1.1325 -2.5564
 7693SOL    HW234539   1.818   2.979   4.702  0.2412  0.7528  0.3404
 7694SOL     OW34540   1.711   3.277  11.731 -0.2317  0.0656  0.5530
 7694SOL    HW134541   1.800   3.291  11.701 -0.7990 -1.1655 -1.6848
 7694SOL    HW234542   1.658   3.336  11.677 -1.0153 -1.1187  0.0208
 7695SOL     OW34543   1.605   2.705   4.225  0.3483  0.2675 -0.3860
 7695SOL    HW134544   1.591   2.768   4.296 -2.8919 -1.6468  0.6482
 7695SOL    HW234545   1.513   2.693   4.202  0.6340  1.1308 -2.0273
 7696SOL     OW34546   0.136   3.370   2.109 -0.3882  0.7356 -0.4621
 7696SOL    HW134547   0.084   3.393   2.186 -0.5958  1.1878 -0.7326
 7696SOL    HW234548   0.156   3.456   2.071  2.4728 -0.4085 -1.5844
 7697SOL     OW34549   1.193   2.146   2.573  0.0907  0.4979 -0.0112
 7697SOL    HW134550   1.264   2.096   2.615 -0.0979 -2.2091 -2.9724
 7697SOL    HW234551   1.117   2.103   2.613  0.7651 -1.7949 -1.1932
 7698SOL     OW34552   0.542   1.620   3.647 -0.2941 -0.1968  0.1501
 7698SOL    HW134553   0.531   1.529   3.677 -1.0148 -0.1144  0.1193
 7698SOL    HW234554   0.573   1.595   3.560 -1.8791  1.7430 -0.9515
 7699SOL     OW34555   3.224   2.861   7.131  0.4643 -0.0937  0.5651
 7699SOL    HW134556   3.154   2.872   7.195  0.2302 -1.9224  0.6491
 7699SOL    HW234557   3.177   2.900   7.058 -1.8871  1.7607  3.1098
 7700SOL     OW34558   0.914   3.531  15.688 -0.8022 -0.3724 -0.1153
 7700SOL    HW134559   0.838   3.590  15.687 -2.6110 -2.6697  1.1025
 7700SOL    HW234560   0.877   3.460  15.636  2.3945 -3.0118  1.2578
 7701SOL     OW34561   3.389   1.876  10.074  0.0142  0.1950 -0.5016
 7701SOL    HW134562   3.441   1.922  10.140 -1.0489 -0.8165  1.0217
 7701SOL    HW234563   3.304   1.863  10.116  0.7279  3.0097  1.8198
 7702SOL     OW34564   3.423   3.705   6.003  0.4572 -0.1415 -0.1039
 7702SOL    HW134565   3.363   3.769   6.042  0.5102  0.0441 -0.3271
 7702SOL    HW234566   3.460   3.755   5.931  0.6684  0.0452  0.1370
 7703SOL     OW34567   0.776   0.931   7.329  0.2963 -0.0732  0.1729
 7703SOL    HW134568   0.759   0.854   7.274  3.0709 -0.0174 -0.7718
 7703SOL    HW234569   0.723   1.002   7.295  2.3743  2.1137  1.4774
 7704SOL     OW34570   2.652   0.904   7.245 -0.5036  0.2391  0.2026
 7704SOL    HW134571   2.630   0.989   7.208  1.0152  0.6215  0.1837
 7704SOL    HW234572   2.683   0.855   7.169 -3.4265 -0.5919 -0.4531
 7705SOL     OW34573   4.014   1.134   9.138 -0.2099 -0.1307  0.4026
 7705SOL    HW134574   4.044   1.049   9.105 -1.2635 -1.3049  2.5170
 7705SOL    HW234575   4.091   1.184   9.111  0.5109 -1.8261 -0.6774
 7706SOL     OW34576   0.754   0.937  10.005 -0.5154 -0.0580 -0.1973
 7706SOL    HW134577   0.796   1.011  10.048  1.2573 -0.2505 -1.5660
 7706SOL    HW234578   0.678   0.977   9.963  0.5181  0.7376 -1.3327
 7707SOL     OW34579   1.965   0.185   1.664  0.2740  0.2051 -0.5462
 7707SOL    HW134580   1.981   0.167   1.571  0.1005 -1.2824 -0.2903
 7707SOL    HW234581   2.049   0.227   1.683  1.4421 -2.2481 -0.3465
 7708SOL     OW34582   0.390   0.610   6.123  0.0169 -0.4119  0.3714
 7708SOL    HW134583   0.480   0.587   6.102  0.2058  0.4762  0.2125
 7708SOL    HW234584   0.356   0.523   6.143  2.8471 -1.1708  1.9371
 7709SOL     OW34585   3.209   0.291   4.099  0.1750  0.0019  0.1817
 7709SOL    HW134586   3.198   0.224   4.168  0.1332 -0.2915 -0.1089
 7709SOL    HW234587   3.202   0.233   4.023  0.7413  0.7774 -0.4563
 7710SOL     OW34588   2.783   1.030   8.089 -0.3678 -0.2111  0.0993
 7710SOL    HW134589   2.767   1.108   8.035 -3.6002 -1.3302 -0.4928
 7710SOL    HW234590   2.827   1.089   8.151 -0.1369  0.0233 -0.2854
 7711SOL     OW34591   0.587   0.395   3.905 -0.3241 -1.0647 -0.3263
 7711SOL    HW134592   0.613   0.337   3.833 -0.7602 -1.3829 -0.2266
 7711SOL    HW234593   0.603   0.477   3.858  0.5437 -2.5536 -2.6512
 7712SOL     OW34594   0.960   1.965   2.652 -0.5072 -0.3224 -0.2667
 7712SOL    HW134595   0.907   1.948   2.730 -0.6996 -0.2198 -0.3742
 7712SOL    HW234596   0.995   1.876   2.649 -1.4692 -0.6786 -0.7317
 7713SOL     OW34597   2.838   3.424   5.754 -0.0423 -0.0826 -0.5542
 7713SOL    HW134598   2.841   3.512   5.791 -1.0561 -0.1161 -0.4102
 7713SOL    HW234599   2.933   3.412   5.755  0.3009  2.6805 -1.1348
 7714SOL     OW34600   2.509   1.200  13.898 -0.1701  0.3229 -0.6320
 7714SOL    HW134601   2.592   1.209  13.945  0.6462  0.5227 -2.1125
 7714SOL    HW234602   2.543   1.171  13.813 -1.7719 -2.2518 -0.3956
 7715SOL     OW34603   2.865   1.023  13.318  0.0782 -0.9142 -0.3086
 7715SOL    HW134604   2.898   1.106  13.284  0.3157 -0.5422  0.8138
 7715SOL    HW234605   2.941   0.998  13.371  0.5118 -1.6252 -1.2760
 7716SOL     OW34606   4.502   3.468   5.689  0.1045 -0.4202  0.4637
 7716SOL    HW134607   4.588   3.505   5.671 -1.2884  1.0865 -2.9913
 7716SOL    HW234608   4.508   3.443   5.781 -1.5404 -0.5034  0.5437
 7717SOL     OW34609   1.975   3.997  14.079 -0.4254 -0.0170  0.2193
 7717SOL    HW134610   1.935   3.915  14.110  0.2830 -0.0503  1.0513
 7717SOL    HW234611   2.055   3.952  14.051 -0.0096  0.7034  0.2528
 7718SOL     OW34612   0.288   1.387   1.044 -0.0471 -0.3540 -0.0109
 7718SOL    HW134613   0.380   1.402   1.066 -0.2840  0.3015  0.5178
 7718SOL    HW234614   0.247   1.459   1.091  1.5249  2.0132 -2.2859
 7719SOL     OW34615   4.356   1.594   7.031  0.1170  0.0350 -0.3449
 7719SOL    HW134616   4.427   1.657   7.019 -1.8033  2.2264 -0.4289
 7719SOL    HW234617   4.284   1.639   7.077  0.5325  0.7733 -0.4082
 7720SOL     OW34618   3.316   0.854   6.546 -0.1182 -0.2852  0.1082
 7720SOL    HW134619   3.374   0.886   6.614  0.4702  1.8249 -1.3754
 7720SOL    HW234620   3.268   0.931   6.515 -1.4632 -1.2130 -0.1529
 7721SOL     OW34621   1.810   0.606   5.343  0.1624 -0.5622 -0.0420
 7721SOL    HW134622   1.733   0.585   5.289  0.7925  0.8309 -1.4788
 7721SOL    HW234623   1.807   0.701   5.350  0.7210 -0.6951  2.0331
 7722SOL     OW34624   2.080   3.572   7.510  0.0551 -0.4551 -0.0538
 7722SOL    HW134625   2.038   3.577   7.424 -0.6881  1.1169  0.4110
 7722SOL    HW234626   2.091   3.477   7.505  1.1503 -0.3339  0.1246
 7723SOL     OW34627   4.592   2.201   8.293 -0.1052 -0.0596 -0.8110
 7723SOL    HW134628   4.517   2.145   8.311  1.0806 -1.2554  0.4402
 7723SOL    HW234629   4.540   2.269   8.251 -0.5626  1.1933  1.8187
 7724SOL     OW34630   1.758   4.690  16.830 -0.2486  0.8036  0.0802
 7724SOL    HW134631   1.763   0.048  16.772  0.8675 -0.5002 -1.5738
 7724SOL    HW234632   1.832   4.699  16.891 -1.4497  0.7730  1.5263
 7725SOL     OW34633   1.826   0.651   2.331 -0.6860 -0.2781 -0.2967
 7725SOL    HW134634   1.817   0.746   2.340 -0.4191 -0.3058  0.2410
 7725SOL    HW234635   1.779   0.636   2.248 -0.3327  0.1185 -0.5660
 7726SOL     OW34636   1.923   4.561  10.749 -0.2404  0.4231  0.0383
 7726SOL    HW134637   1.888   4.488  10.698 -0.3176  0.9183 -0.6246
 7726SOL    HW234638   1.935   4.515  10.832 -2.8140 -1.4511 -0.6072
 7727SOL     OW34639   4.129   1.669   9.222  0.3192  0.4968 -0.0651
 7727SOL    HW134640   4.201   1.658   9.160  1.5012 -2.4905  1.8470
 7727SOL    HW234641   4.142   1.764   9.231 -2.4180  0.7873  0.8705
 7728SOL     OW34642   4.479   3.862  14.605 -0.3886  0.0959 -0.0422
 7728SOL    HW134643   4.391   3.829  14.591  0.1237 -1.1106 -0.4392
 7728SOL    HW234644   4.465   3.953  14.631 -1.6807 -0.1124 -0.0142
 7729SOL     OW34645   3.066   2.361   4.539  0.1618  0.0570  0.2980
 7729SOL    HW134646   3.077   2.266   4.527  1.6722  0.1062  1.2531
 7729SOL    HW234647   2.979   2.380   4.504  0.2606 -2.1844 -1.2237
 7730SOL     OW34648   1.107   0.752   6.557 -0.3666  0.1120 -0.4937
 7730SOL    HW134649   1.092   0.744   6.651  3.0125  0.2370  0.0631
 7730SOL    HW234650   1.201   0.772   6.558 -0.0486 -1.5037  2.0180
 7731SOL     OW34651   0.477   4.494   6.728  0.0467 -0.4090  0.1350
 7731SOL    HW134652   0.563   4.481   6.767  0.2703  0.6559 -0.0062
 7731SOL    HW234653   0.435   4.414   6.761 -1.2827  0.6107  0.9370
 7732SOL     OW34654   3.446   0.787   8.153  1.0023  0.5406 -0.1273
 7732SOL    HW134655   3.458   0.774   8.247  1.5208 -1.8206 -0.5118
 7732SOL    HW234656   3.396   0.868   8.153 -5.1235 -3.2713  0.0217
 7733SOL     OW34657   1.435   2.927   7.910  0.0333  0.0953  0.0886
 7733SOL    HW134658   1.496   2.937   7.982  1.5288  1.8047 -1.3984
 7733SOL    HW234659   1.362   2.880   7.949 -0.7196  1.3131  0.1568
 7734SOL     OW34660   4.561   1.135  14.013 -0.0967 -0.0573  0.4946
 7734SOL    HW134661   4.525   1.090  14.090  2.4189 -0.5941  1.3494
 7734SOL    HW234662   4.590   1.061  13.960 -1.2957  1.9965 -3.0741
 7735SOL     OW34663   2.998   3.445   6.106  0.0059 -0.3612  0.4117
 7735SOL    HW134664   3.028   3.355   6.093 -0.9345 -0.7255  0.8002
 7735SOL    HW234665   2.997   3.480   6.016  0.3873 -0.2483  0.4513
 7736SOL     OW34666   4.668   1.303   1.993  0.2061  0.3091 -0.0747
 7736SOL    HW134667   4.703   1.385   2.027  0.5773  0.3587 -0.5660
 7736SOL    HW234668   0.028   1.250   1.992  0.7574  1.1377 -0.0255
 7737SOL     OW34669   1.003   1.068   1.590 -0.1721 -0.2311 -0.2654
 7737SOL    HW134670   1.077   1.123   1.564  0.8224 -1.4670 -0.0764
 7737SOL    HW234671   0.952   1.115   1.656  2.4633  0.2657  1.4290
 7738SOL     OW34672   0.180   2.074  11.556  0.3149  0.5880  0.5860
 7738SOL    HW134673   0.123   2.062  11.632 -0.0844 -0.5777  0.0992
 7738SOL    HW234674   0.222   1.987  11.560  0.1365  0.5111  0.8003
 7739SOL     OW34675   0.116   1.303   8.713 -0.4572  0.0812 -0.0386
 7739SOL    HW134676   0.206   1.326   8.734 -0.0396 -3.0217  1.4876
 7739SOL    HW234677   0.129   1.298   8.618  0.3673 -2.2094  0.1869
 7740SOL     OW34678   3.459   1.917   8.227 -0.0908  0.3497  0.0917
 7740SOL    HW134679   3.485   1.908   8.319 -1.6175 -0.6252  0.4254
 7740SOL    HW234680   3.511   1.845   8.191 -1.1647 -0.0777 -0.6067
 7741SOL     OW34681   2.796   2.511   1.812  0.1392 -0.0367 -0.3716
 7741SOL    HW134682   2.731   2.518   1.882 -0.0341  0.5146 -0.5828
 7741SOL    HW234683   2.877   2.502   1.863 -0.4921 -1.5401  0.3721
 7742SOL     OW34684   2.624   1.019   5.328  0.0004  0.1033 -0.0641
 7742SOL    HW134685   2.663   1.002   5.413  1.7347  0.1311 -0.8465
 7742SOL    HW234686   2.642   1.112   5.312  0.9754 -0.0950 -0.0829
 7743SOL     OW34687   1.538   0.925   3.713 -0.0921 -0.3060  0.0762
 7743SOL    HW134688   1.628   0.912   3.685 -0.3673 -1.3581 -0.3570
 7743SOL    HW234689   1.529   1.020   3.721  0.7252 -0.4306  2.6802
 7744SOL     OW34690   0.344   3.432   6.239 -0.4350  0.7044 -0.3289
 7744SOL    HW134691   0.283   3.361   6.258  0.1605  0.5442  0.9681
 7744SOL    HW234692   0.380   3.403   6.155 -0.4255 -0.1368 -0.0311
 7745SOL     OW34693   3.674   3.608   9.663  0.0643  0.1929 -0.2295
 7745SOL    HW134694   3.721   3.662   9.599 -0.3777  0.8065 -0.0425
 7745SOL    HW234695   3.602   3.667   9.686 -0.1065 -0.2740  0.4390
 7746SOL     OW34696   1.194   3.907  10.842  0.1960 -0.2716 -0.0688
 7746SOL    HW134697   1.153   3.968  10.903 -1.0009 -1.4769  0.3135
 7746SOL    HW234698   1.289   3.920  10.852  0.1467  1.3653 -1.7895
 7747SOL     OW34699   0.502   1.480  17.109 -0.1216 -0.2654  0.2716
 7747SOL    HW134700   0.545   1.400  17.083  3.7202  2.1936 -0.8658
 7747SOL    HW234701   0.411   1.471  17.080 -0.4116  1.7007  0.5017
 7748SOL     OW34702   0.417   0.709   1.885  0.2116  0.1386  0.1000
 7748SOL    HW134703   0.484   0.749   1.830  0.8635 -1.4289 -0.2348
 7748SOL    HW234704   0.388   0.778   1.944 -2.3527  0.1248 -1.1304
 7749SOL     OW34705   3.602   0.124   6.986 -0.0052 -0.1411 -0.0827
 7749SOL    HW134706   3.603   0.197   6.924 -2.0442  0.2905  0.3977
 7749SOL    HW234707   3.556   0.152   7.065 -0.0712  0.5417 -0.3617
 7750SOL     OW34708   2.497   4.190   5.824  0.1298 -0.4340  0.3747
 7750SOL    HW134709   2.468   4.193   5.733  2.3175  1.8932 -0.2285
 7750SOL    HW234710   2.474   4.099   5.842  2.5978 -1.3668 -1.2707
 7751SOL     OW34711   2.659   0.842   2.596  0.1750 -0.1655  0.2219
 7751SOL    HW134712   2.667   0.871   2.505  0.5070  0.0639  0.3235
 7751SOL    HW234713   2.720   0.903   2.639  1.4127 -2.2219  1.3710
 7752SOL     OW34714   3.502   2.502   9.072  0.2420  0.6370 -0.3219
 7752SOL    HW134715   3.478   2.416   9.107 -0.7011  0.0701 -2.3218
 7752SOL    HW234716   3.531   2.555   9.146 -1.8575  0.0703  0.9028
 7753SOL     OW34717   2.725   4.086   3.992 -0.5307  0.1291 -0.1782
 7753SOL    HW134718   2.700   4.092   4.084 -2.5234  1.6636 -0.8234
 7753SOL    HW234719   2.682   4.165   3.960  1.9194  1.3370 -0.4665
 7754SOL     OW34720   3.103   4.064   3.283 -1.0083 -0.0744  0.0825
 7754SOL    HW134721   3.027   4.012   3.258 -1.2923  0.0512  0.6784
 7754SOL    HW234722   3.124   4.121   3.210  1.4416 -0.1149  0.7453
 7755SOL     OW34723   3.011   0.857  15.712  0.2052 -0.6015 -0.0695
 7755SOL    HW134724   3.106   0.866  15.704  0.1843 -0.1809  0.1767
 7755SOL    HW234725   2.973   0.942  15.735  0.3441 -0.0924 -1.7297
 7756SOL     OW34726   2.725   3.003   7.977 -0.4850  0.4474  0.5362
 7756SOL    HW134727   2.785   2.989   8.051 -0.3137  0.2007  0.3517
 7756SOL    HW234728   2.761   3.081   7.936  1.0059  0.4650  1.8543
 7757SOL     OW34729   0.603   2.310   3.648 -0.1284  0.4177 -0.5161
 7757SOL    HW134730   0.535   2.378   3.646  0.4851  1.0412 -0.4406
 7757SOL    HW234731   0.624   2.316   3.742 -0.2680 -0.4958 -0.4339
 7758SOL     OW34732   4.164   0.694  16.168  0.0143  0.0326 -0.5572
 7758SOL    HW134733   4.185   0.620  16.225 -0.7207  0.0748 -0.2296
 7758SOL    HW234734   4.248   0.724  16.132 -0.6903  2.6084 -0.0699
 7759SOL     OW34735   3.902   0.553  17.341  0.0376 -0.0847 -0.3600
 7759SOL    HW134736   3.878   0.642  17.367 -0.5217  0.5504 -3.0967
 7759SOL    HW234737   3.832   0.534  17.278 -0.2631 -1.7366  0.4841
 7760SOL     OW34738   3.428   2.923   0.653 -0.2296 -0.0476  0.2598
 7760SOL    HW134739   3.458   2.900   0.741  0.4627  0.1398  0.0734
 7760SOL    HW234740   3.454   2.842   0.609  0.4398  0.8657 -1.0234
 7761SOL     OW34741   3.017   1.631  13.649 -0.4094 -0.5583 -0.2438
 7761SOL    HW134742   3.003   1.625  13.744 -0.4679  0.1554 -0.2059
 7761SOL    HW234743   3.074   1.554  13.641  0.6905  0.3337 -1.0658
 7762SOL     OW34744   4.594   0.563  17.119  0.2106  0.0574 -0.4456
 7762SOL    HW134745   4.603   0.658  17.116 -5.3352  0.6466  2.0758
 7762SOL    HW234746   4.600   0.544  17.213  1.3914 -3.4535 -1.2251
 7763SOL     OW34747   1.996   3.309   5.212  0.0700 -0.3747  0.0421
 7763SOL    HW134748   1.905   3.300   5.240 -0.1850  1.1995 -0.2743
 7763SOL    HW234749   2.039   3.332   5.294 -0.9706 -0.0596  0.4972
 7764SOL     OW34750   2.484   0.109  10.061  0.0094  0.2455  0.3467
 7764SOL    HW134751   2.443   0.037  10.110 -0.9475  0.1403 -0.6119
 7764SOL    HW234752   2.527   0.070   9.985 -0.2161 -0.9445  0.8251
 7765SOL     OW34753   0.187   3.411  10.589 -0.0903 -0.5300  0.2052
 7765SOL    HW134754   0.176   3.443  10.499 -1.1660 -1.5153 -0.0120
 7765SOL    HW234755   0.169   3.497  10.627  1.5801  0.5076 -1.3023
 7766SOL     OW34756   3.052   3.244   1.069  0.2829  0.3354 -0.4919
 7766SOL    HW134757   2.981   3.264   1.131  0.5376  1.0232 -0.4170
 7766SOL    HW234758   3.113   3.185   1.112 -1.4478 -0.5769  0.6961
 7767SOL     OW34759   4.125   0.483  15.226 -0.1419  0.9140 -0.3692
 7767SOL    HW134760   4.088   0.396  15.238 -1.0662  1.4805  0.7802
 7767SOL    HW234761   4.060   0.538  15.182 -2.4229 -0.3213  1.4680
 7768SOL     OW34762   2.979   2.165   6.783  0.6602 -0.0112 -0.0606
 7768SOL    HW134763   2.899   2.211   6.809 -1.1747 -3.7639  0.9912
 7768SOL    HW234764   3.042   2.223   6.825  0.1644  0.3280  0.2201
 7769SOL     OW34765   3.868   3.719  13.008 -0.0576 -0.6641  0.2001
 7769SOL    HW134766   3.785   3.711  13.055 -0.0202  1.2086  0.5777
 7769SOL    HW234767   3.835   3.762  12.929 -0.0656  0.4538  0.8112
 7770SOL     OW34768   3.420   3.537  16.609 -0.6433  0.8873 -0.3486
 7770SOL    HW134769   3.504   3.583  16.605 -0.6245  0.6471 -2.3879
 7770SOL    HW234770   3.399   3.493  16.527  1.5653 -1.5144  0.3615
 7771SOL     OW34771   0.468   0.396  10.394 -0.1092  0.0861  0.0518
 7771SOL    HW134772   0.465   0.485  10.360  0.8462  0.0174 -0.2096
 7771SOL    HW234773   0.550   0.387  10.441 -0.3822 -0.3964  0.4373
 7772SOL     OW34774   0.980   1.839  14.406 -0.1233 -0.1910 -0.3496
 7772SOL    HW134775   1.026   1.802  14.331  0.7108  0.5637 -0.2146
 7772SOL    HW234776   0.925   1.900  14.357  0.5972  0.9516  0.2663
 7773SOL     OW34777   2.973   4.437   1.733 -0.2153  0.3733 -0.2929
 7773SOL    HW134778   2.902   4.401   1.786 -1.4807  0.3736 -1.9687
 7773SOL    HW234779   3.005   4.512   1.782 -1.3273  1.5369 -1.3265
 7774SOL     OW34780   4.466   0.203   7.163 -0.9720  0.1685 -0.6707
 7774SOL    HW134781   4.469   0.170   7.253 -0.2231  0.0674 -0.7362
 7774SOL    HW234782   4.487   0.292   7.193  0.7957  0.0316 -1.5057
 7775SOL     OW34783   3.106   4.644  17.380 -0.0582 -0.1905 -0.0816
 7775SOL    HW134784   3.073   0.007  17.416 -2.1085 -1.9720  2.1044
 7775SOL    HW234785   3.197   4.658  17.353  0.1416 -2.2066 -0.5219
 7776SOL     OW34786   3.058   1.702   1.157 -0.1562 -0.0658  0.2579
 7776SOL    HW134787   2.985   1.722   1.216  1.1415  1.6968  1.2450
 7776SOL    HW234788   3.051   1.779   1.101  0.0285  0.7228  1.3333
 7777SOL     OW34789   4.482   0.088   7.407 -0.1988  0.1684 -0.1910
 7777SOL    HW134790   4.447   4.718   7.401  0.1150  0.0732 -0.6212
 7777SOL    HW234791   4.436   0.126   7.482 -0.5196 -0.0967 -0.2488
 7778SOL     OW34792   2.306   0.571   9.220  0.4392 -0.2321  0.0198
 7778SOL    HW134793   2.397   0.591   9.240 -0.0329  1.4640  0.4442
 7778SOL    HW234794   2.291   0.490   9.269 -1.5936 -0.3369 -0.7357
 7779SOL     OW34795   0.741   1.899   6.458 -0.3442  0.1630 -0.0998
 7779SOL    HW134796   0.724   1.941   6.374  1.7390  0.3993 -0.3911
 7779SOL    HW234797   0.820   1.941   6.490  0.1411  0.6554 -1.9582
 7780SOL     OW34798   4.624   0.410  17.619 -0.2379 -0.1924 -0.2379
 7780SOL    HW134799   4.664   0.327  17.646  0.3495 -0.4066 -1.7539
 7780SOL    HW234800   4.538   0.379  17.592 -0.8320  0.4979  0.8852
 7781SOL     OW34801   3.009   2.696  12.010  0.0779 -0.0279 -0.5347
 7781SOL    HW134802   2.945   2.625  12.020 -1.5107  1.0899 -2.9192
 7781SOL    HW234803   2.955   2.774  12.017  1.2965  0.8888 -1.2925
 7782SOL     OW34804   0.772   4.566   5.416  0.2907  0.0849  0.4951
 7782SOL    HW134805   0.839   4.504   5.447  0.1316 -0.3665 -0.0396
 7782SOL    HW234806   0.727   4.593   5.496 -1.1736 -1.4437  0.1911
 7783SOL     OW34807   1.750   0.005  12.873  0.2190 -0.2248  0.0730
 7783SOL    HW134808   1.672   0.059  12.888 -0.6720 -1.7803  1.0171
 7783SOL    HW234809   1.788   0.044  12.794 -1.4006  1.0681 -0.0701
 7784SOL     OW34810   1.329   3.888   6.203  0.7565  0.1652  0.1863
 7784SOL    HW134811   1.401   3.945   6.231  0.7596  0.1628  0.1831
 7784SOL    HW234812   1.300   3.947   6.134  1.2049  0.6623  0.4203
 7785SOL     OW34813   0.664   0.667   3.785  0.2609  0.0049 -0.0185
 7785SOL    HW134814   0.636   0.746   3.831 -2.1199  0.6206 -2.5081
 7785SOL    HW234815   0.588   0.662   3.727  2.2134  0.2684 -2.5830
 7786SOL     OW34816   1.511   3.894   5.216  0.1529 -0.0652 -0.0118
 7786SOL    HW134817   1.447   3.825   5.232  0.1876  0.2826  1.5731
 7786SOL    HW234818   1.574   3.863   5.150  1.4089  1.6581  0.3741
 7787SOL     OW34819   3.619   0.307   5.812  0.2533  0.5670 -0.3872
 7787SOL    HW134820   3.648   0.271   5.896  2.4682  0.8580 -1.0260
 7787SOL    HW234821   3.579   0.237   5.761  0.3260  0.6528 -0.5607
 7788SOL     OW34822   3.649   3.761   3.899 -0.1062  0.2732 -0.1604
 7788SOL    HW134823   3.725   3.705   3.881 -0.9536 -0.3152 -1.8652
 7788SOL    HW234824   3.684   3.845   3.867 -0.8506  0.5848 -0.1414
 7789SOL     OW34825   0.097   0.379   6.899 -0.1587 -0.3180  0.6534
 7789SOL    HW134826   0.172   0.334   6.862 -0.7841  1.2238 -2.5232
 7789SOL    HW234827   0.122   0.367   6.990  0.5998  1.2615  0.6453
 7790SOL     OW34828   1.564   4.125   2.807  0.0333 -0.3139  0.7021
 7790SOL    HW134829   1.569   4.129   2.711 -2.4032  2.0350  0.6838
 7790SOL    HW234830   1.491   4.064   2.816 -1.8629  2.0531  1.2137
 7791SOL     OW34831   1.280   2.818   5.657  0.1495 -0.5456  0.0709
 7791SOL    HW134832   1.271   2.894   5.715 -3.0779  0.9504 -2.3796
 7791SOL    HW234833   1.374   2.824   5.641  0.0399 -0.8766 -0.6759
 7792SOL     OW34834   4.158   4.662  15.651 -0.3092  0.0274 -0.4319
 7792SOL    HW134835   4.082   4.673  15.710  0.7270  0.9091  0.7398
 7792SOL    HW234836   4.229   4.680  15.712 -1.4956  0.9473  0.6819
 7793SOL     OW34837   3.794   4.515   3.715  0.5467 -0.2026  0.0237
 7793SOL    HW134838   3.775   4.502   3.622  1.3161  1.2068 -0.3339
 7793SOL    HW234839   3.783   4.426   3.749 -0.9298  0.2374  0.6976
 7794SOL     OW34840   3.612   2.456   4.564 -0.2366  0.1165 -0.1544
 7794SOL    HW134841   3.550   2.521   4.597  0.2624  0.2644  0.4968
 7794SOL    HW234842   3.564   2.430   4.485 -0.2803  3.0855 -1.0914
 7795SOL     OW34843   1.752   2.758   7.874  0.2328  0.2092  0.0446
 7795SOL    HW134844   1.798   2.717   7.802 -1.5505 -1.2486 -0.2484
 7795SOL    HW234845   1.731   2.843   7.835  1.1320  0.0947 -0.6672
 7796SOL     OW34846   4.114   3.516  10.194  0.0474 -0.4730  0.2913
 7796SOL    HW134847   4.063   3.558  10.263  0.2631  0.9359 -0.4081
 7796SOL    HW234848   4.203   3.509  10.229 -0.8294 -2.0633  2.2172
 7797SOL     OW34849   4.250   1.825   4.056 -0.2623  0.4774 -0.1430
 7797SOL    HW134850   4.236   1.763   4.128 -0.6239  2.0476  1.1334
 7797SOL    HW234851   4.171   1.879   4.068 -0.3196  0.6251 -1.2220
 7798SOL     OW34852   1.811   3.084  12.709  0.1003  0.0308 -0.1492
 7798SOL    HW134853   1.888   3.062  12.656  1.9786 -1.8811  3.3294
 7798SOL    HW234854   1.737   3.090  12.649  0.5653  1.2069 -0.5957
 7799SOL     OW34855   3.284   0.100   6.964 -0.0472 -0.0696 -0.9045
 7799SOL    HW134856   3.311   0.040   6.894  0.2398  0.0028 -0.8553
 7799SOL    HW234857   3.198   0.063   6.984 -0.3973  0.5447 -1.2811
 7800SOL     OW34858   0.749   0.119   1.738  0.1881 -0.9472  0.4236
 7800SOL    HW134859   0.735   0.197   1.684  0.4063 -0.7192  0.6977
 7800SOL    HW234860   0.843   0.138   1.742 -0.5177  2.4151  1.4384
 7801SOL     OW34861   4.355   3.929  12.840  0.2170  0.1031  0.6172
 7801SOL    HW134862   4.270   3.884  12.836 -0.4526  1.4310 -0.2831
 7801SOL    HW234863   4.382   3.918  12.932 -1.3486  0.3241  1.1139
 7802SOL     OW34864   4.338   4.455   2.471 -0.1284 -0.1184  0.2767
 7802SOL    HW134865   4.289   4.373   2.474  0.7866 -0.7335 -1.4918
 7802SOL    HW234866   4.420   4.422   2.508 -1.6460  0.1841  3.8349
 7803SOL     OW34867   3.112   0.733  16.656  0.3251  0.3794  0.3147
 7803SOL    HW134868   3.134   0.756  16.566 -1.1086  0.2912 -0.0653
 7803SOL    HW234869   3.194   0.747  16.704 -0.0745 -0.4056  1.2347
 7804SOL     OW34870   4.420   4.304   5.059  0.2105  0.2679 -0.7534
 7804SOL    HW134871   4.440   4.229   5.002 -0.8761  0.2895 -1.1712
 7804SOL    HW234872   4.349   4.341   5.006 -2.0465  0.6383  2.5404
 7805SOL     OW34873   1.452   0.067   4.678  0.3517 -0.4228  0.1993
 7805SOL    HW134874   1.483   4.714   4.624 -0.3073 -1.4994  1.2423
 7805SOL    HW234875   1.444   0.131   4.608 -0.4029 -2.3341 -1.4786
 7806SOL     OW34876   2.905   4.065   9.189 -0.0875  0.2522  0.6893
 7806SOL    HW134877   2.977   4.127   9.181  0.5382 -0.7810 -1.6795
 7806SOL    HW234878   2.957   3.988   9.211 -0.6983 -0.1977  0.5601
 7807SOL     OW34879   3.867   1.357  12.327  0.1790 -0.1047 -0.2424
 7807SOL    HW134880   3.954   1.396  12.325 -0.8484  2.0692 -3.2455
 7807SOL    HW234881   3.889   1.274  12.287  0.5553 -1.4542  2.7892
 7808SOL     OW34882   3.636   4.386  10.513  0.2929 -0.2640  0.5869
 7808SOL    HW134883   3.658   4.302  10.473  3.7255  1.5457 -1.3032
 7808SOL    HW234884   3.542   4.373  10.529  0.0521  1.0269  0.1683
 7809SOL     OW34885   1.197   4.339   8.885 -0.2696 -0.4393 -0.7068
 7809SOL    HW134886   1.161   4.256   8.915 -0.1137 -0.2686 -0.0561
 7809SOL    HW234887   1.119   4.390   8.906 -0.8089 -1.7452  0.3930
 7810SOL     OW34888   3.687   2.869  13.571 -0.2061  0.1812  0.2213
 7810SOL    HW134889   3.650   2.948  13.609 -1.9048 -2.3579  3.9125
 7810SOL    HW234890   3.673   2.815  13.649 -1.9719 -0.2884 -0.4147
 7811SOL     OW34891   2.102   2.359   2.005 -0.1940  0.0971 -0.0508
 7811SOL    HW134892   2.065   2.436   1.962  0.2604  0.4621  0.2137
 7811SOL    HW234893   2.188   2.388   2.036  0.4414  0.3787 -2.0533
 7812SOL     OW34894   3.168   1.350  12.528 -0.4409  0.0691 -0.3055
 7812SOL    HW134895   3.242   1.410  12.537  0.9625 -1.8465  1.0186
 7812SOL    HW234896   3.093   1.404  12.502 -0.2436  0.5437  0.1247
 7813SOL     OW34897   3.659   1.060   3.491 -0.5380 -0.3482 -0.0390
 7813SOL    HW134898   3.688   1.006   3.418 -2.8369 -1.6507 -0.0020
 7813SOL    HW234899   3.589   1.099   3.439 -1.5087  1.0658  2.3303
 7814SOL     OW34900   0.191   3.579   2.685  0.1545  0.3334 -0.1089
 7814SOL    HW134901   0.261   3.524   2.650  1.3408  3.2455 -2.2010
 7814SOL    HW234902   0.230   3.626   2.759  1.0174 -0.9751  0.2676
 7815SOL     OW34903   3.404   2.678   3.217  0.4770  0.0935  0.2007
 7815SOL    HW134904   3.327   2.635   3.180  1.3587 -1.1185 -0.2316
 7815SOL    HW234905   3.394   2.648   3.308 -0.9442  0.2721  0.0983
 7816SOL     OW34906   1.768   2.551  10.116  0.2434  0.1242  0.5954
 7816SOL    HW134907   1.707   2.622  10.097 -0.9341 -0.5169  2.0351
 7816SOL    HW234908   1.810   2.553  10.029  4.0884 -0.3861  2.4271
 7817SOL     OW34909   1.924   4.521   1.036  0.1151 -0.5777 -0.7616
 7817SOL    HW134910   1.974   4.600   1.014  0.4601 -0.7661 -0.6590
 7817SOL    HW234911   1.948   4.462   0.964 -0.6343 -0.9582 -0.6945
 7818SOL     OW34912   4.564   1.135  17.340 -0.6843  0.1820 -0.6147
 7818SOL    HW134913   4.595   1.209  17.288  1.6921  0.6107  1.4430
 7818SOL    HW234914   4.471   1.155  17.350 -0.6521 -0.9645  1.8521
 7819SOL     OW34915   3.450   4.055   3.963  0.2274 -0.0590 -0.2127
 7819SOL    HW134916   3.535   4.047   4.005  0.8309  1.0798 -1.2379
 7819SOL    HW234917   3.464   4.006   3.882 -1.2946 -3.8116  1.7875
 7820SOL     OW34918   1.577   2.768   4.703  0.7959  0.3248  0.2917
 7820SOL    HW134919   1.489   2.803   4.691  0.7876  0.1730 -0.0954
 7820SOL    HW234920   1.551   2.686   4.746 -1.2433  0.7360 -0.1724
 7821SOL     OW34921   0.277   4.609   2.846 -0.4039 -0.1095  0.1032
 7821SOL    HW134922   0.285   4.514   2.834  0.2483 -0.2500  1.7823
 7821SOL    HW234923   0.349   4.637   2.902 -0.5903  0.7727 -0.0983
 7822SOL     OW34924   2.985   0.142  13.898  0.1824  0.3721 -0.0258
 7822SOL    HW134925   2.931   0.220  13.903  0.2014  0.3140  1.1570
 7822SOL    HW234926   3.074   0.178  13.897  0.4182 -0.2265 -1.3459
 7823SOL     OW34927   0.010   2.579   7.488  0.0343 -0.0707 -0.1726
 7823SOL    HW134928   0.098   2.577   7.526 -1.7522 -3.8351  3.6462
 7823SOL    HW234929   4.711   2.671   7.508 -2.9745 -0.8362  0.6140
 7824SOL     OW34930   2.174   0.952   8.644 -0.7700  0.5588  0.3389
 7824SOL    HW134931   2.267   0.968   8.629 -0.7804 -0.7489 -1.2204
 7824SOL    HW234932   2.141   0.919   8.560 -0.0373 -0.7874  0.5855
 7825SOL     OW34933   0.278   4.563   4.069  0.1624 -0.5719  0.2201
 7825SOL    HW134934   0.350   4.501   4.057  0.1449 -0.6832  0.6680
 7825SOL    HW234935   0.298   4.563   4.163  1.9166 -2.6283 -0.1572
 7826SOL     OW34936   1.534   0.113   6.264 -0.1764  0.0361 -0.2522
 7826SOL    HW134937   1.452   0.093   6.219  0.3250  1.4301 -1.8195
 7826SOL    HW234938   1.558   0.030   6.306 -1.9223  0.2963  1.2455
 7827SOL     OW34939   3.394   2.090   3.323 -0.4941  0.7440 -0.4429
 7827SOL    HW134940   3.313   2.069   3.369  0.8475 -1.4687  0.9656
 7827SOL    HW234941   3.444   2.111   3.403 -0.6986 -2.4459  0.5442
 7828SOL     OW34942   4.056   4.517  14.512  0.3757  0.4077  0.6845
 7828SOL    HW134943   4.021   4.605  14.499  0.0069  0.5728  2.8369
 7828SOL    HW234944   4.143   4.540  14.546 -0.2629  1.4210  1.6314
 7829SOL     OW34945   1.490   1.026  13.410  0.3872 -0.0027  0.3782
 7829SOL    HW134946   1.454   1.025  13.498  2.4428 -1.3857  1.2263
 7829SOL    HW234947   1.495   1.119  13.388 -1.2314  0.1247  0.6185
 7830SOL     OW34948   4.486   0.754  15.564 -0.2233  0.0036 -0.7016
 7830SOL    HW134949   4.475   0.670  15.520 -1.2071 -0.4177  0.3303
 7830SOL    HW234950   4.394   0.782  15.561 -0.2020  0.3023  1.1012
 7831SOL     OW34951   1.093   0.593   7.244  0.2686 -0.7651  0.0926
 7831SOL    HW134952   1.089   0.611   7.337 -1.3048 -0.0806 -0.1055
 7831SOL    HW234953   1.047   0.509   7.239 -2.3853  0.6749  0.3791
 7832SOL     OW34954   2.966   3.519  17.005  0.4652 -0.0452  0.3076
 7832SOL    HW134955   2.882   3.498  17.046  0.2654  1.1796  0.5200
 7832SOL    HW234956   3.008   3.570  17.075  0.4538  0.3460  0.0285
 7833SOL     OW34957   3.782   0.508   6.992  0.4105 -0.3538 -0.7462
 7833SOL    HW134958   3.731   0.585   7.016  0.5141 -0.8145  0.9543
 7833SOL    HW234959   3.728   0.465   6.926 -0.2258  0.3071 -0.6585
 7834SOL     OW34960   1.403   2.789   1.433  0.1889  0.8914 -0.0765
 7834SOL    HW134961   1.438   2.807   1.346  0.2953  1.5574  0.1024
 7834SOL    HW234962   1.460   2.715   1.455 -1.0899 -0.1659 -0.2772
 7835SOL     OW34963   0.406   4.222   5.679 -0.0278 -0.3633 -0.3921
 7835SOL    HW134964   0.372   4.293   5.735  0.4981 -0.1462 -0.3415
 7835SOL    HW234965   0.449   4.163   5.741  3.0101  1.3349 -0.8438
 7836SOL     OW34966   4.003   0.998   3.491 -0.2146  0.3129 -0.3095
 7836SOL    HW134967   3.910   1.012   3.475 -0.0711 -0.7233 -2.0038
 7836SOL    HW234968   4.001   1.011   3.586  2.0469  0.0576 -0.2373
 7837SOL     OW34969   2.879   1.204   8.269  0.3677 -0.0804 -0.3322
 7837SOL    HW134970   2.786   1.228   8.273  0.5698  0.4766  0.8824
 7837SOL    HW234971   2.914   1.289   8.240 -0.3431 -0.6001 -2.7480
 7838SOL     OW34972   1.400   3.022  15.160  0.2944 -0.0444  0.2514
 7838SOL    HW134973   1.474   2.992  15.107  0.4928 -3.4400  2.5114
 7838SOL    HW234974   1.385   3.104  15.113 -0.8500 -0.8396 -0.7692
 7839SOL     OW34975   1.843   1.250   7.699  0.2838  0.0312  0.0987
 7839SOL    HW134976   1.926   1.242   7.746  0.5542  1.3067 -0.1723
 7839SOL    HW234977   1.823   1.336   7.736  0.8095 -0.7201  2.1339
 7840SOL     OW34978   2.290   0.045   5.270  0.0299 -0.0790 -0.5268
 7840SOL    HW134979   2.255   4.676   5.279  1.1731 -0.5827 -0.9819
 7840SOL    HW234980   2.273   0.087   5.354  2.5475 -1.3258  0.6100
 7841SOL     OW34981   0.771   1.477   3.961 -0.2797 -0.0533 -0.3403
 7841SOL    HW134982   0.686   1.434   3.966 -0.6914  0.6736 -1.2247
 7841SOL    HW234983   0.790   1.464   3.869 -3.2052 -1.0815 -0.8051
 7842SOL     OW34984   0.213   2.074   0.683  0.3133 -0.7745 -0.2820
 7842SOL    HW134985   0.187   2.008   0.619 -0.0776 -0.5268 -0.3784
 7842SOL    HW234986   0.308   2.066   0.685  0.2433 -1.3749  0.3622
 7843SOL     OW34987   4.021   0.940   1.060 -0.3475 -0.5450 -0.3033
 7843SOL    HW134988   3.991   0.931   0.970  1.8697  0.8294 -1.1981
 7843SOL    HW234989   4.097   0.998   1.055 -0.7716 -0.0830 -1.4631
 7844SOL     OW34990   3.246   3.754   9.598  0.0743 -0.4368 -0.2103
 7844SOL    HW134991   3.262   3.837   9.554 -2.4261 -0.3805 -1.0262
 7844SOL    HW234992   3.333   3.754   9.637 -1.0847  1.7524  2.4072
 7845SOL     OW34993   2.352   1.174   3.768  0.0557 -0.2054 -0.1420
 7845SOL    HW134994   2.290   1.195   3.699 -1.9190  0.1874  1.7681
 7845SOL    HW234995   2.433   1.202   3.726  1.5045  0.5621  3.1442
 7846SOL     OW34996   4.302   4.329  15.139  0.2180 -0.2637  0.7286
 7846SOL    HW134997   4.216   4.326  15.181 -0.0621  1.7422  0.2766
 7846SOL    HW234998   4.351   4.270  15.196  1.2286  3.0492  3.3068
 7847SOL     OW34999   1.757   0.993   2.681  0.1229  0.0250 -0.0138
 7847SOL    HW135000   1.802   1.022   2.761  0.2431  0.7904 -0.3604
 7847SOL    HW235001   1.691   0.929   2.707  1.8316 -1.6605  0.2443
 7848SOL     OW35002   2.719   0.318   8.509 -0.3464 -0.5303  0.0981
 7848SOL    HW135003   2.721   0.373   8.430  0.0104 -0.0756  0.4237
 7848SOL    HW235004   2.760   0.379   8.570  0.3285 -0.1524 -0.7246
 7849SOL     OW35005   4.698   2.352   9.034  0.1687  0.1228  0.5608
 7849SOL    HW135006   0.036   2.315   9.102  0.0004 -1.8340 -0.3430
 7849SOL    HW235007   4.629   2.355   9.101 -2.0378 -0.6495 -1.6637
 7850SOL     OW35008   4.212   1.895   8.626  0.0815 -1.3109 -0.9477
 7850SOL    HW135009   4.163   1.824   8.667 -0.1549  0.9574  2.7047
 7850SOL    HW235010   4.217   1.953   8.702  2.4842  0.9626 -2.8236
 7851SOL     OW35011   2.352   2.461   9.755  0.3320 -0.0803 -0.1433
 7851SOL    HW135012   2.383   2.532   9.698 -1.7978  1.9612  1.2220
 7851SOL    HW235013   2.349   2.513   9.836 -0.6982 -1.3101  0.6164
 7852SOL     OW35014   3.671   0.995   0.105  0.0437 -0.5418  0.9013
 7852SOL    HW135015   3.751   0.946   0.090 -0.8857 -1.8250  0.1723
 7852SOL    HW235016   3.629   0.933   0.165  1.0446 -4.0514 -2.0115
 7853SOL     OW35017   0.074   4.003   6.526  0.3290 -0.6098  0.0325
 7853SOL    HW135018   0.082   4.080   6.583 -1.1087 -0.9903  0.7358
 7853SOL    HW235019   0.049   3.945   6.597 -0.6107 -1.8086 -1.2872
 7854SOL     OW35020   1.747   3.248   6.208 -0.0103  0.2803  0.0099
 7854SOL    HW135021   1.840   3.237   6.189 -0.0983  0.6239 -0.6501
 7854SOL    HW235022   1.720   3.281   6.122 -1.2204  2.5445  1.2623
 7855SOL     OW35023   2.540   0.597   7.633 -0.0256 -0.2012 -0.2090
 7855SOL    HW135024   2.555   0.668   7.571 -0.9551  2.0163  2.1298
 7855SOL    HW235025   2.523   0.519   7.579  2.4665 -0.4861 -0.6142
 7856SOL     OW35026   4.670   2.624   0.969 -0.4425  0.1276 -0.7460
 7856SOL    HW135027   4.672   2.720   0.969 -0.4889  0.1269 -2.2787
 7856SOL    HW235028   4.607   2.606   1.038  0.8886 -0.7075  0.2680
 7857SOL     OW35029   1.400   1.251   3.086  0.3165  0.3569 -0.1798
 7857SOL    HW135030   1.494   1.232   3.077  0.3862  0.6799 -0.1502
 7857SOL    HW235031   1.366   1.209   3.008 -1.6249  0.9564  0.3596
 7858SOL     OW35032   1.567   2.370  15.737  0.0334  0.0928 -0.3833
 7858SOL    HW135033   1.621   2.292  15.724  0.2054  0.2437 -0.5700
 7858SOL    HW235034   1.525   2.357  15.822 -0.4430  2.7383 -0.2208
 7859SOL     OW35035   3.002   1.485   3.215 -0.4715  0.0961 -0.1263
 7859SOL    HW135036   2.982   1.488   3.122  0.4030  0.3668 -0.3025
 7859SOL    HW235037   2.917   1.476   3.259 -0.0551 -4.0892 -0.2222
 7860SOL     OW35038   1.344   3.293   7.612  0.2398  0.8002 -0.1773
 7860SOL    HW135039   1.337   3.228   7.543  1.5739 -0.6201  1.0020
 7860SOL    HW235040   1.392   3.364   7.570  0.1993  0.9637  0.0528
 7861SOL     OW35041   3.034   3.700   8.355  0.2323  0.3127 -0.5515
 7861SOL    HW135042   3.038   3.742   8.441 -0.5661 -1.8032  0.5212
 7861SOL    HW235043   3.088   3.625   8.379  0.1598  0.5612  0.4071
 7862SOL     OW35044   2.144   1.159   4.262 -0.1133 -0.0108 -0.0575
 7862SOL    HW135045   2.206   1.099   4.303 -0.9557 -0.6333  0.3258
 7862SOL    HW235046   2.163   1.147   4.169  0.7389  0.8312  0.0122
 7863SOL     OW35047   2.911   1.739   6.609  0.0088  0.7985 -0.5075
 7863SOL    HW135048   2.972   1.671   6.640  0.3923  1.2110 -0.3586
 7863SOL    HW235049   2.842   1.684   6.571  1.6106  0.0572 -2.3268
 7864SOL     OW35050   0.704   0.624   6.828  0.0146  0.2125 -0.1415
 7864SOL    HW135051   0.703   0.719   6.824 -0.1162  0.2052 -0.2652
 7864SOL    HW235052   0.615   0.614   6.793  0.0560  2.1424 -0.7778
 7865SOL     OW35053   2.448   4.332   7.218 -0.2066 -0.0086 -0.1439
 7865SOL    HW135054   2.445   4.238   7.197  0.7405 -0.1327  0.2406
 7865SOL    HW235055   2.355   4.353   7.213 -0.4142 -0.2261  2.6503
 7866SOL     OW35056   0.755   4.291   7.149  0.2068  0.3390  0.1921
 7866SOL    HW135057   0.692   4.253   7.210 -1.6395  0.6041 -1.5290
 7866SOL    HW235058   0.837   4.245   7.167  1.5287  1.7271 -2.3259
 7867SOL     OW35059   2.200   4.282   5.489 -0.1157 -0.1388 -0.1028
 7867SOL    HW135060   2.236   4.365   5.518 -1.4022  1.2822 -2.5905
 7867SOL    HW235061   2.273   4.271   5.428  1.0056  0.6149  1.1087
 7868SOL     OW35062   0.406   2.011   6.342 -0.3498 -0.0634  0.8197
 7868SOL    HW135063   0.354   2.081   6.303 -1.0408 -0.8107  0.3971
 7868SOL    HW235064   0.443   2.063   6.414  2.4659  0.9036 -1.3353
 7869SOL     OW35065   4.000   4.511   8.453 -0.7286 -0.8547  0.1971
 7869SOL    HW135066   4.083   4.541   8.415 -1.4738  0.0334 -0.7228
 7869SOL    HW235067   3.975   4.440   8.393  0.2853  0.2986 -1.6012
 7870SOL     OW35068   4.564   1.577   4.815 -0.9861 -0.3666 -0.1123
 7870SOL    HW135069   4.473   1.582   4.844 -0.7141  1.2389  0.4590
 7870SOL    HW235070   4.578   1.671   4.810 -0.0028 -0.4975  0.2431
 7871SOL     OW35071   2.031   0.135   5.449 -0.0843  0.0501  0.0116
 7871SOL    HW135072   2.091   0.196   5.406 -1.1453  1.9121  1.1695
 7871SOL    HW235073   1.966   0.194   5.486  0.6395 -0.2434  1.7854
 7872SOL     OW35074   2.713   3.882   7.666 -0.0999  0.7772  0.9565
 7872SOL    HW135075   2.758   3.940   7.728 -1.0645 -0.6935  3.0213
 7872SOL    HW235076   2.684   3.807   7.718  3.6634 -2.1396 -1.1105
 7873SOL     OW35077   0.850   3.268  15.981 -0.2087 -0.3445  0.7001
 7873SOL    HW135078   0.920   3.213  16.015  0.7816 -0.6587 -1.8553
 7873SOL    HW235079   0.851   3.239  15.890  0.4623  1.8900  0.0154
 7874SOL     OW35080   0.953   0.792  15.854  0.3207 -0.1151  0.4915
 7874SOL    HW135081   0.864   0.828  15.854  1.4691  2.6923 -1.8856
 7874SOL    HW235082   1.009   0.870  15.860 -1.6108  1.2200  1.2948
 7875SOL     OW35083   2.758   0.000  14.215  0.6271 -0.2601  0.2995
 7875SOL    HW135084   2.666   0.013  14.239 -0.1361  1.4069 -3.6088
 7875SOL    HW235085   2.787   4.653  14.278  0.4686  0.9543  1.6657
 7876SOL     OW35086   4.537   3.079   6.205  0.5584 -0.6070 -0.2375
 7876SOL    HW135087   4.589   3.144   6.157  1.1796 -0.9551 -0.0419
 7876SOL    HW235088   4.540   3.017   6.131 -0.0203 -0.6182 -0.2447
 7877SOL     OW35089   1.125   1.646   3.447 -0.3321 -0.2665 -0.9437
 7877SOL    HW135090   1.133   1.565   3.396 -1.5793 -0.8007 -0.2811
 7877SOL    HW235091   1.054   1.627   3.507 -2.0584  0.3407 -2.7845
 7878SOL     OW35092   4.649   3.557  16.090 -0.1572 -0.0083 -0.2465
 7878SOL    HW135093   0.020   3.582  16.069 -0.5965  2.1653  0.4647
 7878SOL    HW235094   4.637   3.491  16.022 -0.6581  1.0402 -1.1760
 7879SOL     OW35095   4.348   0.108   5.621 -0.0911  0.7113 -0.3644
 7879SOL    HW135096   4.407   0.179   5.595  2.5885 -1.2112  0.3823
 7879SOL    HW235097   4.282   0.141   5.561  0.9737  1.1227 -1.3166
 7880SOL     OW35098   4.195   2.848  13.997  0.1589 -0.1370 -0.2306
 7880SOL    HW135099   4.247   2.888  14.067 -1.4003  1.4490  0.0244
 7880SOL    HW235100   4.134   2.921  13.983  0.2057  0.2642  1.6941
 7881SOL     OW35101   2.883   2.102   9.296 -0.1890 -0.1128  0.4956
 7881SOL    HW135102   2.933   2.129   9.374  1.1422 -0.0976 -0.3613
 7881SOL    HW235103   2.877   2.006   9.302 -0.9454 -0.0687  0.3371
 7882SOL     OW35104   3.549   1.079   4.657 -0.3733 -0.1371  0.6748
 7882SOL    HW135105   3.525   1.091   4.749  0.0610 -1.0019  0.9047
 7882SOL    HW235106   3.464   1.069   4.614 -0.6787 -0.2457  1.2933
 7883SOL     OW35107   2.333   4.575   0.351  0.5190  0.3395 -0.0902
 7883SOL    HW135108   2.321   4.637   0.422 -2.3296  2.0151 -2.0201
 7883SOL    HW235109   2.288   4.618   0.278  1.4062  1.9416  0.3157
 7884SOL     OW35110   0.844   2.707   2.654 -0.1513  0.0003 -0.1455
 7884SOL    HW135111   0.810   2.735   2.739  0.2789  2.2978 -0.7327
 7884SOL    HW235112   0.901   2.778   2.623  0.9436 -0.1430  1.5442
 7885SOL     OW35113   3.389   1.064   8.374  0.3654 -0.4680 -0.4912
 7885SOL    HW135114   3.479   1.096   8.390  0.3516 -0.4048 -0.5378
 7885SOL    HW235115   3.399   0.978   8.414 -1.7157  0.3040  1.6896
 7886SOL     OW35116   3.637   2.647   8.152 -0.8296  0.1558  0.3516
 7886SOL    HW135117   3.730   2.636   8.169 -0.9914  0.0208  1.1414
 7886SOL    HW235118   3.603   2.564   8.118  1.4972 -0.4343 -0.5030
 7887SOL     OW35119   1.456   0.635   0.095  0.1223 -0.5017 -0.2835
 7887SOL    HW135120   1.434   0.549   0.129 -1.0354  0.2850  0.9403
 7887SOL    HW235121   1.443   0.617   0.002 -0.3443  2.0109 -0.7182
 7888SOL     OW35122   0.461   1.123   5.765  0.8659  0.1432  0.0201
 7888SOL    HW135123   0.437   1.088   5.851 -0.0005 -0.1454 -0.3279
 7888SOL    HW235124   0.551   1.146   5.785  1.2929 -0.2155 -1.4671
 7889SOL     OW35125   4.192   4.408  14.906 -0.0379 -0.0754  0.4887
 7889SOL    HW135126   4.243   4.382  14.983 -0.2102 -1.4540  0.1427
 7889SOL    HW235127   4.255   4.427  14.837 -1.5644 -0.1527 -0.9248
 7890SOL     OW35128   3.887   2.613   1.657  0.3236  0.0437 -0.2972
 7890SOL    HW135129   3.891   2.556   1.580 -2.1440  0.5456 -0.7816
 7890SOL    HW235130   3.957   2.579   1.713  1.1264  0.9117 -0.7609
 7891SOL     OW35131   3.973   4.023   3.338  0.4039 -0.5259  0.0883
 7891SOL    HW135132   4.042   4.078   3.301  1.3149 -1.3885  0.4968
 7891SOL    HW235133   4.020   3.963   3.396 -0.6930  0.7684  2.3074
 7892SOL     OW35134   3.114   4.224   1.273 -0.0278  0.5418 -0.5930
 7892SOL    HW135135   3.065   4.211   1.354  0.9837 -0.9649 -0.2293
 7892SOL    HW235136   3.193   4.265   1.307  0.2960 -0.4471 -0.1452
 7893SOL     OW35137   0.227   2.712   3.295  0.2039 -0.4252  0.8178
 7893SOL    HW135138   0.134   2.725   3.278  0.5589  0.1079 -0.6891
 7893SOL    HW235139   0.243   2.618   3.284 -1.1293 -0.4510 -0.8399
 7894SOL     OW35140   3.133   1.511   1.798  0.2295  0.4394 -0.2063
 7894SOL    HW135141   3.161   1.439   1.742  1.5909  0.6040  0.2652
 7894SOL    HW235142   3.217   1.555   1.812  0.7356  0.1856 -2.5699
 7895SOL     OW35143   2.671   2.064  17.646  0.1813 -0.4707 -0.0929
 7895SOL    HW135144   2.669   2.023  17.560 -0.8394  0.1129 -0.3477
 7895SOL    HW235145   2.661   2.156  17.624 -0.5183 -0.5132  0.0522
 7896SOL     OW35146   1.850   1.012  15.019 -0.6770  0.1363  0.3656
 7896SOL    HW135147   1.841   1.012  14.924  0.5940  1.4116  0.2485
 7896SOL    HW235148   1.811   0.929  15.047 -0.1170 -0.5534 -0.8910
 7897SOL     OW35149   0.961   2.632   5.063 -0.0606  0.4684 -0.5687
 7897SOL    HW135150   0.971   2.576   5.141  1.3961  0.0378 -1.0715
 7897SOL    HW235151   1.034   2.693   5.065  0.4955 -0.2899  2.0514
 7898SOL     OW35152   4.541   4.186   9.173  0.6789  0.2098  0.3401
 7898SOL    HW135153   4.597   4.218   9.243  1.2185 -0.0531  0.0328
 7898SOL    HW235154   4.470   4.249   9.185  1.5716  1.1058  0.8202
 7899SOL     OW35155   1.913   4.608  16.183  0.3405  0.2634  0.2234
 7899SOL    HW135156   1.942   4.637  16.097  1.2070 -1.2917  0.0014
 7899SOL    HW235157   1.846   4.676  16.195  0.2998 -0.0738  1.9464
 7900SOL     OW35158   3.657   4.197   9.273  0.1392  0.6926  0.2688
 7900SOL    HW135159   3.728   4.241   9.225 -0.5216  3.1230  1.5036
 7900SOL    HW235160   3.633   4.263   9.338  0.0560  1.8214 -0.8996
 7901SOL     OW35161   1.483   0.774   7.669  0.1605  0.1900 -0.3234
 7901SOL    HW135162   1.504   0.830   7.594 -2.6963 -0.6608 -1.7728
 7901SOL    HW235163   1.482   0.690   7.624 -0.8351 -0.2919  0.5827
 7902SOL     OW35164   1.091   1.702   7.388 -0.3430 -0.7512  0.0628
 7902SOL    HW135165   1.177   1.667   7.366 -0.4007 -0.4809 -0.5894
 7902SOL    HW235166   1.091   1.738   7.477 -1.1202  0.9576 -0.6288
 7903SOL     OW35167   0.890   3.655  16.463  0.3279  0.5557  0.0596
 7903SOL    HW135168   0.951   3.629  16.393 -1.7343 -1.3464 -1.0181
 7903SOL    HW235169   0.934   3.600  16.528  1.0638 -0.7146 -1.5047
 7904SOL     OW35170   0.567   1.397  13.930 -0.4838  0.5084 -0.1407
 7904SOL    HW135171   0.574   1.470  13.868 -0.8898  1.2338  0.6717
 7904SOL    HW235172   0.472   1.385  13.927 -0.2557 -1.2695  0.1547
 7905SOL     OW35173   3.006   0.240  14.310 -0.1696 -0.0870 -0.3630
 7905SOL    HW135174   3.072   0.302  14.279 -1.2786  1.4480  0.3224
 7905SOL    HW235175   2.956   0.290  14.374  0.4577 -1.6511  1.3261
 7906SOL     OW35176   4.168   3.775  16.099 -0.0688 -0.3150  0.1044
 7906SOL    HW135177   4.187   3.795  16.190 -0.2262  2.9490 -0.5682
 7906SOL    HW235178   4.159   3.680  16.098 -0.8679 -0.1985 -2.9325
 7907SOL     OW35179   0.290   2.621   6.511  0.1619  0.0987 -0.1534
 7907SOL    HW135180   0.213   2.566   6.498 -1.0235  2.2876 -2.4186
 7907SOL    HW235181   0.258   2.688   6.573  1.5017  1.8720 -1.3748
 7908SOL     OW35182   1.346   4.521  14.187  0.1317  0.1262  0.6952
 7908SOL    HW135183   1.301   4.437  14.175  1.1570  0.0147 -2.1627
 7908SOL    HW235184   1.427   4.503  14.140  0.2073 -0.2886  0.9735
 7909SOL     OW35185   2.476   4.595  10.236 -0.1553 -0.2111 -0.6790
 7909SOL    HW135186   2.462   4.590  10.331  2.0220 -1.1595 -0.4295
 7909SOL    HW235187   2.461   4.504  10.211  0.4238 -0.6422  0.5284
 7910SOL     OW35188   4.337   0.636  10.013  0.8268  0.2946  0.1671
 7910SOL    HW135189   4.419   0.589  10.024 -1.2665 -3.2089  0.9228
 7910SOL    HW235190   4.277   0.572  10.053  0.9676  1.8092  2.8048
 7911SOL     OW35191   2.953   4.199  14.970  0.4783  0.4171 -0.0126
 7911SOL    HW135192   2.875   4.202  14.915  0.3743  0.5724  0.1460
 7911SOL    HW235193   2.976   4.292  14.968  0.8377  0.3273 -0.1466
 7912SOL     OW35194   3.617   0.313   1.235 -0.4674 -0.0181 -0.1111
 7912SOL    HW135195   3.685   0.345   1.295 -0.4639 -0.8149  0.3113
 7912SOL    HW235196   3.572   0.250   1.293  0.0791  0.7181  1.1073
 7913SOL     OW35197   0.629   2.977   9.531 -0.0817  0.5848 -0.4095
 7913SOL    HW135198   0.714   3.016   9.512 -0.0264  0.6756  0.0255
 7913SOL    HW235199   0.604   2.946   9.444 -3.2301  1.4633  0.1941
 7914SOL     OW35200   4.050   1.919  10.011  0.4135  0.3971  0.5548
 7914SOL    HW135201   3.959   1.933   9.982  0.6344  0.0127 -0.3354
 7914SOL    HW235202   4.098   1.938   9.930 -1.5787 -0.6972 -0.9003
 7915SOL     OW35203   1.238   2.336   6.962 -0.5043  0.0463 -0.0082
 7915SOL    HW135204   1.183   2.258   6.972 -1.6738  0.7580 -0.8084
 7915SOL    HW235205   1.183   2.385   6.900  2.3174  3.1455 -0.0567
 7916SOL     OW35206   1.314   2.351   7.643 -0.1101  0.3717 -0.2642
 7916SOL    HW135207   1.304   2.289   7.715  1.3398  0.8071  0.2911
 7916SOL    HW235208   1.335   2.296   7.567  2.5296  1.5697 -0.3937
 7917SOL     OW35209   4.639   0.770   6.218  0.2024 -0.5958  0.4558
 7917SOL    HW135210   0.012   0.746   6.226  0.2765 -0.7714 -1.0037
 7917SOL    HW235211   4.611   0.777   6.310  0.1806 -1.0102  0.4829
 7918SOL     OW35212   0.922   1.665  17.189  0.2710 -0.7267  0.3614
 7918SOL    HW135213   0.957   1.619  17.112 -1.4251 -0.2718 -0.6915
 7918SOL    HW235214   0.996   1.669  17.249 -1.4362  0.3242  2.3766
 7919SOL     OW35215   2.757   0.148   4.781 -0.0481 -0.1861  0.0767
 7919SOL    HW135216   2.803   0.174   4.861 -3.0653  2.1960  1.0196
 7919SOL    HW235217   2.802   0.206   4.720  2.1760 -1.7687  0.2038
 7920SOL     OW35218   2.372   2.610  12.045  0.0813 -0.0994  0.4750
 7920SOL    HW135219   2.361   2.694  12.090  0.1639  0.9524 -1.4927
 7920SOL    HW235220   2.461   2.583  12.069 -0.2987 -2.7473 -1.1488
 7921SOL     OW35221   0.782   2.708   1.024 -0.0229  0.4031  0.5284
 7921SOL    HW135222   0.739   2.760   0.956 -0.0544  0.4684  0.5979
 7921SOL    HW235223   0.822   2.773   1.080  0.6297  0.5794 -0.1468
 7922SOL     OW35224   3.629   1.213   5.890  0.1830  0.9563 -0.2003
 7922SOL    HW135225   3.634   1.307   5.907  2.5544  0.9143 -0.6838
 7922SOL    HW235226   3.723   1.196   5.881  0.1130 -0.0066  0.7944
 7923SOL     OW35227   3.993   0.385   9.723 -0.2237 -0.1216 -0.0729
 7923SOL    HW135228   4.062   0.320   9.710  1.1015  0.8007  2.2369
 7923SOL    HW235229   3.999   0.401   9.817  2.2254 -0.1310 -0.2252
 7924SOL     OW35230   2.353   3.896   1.769 -0.5167  0.3276  0.2339
 7924SOL    HW135231   2.296   3.938   1.705  0.5556  2.3455  0.6213
 7924SOL    HW235232   2.414   3.847   1.714  0.2033  0.9845  0.4573
 7925SOL     OW35233   2.913   0.632   2.768 -0.1759  0.5305 -0.4901
 7925SOL    HW135234   2.962   0.629   2.850  0.8649 -1.0160 -1.1411
 7925SOL    HW235235   2.906   0.725   2.746 -3.8527  0.9415  2.4867
 7926SOL     OW35236   0.798   1.209  10.813 -0.2179  0.2136 -0.0816
 7926SOL    HW135237   0.822   1.124  10.778 -0.7894 -0.6848  1.7058
 7926SOL    HW235238   0.869   1.256  10.770 -0.5497  1.4444  0.7066
 7927SOL     OW35239   1.720   1.893   5.977 -0.0353  0.1356 -0.3398
 7927SOL    HW135240   1.677   1.961   5.926 -0.9814  0.5687  1.0280
 7927SOL    HW235241   1.651   1.866   6.039  0.9588 -1.0093  0.2733
 7928SOL     OW35242   2.388   0.413   2.747  0.3606 -0.1164 -0.1185
 7928SOL    HW135243   2.474   0.454   2.752  0.5340 -0.5449  0.4333
 7928SOL    HW235244   2.383   0.389   2.654  2.1397 -2.0789  0.2959
 7929SOL     OW35245   2.757   3.387   8.284  0.5039 -0.4515  0.1926
 7929SOL    HW135246   2.737   3.408   8.376  0.6848 -0.1483  0.1627
 7929SOL    HW235247   2.712   3.304   8.267 -1.1286  0.5590 -0.4401
 7930SOL     OW35248   0.404   2.698   4.524 -0.2267  0.9433  0.2330
 7930SOL    HW135249   0.314   2.679   4.551 -0.5378  2.4124  0.2178
 7930SOL    HW235250   0.431   2.610   4.550  2.6979  1.8626  0.1902
 7931SOL     OW35251   2.686   0.269   2.619 -0.0212  0.3451  0.2557
 7931SOL    HW135252   2.774   0.250   2.585 -0.2534  0.4884 -0.4093
 7931SOL    HW235253   2.683   0.360   2.649 -2.1391  0.7700 -1.2626
 7932SOL     OW35254   3.883   1.168  14.951 -0.3355 -0.0606 -0.2304
 7932SOL    HW135255   3.803   1.185  14.901  0.6546 -0.3849 -1.9223
 7932SOL    HW235256   3.859   1.187  15.042  1.0255 -0.9225  0.2891
 7933SOL     OW35257   3.007   1.256  13.228  0.2044  0.5677  0.1910
 7933SOL    HW135258   2.952   1.332  13.207 -1.3677 -0.2659  1.3805
 7933SOL    HW235259   3.068   1.253  13.153  1.0111  0.0956  0.8740
 7934SOL     OW35260   1.753   3.216   4.929  0.5036  0.0598 -0.4236
 7934SOL    HW135261   1.792   3.147   4.982  3.7300  0.2390 -2.5566
 7934SOL    HW235262   1.727   3.172   4.848  3.6284 -1.4736 -0.5845
 7935SOL     OW35263   4.675   2.333   8.516  0.2568 -0.1063 -0.7338
 7935SOL    HW135264   4.673   2.298   8.427  1.2388  0.7303 -1.0859
 7935SOL    HW235265   4.583   2.316   8.539  0.8279 -0.4306  1.2704
 7936SOL     OW35266   2.721   2.926  10.518  0.7587  0.1528 -0.2678
 7936SOL    HW135267   2.784   2.858  10.542 -0.0261 -0.5669 -0.2454
 7936SOL    HW235268   2.729   2.934  10.423  1.2454 -0.7510 -0.3121
 7937SOL     OW35269   4.567   2.214   8.809 -0.2889 -0.2432  0.0202
 7937SOL    HW135270   4.614   2.234   8.890 -0.4271 -2.0867  0.5728
 7937SOL    HW235271   4.487   2.264   8.821  2.0715  3.0164  2.1067
 7938SOL     OW35272   3.824   3.588   3.803  0.3318  0.1203  0.1603
 7938SOL    HW135273   3.898   3.585   3.742 -0.7522  1.1382 -1.2052
 7938SOL    HW235274   3.843   3.512   3.858  1.1329 -1.5920 -2.4367
 7939SOL     OW35275   2.358   0.297   2.511 -0.3105 -0.1577 -0.4853
 7939SOL    HW135276   2.292   0.228   2.499  0.5676 -1.1737  0.4702
 7939SOL    HW235277   2.420   0.273   2.443  0.1264  1.4593 -0.6371
 7940SOL     OW35278   1.377   2.106  13.717  0.5214 -0.2436  0.2703
 7940SOL    HW135279   1.314   2.148  13.775  0.3954 -1.3786  0.9593
 7940SOL    HW235280   1.460   2.150  13.736  0.9452 -1.1863  0.5899
 7941SOL     OW35281   0.845   2.390   3.469 -0.1049 -0.2582  0.4586
 7941SOL    HW135282   0.900   2.316   3.442  1.9179  0.5952  2.2015
 7941SOL    HW235283   0.788   2.343   3.530 -0.2719 -0.6211  0.0269
 7942SOL     OW35284   1.697   2.020   1.969  0.5810  0.0438 -0.1711
 7942SOL    HW135285   1.713   1.926   1.971 -1.0453 -0.2325  0.0222
 7942SOL    HW235286   1.781   2.054   1.939 -0.7042  1.2010 -2.4709
 7943SOL     OW35287   2.183   1.046  12.878 -0.2912  0.0421  0.2430
 7943SOL    HW135288   2.098   1.002  12.878  0.9583 -2.3484 -0.7843
 7943SOL    HW235289   2.221   1.015  12.960 -1.1128  0.3589  0.7483
 7944SOL     OW35290   4.412   0.714  13.409 -0.2659 -0.2468 -0.0189
 7944SOL    HW135291   4.440   0.623  13.396 -0.5649 -0.1302 -1.4433
 7944SOL    HW235292   4.446   0.748  13.326 -1.1471  0.2174 -0.1899
 7945SOL     OW35293   0.739   3.950   8.098 -0.0372 -0.5014 -0.7206
 7945SOL    HW135294   0.673   3.900   8.146 -0.4268  0.4503 -0.2616
 7945SOL    HW235295   0.706   4.038   8.083  2.2773  0.0575 -2.5519
 7946SOL     OW35296   1.960   2.057   3.351 -0.3792  0.1727  0.1155
 7946SOL    HW135297   1.865   2.062   3.351 -0.3656  0.4746 -0.2436
 7946SOL    HW235298   1.972   2.014   3.266  1.3737  1.3965 -0.2718
 7947SOL     OW35299   0.822   1.569   1.132  0.5265 -0.1934  0.3018
 7947SOL    HW135300   0.776   1.576   1.215 -2.5335 -1.4280 -1.2966
 7947SOL    HW235301   0.842   1.476   1.123  2.7724  0.0515  2.9234
 7948SOL     OW35302   0.628   3.414   6.353  0.1664  0.7537  0.8650
 7948SOL    HW135303   0.608   3.407   6.259 -0.8977  1.9171  1.0041
 7948SOL    HW235304   0.704   3.471   6.347  0.8834 -0.2701  0.2051
 7949SOL     OW35305   3.329   3.279   8.445  0.2545 -0.1627 -0.0512
 7949SOL    HW135306   3.424   3.270   8.439  0.6198  3.0414  1.0391
 7949SOL    HW235307   3.304   3.186   8.453 -0.8210  0.1872  0.6833
 7950SOL     OW35308   3.013   0.211   7.258  0.0327 -0.1477 -0.5841
 7950SOL    HW135309   2.932   0.163   7.245 -1.0089  1.4918 -0.1653
 7950SOL    HW235310   2.987   0.264   7.333 -1.2929  0.7446 -1.6701
 7951SOL     OW35311   1.081   0.957  16.678  0.1805  0.4234 -0.4799
 7951SOL    HW135312   1.051   0.928  16.592 -1.2108 -0.9967  0.4712
 7951SOL    HW235313   1.108   1.043  16.647  0.7439  0.0861 -0.9118
 7952SOL     OW35314   3.139   1.600   6.723  0.1843  0.1369  0.4568
 7952SOL    HW135315   3.234   1.614   6.721  0.0815  0.9423  1.3332
 7952SOL    HW235316   3.138   1.549   6.805 -1.7104 -0.3603  0.1247
 7953SOL     OW35317   4.340   3.215   9.020 -0.2180  0.3978 -0.4115
 7953SOL    HW135318   4.252   3.253   9.023 -0.5049 -0.4308  1.5024
 7953SOL    HW235319   4.394   3.292   9.037  0.2014 -0.1635  0.7076
 7954SOL     OW35320   3.213   2.257   2.900 -0.5171  0.3980  0.5817
 7954SOL    HW135321   3.265   2.250   2.980  1.1453 -1.5383 -0.6533
 7954SOL    HW235322   3.128   2.224   2.929 -0.1161 -1.0963  0.0751
 7955SOL     OW35323   1.158   2.365   2.393  0.0863 -0.1423  0.0088
 7955SOL    HW135324   1.166   2.303   2.466  0.2423  0.9717  0.9457
 7955SOL    HW235325   1.105   2.310   2.336 -1.4116 -0.0950  1.3478
 7956SOL     OW35326   1.664   2.848   5.839  0.4746  0.6510  0.4219
 7956SOL    HW135327   1.630   2.822   5.753  1.3963  0.4402  0.1127
 7956SOL    HW235328   1.599   2.806   5.895  0.0349  1.1227  0.2593
 7957SOL     OW35329   2.604   3.753  17.665 -0.5166 -0.0980 -0.3706
 7957SOL    HW135330   2.649   3.784   0.064 -1.0056  0.1239 -0.1755
 7957SOL    HW235331   2.518   3.787   0.009 -0.2120 -0.6558  1.5246
 7958SOL     OW35332   1.284   0.941   2.395  0.0713 -0.5640 -0.4110
 7958SOL    HW135333   1.230   1.004   2.347  0.6209 -0.1608 -0.5098
 7958SOL    HW235334   1.240   0.857   2.390 -1.3896  0.0670  1.9424
 7959SOL     OW35335   1.791   0.936   0.492 -0.2390 -0.8887 -0.0212
 7959SOL    HW135336   1.725   0.868   0.483  0.7420 -1.6158 -1.6590
 7959SOL    HW235337   1.875   0.889   0.491 -0.1170 -0.6064 -2.8992
 7960SOL     OW35338   3.861   2.217  15.004  0.4319  0.3639 -0.0762
 7960SOL    HW135339   3.950   2.191  15.024 -0.5810 -0.5469  3.2595
 7960SOL    HW235340   3.844   2.269  15.083  0.4148  1.8626 -1.0694
 7961SOL     OW35341   1.197   1.968  16.645  0.5333 -0.7990 -0.5843
 7961SOL    HW135342   1.228   1.956  16.555  2.2358 -0.9114  0.0141
 7961SOL    HW235343   1.194   2.062  16.660 -0.2542 -1.0505  0.8457
 7962SOL     OW35344   4.650   4.632   7.212  0.4501 -0.5570 -0.3258
 7962SOL    HW135345   4.602   4.585   7.280  0.0111 -2.4067 -1.9191
 7962SOL    HW235346   4.586   4.688   7.168  1.2402  1.4104  1.0397
 7963SOL     OW35347   0.758   3.504   2.085  0.1355 -0.2819 -0.4591
 7963SOL    HW135348   0.679   3.524   2.035 -0.7970 -1.4619  0.5177
 7963SOL    HW235349   0.794   3.429   2.038  0.5021  0.3253 -1.1410
 7964SOL     OW35350   3.119   3.723   2.943 -0.2420  0.0903  0.5365
 7964SOL    HW135351   3.139   3.816   2.954 -2.1543  0.5083  0.5287
 7964SOL    HW235352   3.121   3.697   3.035  0.2148  0.5878  0.6676
 7965SOL     OW35353   1.623   1.852   8.040 -0.3240  0.0857  0.3119
 7965SOL    HW135354   1.700   1.883   7.993 -0.7916  2.5839  1.2522
 7965SOL    HW235355   1.546   1.892   7.998  0.2094  2.3575  1.5149
 7966SOL     OW35356   3.124   4.649   3.968 -0.2335  0.3278  0.0034
 7966SOL    HW135357   3.100   4.557   3.976 -2.7265  1.1642  1.9960
 7966SOL    HW235358   3.200   4.644   3.909 -0.5275 -0.1144 -0.3449
 7967SOL     OW35359   3.169   0.359  10.936  0.2759  0.1948  0.3303
 7967SOL    HW135360   3.110   0.344  11.009  1.8922 -1.4226  1.3175
 7967SOL    HW235361   3.113   0.383  10.862  0.1528  0.3363  0.4710
 7968SOL     OW35362   1.573   2.106  15.489 -0.4363  0.4915 -0.2496
 7968SOL    HW135363   1.661   2.083  15.461 -0.5287 -1.0467  0.7055
 7968SOL    HW235364   1.571   2.105  15.585  1.5062  0.8190 -0.2130
 7969SOL     OW35365   3.989   3.761   8.303 -0.0129 -0.4611  0.1754
 7969SOL    HW135366   4.054   3.820   8.265  0.9736 -0.3820  1.9541
 7969SOL    HW235367   4.012   3.770   8.396  3.8628 -0.8777 -0.7328
 7970SOL     OW35368   3.780   4.507   5.707  0.2755 -0.5101  0.0793
 7970SOL    HW135369   3.860   4.490   5.756  0.5270  0.0804 -0.1258
 7970SOL    HW235370   3.722   4.520   5.782 -1.7310 -1.9674 -1.2177
 7971SOL     OW35371   4.691   2.403   6.091 -0.3480  0.4273 -0.1348
 7971SOL    HW135372   0.061   2.407   6.126  0.3566  0.7732 -1.9805
 7971SOL    HW235373   4.704   2.453   6.010 -2.4695  1.1322 -0.0255
 7972SOL     OW35374   1.556   1.992   3.509 -0.2231  0.2832  0.0360
 7972SOL    HW135375   1.532   2.083   3.527 -0.6169 -0.0424  1.1632
 7972SOL    HW235376   1.477   1.940   3.519  0.0025  0.1350  1.0750
 7973SOL     OW35377   4.677   3.389   5.281 -0.0624 -0.3754  0.5464
 7973SOL    HW135378   4.702   3.298   5.298  0.8470  0.0998  1.7365
 7973SOL    HW235379   0.044   3.429   5.290 -0.3954  0.3591  0.4792
 7974SOL     OW35380   4.298   1.785   0.693 -0.2940  0.2342 -0.3655
 7974SOL    HW135381   4.300   1.690   0.704 -3.0497  0.1098 -1.0711
 7974SOL    HW235382   4.300   1.786   0.597 -0.6714 -1.3882 -0.3910
 7975SOL     OW35383   2.751   0.596   8.627 -0.1321 -0.2550 -0.7063
 7975SOL    HW135384   2.709   0.676   8.594  0.7451  0.2560 -0.5677
 7975SOL    HW235385   2.681   0.556   8.678  0.8222  0.5884  1.2714
 7976SOL     OW35386   0.886   3.961   7.848  0.4435  0.3191  0.5488
 7976SOL    HW135387   0.821   3.939   7.915  1.1436 -4.0536 -0.1915
 7976SOL    HW235388   0.855   4.045   7.815 -3.5532 -1.1191  0.6969
 7977SOL     OW35389   3.485   0.833  16.476 -0.2478  0.0013  0.1514
 7977SOL    HW135390   3.395   0.840  16.442  0.6822 -1.2733 -2.6125
 7977SOL    HW235391   3.472   0.808  16.567  1.9552 -3.1924 -0.4385
 7978SOL     OW35392   0.296   0.523   6.500  0.5466 -0.1418  0.1560
 7978SOL    HW135393   0.315   0.429   6.495 -0.5187 -0.2805 -1.1852
 7978SOL    HW235394   0.210   0.517   6.542  0.1644 -3.4152 -1.0484
 7979SOL     OW35395   0.396   1.530   1.395  0.2039 -0.5715 -0.0002
 7979SOL    HW135396   0.328   1.552   1.331  0.1614  1.0410  0.6093
 7979SOL    HW235397   0.388   1.435   1.403  0.1047 -0.6062 -0.4808
 7980SOL     OW35398   0.679   2.058   6.232 -0.2530 -0.1956  0.5123
 7980SOL    HW135399   0.676   2.147   6.197  2.0279  0.3464  1.6898
 7980SOL    HW235400   0.606   2.056   6.293  0.0764  0.3373  0.9221
 7981SOL     OW35401   1.872   0.762   8.382 -0.2133 -0.7681  0.3201
 7981SOL    HW135402   1.900   0.717   8.462 -0.9189 -2.7813 -0.5599
 7981SOL    HW235403   1.948   0.819   8.367  0.2083 -1.5273 -0.4476
 7982SOL     OW35404   3.714   3.914   0.509 -0.0910  0.0006  0.3270
 7982SOL    HW135405   3.803   3.932   0.539 -1.1208  1.3797  2.6320
 7982SOL    HW235406   3.699   3.994   0.459 -2.6526  0.4807  1.8720
 7983SOL     OW35407   1.314   0.059   6.057  0.0670 -0.0496  0.1525
 7983SOL    HW135408   1.287   0.106   5.978  0.1132  0.5631  0.5005
 7983SOL    HW235409   1.239   0.000   6.059  1.3231 -1.5800  1.9942
 7984SOL     OW35410   4.313   4.547  10.862  0.1349 -0.1573  0.1944
 7984SOL    HW135411   4.377   4.487  10.825 -0.2150  0.2864 -1.1222
 7984SOL    HW235412   4.366   4.607  10.915 -0.4682 -0.2876  0.9354
 7985SOL     OW35413   1.944   3.531  10.179 -0.1835  0.2128 -0.0945
 7985SOL    HW135414   1.903   3.551  10.095  2.3886  0.8637 -1.1901
 7985SOL    HW235415   1.877   3.471  10.212  0.3998 -1.0193 -1.1394
 7986SOL     OW35416   4.526   1.344   4.341 -0.3746 -0.3224 -0.1580
 7986SOL    HW135417   4.449   1.289   4.326  0.2810 -1.3393  0.2089
 7986SOL    HW235418   4.495   1.424   4.385  1.8864  0.2153  0.4278
 7987SOL     OW35419   1.075   4.313   2.770  0.3947  0.0952 -0.2198
 7987SOL    HW135420   1.018   4.237   2.784 -1.6381  1.2025 -2.4113
 7987SOL    HW235421   1.047   4.373   2.841 -0.5597 -0.1415 -0.3902
 7988SOL     OW35422   0.173   2.652   5.457 -0.2192  0.7333  0.1007
 7988SOL    HW135423   0.163   2.628   5.365 -1.8964  0.2836  0.3903
 7988SOL    HW235424   0.256   2.610   5.479 -0.3517 -0.4098 -1.6460
 7989SOL     OW35425   1.810   0.866   3.585 -0.2108  0.3580 -0.0227
 7989SOL    HW135426   1.844   0.831   3.503  2.0959 -2.8383  2.2758
 7989SOL    HW235427   1.783   0.789   3.635  0.2813 -0.9270 -1.7329
 7990SOL     OW35428   4.447   2.890   4.705  0.3780 -0.0313 -0.7113
 7990SOL    HW135429   4.459   2.978   4.669 -3.2006  0.8950  0.3409
 7990SOL    HW235430   4.381   2.858   4.644  0.0593  0.4742 -0.6281
 7991SOL     OW35431   1.595   3.035  16.613  0.1718  0.6130 -0.7245
 7991SOL    HW135432   1.649   3.010  16.688 -2.5894  0.5092  1.2102
 7991SOL    HW235433   1.665   3.044  16.548  0.7789  1.0733 -0.0079
 7992SOL     OW35434   4.376   2.227   5.690  0.0333  0.8175  0.1694
 7992SOL    HW135435   4.298   2.227   5.745 -0.0421  2.1974  0.0611
 7992SOL    HW235436   4.346   2.182   5.611  0.9891  0.2730  0.1170
 7993SOL     OW35437   1.617   3.542   5.824 -0.3217 -0.4426  0.2946
 7993SOL    HW135438   1.588   3.582   5.906  0.9539 -0.3598  0.7159
 7993SOL    HW235439   1.554   3.594   5.775 -1.2795 -1.8326  0.0521
 7994SOL     OW35440   2.770   3.703   5.582  0.2761 -0.4443 -0.2395
 7994SOL    HW135441   2.840   3.671   5.525 -0.9838 -1.9000 -0.9812
 7994SOL    HW235442   2.816   3.761   5.643 -1.5961 -0.2275  0.9787
 7995SOL     OW35443   1.586   2.325   2.922 -0.3259  0.4109  0.2473
 7995SOL    HW135444   1.519   2.322   2.854 -0.2208  0.0416  0.1613
 7995SOL    HW235445   1.649   2.263   2.886  1.2908  2.7514 -0.9389
 7996SOL     OW35446   4.671   4.124   4.324 -0.5057 -0.1184 -0.1374
 7996SOL    HW135447   0.005   4.044   4.321 -0.6941 -0.3862  3.4917
 7996SOL    HW235448   4.689   4.150   4.415  1.9478 -1.5074 -0.2237
 7997SOL     OW35449   1.019   1.920   0.992  0.3244  0.0945  0.0580
 7997SOL    HW135450   1.027   1.974   0.913  0.3819  0.5334  0.3607
 7997SOL    HW235451   0.937   1.873   0.976  0.0645  0.9320 -1.1477
 7998SOL     OW35452   2.812   4.316   3.438  0.3977 -0.1454  0.2203
 7998SOL    HW135453   2.880   4.333   3.503  0.6316  0.7052 -0.2450
 7998SOL    HW235454   2.843   4.366   3.363 -0.3395 -0.1601 -0.0908
 7999SOL     OW35455   3.653   1.229   5.488  0.4942  0.2338 -0.3145
 7999SOL    HW135456   3.643   1.213   5.582  0.8165 -1.8816 -0.6520
 7999SOL    HW235457   3.577   1.279   5.457 -0.1167  0.2115  1.1422
 8000SOL     OW35458   4.440   3.152   7.444  0.0342 -0.2006 -0.4567
 8000SOL    HW135459   4.442   3.068   7.489  3.2937  0.7020  1.0793
 8000SOL    HW235460   4.406   3.213   7.510 -0.1541 -0.5792 -0.2047
 8001SOL     OW35461   3.533   2.706   2.804 -0.0187  0.0880 -0.3933
 8001SOL    HW135462   3.469   2.634   2.808 -0.4010  0.3565 -2.0284
 8001SOL    HW235463   3.594   2.672   2.738  1.0898  1.3051  0.0037
 8002SOL     OW35464   0.523   3.012  17.558 -0.1786  0.0789  0.3354
 8002SOL    HW135465   0.579   3.082  17.590  1.4238 -1.2185  0.3313
 8002SOL    HW235466   0.489   3.056  17.480  1.6783 -2.2294 -1.8038
 8003SOL     OW35467   0.287   3.846  16.945  0.2970  0.6959 -0.2727
 8003SOL    HW135468   0.271   3.788  17.019 -0.0521 -0.0288 -0.9261
 8003SOL    HW235469   0.266   3.794  16.868 -1.3784  2.0392 -0.7281
 8004SOL     OW35470   1.654   4.103  16.505  0.1484 -0.5186  0.0391
 8004SOL    HW135471   1.664   4.071  16.416 -0.8517 -0.4770 -0.0907
 8004SOL    HW235472   1.570   4.149  16.509  1.8162  2.5873 -0.2323
 8005SOL     OW35473   4.706   0.905  16.836  0.0990 -0.3933  0.1981
 8005SOL    HW135474   4.712   1.000  16.847  1.1206 -0.2909 -1.2207
 8005SOL    HW235475   4.653   0.900  16.756  0.8629  2.0506 -0.4679
 8006SOL     OW35476   4.468   2.573   6.751  0.4853 -0.0722  1.2722
 8006SOL    HW135477   4.537   2.511   6.774  1.6956  0.6845 -0.3175
 8006SOL    HW235478   4.454   2.621   6.833 -1.5421  0.1401  0.7984
 8007SOL     OW35479   0.138   1.805  14.019 -0.3802  0.0335 -0.0610
 8007SOL    HW135480   0.083   1.734  13.987 -0.4208  0.2563 -0.4866
 8007SOL    HW235481   0.223   1.769  13.996 -0.7449 -1.2078  0.5201
 8008SOL     OW35482   3.069   2.963   6.628 -0.1134 -0.1605 -0.0029
 8008SOL    HW135483   3.039   2.915   6.551 -1.6182  1.6778 -0.6001
 8008SOL    HW235484   3.164   2.962   6.623 -0.1332  0.4727 -0.5490
 8009SOL     OW35485   4.277   0.770   3.597 -0.1176 -0.5618  0.3767
 8009SOL    HW135486   4.256   0.785   3.689 -1.5422 -2.5351  0.3669
 8009SOL    HW235487   4.193   0.741   3.561 -0.0499 -0.6467  0.2896
 8010SOL     OW35488   2.516   1.177   0.515  0.5011 -0.0957 -0.1447
 8010SOL    HW135489   2.446   1.127   0.474 -0.2671  1.5169 -0.8290
 8010SOL    HW235490   2.578   1.107   0.532  1.1374  0.5073  0.0099
 8011SOL     OW35491   1.923   0.090   1.931 -0.1124 -0.9468 -0.1534
 8011SOL    HW135492   1.944   0.166   1.986 -0.4906 -0.5189 -0.6125
 8011SOL    HW235493   1.939   0.122   1.843  1.8357 -0.5782  0.3257
 8012SOL     OW35494   0.058   0.075   6.612 -0.0802 -0.3281 -0.3051
 8012SOL    HW135495   0.097   0.023   6.682  0.4539  0.2085 -0.2015
 8012SOL    HW235496   4.718   0.016   6.565 -1.9385  2.0575 -0.9590
 8013SOL     OW35497   0.470   3.762   5.662 -0.5637 -0.3095 -0.3262
 8013SOL    HW135498   0.537   3.821   5.626  1.1051 -0.6176  2.3105
 8013SOL    HW235499   0.407   3.821   5.702  0.4412  0.2886  0.3846
 8014SOL     OW35500   3.515   1.533   8.407  0.3809  0.3830 -0.2624
 8014SOL    HW135501   3.580   1.487   8.355 -1.2049 -2.5447  0.3870
 8014SOL    HW235502   3.519   1.490   8.492  0.6406  0.0134 -0.4636
 8015SOL     OW35503   4.223   0.612  12.769 -0.4180  0.3961 -0.7516
 8015SOL    HW135504   4.206   0.525  12.805 -0.7757  1.3311  1.3542
 8015SOL    HW235505   4.305   0.631  12.813 -0.8409  2.2831 -0.7641
 8016SOL     OW35506   0.456   0.457  13.393  0.0853  0.3694  0.2282
 8016SOL    HW135507   0.442   0.379  13.340 -0.1052  0.9158 -0.5159
 8016SOL    HW235508   0.398   0.450  13.468  0.6443 -2.3392  0.4060
 8017SOL     OW35509   2.848   1.493   6.995  0.3082  0.1724 -0.3542
 8017SOL    HW135510   2.934   1.452   6.982 -0.6370 -1.0285 -2.7531
 8017SOL    HW235511   2.846   1.508   7.090  1.4166 -1.6221 -0.0425
 8018SOL     OW35512   3.260   0.356  13.407 -0.2639 -0.0235  0.8649
 8018SOL    HW135513   3.282   0.326  13.495 -0.6575  0.2050  1.0382
 8018SOL    HW235514   3.227   0.444  13.426  0.1879 -0.2255  2.5478
 8019SOL     OW35515   0.608   3.874  16.531 -0.1923  0.1009  0.1865
 8019SOL    HW135516   0.583   3.881  16.623  0.1430 -0.3768  0.3168
 8019SOL    HW235517   0.617   3.967  16.512  1.8042  0.0259  0.7005
 8020SOL     OW35518   4.295   3.903  15.892 -0.5106 -0.6561 -0.0563
 8020SOL    HW135519   4.320   3.845  15.820 -0.4035 -0.0747 -0.4920
 8020SOL    HW235520   4.267   3.837  15.955 -0.7333 -1.8641 -1.4270
 8021SOL     OW35521   0.486   2.434   6.390  0.2301 -0.0991  0.5766
 8021SOL    HW135522   0.418   2.475   6.445  1.6554  2.9386  0.0745
 8021SOL    HW235523   0.532   2.391   6.462  1.7803 -0.8849 -0.9141
 8022SOL     OW35524   3.959   2.184   3.659 -0.2420 -0.0325 -0.3808
 8022SOL    HW135525   3.900   2.112   3.681  1.2466 -0.4986  2.0281
 8022SOL    HW235526   4.040   2.159   3.703 -0.1674 -1.0714 -1.1165
 8023SOL     OW35527   3.284   0.460   9.230  0.2018  0.3031  0.4743
 8023SOL    HW135528   3.375   0.449   9.203 -0.0773 -0.6904 -0.0867
 8023SOL    HW235529   3.272   0.380   9.281  3.2858 -0.8211 -0.5872
 8024SOL     OW35530   1.259   0.078  14.559  0.4490 -0.1420 -0.2080
 8024SOL    HW135531   1.285   0.007  14.500 -0.3420 -0.4542 -0.1842
 8024SOL    HW235532   1.167   0.094  14.538  0.6159  1.7391  0.4786
 8025SOL     OW35533   2.689   3.935   8.761  0.3958  0.2019  0.0811
 8025SOL    HW135534   2.660   3.850   8.730  0.5188  0.5807 -1.0802
 8025SOL    HW235535   2.612   3.983   8.791  0.3472 -0.2714  0.7097
 8026SOL     OW35536   4.452   3.774   2.410 -0.4135 -0.6812  0.1971
 8026SOL    HW135537   4.465   3.864   2.379 -1.0394  0.0939  2.1897
 8026SOL    HW235538   4.499   3.733   2.337 -0.6138  0.1076 -0.3754
 8027SOL     OW35539   3.061   2.949   4.150  0.1323 -0.2123 -0.3306
 8027SOL    HW135540   3.043   2.876   4.209  3.2147 -0.8744 -0.2177
 8027SOL    HW235541   3.144   2.924   4.110 -0.2649  0.0559 -1.3264
 8028SOL     OW35542   0.506   0.681  11.351 -0.2635  0.0358  0.3369
 8028SOL    HW135543   0.522   0.639  11.267  1.4001  2.5228 -0.5854
 8028SOL    HW235544   0.550   0.622  11.413 -2.0318 -0.3521  1.2207
 8029SOL     OW35545   0.821   2.165  14.890 -0.2414 -0.2517 -0.2484
 8029SOL    HW135546   0.818   2.103  14.963  1.3905 -0.1516 -0.0966
 8029SOL    HW235547   0.758   2.139  14.823 -2.8312  4.2794  0.4819
 8030SOL     OW35548   0.321   0.783   5.920  0.3230 -0.5127  0.3151
 8030SOL    HW135549   0.355   0.738   5.998 -1.0833 -1.0616  0.6167
 8030SOL    HW235550   0.409   0.786   5.882  1.3127  2.5179  2.7802
 8031SOL     OW35551   0.857   3.359  17.226  0.2632  0.3273  0.2326
 8031SOL    HW135552   0.767   3.362  17.260 -0.1780  1.0554 -1.0088
 8031SOL    HW235553   0.873   3.271  17.193  0.3343  0.9790 -1.4506
 8032SOL     OW35554   2.058   3.366   9.369  0.3306 -0.1632  0.2363
 8032SOL    HW135555   2.031   3.458   9.369  0.5197 -0.1042  1.3034
 8032SOL    HW235556   2.028   3.337   9.283 -0.2905 -0.1158  0.4373
 8033SOL     OW35557   3.662   0.504  17.199  0.0375  0.1221  0.4362
 8033SOL    HW135558   3.586   0.447  17.193  0.3287 -0.0489 -1.7310
 8033SOL    HW235559   3.622   0.577  17.246  0.8914  0.2389  0.9832
 8034SOL     OW35560   3.305   2.739   4.102 -0.6535 -0.4233  0.3157
 8034SOL    HW135561   3.220   2.698   4.091 -0.9513  0.6931 -1.6049
 8034SOL    HW235562   3.334   2.691   4.179  0.4566  0.6897  0.6011
 8035SOL     OW35563   4.539   1.681   2.968  0.1279  0.1624  0.2182
 8035SOL    HW135564   4.523   1.677   2.874  0.3463  1.2054  0.1361
 8035SOL    HW235565   4.570   1.591   2.983 -1.9352 -0.6832 -0.6452
 8036SOL     OW35566   0.936   0.758   5.126  0.1458 -0.7244 -0.9995
 8036SOL    HW135567   0.895   0.842   5.142  1.7030 -0.1910  0.2070
 8036SOL    HW235568   0.911   0.738   5.036 -1.3231 -0.8518 -0.5526
 8037SOL     OW35569   2.480   1.161   5.906  0.3968  0.0672  0.0368
 8037SOL    HW135570   2.570   1.130   5.900  0.6707  1.0736 -0.8334
 8037SOL    HW235571   2.467   1.156   6.001  1.6855 -1.2305  0.1450
 8038SOL     OW35572   3.851   2.057   4.587  0.4212  0.1948  0.4889
 8038SOL    HW135573   3.884   1.974   4.553 -0.0446  0.3657 -0.3814
 8038SOL    HW235574   3.756   2.043   4.587  0.5065 -0.3569  0.9889
 8039SOL     OW35575   0.574   3.551   7.512 -0.5761  0.5528 -0.7411
 8039SOL    HW135576   0.555   3.553   7.418  2.6962 -0.5468 -1.4130
 8039SOL    HW235577   0.625   3.473   7.533 -1.0963  0.5138  0.3467
 8040SOL     OW35578   1.951   1.713  17.069  0.0550 -0.0866  0.2815
 8040SOL    HW135579   2.023   1.686  17.124 -0.0335 -3.4582 -1.2920
 8040SOL    HW235580   1.882   1.647  17.073 -0.9363  0.9252  0.1775
 8041SOL     OW35581   0.568   4.699   9.368  0.6758 -0.0688 -0.1843
 8041SOL    HW135582   0.489   4.687   9.420 -0.4902 -1.1436 -2.2298
 8041SOL    HW235583   0.547   4.650   9.289 -1.7316  0.5849  0.0583
 8042SOL     OW35584   3.082   3.064   3.162  0.0616  0.0220 -0.0581
 8042SOL    HW135585   3.125   3.149   3.161  1.5837 -0.7645 -0.3001
 8042SOL    HW235586   3.016   3.076   3.231 -0.2865  0.7857 -0.5286
 8043SOL     OW35587   1.565   3.411   4.067  0.5586 -0.0784  0.3606
 8043SOL    HW135588   1.501   3.459   4.119  1.5793  0.6880  0.9045
 8043SOL    HW235589   1.622   3.486   4.052 -2.7641  2.4864  0.5662
 8044SOL     OW35590   2.456   2.148   5.397 -0.0800 -0.3487 -0.0655
 8044SOL    HW135591   2.473   2.171   5.306 -0.2730  1.1412  0.2760
 8044SOL    HW235592   2.516   2.218   5.423 -0.2861 -0.5751  1.0149
 8045SOL     OW35593   4.683   0.030   0.692  0.1596 -0.0421 -0.6231
 8045SOL    HW135594   4.700   0.124   0.700 -1.3025  0.1004  0.7710
 8045SOL    HW235595   4.601   0.022   0.741 -0.3139 -1.1440 -1.6200
 8046SOL     OW35596   1.977   0.527   4.967 -0.3247  0.6565 -0.1172
 8046SOL    HW135597   2.055   0.483   5.000  0.4295  2.2572  0.2355
 8046SOL    HW235598   1.905   0.465   4.963  0.8741 -0.7545  0.2586
 8047SOL     OW35599   2.256   2.051  14.505  0.1528  0.5558 -0.2225
 8047SOL    HW135600   2.281   2.000  14.582 -2.9642  1.7681  1.5956
 8047SOL    HW235601   2.289   2.135  14.535  0.5572 -0.1704  1.3679
 8048SOL     OW35602   4.575   3.766   8.001 -0.0591  0.1001  0.3937
 8048SOL    HW135603   4.556   3.733   8.089 -0.0484 -0.1926  0.2844
 8048SOL    HW235604   4.487   3.782   7.968  0.4710  1.4263 -0.4050
 8049SOL     OW35605   3.207   1.008   6.976  0.0420  0.1443  0.5621
 8049SOL    HW135606   3.123   0.982   7.013 -1.1831  0.8323 -1.7099
 8049SOL    HW235607   3.260   0.970   7.045 -0.6325  0.4583  1.2516
 8050SOL     OW35608   2.924   2.635   6.654 -0.3095  0.3234  0.4426
 8050SOL    HW135609   2.955   2.553   6.616  1.3709  1.1192  0.0631
 8050SOL    HW235610   2.860   2.604   6.717  0.3187 -0.3775  0.7352
 8051SOL     OW35611   4.580   4.509   7.765  0.2340  0.5020  0.4286
 8051SOL    HW135612   4.503   4.460   7.736  1.0788  0.1553 -1.2128
 8051SOL    HW235613   4.624   4.432   7.802 -1.9293 -0.7742  0.3219
 8052SOL     OW35614   0.376   2.222  17.464  0.7464 -0.3673  0.3529
 8052SOL    HW135615   0.318   2.294  17.437  0.7884 -1.2426 -2.1111
 8052SOL    HW235616   0.399   2.252  17.552 -2.6298  0.6957  0.8623
 8053SOL     OW35617   2.916   1.276   2.167  0.1485  0.2887  0.4510
 8053SOL    HW135618   2.942   1.190   2.135 -1.4611  0.7123 -1.9659
 8053SOL    HW235619   2.970   1.267   2.245  0.2830 -1.0236  0.2095
 8054SOL     OW35620   3.856   1.822   8.869 -0.5800 -0.4485  0.5514
 8054SOL    HW135621   3.877   1.739   8.828  2.7313 -0.4109  2.1817
 8054SOL    HW235622   3.840   1.883   8.797 -1.0719 -0.1914  0.8787
 8055SOL     OW35623   0.623   1.451   7.916  0.1963 -0.4899 -0.3385
 8055SOL    HW135624   0.564   1.527   7.917  2.0691  0.9626 -2.2037
 8055SOL    HW235625   0.599   1.409   7.834  1.0855  0.2361 -0.9630
 8056SOL     OW35626   2.561   2.923  17.023 -0.1791  0.3838  0.2600
 8056SOL    HW135627   2.634   2.866  17.047 -1.5190 -1.9731 -1.2341
 8056SOL    HW235628   2.492   2.856  17.023 -1.7209  1.9660  1.1976
 8057SOL     OW35629   4.242   2.323  11.457  0.4167 -0.2774 -0.2546
 8057SOL    HW135630   4.321   2.279  11.425 -0.7393 -0.1835 -3.2159
 8057SOL    HW235631   4.227   2.385  11.386 -1.0911  0.1102  0.4288
 8058SOL     OW35632   1.452   1.515   7.748  0.1590 -0.2970  0.2965
 8058SOL    HW135633   1.497   1.576   7.689  2.2385 -1.0346  1.0981
 8058SOL    HW235634   1.468   1.550   7.835  2.1356 -0.8454  0.1716
 8059SOL     OW35635   1.933   1.348  12.014 -0.5236 -0.2981  0.3832
 8059SOL    HW135636   1.960   1.290  11.942 -1.4679  0.0609 -0.2555
 8059SOL    HW235637   2.016   1.387  12.040  0.7719 -1.9428 -1.2819
 8060SOL     OW35638   4.077   2.750   6.727  0.0111 -0.6531  0.3497
 8060SOL    HW135639   4.000   2.702   6.757 -2.0459  1.0215 -2.2599
 8060SOL    HW235640   4.035   2.804   6.660 -0.6490  0.1297  1.3916
 8061SOL     OW35641   2.858   2.497   3.794 -0.2382 -0.0235 -0.3435
 8061SOL    HW135642   2.796   2.467   3.728  1.5670 -0.4624 -1.8080
 8061SOL    HW235643   2.805   2.568   3.829  3.9433  2.4550  0.9630
 8062SOL     OW35644   1.533   1.300   6.260  0.7491 -0.3690 -0.0268
 8062SOL    HW135645   1.488   1.255   6.189 -0.1090  0.4659 -0.0133
 8062SOL    HW235646   1.578   1.374   6.218 -0.0941 -0.8446 -1.7436
 8063SOL     OW35647   1.986   3.000   3.562  0.4471 -0.0486  0.3910
 8063SOL    HW135648   1.976   3.094   3.576 -1.3226 -0.1955  0.0206
 8063SOL    HW235649   1.913   2.965   3.511 -1.4642  1.2263  2.2564
 8064SOL     OW35650   3.723   3.668   2.488 -0.2428 -0.2294 -0.5147
 8064SOL    HW135651   3.810   3.629   2.475 -1.2973 -2.1516 -1.7263
 8064SOL    HW235652   3.677   3.629   2.414 -0.5858 -0.5547 -0.1284
 8065SOL     OW35653   2.603   2.131   5.870 -0.4572  0.1560 -0.0263
 8065SOL    HW135654   2.548   2.055   5.885 -1.6897  1.2622  1.0190
 8065SOL    HW235655   2.647   2.100   5.790  1.9926  2.1564  0.5173
 8066SOL     OW35656   0.853   0.643   8.756 -0.1711  0.8253  0.4771
 8066SOL    HW135657   0.851   0.628   8.851 -0.0542 -0.2642  0.3082
 8066SOL    HW235658   0.773   0.695   8.746  1.1707  2.9796  0.8640
 8067SOL     OW35659   3.318   4.664  10.422  0.3665  0.0496 -0.2673
 8067SOL    HW135660   3.362   0.012  10.475 -0.5605  0.5478 -0.1400
 8067SOL    HW235661   3.343   4.594  10.482  1.8649 -0.0287 -0.9812
 8068SOL     OW35662   3.291   0.672   3.863 -0.1519 -0.2875 -0.1940
 8068SOL    HW135663   3.362   0.620   3.825 -0.7901 -1.2332 -0.0860
 8068SOL    HW235664   3.228   0.606   3.891  0.1426 -0.5280 -0.1004
 8069SOL     OW35665   2.286   3.282   2.837 -0.1004  0.4802  0.2204
 8069SOL    HW135666   2.295   3.203   2.783  0.7473 -0.6040  1.9598
 8069SOL    HW235667   2.360   3.340   2.819 -1.1179  1.7085 -0.0005
 8070SOL     OW35668   1.206   2.228  17.464  0.0238 -0.1461 -0.2947
 8070SOL    HW135669   1.230   2.248  17.554  1.4316 -3.1432 -0.0120
 8070SOL    HW235670   1.201   2.133  17.457 -0.5362 -0.1972  0.7760
 8071SOL     OW35671   3.944   0.327   4.775 -0.1898 -0.3289  0.1943
 8071SOL    HW135672   3.968   0.251   4.722 -0.1464 -0.8044  0.8872
 8071SOL    HW235673   3.877   0.291   4.833  0.8532 -1.2733  0.8213
 8072SOL     OW35674   3.633   3.590   2.224 -0.6051  0.3041 -0.3948
 8072SOL    HW135675   3.627   3.497   2.246 -0.7049  0.3856 -0.0681
 8072SOL    HW235676   3.541   3.616   2.227 -0.4750  0.7521 -0.3582
 8073SOL     OW35677   4.306   2.274   2.354 -0.1216  0.5098 -0.2497
 8073SOL    HW135678   4.241   2.302   2.418  0.4525  0.7282  0.2330
 8073SOL    HW235679   4.317   2.181   2.376  3.3606  1.1510  0.8355
 8074SOL     OW35680   1.017   2.148   2.839  0.2928 -0.0964  0.1024
 8074SOL    HW135681   1.006   2.091   2.763 -1.0367  0.4511 -0.1088
 8074SOL    HW235682   0.960   2.220   2.811 -0.5274 -1.6341 -2.2069
 8075SOL     OW35683   0.189   4.088   8.981  0.2711  0.0470  0.4879
 8075SOL    HW135684   0.243   4.157   9.022 -1.6384  0.0035  3.0594
 8075SOL    HW235685   0.237   4.008   9.001 -0.2257  0.0995  1.8773
 8076SOL     OW35686   3.480   0.041   2.203  0.0264  0.6600  0.5055
 8076SOL    HW135687   3.498   0.116   2.146  0.6877 -0.6468 -1.0152
 8076SOL    HW235688   3.394   0.067   2.237  0.2373  0.1785  1.4033
 8077SOL     OW35689   2.162   3.444   1.846  0.4695 -0.2959 -0.0056
 8077SOL    HW135690   2.139   3.536   1.835 -0.2126 -0.6762 -1.7332
 8077SOL    HW235691   2.257   3.440   1.837  0.3519 -4.5015  0.5557
 8078SOL     OW35692   4.066   0.254   6.928  0.5353  0.3212 -0.6633
 8078SOL    HW135693   4.005   0.180   6.929  0.3493  0.4991  2.3810
 8078SOL    HW235694   4.041   0.294   7.012 -2.6174 -1.3958 -0.8022
 8079SOL     OW35695   0.565   2.125   0.315  0.3525 -0.3524 -0.0205
 8079SOL    HW135696   0.539   2.044   0.271  1.5841 -0.1300 -1.1502
 8079SOL    HW235697   0.501   2.122   0.386  0.2079  2.7476 -0.0455
 8080SOL     OW35698   4.253   0.597   4.895 -0.2078 -0.2871 -0.0121
 8080SOL    HW135699   4.232   0.513   4.855  0.4489 -1.4710  2.1249
 8080SOL    HW235700   4.331   0.633   4.852 -2.1147  2.7893 -0.8699
 8081SOL     OW35701   1.233   1.855   4.211  0.0892 -0.3442  0.3356
 8081SOL    HW135702   1.320   1.868   4.249 -0.0788  1.6409  0.0051
 8081SOL    HW235703   1.241   1.760   4.199 -1.0804 -0.2740 -0.9654
 8082SOL     OW35704   4.190   0.325   9.205  0.1069 -0.0806 -0.1900
 8082SOL    HW135705   4.226   0.379   9.275  3.3950 -0.9715 -1.1779
 8082SOL    HW235706   4.145   0.252   9.248  1.6761 -0.4047  0.9048
 8083SOL     OW35707   0.055   2.894   8.239  0.0587 -0.1007 -0.1180
 8083SOL    HW135708   4.685   2.867   8.257  0.6047 -0.9389  1.3341
 8083SOL    HW235709   0.073   2.854   8.154 -0.6654 -2.9573  1.0943
 8084SOL     OW35710   3.844   3.603   6.064  0.1940  0.2729  1.0364
 8084SOL    HW135711   3.871   3.673   6.004 -0.8192  1.6110  2.1519
 8084SOL    HW235712   3.889   3.523   6.036 -0.2923  0.4535 -0.2598
 8085SOL     OW35713   2.527   2.604   3.535  0.1847 -0.1439  0.1004
 8085SOL    HW135714   2.485   2.618   3.451  1.5020  2.0026 -0.1922
 8085SOL    HW235715   2.455   2.633   3.591 -1.6244 -2.7135 -0.8776
 8086SOL     OW35716   2.398   2.560   5.222 -0.8150  0.1743  0.3757
 8086SOL    HW135717   2.331   2.595   5.281 -1.1509  2.0297 -1.1116
 8086SOL    HW235718   2.337   2.555   5.148 -0.8782  1.0412  0.3673
 8087SOL     OW35719   2.260   2.080  12.562  0.5026  0.2841 -0.0356
 8087SOL    HW135720   2.281   1.990  12.538  2.4113  1.3614 -2.3338
 8087SOL    HW235721   2.303   2.082  12.647  0.5511 -0.7534 -0.0374
 8088SOL     OW35722   4.571   2.780   8.427 -0.0311  0.1281  0.6046
 8088SOL    HW135723   4.528   2.717   8.484 -1.7764 -0.0091 -0.8629
 8088SOL    HW235724   4.512   2.766   8.353  0.5408  1.3536 -0.0864
 8089SOL     OW35725   2.528   1.907   4.013 -0.8088 -0.3475 -0.4684
 8089SOL    HW135726   2.531   2.003   4.017 -2.1911 -0.2338 -1.9384
 8089SOL    HW235727   2.480   1.888   3.932  1.7962 -0.1617 -2.0526
 8090SOL     OW35728   2.522   3.645   4.777 -0.0687  0.1825 -0.6706
 8090SOL    HW135729   2.546   3.570   4.723 -1.4787 -0.8400  0.1217
 8090SOL    HW235730   2.429   3.624   4.782  0.3575 -1.8143 -1.4358
 8091SOL     OW35731   3.509   2.951   3.136  0.0179  0.0055 -0.1936
 8091SOL    HW135732   3.476   2.862   3.147 -0.4810  0.4615  1.9304
 8091SOL    HW235733   3.505   2.961   3.041 -1.5671  1.6926  0.0502
 8092SOL     OW35734   3.607   4.333   5.103 -0.1864 -0.2383 -0.0383
 8092SOL    HW135735   3.652   4.365   5.181 -0.9121  0.7620 -0.0289
 8092SOL    HW235736   3.611   4.238   5.108  1.0168 -0.1341  1.0206
 8093SOL     OW35737   1.107   0.964   4.977  0.2152 -0.8629 -0.4318
 8093SOL    HW135738   1.094   0.898   4.908 -2.1166 -1.5766  0.7049
 8093SOL    HW235739   1.029   1.015   4.959  0.4958  0.2646  1.5774
 8094SOL     OW35740   3.046   3.991   5.978 -0.4653  0.1025  0.1535
 8094SOL    HW135741   3.056   3.938   6.057  0.6187 -1.3943 -0.9863
 8094SOL    HW235742   2.976   4.053   6.000 -0.3486  0.7216 -1.2221
 8095SOL     OW35743   1.532   1.038  16.602  0.4983  0.0030  0.2123
 8095SOL    HW135744   1.482   0.965  16.565 -1.2196  1.7109 -0.8624
 8095SOL    HW235745   1.468   1.078  16.662  2.8315  0.3361  2.5148
 8096SOL     OW35746   0.010   0.364  15.085 -0.0401 -0.1031  0.3334
 8096SOL    HW135747   0.056   0.444  15.111  2.1582 -1.5990  1.0979
 8096SOL    HW235748   0.085   0.331  15.035  0.2739  1.6464 -0.3609
 8097SOL     OW35749   3.358   2.515   2.823  0.4215 -0.0293  0.5159
 8097SOL    HW135750   3.309   2.435   2.843 -1.6827  0.8034 -1.4609
 8097SOL    HW235751   3.304   2.566   2.763  1.3816  2.1723  1.5179
 8098SOL     OW35752   4.438   0.083  17.282 -0.3470 -0.7961 -0.9069
 8098SOL    HW135753   4.442   0.033  17.200  2.2820  0.5832 -1.6256
 8098SOL    HW235754   4.531   0.088  17.303 -1.2885  1.4189  2.7219
 8099SOL     OW35755   4.711   1.966  10.437  0.0131  0.2155  0.4764
 8099SOL    HW135756   4.638   1.921  10.479 -1.0480  1.3027 -0.2167
 8099SOL    HW235757   4.674   1.974  10.349 -1.5276  0.6808  1.1871
 8100SOL     OW35758   2.134   1.974   3.701 -0.2678 -0.3892 -1.1334
 8100SOL    HW135759   2.168   1.992   3.614 -0.9452  0.0336 -1.3100
 8100SOL    HW235760   2.078   2.051   3.713 -0.0446 -0.2632 -0.8955
 8101SOL     OW35761   2.911   4.247   3.798 -0.3380 -0.0871  0.2224
 8101SOL    HW135762   2.845   4.179   3.782  0.7622 -0.5820 -2.2229
 8101SOL    HW235763   2.964   4.235   3.719 -1.0371 -0.6417 -0.1680
 8102SOL     OW35764   1.563   2.571   6.249 -0.4900 -0.1113  0.5581
 8102SOL    HW135765   1.602   2.633   6.310  1.6389 -1.2652  0.3784
 8102SOL    HW235766   1.503   2.528   6.309 -0.2362 -0.5552  0.4960
 8103SOL     OW35767   0.005   3.398  11.829 -0.2165  0.4080  0.1250
 8103SOL    HW135768   0.019   3.487  11.861 -0.6890 -0.1868  1.9571
 8103SOL    HW235769   0.089   3.354  11.843 -1.1534 -2.1324 -2.2158
 8104SOL     OW35770   2.488   1.356   6.401  0.0019  0.2728 -0.1663
 8104SOL    HW135771   2.503   1.444   6.367  1.1463  1.0224  2.3254
 8104SOL    HW235772   2.458   1.372   6.490  1.4931 -1.4172  0.6571
 8105SOL     OW35773   2.300   1.628   5.460  0.4032  0.2114 -0.4193
 8105SOL    HW135774   2.382   1.657   5.420 -0.4216  1.7881 -0.9771
 8105SOL    HW235775   2.261   1.592   5.380  0.5909 -0.5518 -0.1644
 8106SOL     OW35776   0.837   2.952   6.286  0.1890 -0.4240  0.4248
 8106SOL    HW135777   0.792   3.036   6.290  1.1615  0.1807 -1.3794
 8106SOL    HW235778   0.911   2.961   6.345 -0.3479  0.4413  0.9616
 8107SOL     OW35779   3.532   4.059   6.852 -0.0512 -0.2375 -0.3080
 8107SOL    HW135780   3.610   4.030   6.804 -1.0827 -0.6652 -1.7391
 8107SOL    HW235781   3.465   4.067   6.783 -2.1460  0.5517  1.8140
 8108SOL     OW35782   4.566   2.870   7.124 -0.2002  0.7249 -0.0122
 8108SOL    HW135783   4.530   2.952   7.158 -2.2406 -0.1650 -0.0142
 8108SOL    HW235784   4.640   2.901   7.071  0.2776  0.2011  0.3427
 8109SOL     OW35785   3.156   0.004   0.653  0.6634 -0.4653  0.4718
 8109SOL    HW135786   3.143   0.098   0.645  2.5181 -0.2870 -0.3753
 8109SOL    HW235787   3.081   4.701   0.709  1.7642 -1.8468  1.4056
 8110SOL     OW35788   2.984   0.856   2.914  0.1963 -0.4561  0.3308
 8110SOL    HW135789   3.056   0.824   2.968 -0.3397  0.5621  1.6287
 8110SOL    HW235790   3.012   0.947   2.908  0.5129 -0.5024  1.1446
 8111SOL     OW35791   2.748   0.813   1.677  0.0931 -0.1763  0.3765
 8111SOL    HW135792   2.782   0.793   1.590 -0.2521  0.1611  0.1606
 8111SOL    HW235793   2.655   0.821   1.655 -0.3647 -0.8788  2.0107
 8112SOL     OW35794   1.717   2.895   3.911 -0.0303  0.2456  0.4563
 8112SOL    HW135795   1.718   2.970   3.852  2.2751 -1.3224 -1.5013
 8112SOL    HW235796   1.741   2.933   3.996  0.0420  3.1619 -0.8742
 8113SOL     OW35797   4.449   4.482  15.611 -0.2394  0.4926  0.0273
 8113SOL    HW135798   4.461   4.398  15.566 -0.1846  0.8311 -0.5936
 8113SOL    HW235799   4.416   4.535  15.538 -0.6090 -0.3622 -0.4308
 8114SOL     OW35800   1.791   4.176   2.551 -0.2000 -0.0424 -0.5531
 8114SOL    HW135801   1.808   4.217   2.636  0.0855 -1.6381  0.1681
 8114SOL    HW235802   1.818   4.086   2.572 -0.3101  0.5870  2.2401
 8115SOL     OW35803   0.054   3.571   4.962 -0.5760  0.4486 -0.0470
 8115SOL    HW135804   0.126   3.598   4.905  0.7748 -1.9195  0.5233
 8115SOL    HW235805   0.082   3.602   5.048 -1.0150  0.7577 -0.0135
 8116SOL     OW35806   0.995   3.897   4.045 -0.7376  0.0182  0.2325
 8116SOL    HW135807   1.014   3.989   4.061  1.3193 -0.0068 -2.0499
 8116SOL    HW235808   0.906   3.893   4.080 -0.3628 -3.0369  0.8424
 8117SOL     OW35809   3.684   3.393   4.856 -0.1932  0.4810 -0.0176
 8117SOL    HW135810   3.697   3.337   4.779  1.4085 -2.3896  2.3361
 8117SOL    HW235811   3.627   3.462   4.822 -0.3895 -1.2862 -3.2651
 8118SOL     OW35812   2.203   2.162   9.044  0.1715 -0.7118 -0.4016
 8118SOL    HW135813   2.113   2.152   9.077  0.0571 -0.6308 -0.6870
 8118SOL    HW235814   2.241   2.106   9.112 -1.4573 -0.3663  0.7908
 8119SOL     OW35815   3.179   0.045   5.158  0.0349 -0.6454  1.1509
 8119SOL    HW135816   3.258   0.069   5.108 -0.9479  0.5335  0.1429
 8119SOL    HW235817   3.207   4.677   5.184 -0.6091 -1.0237  0.5840
 8120SOL     OW35818   4.546   4.079   1.644 -0.4166  0.0493 -0.1597
 8120SOL    HW135819   4.476   4.082   1.709 -1.2021 -2.0554 -0.9249
 8120SOL    HW235820   4.525   4.157   1.593 -0.9249 -2.2443 -3.4551
 8121SOL     OW35821   4.345   1.432   2.599  0.2399  0.3920 -0.0892
 8121SOL    HW135822   4.256   1.412   2.626  0.1817  2.0860  0.9179
 8121SOL    HW235823   4.342   1.415   2.504 -1.8131 -0.6735  0.1651
 8122SOL     OW35824   0.910   0.174  11.225 -0.4531 -0.6566 -0.9963
 8122SOL    HW135825   0.906   0.158  11.320  0.2035  0.8083 -0.7193
 8122SOL    HW235826   0.985   0.233  11.223 -1.0868  0.0949 -2.9577
 8123SOL     OW35827   4.069   0.047   7.474 -0.2995  0.5196  0.6266
 8123SOL    HW135828   4.099   0.080   7.390  1.3512 -0.2198  0.9355
 8123SOL    HW235829   3.986   0.095   7.485 -0.7397 -0.0165 -0.3750
 8124SOL     OW35830   4.358   2.135   7.710  0.2356 -0.4177 -0.3271
 8124SOL    HW135831   4.362   2.213   7.654 -0.7256  0.4253  0.7894
 8124SOL    HW235832   4.439   2.088   7.691 -0.9018 -1.8614 -1.6930
 8125SOL     OW35833   4.208   0.704   5.139 -0.2553  0.0522 -0.2826
 8125SOL    HW135834   4.237   0.678   5.051 -0.4823 -1.4084  0.0683
 8125SOL    HW235835   4.289   0.700   5.189  0.6129  0.0676 -1.6758
 8126SOL     OW35836   1.270   0.857  13.332 -0.8379 -0.0157 -0.0313
 8126SOL    HW135837   1.333   0.924  13.358  1.8630 -1.6698 -2.3623
 8126SOL    HW235838   1.333   0.787  13.316 -1.0390 -0.0530 -0.6632
 8127SOL     OW35839   0.143   0.889   4.385  0.2154  0.1562  0.0071
 8127SOL    HW135840   0.105   0.858   4.303 -0.7933 -1.3276  1.0364
 8127SOL    HW235841   0.062   0.886   4.436  0.1754  3.0828  0.1096
 8128SOL     OW35842   0.868   0.459   6.660  0.4680  0.4226  0.0619
 8128SOL    HW135843   0.836   0.513   6.733 -0.1595 -0.0898  0.1623
 8128SOL    HW235844   0.858   0.372   6.698 -3.1450 -0.8708 -3.8112
 8129SOL     OW35845   4.555   2.193  10.032 -0.3742  0.4399 -0.4488
 8129SOL    HW135846   4.476   2.247  10.040 -0.7841 -0.4343  1.4647
 8129SOL    HW235847   4.548   2.136  10.108  0.1155 -1.1673 -1.6191
 8130SOL     OW35848   0.633   1.780   2.271 -0.4773  0.0386  0.5955
 8130SOL    HW135849   0.690   1.854   2.252 -2.8496  1.6068 -0.4545
 8130SOL    HW235850   0.549   1.827   2.268 -0.3849  0.1817  0.2874
 8131SOL     OW35851   2.325   1.936  14.738  0.4742 -0.1499 -0.0642
 8131SOL    HW135852   2.419   1.945  14.723  0.1964  2.6291 -0.1529
 8131SOL    HW235853   2.319   1.949  14.832  1.8525  0.7990 -0.1137
 8132SOL     OW35854   4.672   2.903   3.345 -0.3217  0.4653 -0.2319
 8132SOL    HW135855   4.580   2.928   3.360 -0.8567 -1.9962  0.5857
 8132SOL    HW235856   4.674   2.809   3.331  1.3115  0.3715  0.6643
 8133SOL     OW35857   0.575   1.862   3.347 -0.3839  0.2264 -0.4395
 8133SOL    HW135858   0.589   1.907   3.264 -2.9626  1.0611 -0.4347
 8133SOL    HW235859   0.527   1.932   3.391 -0.3147 -0.9116  1.4769
 8134SOL     OW35860   0.603   2.386   7.847 -0.5247 -0.0076  0.3776
 8134SOL    HW135861   0.599   2.475   7.812  0.5890 -0.7454 -1.6298
 8134SOL    HW235862   0.698   2.385   7.834 -0.1400 -1.1282  3.3454
 8135SOL     OW35863   3.805   1.731   6.519  0.1049  0.3264 -0.4442
 8135SOL    HW135864   3.750   1.805   6.544  2.2320  2.1022 -0.9396
 8135SOL    HW235865   3.808   1.735   6.423  0.7403  1.9091 -0.3575
 8136SOL     OW35866   1.320   0.231  10.948 -0.0606  0.4852  0.1430
 8136SOL    HW135867   1.391   0.180  10.908  1.1208  0.9820  1.6132
 8136SOL    HW235868   1.364   0.274  11.021  0.5409 -1.0981  0.7323
 8137SOL     OW35869   1.767   1.739   9.630  0.4284 -0.0052 -1.3533
 8137SOL    HW135870   1.839   1.718   9.689 -0.3791  1.6022  0.1948
 8137SOL    HW235871   1.726   1.802   9.689 -2.1977 -0.9172 -2.1892
 8138SOL     OW35872   4.390   0.350   5.413 -0.1783 -0.0165  0.0380
 8138SOL    HW135873   4.365   0.412   5.344 -0.4039  0.5599  0.6350
 8138SOL    HW235874   4.467   0.389   5.455  0.0397  0.0290 -0.4038
 8139SOL     OW35875   3.847   1.145   6.986 -0.4981 -0.2060 -0.2521
 8139SOL    HW135876   3.909   1.073   6.977 -0.3243  0.1318 -1.7065
 8139SOL    HW235877   3.832   1.178   6.897  1.5378 -1.0997 -0.9248
 8140SOL     OW35878   1.713   4.237  14.905  0.3163 -0.3129 -0.1695
 8140SOL    HW135879   1.655   4.309  14.881  1.8591  1.4560  1.4266
 8140SOL    HW235880   1.740   4.213  14.816 -0.2534  1.8164 -0.9327
 8141SOL     OW35881   4.087   3.716   6.360 -0.5160  0.5718 -0.0750
 8141SOL    HW135882   4.155   3.710   6.293  0.5646 -0.4267  1.1189
 8141SOL    HW235883   4.108   3.650   6.427 -0.1734  0.7187 -0.0403
 8142SOL     OW35884   3.096   0.359   7.951  0.2652 -0.5133 -0.1727
 8142SOL    HW135885   3.188   0.382   7.939  0.5685 -2.8567 -2.3731
 8142SOL    HW235886   3.086   0.274   7.908 -0.1749 -0.2324 -0.6349
 8143SOL     OW35887   1.631   3.699   6.309 -0.1483  0.1027 -0.4180
 8143SOL    HW135888   1.565   3.730   6.372  0.7979  1.8661 -0.2946
 8143SOL    HW235889   1.653   3.609   6.329 -2.0248  0.2399  2.1947
 8144SOL     OW35890   1.172   3.052   9.999 -0.1243 -0.5153 -0.1246
 8144SOL    HW135891   1.208   3.048  10.087 -0.4304 -1.9273 -0.0578
 8144SOL    HW235892   1.116   2.974  10.000  0.5219 -0.9729  0.5313
 8145SOL     OW35893   3.422   3.489   2.549  0.4517  0.2105 -0.0915
 8145SOL    HW135894   3.357   3.520   2.486  0.2447 -0.2313 -0.0955
 8145SOL    HW235895   3.364   3.491   2.625 -0.1421  1.1301 -0.5651
 8146SOL     OW35896   2.339   0.342   3.773 -0.4017  0.5103  0.4216
 8146SOL    HW135897   2.388   0.324   3.693 -1.1022 -1.1191  0.3521
 8146SOL    HW235898   2.356   0.436   3.772  0.4936  0.3253 -1.0924
 8147SOL     OW35899   4.252   3.965   5.039 -0.3708  0.5146  0.2756
 8147SOL    HW135900   4.202   3.888   5.065  0.0663 -0.4091 -1.6248
 8147SOL    HW235901   4.338   3.940   5.072 -0.7062  0.7446  1.3261
 8148SOL     OW35902   4.249   1.882   6.522  0.0577 -0.0042  0.2241
 8148SOL    HW135903   4.315   1.860   6.588 -1.1159 -0.7488  1.1589
 8148SOL    HW235904   4.248   1.799   6.475 -1.6663  1.3256 -2.0718
 8149SOL     OW35905   2.022   1.207   5.133 -0.2527 -0.2408  0.0740
 8149SOL    HW135906   2.027   1.118   5.100 -0.7866  0.4559 -1.9146
 8149SOL    HW235907   2.101   1.242   5.092 -0.9021  0.6896 -0.4157
 8150SOL     OW35908   3.450   0.961   9.536  0.3012 -0.2908  0.2156
 8150SOL    HW135909   3.532   1.005   9.514  0.5538 -0.6427  0.4562
 8150SOL    HW235910   3.410   1.025   9.595 -0.9072 -0.3366 -0.5410
 8151SOL     OW35911   3.988   3.924   5.558  0.0822  0.1698 -0.1360
 8151SOL    HW135912   4.014   3.925   5.650 -1.3983 -1.2066  0.3079
 8151SOL    HW235913   3.901   3.959   5.573  0.2646  0.4063  0.3502
 8152SOL     OW35914   2.103   4.388   0.813  0.4260 -0.0645 -0.2053
 8152SOL    HW135915   2.065   4.310   0.774  0.0294  0.0203  0.0172
 8152SOL    HW235916   2.153   4.423   0.739  2.3315 -0.8909  0.6876
 8153SOL     OW35917   3.296   4.318   0.684  0.2696  0.3567 -0.3310
 8153SOL    HW135918   3.288   4.344   0.776  2.0261 -2.2321  0.5679
 8153SOL    HW235919   3.371   4.259   0.678 -1.5381 -2.1980  2.4235
 8154SOL     OW35920   4.333   0.107   8.746 -0.0745 -0.2890  0.0579
 8154SOL    HW135921   4.341   0.146   8.833  2.5195  0.1874 -0.4010
 8154SOL    HW235922   4.363   0.016   8.758  1.4799  0.1332 -0.7097
 8155SOL     OW35923   1.937   0.898   7.878  0.2068  0.7589  0.1588
 8155SOL    HW135924   1.847   0.921   7.898 -0.3031  0.3107 -1.6112
 8155SOL    HW235925   1.922   0.804   7.868  0.1124  0.7062  0.8479
 8156SOL     OW35926   4.311   3.940   6.779  0.1492  0.5680  0.1481
 8156SOL    HW135927   4.384   3.937   6.718 -1.0980 -1.6866 -1.2340
 8156SOL    HW235928   4.336   3.867   6.835 -1.5217  0.7022  1.0781
 8157SOL     OW35929   0.482   2.043   8.270 -0.1257  0.5421 -0.0563
 8157SOL    HW135930   0.571   2.017   8.250  0.0568  0.3131  1.0286
 8157SOL    HW235931   0.427   1.970   8.242 -1.4353  0.3702  2.9572
 8158SOL     OW35932   0.642   1.907  17.020  0.1378  0.9258 -0.3072
 8158SOL    HW135933   0.635   1.850  17.096  4.4021 -0.0937 -0.6679
 8158SOL    HW235934   0.572   1.868  16.966  0.5787  1.0468 -0.9595
 8159SOL     OW35935   0.834   4.587   7.566  0.0206 -0.0007 -0.2510
 8159SOL    HW135936   0.799   4.505   7.600  0.9291 -1.0659 -1.9074
 8159SOL    HW235937   0.929   4.578   7.573 -0.0844 -0.5155  0.5098
 8160SOL     OW35938   3.062   0.047  16.003 -0.5032 -0.3436 -0.3189
 8160SOL    HW135939   3.109   0.108  15.947  1.3118 -1.4259  0.0053
 8160SOL    HW235940   3.001   0.018  15.935  0.3245  0.8518 -1.5583
 8161SOL     OW35941   4.650   2.257   9.751  0.0530 -0.0795  0.5717
 8161SOL    HW135942   4.574   2.204   9.727 -1.1540  1.8188  0.2327
 8161SOL    HW235943   4.619   2.292   9.834  1.9599  2.3089  0.2996
 8162SOL     OW35944   3.876   3.440   9.773  0.1523 -0.4641 -0.0206
 8162SOL    HW135945   3.866   3.449   9.868  0.1334 -0.4890 -0.0201
 8162SOL    HW235946   3.808   3.503   9.749  0.5514  0.9086  2.4434
 8163SOL     OW35947   4.102   2.002   5.218  0.5231 -0.2746 -0.5219
 8163SOL    HW135948   4.041   2.012   5.146 -0.8256  2.5498  1.0052
 8163SOL    HW235949   4.090   2.081   5.272 -1.6000  0.1924 -1.6844
 8164SOL     OW35950   1.846   0.978  17.097 -0.8615 -0.5663  0.2496
 8164SOL    HW135951   1.833   1.045  17.164 -1.8609 -0.6141  0.0938
 8164SOL    HW235952   1.892   1.026  17.028 -0.0613 -1.3290  0.2473
 8165SOL     OW35953   1.521   2.415   4.082 -0.5410 -0.0668 -0.0127
 8165SOL    HW135954   1.493   2.497   4.123 -0.2571 -1.2622  2.6222
 8165SOL    HW235955   1.476   2.415   3.998  0.8831  1.5351 -0.7749
 8166SOL     OW35956   0.666   0.812   1.807  0.3794 -0.0259 -0.0187
 8166SOL    HW135957   0.734   0.856   1.857  2.8687 -0.3195 -3.1048
 8166SOL    HW235958   0.639   0.881   1.746  2.2142  0.1755 -0.6069
 8167SOL     OW35959   1.377   3.206   3.416  0.1044 -0.2235  0.6743
 8167SOL    HW135960   1.417   3.266   3.479 -0.2723 -1.1366  1.7970
 8167SOL    HW235961   1.420   3.125   3.442  0.2472  0.0811  1.4132
 8168SOL     OW35962   3.254   4.485   1.703 -0.6302 -0.1184  0.5961
 8168SOL    HW135963   3.236   4.515   1.792  1.9467 -0.2355  1.1668
 8168SOL    HW235964   3.321   4.552   1.690 -0.6414 -0.4836 -1.3136
 8169SOL     OW35965   1.963   2.366   6.680  0.0343 -0.6562 -0.3937
 8169SOL    HW135966   1.891   2.318   6.640 -0.2812  1.3483 -2.2093
 8169SOL    HW235967   2.028   2.296   6.679  1.2778  0.5191 -1.3197
 8170SOL     OW35968   2.641   2.063   2.919  0.3310 -0.4527  0.0276
 8170SOL    HW135969   2.558   2.046   2.874 -0.0697  0.4167  0.4406
 8170SOL    HW235970   2.638   2.158   2.930  2.4185 -0.4784  0.8241
 8171SOL     OW35971   2.582   3.133   8.307 -0.2920  0.3425  0.2240
 8171SOL    HW135972   2.517   3.159   8.242 -0.6414  2.0379  1.2494
 8171SOL    HW235973   2.541   3.154   8.391 -1.6623 -0.8077 -0.1497
 8172SOL     OW35974   4.050   4.116  15.868  0.1937 -0.0643 -0.2380
 8172SOL    HW135975   4.028   4.026  15.893 -3.7569  0.6279 -1.1295
 8172SOL    HW235976   3.969   4.150  15.830  0.1677  1.6414  1.3508
 8173SOL     OW35977   4.703   1.734   7.389 -0.0923 -0.6098 -0.1655
 8173SOL    HW135978   4.610   1.721   7.368 -0.4444 -2.1378  2.3485
 8173SOL    HW235979   4.687   1.740   7.484  0.5511 -0.2073 -0.0849
 8174SOL     OW35980   1.159   3.713   1.274 -0.0900  0.8940  0.4646
 8174SOL    HW135981   1.142   3.715   1.368  1.5098  0.2949  0.7705
 8174SOL    HW235982   1.228   3.648   1.259 -1.3837 -0.4903  0.5354
 8175SOL     OW35983   3.361   3.599   2.039 -0.6159  0.1682 -0.9738
 8175SOL    HW135984   3.283   3.650   2.013 -0.9708  1.6789  2.9908
 8175SOL    HW235985   3.424   3.670   2.024  0.0851  0.6336  3.9477
 8176SOL     OW35986   0.741   4.230   5.281 -0.3878 -0.1129  0.1392
 8176SOL    HW135987   0.717   4.196   5.367 -0.8986 -2.6546 -1.0179
 8176SOL    HW235988   0.677   4.298   5.263  0.2016  0.4471  0.1409
 8177SOL     OW35989   2.259   2.340   5.958 -0.2581  0.3672 -0.1740
 8177SOL    HW135990   2.271   2.335   6.053  0.2406  0.8332 -0.2090
 8177SOL    HW235991   2.183   2.286   5.940 -0.6398  1.1334 -0.8431
 8178SOL     OW35992   3.111   1.047   9.568 -0.0024 -0.7280  0.3608
 8178SOL    HW135993   3.076   1.119   9.622  0.6434  1.5905 -2.3387
 8178SOL    HW235994   3.199   1.054   9.606 -0.2273 -0.7208  0.8841
 8179SOL     OW35995   3.174   2.091   3.507 -0.0437  0.2430 -0.4483
 8179SOL    HW135996   3.111   2.102   3.579  0.9143 -1.6406  0.7024
 8179SOL    HW235997   3.221   2.013   3.536 -1.0011 -0.5389 -1.0258
 8180SOL     OW35998   3.829   1.549  12.958  0.1889 -0.3065 -0.3260
 8180SOL    HW135999   3.913   1.532  13.000 -0.6517 -0.6322  1.2011
 8180SOL    HW236000   3.784   1.612  13.014  0.7422  0.0057 -0.2292
 8181SOL     OW36001   2.832   2.676   0.777  0.2550  0.0706  0.0451
 8181SOL    HW136002   2.847   2.751   0.720  0.5207 -2.5612 -3.3306
 8181SOL    HW236003   2.920   2.640   0.778  0.3607  0.3680  2.7384
 8182SOL     OW36004   4.677   2.862   5.119  0.0336 -0.2848 -0.0772
 8182SOL    HW136005   0.033   2.884   5.174  0.8387 -0.5612 -1.0750
 8182SOL    HW236006   4.612   2.829   5.182  1.5527  0.1182  1.7037
 8183SOL     OW36007   2.890   1.490   4.153 -0.5281  0.1156  0.8588
 8183SOL    HW136008   2.937   1.443   4.084  0.9754  0.2753  1.7714
 8183SOL    HW236009   2.920   1.447   4.233  1.0329 -0.2981  0.0541
 8184SOL     OW36010   1.376   3.476   6.400  0.1263  0.0062  0.0828
 8184SOL    HW136011   1.471   3.487   6.407  0.2468 -0.1975 -1.2130
 8184SOL    HW236012   1.362   3.387   6.431  2.0741  0.0522  1.1439
 8185SOL     OW36013   0.914   2.638   8.021  0.0888  0.4429  0.0265
 8185SOL    HW136014   0.897   2.566   7.960  0.2009 -1.2083  1.9504
 8185SOL    HW236015   0.951   2.605   8.103  0.8939  0.0872 -0.4811
 8186SOL     OW36016   4.440   1.352  14.293  0.2271  0.0422  0.5424
 8186SOL    HW136017   4.425   1.386  14.381 -0.3456 -1.4074  1.0006
 8186SOL    HW236018   4.374   1.284  14.304  1.0825 -1.3213 -2.6456
 8187SOL     OW36019   3.976   4.392  13.550 -0.1676  0.6665  0.5267
 8187SOL    HW136020   3.898   4.387  13.605  0.1465  0.3008  0.9348
 8187SOL    HW236021   3.955   4.445  13.473 -2.4919 -0.8118  0.1598
 8188SOL     OW36022   1.273   1.958   3.135  0.1223  0.4134  0.2582
 8188SOL    HW136023   1.200   1.935   3.193  0.9424 -0.1785  1.0557
 8188SOL    HW236024   1.237   1.944   3.048  1.5215  1.0711 -0.4325
 8189SOL     OW36025   3.970   4.248   4.719 -0.2597  0.5232 -0.4067
 8189SOL    HW136026   4.036   4.213   4.778  0.7355  1.2526 -1.0982
 8189SOL    HW236027   3.889   4.246   4.771 -0.0938 -1.0736 -0.2113
 8190SOL     OW36028   2.940   1.034   6.676 -0.1115 -0.4313  0.3894
 8190SOL    HW136029   2.884   0.981   6.732 -1.8929 -2.1147 -2.9435
 8190SOL    HW236030   2.878   1.078   6.618  2.3825 -0.0430 -2.0209
 8191SOL     OW36031   0.340   2.235   1.299 -0.2552 -0.1302 -0.0836
 8191SOL    HW136032   0.378   2.281   1.374  1.3243 -2.5509  0.5940
 8191SOL    HW236033   0.334   2.144   1.328 -0.2116  0.1455  0.7862
 8192SOL     OW36034   4.067   3.309  14.721 -0.0437 -0.0240  0.0486
 8192SOL    HW136035   4.004   3.319  14.650 -0.7676  1.2501  0.8872
 8192SOL    HW236036   4.147   3.328  14.671 -0.2492  0.0083 -0.2683
 8193SOL     OW36037   2.665   4.019   6.961  0.0673  0.1402  0.2254
 8193SOL    HW136038   2.754   4.011   6.926 -0.3401 -1.5073 -0.4395
 8193SOL    HW236039   2.688   4.011   7.054  1.5979  2.7097  0.0766
 8194SOL     OW36040   0.263   4.621   7.551 -0.4119  0.2001 -0.4540
 8194SOL    HW136041   0.313   4.701   7.533  0.5713 -0.5673 -1.1414
 8194SOL    HW236042   0.176   4.648   7.523 -0.6551  0.7815  0.8621
 8195SOL     OW36043   0.662   2.468   9.913 -0.1373  0.2672  0.8760
 8195SOL    HW136044   0.721   2.455   9.987  2.3935 -1.8227 -1.4989
 8195SOL    HW236045   0.646   2.562   9.917  0.6364  0.3513  1.9127
 8196SOL     OW36046   0.010   0.810  12.757 -0.1980 -1.0309  0.6094
 8196SOL    HW136047   4.717   0.885  12.814 -0.1786  0.7515 -1.7348
 8196SOL    HW236048   0.103   0.790  12.754  0.0356  0.0934  0.3305
 8197SOL     OW36049   1.279   2.618   7.789 -0.0779  0.5901 -0.7241
 8197SOL    HW136050   1.322   2.553   7.735 -0.9239 -0.0850 -0.5903
 8197SOL    HW236051   1.244   2.558   7.855  2.4749 -0.3966 -0.3063
 8198SOL     OW36052   0.034   4.683   1.561  0.2839  0.2193 -0.0681
 8198SOL    HW136053   0.081   0.042   1.591 -1.5895  0.8490  1.2734
 8198SOL    HW236054   0.038   4.713   1.471  2.8624 -1.5790 -0.5495
 8199SOL     OW36055   2.779   4.562   8.942  0.1298 -0.4520 -0.2490
 8199SOL    HW136056   2.832   4.524   9.012  0.9131  0.3666 -0.3844
 8199SOL    HW236057   2.836   4.557   8.865  1.9674 -0.1292  1.0679
 8200SOL     OW36058   2.009   4.539   2.416 -0.5553 -0.2429  0.2037
 8200SOL    HW136059   1.991   4.452   2.380 -0.7314 -0.2631  0.3450
 8200SOL    HW236060   1.926   4.558   2.460 -0.9713  0.1695 -0.7379
 8201SOL     OW36061   0.754   1.957   9.224 -0.1800  0.8117 -0.0523
 8201SOL    HW136062   0.730   2.045   9.197 -0.8268  1.5229  2.8117
 8201SOL    HW236063   0.673   1.918   9.258 -0.5002 -0.0495 -1.7927
 8202SOL     OW36064   0.397   4.400   8.180 -0.0260 -0.6094  0.3261
 8202SOL    HW136065   0.445   4.406   8.097 -1.1664  0.1299 -0.2847
 8202SOL    HW236066   0.315   4.447   8.161  0.4828  0.7957  1.6453
 8203SOL     OW36067   3.598   0.449  16.818 -0.7869  0.5579  0.2749
 8203SOL    HW136068   3.633   0.523  16.868 -0.3285 -1.4448  2.8732
 8203SOL    HW236069   3.520   0.432  16.871 -0.6973 -0.8554 -0.0651
 8204SOL     OW36070   2.372   3.686   3.191 -0.4838  0.7396  0.1717
 8204SOL    HW136071   2.309   3.706   3.122  1.4180 -0.6482 -1.9667
 8204SOL    HW236072   2.350   3.743   3.265 -1.3240  1.3784 -0.5741
 8205SOL     OW36073   3.514   0.819   7.871  0.1791 -0.5347  0.1763
 8205SOL    HW136074   3.607   0.799   7.879 -0.2546 -2.0894  1.3982
 8205SOL    HW236075   3.475   0.833   7.957 -0.4536  0.6343 -0.2919
 8206SOL     OW36076   3.770   2.186   6.410 -0.1041 -0.3080 -0.3665
 8206SOL    HW136077   3.675   2.182   6.413 -0.0092 -1.4726  0.7597
 8206SOL    HW236078   3.787   2.117   6.474 -0.3097 -0.2421 -0.2406
 8207SOL     OW36079   4.061   0.666   2.886 -0.8954 -0.1677  0.3586
 8207SOL    HW136080   4.088   0.737   2.828 -1.1371 -0.9171 -0.6856
 8207SOL    HW236081   3.985   0.695   2.935 -1.5770 -2.1145  0.4784
 8208SOL     OW36082   0.456   2.932   1.975 -0.1215  0.0994 -0.3052
 8208SOL    HW136083   0.419   3.015   1.944  2.4780  1.5965  0.5694
 8208SOL    HW236084   0.545   2.964   1.959 -0.2457 -0.6536 -2.4734
 8209SOL     OW36085   1.947   0.008  17.015 -0.4488 -0.4993  0.1250
 8209SOL    HW136086   1.927   0.094  17.052  0.2495 -1.2541  2.2954
 8209SOL    HW236087   2.041   0.011  16.999 -0.5812  1.0291 -0.3876
 8210SOL     OW36088   4.072   4.713   3.447  0.7172  0.1757 -0.0558
 8210SOL    HW136089   4.087   0.071   3.393 -3.1082 -0.3292 -1.8629
 8210SOL    HW236090   4.075   4.636   3.391 -1.4377  0.2802 -0.3042
 8211SOL     OW36091   0.726   2.053   4.078  0.1746  0.4372 -0.4076
 8211SOL    HW136092   0.735   1.966   4.116 -1.6854 -0.3135 -1.6679
 8211SOL    HW236093   0.705   2.095   4.161 -0.1827 -0.2922 -0.1293
 8212SOL     OW36094   4.337   4.086   2.122 -0.9017  0.0966 -0.7747
 8212SOL    HW136095   4.401   4.149   2.088  0.2250 -1.1037 -0.8824
 8212SOL    HW236096   4.316   4.031   2.046 -0.2389 -0.2138 -0.7313
 8213SOL     OW36097   4.493   0.331   8.077 -0.1556  0.4529 -0.9135
 8213SOL    HW136098   4.587   0.339   8.090  0.1471 -0.9050 -2.2489
 8213SOL    HW236099   4.461   0.246   8.109  1.2877 -0.4276 -1.8022
 8214SOL     OW36100   1.289   1.071   3.992  0.3795  0.0413  0.7638
 8214SOL    HW136101   1.266   0.994   3.940 -1.1113  1.6264 -0.9352
 8214SOL    HW236102   1.361   1.103   3.938 -0.2161 -0.5098 -0.3567
 8215SOL     OW36103   2.817   2.259   7.040  0.5586 -0.0383 -0.0003
 8215SOL    HW136104   2.761   2.306   7.102  2.4180  0.1869  1.5253
 8215SOL    HW236105   2.771   2.277   6.958 -1.0549  0.6991  1.0715
 8216SOL     OW36106   3.234   0.713   4.529  0.6493 -0.3115  0.9141
 8216SOL    HW136107   3.152   0.726   4.481  1.8850  0.0680 -1.0989
 8216SOL    HW236108   3.208   0.634   4.576 -1.0787 -0.1183  0.2884
 8217SOL     OW36109   1.533   0.261   7.133 -0.0118 -0.1452  0.1625
 8217SOL    HW136110   1.479   0.292   7.206 -0.5163 -1.1304  0.2065
 8217SOL    HW236111   1.483   0.310   7.069  0.6261 -2.0264 -1.7964
 8218SOL     OW36112   4.396   4.552   5.743 -0.2179 -0.4842 -0.0940
 8218SOL    HW136113   4.339   4.491   5.697  0.6083 -2.1304  1.0590
 8218SOL    HW236114   4.390   4.637   5.699 -0.9832 -0.4649  0.0559
 8219SOL     OW36115   2.802   0.587   6.725 -0.2102 -0.6239 -0.1138
 8219SOL    HW136116   2.862   0.518   6.751 -0.4082 -0.9681 -0.5574
 8219SOL    HW236117   2.860   0.662   6.715  0.0533 -0.7372  0.6288
 8220SOL     OW36118   1.548   1.417  15.400  0.5982 -0.1086 -0.3682
 8220SOL    HW136119   1.474   1.476  15.385  0.8084  0.3470  0.4073
 8220SOL    HW236120   1.609   1.475  15.446 -0.2684  0.4314  0.1051
 8221SOL     OW36121   1.767   4.352  12.898 -0.7032 -0.0249  0.6491
 8221SOL    HW136122   1.748   4.286  12.965  0.2405 -0.7311  0.2317
 8221SOL    HW236123   1.861   4.347  12.912 -0.6452 -2.3502 -0.5804
 8222SOL     OW36124   2.672   3.497  13.091  0.8017 -0.5886  0.0350
 8222SOL    HW136125   2.717   3.456  13.165  2.3403  1.2873  0.1481
 8222SOL    HW236126   2.651   3.583  13.128  0.3193 -0.3931 -0.6908
 8223SOL     OW36127   3.407   0.312   2.931 -0.3262 -0.1809  0.5983
 8223SOL    HW136128   3.420   0.245   2.863 -1.0951  1.4103 -1.1288
 8223SOL    HW236129   3.315   0.337   2.918  0.0898  2.3067  2.6083
 8224SOL     OW36130   1.414   2.023   1.591 -0.1818 -0.0363  0.3346
 8224SOL    HW136131   1.335   1.980   1.624  1.6883 -0.5282  4.2131
 8224SOL    HW236132   1.458   1.944   1.561  1.1866  1.0682 -0.6007
 8225SOL     OW36133   3.030   2.787   6.945 -0.5988 -0.7632 -0.1360
 8225SOL    HW136134   3.113   2.801   6.899  0.0476 -1.4140  0.8265
 8225SOL    HW236135   2.972   2.741   6.885  0.2275  0.3536 -1.7900
 8226SOL     OW36136   3.975   3.656   2.366 -0.5004 -0.5654 -0.1938
 8226SOL    HW136137   4.002   3.745   2.342  1.0019 -0.7818  0.7230
 8226SOL    HW236138   4.063   3.627   2.391  0.0899 -0.4606 -2.1581
 8227SOL     OW36139   3.907   4.329   7.421 -0.0660  0.2034  0.4150
 8227SOL    HW136140   3.823   4.365   7.448  0.3785  1.1960  0.4526
 8227SOL    HW236141   3.947   4.391   7.361  0.1194  0.5044  0.8478
 8228SOL     OW36142   3.648   4.667   4.953 -0.6301 -0.3686  0.2299
 8228SOL    HW136143   3.724   4.668   5.011  0.3470 -0.2174 -1.0590
 8228SOL    HW236144   3.667   4.586   4.905 -0.1264 -1.4354  2.2157
 8229SOL     OW36145   0.344   0.120  12.749  0.3428 -0.0039  0.0064
 8229SOL    HW136146   0.296   0.161  12.677  1.3169 -0.8238 -1.1111
 8229SOL    HW236147   0.274   0.115  12.814  0.6320  0.2246  0.3397
 8230SOL     OW36148   1.796   4.575   4.258  0.5346 -0.2521 -0.5832
 8230SOL    HW136149   1.730   4.589   4.190 -0.5365 -2.1147  0.0823
 8230SOL    HW236150   1.835   4.497   4.219 -0.8710 -2.2921  2.1101
 8231SOL     OW36151   0.743   4.467  17.669 -0.1604 -0.3805  0.4382
 8231SOL    HW136152   0.714   4.503  17.585  1.5758 -0.4795 -0.2145
 8231SOL    HW236153   0.834   4.495  17.659  0.0707 -0.4977  2.2225
 8232SOL     OW36154   0.763   3.768  10.831  0.3282 -0.1005  0.1144
 8232SOL    HW136155   0.759   3.786  10.736 -0.0782  0.3042  0.2056
 8232SOL    HW236156   0.686   3.714  10.850 -0.0219  0.7357  1.0342
 8233SOL     OW36157   0.368   1.055   1.319 -0.3559 -1.0603 -0.4781
 8233SOL    HW136158   0.463   1.049   1.319 -0.3183 -0.4590 -1.6082
 8233SOL    HW236159   0.338   0.977   1.365  0.9081 -0.9129  0.5814
 8234SOL     OW36160   1.445   0.381   4.727 -0.1642  0.3230  0.1245
 8234SOL    HW136161   1.455   0.420   4.640 -1.3729  1.5106  0.5214
 8234SOL    HW236162   1.351   0.360   4.726 -0.2761  0.7020  3.1477
 8235SOL     OW36163   3.923   1.911   9.274 -0.5178 -0.2515  0.0486
 8235SOL    HW136164   3.873   1.966   9.335  2.1993 -0.0375  2.0846
 8235SOL    HW236165   3.957   1.862   9.348 -0.9531  0.5853  0.7991
 8236SOL     OW36166   0.316   2.639   7.559  0.0238 -0.1069  0.0768
 8236SOL    HW136167   0.324   2.598   7.473 -0.6068  0.9656 -0.4858
 8236SOL    HW236168   0.317   2.562   7.616  0.4488  0.1532  0.4220
 8237SOL     OW36169   0.158   3.485   1.745 -0.2343  0.3517 -0.3292
 8237SOL    HW136170   0.095   3.515   1.680  1.5556 -1.9376 -3.1539
 8237SOL    HW236171   0.232   3.464   1.688 -2.3400 -1.4958 -2.3432
 8238SOL     OW36172   4.591   2.662   6.525 -0.6349 -0.4317  1.1773
 8238SOL    HW136173   4.580   2.754   6.500  1.2913 -1.0518 -1.8904
 8238SOL    HW236174   4.514   2.640   6.578 -0.6048  2.2578  2.3487
 8239SOL     OW36175   4.245   3.017   3.637  0.4636  0.3193 -0.0906
 8239SOL    HW136176   4.242   3.035   3.731  2.2051  2.0292 -0.3661
 8239SOL    HW236177   4.225   2.924   3.644 -0.2172  0.3927 -1.0796
 8240SOL     OW36178   4.637   4.319   2.381 -0.2007 -0.2710 -0.3026
 8240SOL    HW136179   4.670   4.403   2.413 -2.8265  0.5517  0.2082
 8240SOL    HW236180   4.577   4.301   2.454 -1.1324 -0.3758 -1.1047
 8241SOL     OW36181   2.784   1.996  15.917 -0.2998  0.3508 -0.0468
 8241SOL    HW136182   2.707   1.987  15.973  1.9245  2.2946  3.3411
 8241SOL    HW236183   2.734   2.026  15.841  0.6163 -0.2600 -0.8903
 8242SOL     OW36184   3.798   0.421   8.044 -0.1570 -0.1199 -0.0916
 8242SOL    HW136185   3.815   0.516   8.038  1.8723 -0.3787  1.6209
 8242SOL    HW236186   3.807   0.406   8.138  1.0446  0.4998 -0.1001
 8243SOL     OW36187   0.041   0.506   6.651  1.0466 -0.0009  0.0975
 8243SOL    HW136188   0.043   0.483   6.744 -1.3014 -2.8210 -0.5569
 8243SOL    HW236189   4.708   0.434   6.615 -0.9088  0.9602  1.0740
 8244SOL     OW36190   1.005   3.325   8.182  0.1587  0.4326 -0.2918
 8244SOL    HW136191   1.082   3.382   8.192  1.7338 -1.5532 -1.0043
 8244SOL    HW236192   0.945   3.356   8.250 -0.0451  1.4893 -0.9618
 8245SOL     OW36193   2.528   0.293  14.247  0.3178  0.1461  0.3213
 8245SOL    HW136194   2.528   0.198  14.232 -2.1334  0.0275  1.0328
 8245SOL    HW236195   2.614   0.316  14.212  0.6695 -0.6583  0.6574
 8246SOL     OW36196   4.243   2.410   6.799 -0.0048 -0.2658  0.0120
 8246SOL    HW136197   4.296   2.331   6.806  1.8232  1.0258  0.7296
 8246SOL    HW236198   4.307   2.470   6.761  0.7824 -0.8098  0.4735
 8247SOL     OW36199   3.309   0.966  13.296  0.4958 -0.0814 -0.1315
 8247SOL    HW136200   3.347   0.878  13.292  2.4228  0.6993  1.1460
 8247SOL    HW236201   3.377   1.031  13.313  0.4572 -0.0582 -0.0675
 8248SOL     OW36202   2.406   0.274   8.372 -0.5241 -0.0572 -0.2642
 8248SOL    HW136203   2.426   0.241   8.284 -1.1276  0.7721 -0.7268
 8248SOL    HW236204   2.354   0.205   8.413 -1.2539 -0.2454 -1.5018
 8249SOL     OW36205   4.083   0.398   6.688  0.0273  0.0230  0.4079
 8249SOL    HW136206   4.101   0.350   6.769 -0.5342 -1.6567 -0.4512
 8249SOL    HW236207   4.155   0.362   6.636 -0.2144 -1.1661  0.9012
 8250SOL     OW36208   1.035   1.711   6.508 -0.0630  0.4578 -0.1085
 8250SOL    HW136209   1.064   1.763   6.433 -0.1847 -0.4102 -0.7613
 8250SOL    HW236210   0.950   1.678   6.480 -0.6937 -0.1251  2.5684
 8251SOL     OW36211   3.211   0.506   5.441 -0.1338 -0.0219 -0.3063
 8251SOL    HW136212   3.240   0.540   5.526 -1.1473  0.6743 -0.2407
 8251SOL    HW236213   3.120   0.481   5.455  0.4039 -0.8929  1.6970
 8252SOL     OW36214   0.096   3.127   7.803  0.2887 -0.0652  0.0975
 8252SOL    HW136215   0.061   3.216   7.812 -1.0411 -0.6566  0.8426
 8252SOL    HW236216   0.174   3.136   7.748  1.0547  0.9169  1.3417
 8253SOL     OW36217   0.259   4.242  10.812  0.1755 -0.1662 -0.0363
 8253SOL    HW136218   0.233   4.202  10.729  1.3877 -1.6175  0.2795
 8253SOL    HW236219   0.181   4.215  10.862 -0.5598 -2.4151 -2.4046
 8254SOL     OW36220   2.226   2.662   4.665 -0.4754 -0.5845 -0.1070
 8254SOL    HW136221   2.166   2.645   4.738  1.8534 -1.2550  1.6265
 8254SOL    HW236222   2.310   2.631   4.698  0.5444  0.9600 -1.2624
 8255SOL     OW36223   2.517   1.206  11.267  0.2235  0.1069 -1.1342
 8255SOL    HW136224   2.486   1.195  11.177 -1.1701 -0.5122 -0.5739
 8255SOL    HW236225   2.536   1.300  11.261 -2.0567  0.6567  0.1259
 8256SOL     OW36226   4.129   0.594   9.462  0.3636 -0.0870 -0.2022
 8256SOL    HW136227   4.154   0.652   9.390  1.4365 -0.9220 -0.4976
 8256SOL    HW236228   4.120   0.658   9.533  2.7283 -1.5411  1.4080
 8257SOL     OW36229   1.794   4.175  14.613  0.5106  0.1540 -0.2041
 8257SOL    HW136230   1.825   4.162  14.523  0.1421 -2.4097  0.0430
 8257SOL    HW236231   1.778   4.085  14.642  2.0523  0.8233  2.6987
 8258SOL     OW36232   3.373   0.355   6.983  0.2015 -0.0747  0.1583
 8258SOL    HW136233   3.283   0.388   6.980  0.0761 -0.4890 -0.8609
 8258SOL    HW236234   3.348   0.264   6.968  0.3356 -0.3279  1.4527
 8259SOL     OW36235   0.926   1.019  10.699  0.5138  0.1077  0.3029
 8259SOL    HW136236   0.908   1.031  10.605 -0.9848  4.5642  1.1725
 8259SOL    HW236237   0.971   0.935  10.689  0.5545  0.0235  1.2584
 8260SOL     OW36238   0.926   2.758   7.140  0.0610 -0.3612 -0.0717
 8260SOL    HW136239   0.970   2.834   7.178  1.1643 -2.0906  2.0453
 8260SOL    HW236240   0.838   2.778   7.174 -0.0577  1.1527 -1.2358
 8261SOL     OW36241   4.228   1.639   6.346  0.1684  0.5972 -0.1334
 8261SOL    HW136242   4.145   1.660   6.303 -0.0965 -0.3039 -0.0699
 8261SOL    HW236243   4.251   1.549   6.325 -1.2686 -0.0714  1.1436
 8262SOL     OW36244   4.054   4.002   5.986 -0.0524  0.8764  0.0335
 8262SOL    HW136245   4.134   4.015   6.037 -0.2152  1.2012  0.2044
 8262SOL    HW236246   4.084   4.052   5.910  0.9721  0.6176  0.2622
 8263SOL     OW36247   0.301   0.695  17.093 -0.2512  0.3878 -0.1224
 8263SOL    HW136248   0.384   0.663  17.058  0.3306  0.3974  1.2418
 8263SOL    HW236249   0.255   0.615  17.116 -0.7419  0.8797  0.5980
 8264SOL     OW36250   0.947   1.382   4.193  0.0518  0.3406  0.0107
 8264SOL    HW136251   0.908   1.325   4.259  0.4051  1.2707  1.0107
 8264SOL    HW236252   0.873   1.370   4.132  3.1063 -0.1839 -3.5897
 8265SOL     OW36253   0.850   1.128   3.836  0.4084  0.1532 -0.0798
 8265SOL    HW136254   0.906   1.084   3.773  0.0926  0.4933 -0.5939
 8265SOL    HW236255   0.896   1.096   3.914 -1.4613 -0.2065  0.8749
 8266SOL     OW36256   0.532   1.674  11.459 -0.0604  0.1122 -0.1753
 8266SOL    HW136257   0.582   1.683  11.378 -2.4042  0.1238 -1.6085
 8266SOL    HW236258   0.478   1.596  11.446 -1.1411  1.2483 -2.4868
 8267SOL     OW36259   0.182   0.411   4.125  0.2963  0.3260 -0.3518
 8267SOL    HW136260   0.144   0.356   4.193  0.4486  2.0512  1.1453
 8267SOL    HW236261   0.110   0.456   4.080  0.5825  0.1396 -1.0019
 8268SOL     OW36262   3.943   2.926   4.188 -0.2737 -0.5263  0.3512
 8268SOL    HW136263   4.027   2.972   4.179  0.2232 -1.1980  1.5955
 8268SOL    HW236264   3.871   2.972   4.146 -0.5719 -1.3846 -0.0811
 8269SOL     OW36265   3.121   2.494   8.944 -0.0305 -0.6996 -0.2754
 8269SOL    HW136266   3.120   2.452   9.030  2.3030 -0.6832 -0.2368
 8269SOL    HW236267   3.027   2.495   8.925  0.0830 -0.3092 -0.8308
 8270SOL     OW36268   4.086   3.461  10.468  0.3677 -0.4439 -0.3678
 8270SOL    HW136269   4.062   3.476  10.560 -0.3663  3.6733 -1.2335
 8270SOL    HW236270   4.179   3.481  10.466 -0.0305  1.5645  0.5411
 8271SOL     OW36271   2.281   1.749   6.297  0.0159 -0.1005 -0.4476
 8271SOL    HW136272   2.197   1.794   6.301 -0.8768 -1.8254  0.2334
 8271SOL    HW236273   2.254   1.691   6.368  1.8883 -0.6585 -0.2023
 8272SOL     OW36274   0.523   1.712   4.553  0.3440  0.2125 -0.2986
 8272SOL    HW136275   0.591   1.779   4.565 -1.7654  1.9977  1.8110
 8272SOL    HW236276   0.576   1.642   4.516 -0.4831 -0.2626 -0.5761
 8273SOL     OW36277   3.676   4.425   7.521  0.0813  0.9525  0.1858
 8273SOL    HW136278   3.597   4.406   7.572  0.2335  0.3034  0.1772
 8273SOL    HW236279   3.668   4.513   7.485 -1.3885  0.6399 -0.2652
 8274SOL     OW36280   2.005   2.488   7.480 -0.2470  0.0223 -0.5105
 8274SOL    HW136281   2.077   2.544   7.453  1.0404 -1.5912 -0.4155
 8274SOL    HW236282   1.969   2.455   7.397  1.2772 -2.0437 -0.3694
 8275SOL     OW36283   4.183   3.588   9.139 -0.4594  0.4021 -0.4545
 8275SOL    HW136284   4.145   3.504   9.113 -0.2214 -0.3434  1.6168
 8275SOL    HW236285   4.238   3.558   9.212 -0.4417  2.2992  0.3162
 8276SOL     OW36286   3.870   1.457   2.925  0.2845  0.9644  0.0933
 8276SOL    HW136287   3.850   1.371   2.887 -0.5251  0.1151  2.4247
 8276SOL    HW236288   3.797   1.468   2.985 -1.3720  1.0128 -1.9072
 8277SOL     OW36289   3.165   1.828   7.860  0.6036 -0.3541 -0.7960
 8277SOL    HW136290   3.111   1.888   7.808  1.4063  0.0918 -1.1277
 8277SOL    HW236291   3.214   1.780   7.793  1.6361  1.5195 -1.4101
 8278SOL     OW36292   0.927   1.196  15.605  0.1136 -0.4017  0.3017
 8278SOL    HW136293   0.986   1.249  15.551 -1.2688  0.7940 -0.0589
 8278SOL    HW236294   0.853   1.256  15.618  1.1876  1.7681 -3.5167
 8279SOL     OW36295   0.657   4.277  10.972 -0.0086  0.9066 -0.0402
 8279SOL    HW136296   0.673   4.187  10.946 -1.6451  0.6495 -0.1529
 8279SOL    HW236297   0.741   4.310  11.004 -0.3940  0.8671  1.0204
 8280SOL     OW36298   3.625   0.000  12.047  0.0080  0.4980  0.4951
 8280SOL    HW136299   3.577   4.638  12.061  0.7119 -0.3581 -2.1526
 8280SOL    HW236300   3.713   4.692  12.074  0.2250  0.9419  0.2448
 8281SOL     OW36301   0.560   2.259  12.402  0.6320 -0.0455  0.5184
 8281SOL    HW136302   0.485   2.233  12.348  0.4526 -1.6261  1.5096
 8281SOL    HW236303   0.517   2.316  12.465  1.3784  0.9825  0.0890
 8282SOL     OW36304   1.134   0.832   1.552  0.2294  0.6387 -0.2360
 8282SOL    HW136305   1.048   0.798   1.528 -0.9787  3.2944  0.4171
 8282SOL    HW236306   1.109   0.923   1.567  0.6101  0.5982  0.6400
 8283SOL     OW36307   2.433   3.507   8.305  0.4028  0.0480 -0.1085
 8283SOL    HW136308   2.455   3.472   8.219  1.3821  2.5382 -0.8796
 8283SOL    HW236309   2.468   3.597   8.298 -1.4483  0.6715 -1.3979
 8284SOL     OW36310   0.339   3.839   8.042  0.1467  0.3674 -0.1189
 8284SOL    HW136311   0.254   3.808   8.074  0.4529  0.4431  0.7741
 8284SOL    HW236312   0.363   3.881   8.125  3.8001 -0.1620 -0.8810
 8285SOL     OW36313   3.194   1.972  17.424  0.1382 -0.3149  0.6157
 8285SOL    HW136314   3.219   1.929  17.506  0.1281 -0.5510  0.4923
 8285SOL    HW236315   3.190   1.894  17.369  0.2205 -0.0477  0.2343
 8286SOL     OW36316   1.672   4.644  17.546  0.0655  0.2508 -0.1111
 8286SOL    HW136317   1.752   4.655  17.494  1.2340 -1.0163  1.4228
 8286SOL    HW236318   1.664   4.551  17.568 -0.0121  0.3597  0.3030
 8287SOL     OW36319   3.342   2.147  10.233 -0.1743  0.0462 -0.1699
 8287SOL    HW136320   3.340   2.125  10.326  0.9391  0.1276 -0.1300
 8287SOL    HW236321   3.253   2.181  10.227 -0.3714 -0.1050  1.8843
 8288SOL     OW36322   0.517   3.555  15.695  0.2106  0.6098  0.2331
 8288SOL    HW136323   0.540   3.585  15.783 -1.6968 -0.8570  1.2234
 8288SOL    HW236324   0.527   3.460  15.699 -3.3120  0.1271 -2.2605
 8289SOL     OW36325   3.871   0.564   4.410 -0.3759 -0.4393 -0.0703
 8289SOL    HW136326   3.834   0.538   4.326 -1.8799  0.8617  0.1845
 8289SOL    HW236327   3.798   0.554   4.472  3.1363  0.7801  4.2768
 8290SOL     OW36328   3.025   3.461   8.196  0.6187 -0.1834  0.0438
 8290SOL    HW136329   2.939   3.485   8.231  1.8693  1.5572  1.9653
 8290SOL    HW236330   3.076   3.440   8.275  0.2007 -0.6527  0.1939
 8291SOL     OW36331   3.182   4.330   3.002 -0.8558 -0.1336  0.0322
 8291SOL    HW136332   3.195   4.423   3.023  0.3177 -0.5466  1.0940
 8291SOL    HW236333   3.268   4.291   2.987 -0.9359 -0.7271  1.1125
 8292SOL     OW36334   2.915   1.086   2.426 -0.1346 -0.2913 -0.1598
 8292SOL    HW136335   2.982   1.153   2.412 -0.7560  0.4442  0.3946
 8292SOL    HW236336   2.927   1.042   2.342  1.2350  2.2522 -1.3016
 8293SOL     OW36337   1.139   1.853   6.256  0.3909  0.0178 -0.4740
 8293SOL    HW136338   1.181   1.861   6.170  0.2569  0.6760 -0.4811
 8293SOL    HW236339   1.048   1.858   6.224  0.1294 -1.3669  0.0732
 8294SOL     OW36340   1.149   1.496   8.449  0.3724 -0.7722  0.1897
 8294SOL    HW136341   1.212   1.550   8.499 -0.8974  0.1118  0.8325
 8294SOL    HW236342   1.064   1.519   8.487 -1.2647 -2.0580 -2.7537
 8295SOL     OW36343   3.070   3.953   7.100  0.2427 -0.2127  0.4900
 8295SOL    HW136344   3.007   3.973   7.170  0.4868 -0.9130  0.9086
 8295SOL    HW236345   3.029   3.999   7.027  1.6283 -0.4314 -0.4127
 8296SOL     OW36346   4.236   3.846   5.654 -0.2036 -0.3800 -0.2421
 8296SOL    HW136347   4.192   3.855   5.570  1.9566  2.6349 -1.0376
 8296SOL    HW236348   4.265   3.936   5.667  0.9083 -0.6735 -0.6223
 8297SOL     OW36349   3.005   2.204  11.182  0.4667 -0.1399  0.0713
 8297SOL    HW136350   3.076   2.263  11.210  0.9801 -0.7131 -0.0200
 8297SOL    HW236351   2.941   2.273  11.200 -0.9354 -1.6606  0.8973
 8298SOL     OW36352   2.491   2.171   0.171  0.5892 -0.3280  0.9204
 8298SOL    HW136353   2.573   2.128   0.147  1.1585  1.2155  0.0906
 8298SOL    HW236354   2.431   2.108   0.131  0.4285  0.2947  0.1986
 8299SOL     OW36355   3.230   3.871  10.501 -0.0814 -0.3687  0.0104
 8299SOL    HW136356   3.303   3.841  10.447 -1.2799 -1.2974 -1.0967
 8299SOL    HW236357   3.198   3.793  10.546 -1.1269  0.9961  1.6648
 8300SOL     OW36358   2.485   2.689  17.115 -0.0436  0.2014 -0.1076
 8300SOL    HW136359   2.461   2.608  17.159 -3.0320  1.4946  0.6301
 8300SOL    HW236360   2.516   2.741  17.189 -2.5206  1.9633 -0.3109
 8301SOL     OW36361   3.749   2.587  15.851  0.3808  0.2066  0.4159
 8301SOL    HW136362   3.826   2.642  15.838  0.4961  0.3057  1.4760
 8301SOL    HW236363   3.683   2.636  15.901  0.2309  1.2518 -0.8143
 8302SOL     OW36364   0.743   0.375   5.618 -0.6878 -0.1423 -0.0317
 8302SOL    HW136365   0.761   0.361   5.525  1.4173 -3.3345  0.8372
 8302SOL    HW236366   0.717   0.467   5.627  0.6388  0.1289  1.0616
 8303SOL     OW36367   4.242   1.029   6.274  0.0824  0.7085  0.7612
 8303SOL    HW136368   4.225   0.956   6.333 -0.9354 -1.0975 -1.7471
 8303SOL    HW236369   4.308   0.983   6.221  1.4482  1.5158  1.7774
 8304SOL     OW36370   1.888   2.399   9.124  0.5918 -0.2688  0.1838
 8304SOL    HW136371   1.875   2.494   9.115 -0.6606 -0.3861  0.8597
 8304SOL    HW236372   1.937   2.416   9.204 -2.7876 -0.5296  2.2549
 8305SOL     OW36373   4.213   3.161  10.516  0.3704 -0.5566 -0.6858
 8305SOL    HW136374   4.169   3.179  10.433 -0.1722  0.1531 -0.2540
 8305SOL    HW236375   4.135   3.133  10.564  1.0857  0.2228  0.9349
 8306SOL     OW36376   1.969   0.195   8.419  0.0676 -0.6765 -0.4200
 8306SOL    HW136377   1.911   0.121   8.404 -1.9181  0.7213  0.3168
 8306SOL    HW236378   2.056   0.158   8.404 -0.0388 -0.7172 -0.9179
 8307SOL     OW36379   4.649   2.809   9.012 -0.2520  0.0073  0.1944
 8307SOL    HW136380   4.715   2.864   8.969 -2.2071  0.8512 -1.7302
 8307SOL    HW236381   4.644   2.858   9.094 -0.9453  0.4586 -0.1106
 8308SOL     OW36382   1.626   4.679  14.211 -0.5209  0.6485  0.1870
 8308SOL    HW136383   1.654   4.623  14.139  0.4642 -0.1698  1.2115
 8308SOL    HW236384   1.671   0.043  14.196  2.9239 -1.0321  1.2134
 8309SOL     OW36385   1.042   2.138   7.013 -0.5128 -0.1269  0.1180
 8309SOL    HW136386   1.090   2.058   7.034 -0.4620 -0.4068 -1.0514
 8309SOL    HW236387   0.998   2.152   7.097 -0.9831  0.7009 -0.2577
 8310SOL     OW36388   1.743   1.233   1.290  0.2731 -0.2443 -0.4969
 8310SOL    HW136389   1.822   1.250   1.342 -0.6928  1.2116  0.4909
 8310SOL    HW236390   1.693   1.177   1.349 -1.2837 -0.3177 -1.9130
 8311SOL     OW36391   0.465   0.419   2.534 -0.0271  0.1459  0.3364
 8311SOL    HW136392   0.410   0.357   2.584  0.8464 -1.5061 -0.7587
 8311SOL    HW236393   0.479   0.365   2.457  1.7516 -0.1180  0.8500
 8312SOL     OW36394   1.786   2.356   8.877  0.8466  0.3621 -0.0292
 8312SOL    HW136395   1.843   2.353   8.800  0.7198 -0.4839 -0.0945
 8312SOL    HW236396   1.850   2.335   8.946  1.1369 -0.8063 -0.6543
 8313SOL     OW36397   3.419   2.475   1.329  0.3025 -0.1571  0.0436
 8313SOL    HW136398   3.391   2.542   1.391 -0.6753 -0.0277 -0.5329
 8313SOL    HW236399   3.331   2.461   1.295 -0.3204 -0.3602  1.7398
 8314SOL     OW36400   1.486   0.446   8.562  0.8493  0.5619 -0.3191
 8314SOL    HW136401   1.392   0.464   8.574  0.7268 -1.4429  1.8668
 8314SOL    HW236402   1.498   0.373   8.623 -1.1116 -1.1024 -1.9059
 8315SOL     OW36403   0.940   3.389   6.012 -0.2879  0.1813  0.5915
 8315SOL    HW136404   0.932   3.311   6.067 -2.2971  1.0620  1.5485
 8315SOL    HW236405   1.034   3.386   5.996 -0.3788  0.6222 -0.0160
 8316SOL     OW36406   2.916   1.655   7.993  0.1000 -0.4626 -0.3783
 8316SOL    HW136407   3.011   1.662   7.983 -0.0938  0.8970 -1.3315
 8316SOL    HW236408   2.905   1.629   7.902 -3.2388 -0.4640  0.0362
 8317SOL     OW36409   3.483   3.155   1.463  0.2739  0.2490  0.4026
 8317SOL    HW136410   3.517   3.159   1.374 -1.5720  0.9351 -0.2718
 8317SOL    HW236411   3.513   3.235   1.507  1.2041  1.6204 -2.7868
 8318SOL     OW36412   0.653   3.095  10.704 -0.4460 -0.0878  0.3977
 8318SOL    HW136413   0.559   3.076  10.711  0.0790 -1.6112  3.2141
 8318SOL    HW236414   0.648   3.183  10.740 -0.2816  0.4921 -0.9741
 8319SOL     OW36415   1.321   2.089   4.640  0.2759  0.0724  0.2662
 8319SOL    HW136416   1.231   2.120   4.629 -0.1475 -1.6486 -1.2123
 8319SOL    HW236417   1.309   2.009   4.690 -0.2501 -1.0416 -1.6391
 8320SOL     OW36418   1.601   4.654  12.618  0.2308  0.0300  0.6724
 8320SOL    HW136419   1.539   4.713  12.660 -0.9987 -2.0424  1.7937
 8320SOL    HW236420   1.682   4.705  12.624  0.6691 -0.4045 -1.5767
 8321SOL     OW36421   4.384   2.397   5.213  0.0521 -0.1208 -0.0261
 8321SOL    HW136422   4.340   2.420   5.131  2.5211 -2.2311 -1.9696
 8321SOL    HW236423   4.343   2.458   5.274 -0.0381  1.6515 -1.8568
 8322SOL     OW36424   1.814   1.176  13.612  0.7878  0.0899  0.5264
 8322SOL    HW136425   1.869   1.144  13.541  0.3467 -0.4719  0.4341
 8322SOL    HW236426   1.862   1.142  13.688 -1.9229 -2.0654  1.2731
 8323SOL     OW36427   4.223   2.529   1.231  0.1726  0.2869  0.3908
 8323SOL    HW136428   4.313   2.507   1.209 -0.5716 -3.9512  1.5659
 8323SOL    HW236429   4.186   2.451   1.273  2.9731 -1.7328 -0.9297
 8324SOL     OW36430   0.383   4.400  17.430  0.5106 -0.1268  0.1777
 8324SOL    HW136431   0.426   4.380  17.347  0.6206  1.1754 -0.0733
 8324SOL    HW236432   0.320   4.462  17.394  1.2748  1.4156  1.4886
 8325SOL     OW36433   0.115   0.159   4.251  0.6619 -0.3895  0.4841
 8325SOL    HW136434   0.114   0.094   4.321 -0.6238  1.2607  2.0050
 8325SOL    HW236435   0.206   0.160   4.222  0.9335  2.2035  1.3740
 8326SOL     OW36436   4.320   1.107   2.698 -0.6952  0.0430  0.0895
 8326SOL    HW136437   4.241   1.128   2.648 -1.2142  0.6509  1.1637
 8326SOL    HW236438   4.314   1.175   2.765  2.5767  0.4312 -0.0056
 8327SOL     OW36439   3.060   1.602  12.647 -0.1532 -0.2652 -0.1511
 8327SOL    HW136440   3.137   1.636  12.600 -0.0423  0.4178  0.5306
 8327SOL    HW236441   3.011   1.574  12.569 -1.8739  1.8650  0.1666
 8328SOL     OW36442   0.461   1.931  10.789  0.1493 -0.1143  0.0376
 8328SOL    HW136443   0.385   1.932  10.846 -0.4497 -1.7538 -0.7274
 8328SOL    HW236444   0.451   2.016  10.746  1.4935 -1.0178 -2.0743
 8329SOL     OW36445   3.216   2.097  11.046 -0.1691 -0.3691 -0.5439
 8329SOL    HW136446   3.269   2.059  11.116  0.4998 -1.1856 -1.4953
 8329SOL    HW236447   3.140   2.130  11.093 -1.2669 -1.2406 -1.7023
 8330SOL     OW36448   1.325   4.625   8.258  0.4898 -0.3303  0.6722
 8330SOL    HW136449   1.271   4.639   8.336 -1.7405  1.6927 -1.1965
 8330SOL    HW236450   1.412   4.652   8.289 -0.0107 -0.5526  2.2719
 8331SOL     OW36451   1.271   1.421   5.821  0.0801  0.2028 -0.2584
 8331SOL    HW136452   1.233   1.509   5.825  1.2097  0.7260 -1.0552
 8331SOL    HW236453   1.219   1.357   5.869  0.1860  1.4205  1.5194
 8332SOL     OW36454   3.384   2.131   6.103 -0.1669 -0.0017  0.3965
 8332SOL    HW136455   3.401   2.220   6.136 -0.3411  0.2844 -0.2834
 8332SOL    HW236456   3.289   2.125   6.101 -0.1683 -0.2772  1.1016
 8333SOL     OW36457   0.915   4.255   4.524  0.0357  0.5571 -0.3342
 8333SOL    HW136458   0.834   4.204   4.521 -0.9798  2.1448  0.0117
 8333SOL    HW236459   0.901   4.317   4.452  1.2921  0.2873 -0.8127
 8334SOL     OW36460   1.511   0.234   1.896 -0.1847 -0.0025  0.3211
 8334SOL    HW136461   1.474   0.319   1.871  0.5229  0.2696  0.1873
 8334SOL    HW236462   1.574   0.217   1.826 -0.5992  1.6811 -0.4490
 8335SOL     OW36463   1.203   3.465   7.287  0.0638 -0.2666 -0.3114
 8335SOL    HW136464   1.115   3.451   7.322  0.4866 -1.3626  0.3262
 8335SOL    HW236465   1.224   3.557   7.304  1.6975 -0.7497  0.3967
 8336SOL     OW36466   3.499   3.658   0.362 -0.1791 -0.6135  0.5130
 8336SOL    HW136467   3.477   3.566   0.350  1.3938 -0.8346 -0.7413
 8336SOL    HW236468   3.584   3.662   0.318 -0.1741 -1.3506  0.4541
 8337SOL     OW36469   2.300   1.935   3.000  0.8023  0.2284 -0.0313
 8337SOL    HW136470   2.343   1.860   3.041 -2.0360 -1.7248 -0.6625
 8337SOL    HW236471   2.353   1.959   2.925 -0.2308 -0.7313 -1.0585
 8338SOL     OW36472   1.982   3.284   3.910 -0.1753  0.3210 -0.1076
 8338SOL    HW136473   2.063   3.321   3.946  0.1210 -0.1507 -0.2877
 8338SOL    HW236474   1.996   3.191   3.929  0.2770  0.2604 -0.7728
 8339SOL     OW36475   0.973   3.109   1.773  0.1336 -0.0639  0.0906
 8339SOL    HW136476   1.049   3.059   1.743 -0.5025  0.4756 -2.4379
 8339SOL    HW236477   0.940   3.148   1.692 -0.0008  1.2050  0.7635
 8340SOL     OW36478   1.688   4.666   8.576  0.2827 -0.3211  0.2378
 8340SOL    HW136479   1.688   4.577   8.542 -2.2779 -1.0370  2.1145
 8340SOL    HW236480   1.778   4.668   8.609  0.0456 -0.2267  0.8844
 8341SOL     OW36481   0.224   0.293  12.564 -0.1774 -0.0901  0.9183
 8341SOL    HW136482   0.240   0.277  12.471 -1.3110  2.2691  0.3194
 8341SOL    HW236483   0.177   0.376  12.553  0.5746  0.4047  1.4157
 8342SOL     OW36484   2.698   3.762   3.285 -0.2171  0.1615  0.5820
 8342SOL    HW136485   2.616   3.809   3.300  0.1488  1.2406 -0.8322
 8342SOL    HW236486   2.684   3.679   3.331 -1.1947  0.4764  0.8408
 8343SOL     OW36487   0.681   3.440   1.700  0.1415 -0.6780  0.0418
 8343SOL    HW136488   0.600   3.474   1.663  1.1683  1.1940 -0.4640
 8343SOL    HW236489   0.746   3.481   1.643 -1.8859  0.5473 -1.3879
 8344SOL     OW36490   0.150   1.733   6.033 -0.0884  0.3356  0.1655
 8344SOL    HW136491   0.151   1.745   6.128  1.1209  1.9691 -0.0494
 8344SOL    HW236492   0.061   1.697   6.033  0.6477 -1.4309 -2.1346
 8345SOL     OW36493   0.030   1.812   9.911 -0.1722  0.2842  0.3544
 8345SOL    HW136494   0.018   1.879   9.979 -0.6986 -0.2881  0.8190
 8345SOL    HW236495   0.011   1.726   9.948  2.0732  0.8099  2.7100
 8346SOL     OW36496   0.087   4.378   6.407 -0.2538 -0.5515 -0.6971
 8346SOL    HW136497   0.169   4.347   6.370 -0.4949 -0.5084 -1.2660
 8346SOL    HW236498   0.096   4.342   6.495 -0.3780 -1.0867 -0.8971
 8347SOL     OW36499   1.917   3.993   6.572  0.1189  0.3265  0.4027
 8347SOL    HW136500   1.976   3.996   6.497 -2.6818  2.5390 -1.7319
 8347SOL    HW236501   1.871   3.912   6.553  1.1321 -0.1815  0.1577
 8348SOL     OW36502   3.203   1.938   8.152 -0.6396 -0.8321 -0.0887
 8348SOL    HW136503   3.225   1.911   8.062  2.3950 -0.9156  0.6945
 8348SOL    HW236504   3.289   1.962   8.186 -1.9838  0.4510  2.3813
 8349SOL     OW36505   0.870   2.987   4.423 -0.2007  0.1116 -0.2346
 8349SOL    HW136506   0.853   3.071   4.466  0.7297  1.1434 -1.8916
 8349SOL    HW236507   0.847   2.920   4.487 -0.5908 -1.0552 -1.5978
 8350SOL     OW36508   2.243   0.118   5.958  0.0531 -0.3681 -0.2110
 8350SOL    HW136509   2.197   0.058   6.018 -1.5499  0.6342 -0.4296
 8350SOL    HW236510   2.229   0.203   6.000  0.5074 -0.0634 -0.6819
 8351SOL     OW36511   4.003   3.827   4.681  0.0039  0.1881 -0.3392
 8351SOL    HW136512   4.079   3.816   4.738  0.3355 -1.1281 -1.0339
 8351SOL    HW236513   3.963   3.740   4.688  1.9037 -0.9708 -3.5356
 8352SOL     OW36514   4.670   4.054   5.112 -0.5960  0.0556 -0.1457
 8352SOL    HW136515   4.633   4.034   5.197  2.1826 -0.2356  1.0022
 8352SOL    HW236516   0.042   4.037   5.136 -1.4746 -0.3807  2.8206
 8353SOL     OW36517   4.393   3.553   8.884  0.0367  0.2712 -0.4046
 8353SOL    HW136518   4.416   3.645   8.870 -2.2560  0.7467 -1.1492
 8353SOL    HW236519   4.405   3.540   8.978 -1.0233  0.3447 -0.2572
 8354SOL     OW36520   4.066   0.060   1.532  0.1875  0.0551  0.0541
 8354SOL    HW136521   4.080   0.020   1.618  2.3017  3.6432  1.3787
 8354SOL    HW236522   3.984   0.104   1.552  2.0993  3.0887  1.2112
 8355SOL     OW36523   4.656   0.355   1.750  0.2471 -0.0632  0.2955
 8355SOL    HW136524   4.652   0.436   1.801  0.8659 -0.9290  1.7331
 8355SOL    HW236525   4.601   0.296   1.802 -0.6859  1.3706  0.9419
 8356SOL     OW36526   1.751   3.048   6.944  0.7933 -0.3841  0.3837
 8356SOL    HW136527   1.767   2.953   6.944  0.0322 -0.5115  0.1883
 8356SOL    HW236528   1.658   3.048   6.923  0.6294 -0.2221  1.1138
 8357SOL     OW36529   1.073   1.330  13.413  0.7180 -0.0335  0.0879
 8357SOL    HW136530   1.018   1.370  13.345 -2.0211 -1.6356  1.3547
 8357SOL    HW236531   1.012   1.281  13.468 -0.1319  1.9208  0.8658
 8358SOL     OW36532   0.396   2.904   3.411  0.1064 -0.2198  0.1663
 8358SOL    HW136533   0.405   2.928   3.319 -0.1821  1.0078  0.4649
 8358SOL    HW236534   0.327   2.839   3.403  1.2387 -1.0822 -2.5439
 8359SOL     OW36535   2.093   0.588   5.967  0.3360  0.0272  0.2391
 8359SOL    HW136536   2.148   0.662   5.994 -0.8694  0.2906  1.9380
 8359SOL    HW236537   2.034   0.633   5.906  0.7684  0.0807 -0.1417
 8360SOL     OW36538   2.470   3.463   8.039  0.2258  0.4803 -0.5949
 8360SOL    HW136539   2.562   3.487   8.028  0.0948  0.9760 -0.6281
 8360SOL    HW236540   2.440   3.554   8.050  4.1863  1.6674  0.6955
 8361SOL     OW36541   2.541   2.308   6.589 -0.1061  0.2147  0.1970
 8361SOL    HW136542   2.575   2.331   6.503 -0.5968 -2.3083 -0.6492
 8361SOL    HW236543   2.480   2.381   6.598  0.0721  0.2926  0.8268
 8362SOL     OW36544   1.204   0.836   8.185 -0.2274 -0.1514  0.4563
 8362SOL    HW136545   1.163   0.893   8.121  1.8084  1.8816  0.9381
 8362SOL    HW236546   1.199   0.884   8.268  2.8260 -0.3683  0.7996
 8363SOL     OW36547   0.003   1.349   8.453 -0.5679 -0.3727 -0.0212
 8363SOL    HW136548   0.068   1.416   8.429  0.2415 -1.5718 -1.1565
 8363SOL    HW236549   4.701   1.304   8.372  2.0149 -0.0719 -0.8613
 8364SOL     OW36550   1.732   0.202   4.258 -0.2620 -0.0272 -0.2523
 8364SOL    HW136551   1.797   0.147   4.300  0.0407  0.1955 -0.4240
 8364SOL    HW236552   1.658   0.142   4.264 -0.4601  0.4139  1.5612
 8365SOL     OW36553   1.452   2.089  12.255 -0.8574 -0.8625 -0.2242
 8365SOL    HW136554   1.471   2.071  12.347 -3.4442 -1.4179  0.1825
 8365SOL    HW236555   1.516   2.033  12.211  0.2592 -0.0229  0.3285
 8366SOL     OW36556   0.445   4.273  13.745  0.1565  0.1150 -0.6034
 8366SOL    HW136557   0.534   4.288  13.775  0.7661 -0.2348 -2.2278
 8366SOL    HW236558   0.449   4.186  13.704  0.7781  0.9299 -2.2547
 8367SOL     OW36559   4.420   2.656  11.141 -0.5257 -0.0701 -0.1803
 8367SOL    HW136560   4.426   2.736  11.193  1.6681 -1.8699  2.3244
 8367SOL    HW236561   4.445   2.683  11.053 -0.3551 -2.4670 -0.8699
 8368SOL     OW36562   1.998   3.339   4.833  0.6851  0.6726  0.1406
 8368SOL    HW136563   1.922   3.298   4.873  0.4439 -0.1226 -1.1297
 8368SOL    HW236564   1.994   3.430   4.862 -1.3358  0.7819 -0.5277
 8369SOL     OW36565   1.652   2.326  12.061  0.0734 -0.6844 -0.3276
 8369SOL    HW136566   1.588   2.259  12.085 -0.0688 -0.3487  0.2237
 8369SOL    HW236567   1.695   2.342  12.145 -3.4966  1.5142  1.1062
 8370SOL     OW36568   4.185   3.204   5.278 -0.5403 -0.1488 -0.4767
 8370SOL    HW136569   4.214   3.190   5.368 -3.4136 -0.1389  0.4423
 8370SOL    HW236570   4.210   3.295   5.263 -1.0173 -0.0490 -0.6746
 8371SOL     OW36571   1.157   2.306   4.119  1.0582  0.3197  0.1792
 8371SOL    HW136572   1.080   2.260   4.086  2.6221 -1.2875 -1.1826
 8371SOL    HW236573   1.121   2.394   4.132 -0.7021 -0.2741 -0.6011
 8372SOL     OW36574   2.098   1.188   1.754 -0.3958 -0.8864 -0.2940
 8372SOL    HW136575   2.179   1.203   1.802 -0.1397  3.1610 -1.9989
 8372SOL    HW236576   2.106   1.252   1.683 -1.6319 -0.7901 -0.3347
 8373SOL     OW36577   1.575   4.652   5.715 -0.3742  0.1344  0.8876
 8373SOL    HW136578   1.601   0.024   5.704 -0.0987  0.1392  1.5917
 8373SOL    HW236579   1.609   4.609   5.636 -0.2063  0.9539  0.5209
 8374SOL     OW36580   2.313   4.615   7.558 -0.7596  0.4701  0.4587
 8374SOL    HW136581   2.384   4.577   7.507 -0.4404  0.2200  1.0885
 8374SOL    HW236582   2.243   4.625   7.493  0.6200 -0.8540 -1.2473
 8375SOL     OW36583   4.712   3.223   3.107 -0.0742  0.1590 -0.4623
 8375SOL    HW136584   4.622   3.253   3.122 -0.3827 -0.6512 -0.7417
 8375SOL    HW236585   4.719   3.244   3.014  0.2426  0.7272 -0.3145
 8376SOL     OW36586   2.738   3.734   5.215  0.2115  0.0981  0.5300
 8376SOL    HW136587   2.645   3.754   5.215  0.4276  1.0798 -0.3431
 8376SOL    HW236588   2.754   3.699   5.127  1.7596 -0.3153  0.9685
 8377SOL     OW36589   3.312   1.548  13.102 -0.0218 -1.1078  0.0438
 8377SOL    HW136590   3.253   1.598  13.046  0.8749 -0.4799 -0.3514
 8377SOL    HW236591   3.341   1.481  13.040  1.1474 -0.1276 -0.4896
 8378SOL     OW36592   0.365   1.036   5.998 -0.4300 -0.4921 -0.2170
 8378SOL    HW136593   0.306   1.109   5.977  0.7477  1.0945  2.0371
 8378SOL    HW236594   0.321   0.958   5.966 -0.8357 -0.2771 -0.1821
 8379SOL     OW36595   4.005   4.340   6.143  0.5602 -0.1394 -0.0971
 8379SOL    HW136596   3.961   4.380   6.218  0.0371  0.0155 -0.4862
 8379SOL    HW236597   4.018   4.418   6.090  0.7401  0.0502  0.2235
 8380SOL     OW36598   0.856   0.420  11.473 -0.7674 -0.2344 -0.2282
 8380SOL    HW136599   0.871   0.328  11.495  1.5751  0.6173  1.8310
 8380SOL    HW236600   0.771   0.422  11.516 -2.0442 -2.7714 -2.6233
 8381SOL     OW36601   0.703   0.158  11.089  0.1791 -0.6737  0.5730
 8381SOL    HW136602   0.737   0.143  11.001 -3.1978 -0.0681 -0.8207
 8381SOL    HW236603   0.778   0.160  11.148  0.3338  1.9576  0.2833
 8382SOL     OW36604   0.089   0.946   6.078  0.2030 -0.4303 -0.2222
 8382SOL    HW136605   0.103   0.893   6.156 -0.2896 -0.6841 -0.3094
 8382SOL    HW236606   0.082   1.036   6.109  2.1495 -0.4882  0.3882
 8383SOL     OW36607   3.822   4.447   7.963 -0.1865  0.2350  0.6333
 8383SOL    HW136608   3.754   4.406   8.017 -2.4691  2.9924 -0.1141
 8383SOL    HW236609   3.827   4.395   7.882 -0.8418  1.1578 -0.0075
 8384SOL     OW36610   2.682   2.626   5.511 -0.2105 -0.1962  0.2345
 8384SOL    HW136611   2.614   2.645   5.576  0.2696  0.0444  0.6639
 8384SOL    HW236612   2.739   2.700   5.531  0.2425 -0.1218 -1.3430
 8385SOL     OW36613   4.688   0.027   8.755 -0.3002  0.4649  0.1396
 8385SOL    HW136614   4.635   4.696   8.816  1.0433 -2.5862 -1.2139
 8385SOL    HW236615   0.029   0.059   8.822 -1.1378  0.5796  0.8394
 8386SOL     OW36616   4.215   1.839   2.115 -0.2065 -0.1793 -0.0008
 8386SOL    HW136617   4.230   1.933   2.121 -0.1718 -0.1610 -0.3932
 8386SOL    HW236618   4.301   1.810   2.085  0.6475 -1.2666  3.5009
 8387SOL     OW36619   0.874   0.951   4.783 -0.6015 -0.5297  0.1188
 8387SOL    HW136620   0.790   0.908   4.772 -0.9452 -0.3001  1.9236
 8387SOL    HW236621   0.838   1.033   4.818 -1.1501 -0.4952 -0.5338
 8388SOL     OW36622   3.759   3.297   4.354  0.2481  0.4518 -0.2047
 8388SOL    HW136623   3.722   3.291   4.442  2.9596  0.9358  0.9871
 8388SOL    HW236624   3.695   3.251   4.299 -0.2311  1.3015 -0.3499
 8389SOL     OW36625   2.295   4.073   2.009 -0.3533  0.4376  0.0034
 8389SOL    HW136626   2.221   4.013   2.006  2.0805 -2.4842 -1.5178
 8389SOL    HW236627   2.350   4.032   1.943 -2.5234 -1.5175 -0.6013
 8390SOL     OW36628   3.502   1.430   6.157  0.3128  0.1704 -0.3833
 8390SOL    HW136629   3.494   1.525   6.169 -1.5454 -0.1664  1.0027
 8390SOL    HW236630   3.564   1.430   6.083 -0.7802 -0.0179 -1.3024
 8391SOL     OW36631   0.044   1.409  12.246 -0.7486 -0.6286 -0.0456
 8391SOL    HW136632   0.060   1.338  12.308 -0.6833 -0.3762  0.2266
 8391SOL    HW236633   0.042   1.485  12.304  2.3613  0.3043 -1.1291
 8392SOL     OW36634   4.648   0.763  14.924 -0.1460 -0.2554 -0.1429
 8392SOL    HW136635   4.630   0.854  14.948 -0.2682 -0.0587 -0.9740
 8392SOL    HW236636   0.005   0.770  14.866 -0.9759  0.2348 -1.1762
 8393SOL     OW36637   1.144   0.077   6.477  0.1645  0.4679  0.6151
 8393SOL    HW136638   1.157   0.142   6.409 -4.5090 -0.9825 -1.6563
 8393SOL    HW236639   1.085   0.122   6.537 -1.3595  0.7220 -1.0931
 8394SOL     OW36640   0.325   0.171  10.263  0.0040  0.4705  0.4339
 8394SOL    HW136641   0.343   0.186  10.170 -0.1548 -1.0294  0.1517
 8394SOL    HW236642   0.374   0.248  10.291 -0.7108  1.4479 -1.0113
 8395SOL     OW36643   3.372   4.610  11.825 -0.3079 -0.7714 -0.1419
 8395SOL    HW136644   3.440   4.576  11.883  1.1701  1.4226 -0.6229
 8395SOL    HW236645   3.313   4.534  11.830 -0.5362 -0.6073 -0.4010
 8396SOL     OW36646   1.807   1.312   8.295  0.0867 -0.0855  0.0736
 8396SOL    HW136647   1.872   1.357   8.349 -1.4049 -0.2977  2.0358
 8396SOL    HW236648   1.822   1.220   8.314  0.3623 -0.1161 -0.2860
 8397SOL     OW36649   2.569   4.312   6.254  0.4083 -0.5119 -0.3439
 8397SOL    HW136650   2.483   4.339   6.289  0.8396 -0.5956  0.7950
 8397SOL    HW236651   2.620   4.390   6.277 -0.9564  0.2038  0.3137
 8398SOL     OW36652   0.828   1.345   8.445  0.1524  0.6594  0.3835
 8398SOL    HW136653   0.914   1.328   8.484 -1.2404 -3.0794  1.8749
 8398SOL    HW236654   0.852   1.381   8.359 -0.1079 -0.1166 -0.0154
 8399SOL     OW36655   2.738   1.241   3.891  0.0719 -0.1866  0.4673
 8399SOL    HW136656   2.716   1.221   3.800  0.8761 -0.5141  0.3467
 8399SOL    HW236657   2.679   1.194   3.950 -1.6335  1.7046  0.2852
 8400SOL     OW36658   0.273   2.453   3.268 -0.2285  0.2424  0.0292
 8400SOL    HW136659   0.341   2.389   3.250 -0.3872  0.2527 -0.5911
 8400SOL    HW236660   0.188   2.422   3.236 -0.7219 -0.2427  1.7798
 8401SOL     OW36661   0.054   2.674   1.825  0.4403  0.1102  0.4096
 8401SOL    HW136662   0.120   2.632   1.880  1.3990 -0.2222 -0.9676
 8401SOL    HW236663   4.694   2.622   1.838 -0.1241  0.6167 -0.9227
 8402SOL     OW36664   1.424   2.046   0.275 -0.3751  0.5282 -0.7844
 8402SOL    HW136665   1.446   2.079   0.362  0.5759  1.7014 -1.4720
 8402SOL    HW236666   1.474   1.965   0.269  1.3082  1.5471 -0.4804
 8403SOL     OW36667   0.987   0.144  14.810 -0.5379  0.1719 -0.1986
 8403SOL    HW136668   0.993   0.231  14.850  1.0061 -0.4884  0.9883
 8403SOL    HW236669   0.951   0.171  14.725  1.6645  0.8626 -0.9381
 8404SOL     OW36670   2.555   0.480   9.356  0.2142  0.3888 -0.0024
 8404SOL    HW136671   2.642   0.458   9.388 -0.1459 -1.0990 -0.0513
 8404SOL    HW236672   2.567   0.575   9.362  1.0159  0.2113  1.1939
 8405SOL     OW36673   2.987   4.206   8.964 -0.0495 -0.1776 -0.0943
 8405SOL    HW136674   2.930   4.256   9.021 -0.3748  0.4099 -0.9290
 8405SOL    HW236675   3.068   4.235   9.005  0.7896  0.4268 -2.1410
 8406SOL     OW36676   2.910   3.470  10.040  0.3478 -0.4316  0.3961
 8406SOL    HW136677   2.872   3.533   9.979  0.5634  1.7371  2.5073
 8406SOL    HW236678   2.872   3.509  10.119 -3.6747  0.5315 -2.0084
 8407SOL     OW36679   3.114   2.396   1.201 -0.3066  0.3301  0.4179
 8407SOL    HW136680   3.102   2.349   1.118 -1.1812  0.7807  0.2862
 8407SOL    HW236681   3.117   2.487   1.170 -0.1622 -0.7174 -2.6345
 8408SOL     OW36682   1.507   2.538   4.809  0.2499  0.2660 -0.4564
 8408SOL    HW136683   1.544   2.510   4.893  0.7932 -0.2207 -0.8632
 8408SOL    HW236684   1.552   2.473   4.756 -0.7850  0.6233 -1.7665
 8409SOL     OW36685   0.751   2.917   9.997  0.0009  0.0519 -0.2130
 8409SOL    HW136686   0.678   2.855   9.991  0.8625 -0.8664 -1.0966
 8409SOL    HW236687   0.765   2.936   9.905 -1.5253 -1.2972 -0.7316
 8410SOL     OW36688   1.215   4.370   3.890 -0.2057  0.4368 -0.0259
 8410SOL    HW136689   1.169   4.440   3.845  0.3783  0.7781 -0.0991
 8410SOL    HW236690   1.172   4.295   3.849 -0.2826  1.0689 -1.1122
 8411SOL     OW36691   4.084   1.649   4.810 -0.0468 -0.2065 -0.4087
 8411SOL    HW136692   4.012   1.679   4.865  0.1062  0.6524 -0.6877
 8411SOL    HW236693   4.029   1.619   4.738 -1.8014 -1.6195  1.4976
 8412SOL     OW36694   2.932   4.080   1.765  0.1508 -0.8902  0.5943
 8412SOL    HW136695   2.994   4.122   1.824 -0.2359 -0.6022  0.7990
 8412SOL    HW236696   2.997   4.030   1.716 -0.4517 -0.2730 -0.8426
 8413SOL     OW36697   0.230   3.291   3.530  0.0688  0.2658  0.1660
 8413SOL    HW136698   0.321   3.320   3.530  1.6006 -4.6224 -2.4227
 8413SOL    HW236699   0.217   3.265   3.439 -0.0884  1.5526 -0.1862
 8414SOL     OW36700   3.235   1.639  12.441 -0.2959  0.1986  0.5417
 8414SOL    HW136701   3.214   1.605  12.353  0.1121 -0.7714  0.8177
 8414SOL    HW236702   3.298   1.709  12.425 -1.6425  1.0820 -0.8806
 8415SOL     OW36703   2.514   1.054  16.970 -0.3164 -0.2648 -0.6082
 8415SOL    HW136704   2.496   1.115  16.899 -1.5641 -1.6085 -1.4455
 8415SOL    HW236705   2.424   1.023  16.979  0.0111 -1.0880 -0.1425
 8416SOL     OW36706   2.113   2.709   0.656 -0.5473  0.0183 -0.2566
 8416SOL    HW136707   2.181   2.642   0.651 -1.0641 -0.4296 -1.1263
 8416SOL    HW236708   2.104   2.737   0.747 -1.8868 -1.0559 -0.0573
 8417SOL     OW36709   2.396   2.314   7.884 -0.3928  0.1757 -0.2902
 8417SOL    HW136710   2.484   2.352   7.884 -0.3267  0.0487  1.2711
 8417SOL    HW236711   2.383   2.314   7.979  0.7443  0.6567 -0.1380
 8418SOL     OW36712   3.743   1.114   3.958 -0.3077 -0.0886  0.3454
 8418SOL    HW136713   3.670   1.145   3.904 -0.1377  1.2255  0.8751
 8418SOL    HW236714   3.727   1.022   3.980  2.0185 -0.8051 -0.9405
 8419SOL     OW36715   1.381   0.497   2.674 -0.1193 -0.0685  0.4277
 8419SOL    HW136716   1.438   0.422   2.690  1.2040  0.7888 -0.2351
 8419SOL    HW236717   1.452   0.558   2.652  1.1468 -1.1400  1.5527
 8420SOL     OW36718   1.963   0.771   5.827  0.2485 -0.0032 -0.4464
 8420SOL    HW136719   1.871   0.751   5.839  0.0400  1.5664  0.6316
 8420SOL    HW236720   1.972   0.866   5.814 -1.9889  0.0107 -1.8272
 8421SOL     OW36721   2.048   0.923   0.252 -0.1340 -0.1081  0.3776
 8421SOL    HW136722   2.035   0.849   0.312 -1.4665 -0.2068 -0.0252
 8421SOL    HW236723   2.009   1.000   0.295  1.7559  0.9894  0.1075
 8422SOL     OW36724   2.314   1.042   0.336  0.3650  0.1684 -0.4500
 8422SOL    HW136725   2.264   0.960   0.330  1.0651 -0.3328  0.5981
 8422SOL    HW236726   2.247   1.101   0.300  0.6069  0.7957  0.1345
 8423SOL     OW36727   2.034   4.465  11.808 -0.5679  0.3446  0.0748
 8423SOL    HW136728   2.103   4.517  11.849 -1.9126  3.0601 -1.0905
 8423SOL    HW236729   1.950   4.512  11.801 -0.2542  0.6945 -1.5382
 8424SOL     OW36730   0.020   4.394   0.366  0.1404  0.1539  0.2020
 8424SOL    HW136731   4.697   4.332   0.425 -0.7434 -0.5372 -1.1497
 8424SOL    HW236732   0.047   4.332   0.297 -2.3481  1.3810 -1.8727
 8425SOL     OW36733   1.797   2.417   8.583  0.0250  0.3631 -0.6131
 8425SOL    HW136734   1.884   2.394   8.553  0.9737  2.0901  0.7925
 8425SOL    HW236735   1.802   2.513   8.581  1.5660  0.3147  1.0146
 8426SOL     OW36736   2.041   3.887   6.956 -0.1723  0.2344 -0.3764
 8426SOL    HW136737   2.028   3.978   6.927  0.9197  1.2576  2.3259
 8426SOL    HW236738   1.949   3.866   6.968 -0.3089  2.0048  1.7576
 8427SOL     OW36739   4.492   3.988  16.131  0.5514  0.4704 -0.0691
 8427SOL    HW136740   4.478   3.901  16.169 -0.6576  1.0724  0.8760
 8427SOL    HW236741   4.555   4.023  16.194  0.4947  2.5974 -1.1853
 8428SOL     OW36742   3.286   4.047   2.044 -0.1758  0.3633 -0.5148
 8428SOL    HW136743   3.274   4.140   2.026 -0.5305  0.2196 -1.0336
 8428SOL    HW236744   3.234   4.009   1.972  0.0344 -0.3943 -0.2682
 8429SOL     OW36745   1.091   2.625  14.400 -0.3781  0.0581 -0.5599
 8429SOL    HW136746   1.155   2.565  14.439 -3.2200 -0.3751  3.3804
 8429SOL    HW236747   1.021   2.560  14.388 -0.9118  0.4466  0.5242
 8430SOL     OW36748   4.295   0.413   2.014  0.1098 -0.4572  0.0065
 8430SOL    HW136749   4.366   0.350   2.004 -0.3701 -0.7823 -1.3490
 8430SOL    HW236750   4.334   0.500   2.020  0.7697 -0.8114  0.7591
 8431SOL     OW36751   4.037   1.142   7.455  0.1284 -0.2765 -0.1537
 8431SOL    HW136752   3.980   1.123   7.381  0.3101 -2.3130  0.2357
 8431SOL    HW236753   4.105   1.178   7.398 -0.5267  1.7842  0.3482
 8432SOL     OW36754   2.990   3.644   5.333  0.8998 -0.0106 -0.3773
 8432SOL    HW136755   2.927   3.682   5.271  0.2590 -0.6348 -0.1210
 8432SOL    HW236756   3.068   3.670   5.285  1.1606  0.4852  0.3151
 8433SOL     OW36757   4.103   0.879   0.686  0.1342 -0.5613 -0.3825
 8433SOL    HW136758   4.061   0.911   0.607  1.1802 -0.3316 -0.8444
 8433SOL    HW236759   4.026   0.872   0.742 -0.3622 -0.8199 -1.0996
 8434SOL     OW36760   4.253   4.376  15.783 -0.0414  0.5224  0.3897
 8434SOL    HW136761   4.293   4.428  15.714 -0.9540 -0.0790 -0.5924
 8434SOL    HW236762   4.162   4.406  15.783 -0.2370 -0.0657 -5.2902
 8435SOL     OW36763   3.190   2.444   4.782 -0.5280  0.6264  0.3710
 8435SOL    HW136764   3.153   2.399   4.707  2.3017 -1.3103  0.1560
 8435SOL    HW236765   3.111   2.476   4.826 -0.9721 -0.9523  0.6976
 8436SOL     OW36766   0.800   2.841   2.882 -0.0442 -0.7578  0.3875
 8436SOL    HW136767   0.893   2.823   2.896  0.3826  1.2586  0.1005
 8436SOL    HW236768   0.764   2.813   2.967  1.9658  0.9854  1.8262
 8437SOL     OW36769   0.100   1.414   1.488  0.0530 -0.6565 -0.2618
 8437SOL    HW136770   0.063   1.498   1.461 -0.2438 -1.2067 -1.5870
 8437SOL    HW236771   0.036   1.403   1.558 -2.1793  0.8501 -2.0654
 8438SOL     OW36772   3.845   2.003   7.273  0.5365  0.3754 -0.0514
 8438SOL    HW136773   3.773   2.046   7.320 -0.2229 -0.2510 -0.6471
 8438SOL    HW236774   3.800   1.920   7.259  0.6363  0.5242 -1.2739
 8439SOL     OW36775   2.218   1.209  10.798  0.4484  0.1713 -0.3077
 8439SOL    HW136776   2.215   1.288  10.743  0.8411  0.6159  0.3268
 8439SOL    HW236777   2.274   1.153  10.745 -0.2657 -1.3999  0.6204
 8440SOL     OW36778   0.172   4.080   3.359  0.0609 -0.7664  0.2416
 8440SOL    HW136779   0.202   4.003   3.311 -0.6239 -0.4330 -0.7120
 8440SOL    HW236780   0.211   4.149   3.304 -0.7481  0.2938  0.9970
 8441SOL     OW36781   1.688   2.036   5.288 -0.6966  0.2018  0.2737
 8441SOL    HW136782   1.613   2.088   5.261 -0.3422  0.2686 -0.5742
 8441SOL    HW236783   1.650   1.949   5.298 -1.0572  0.6184  2.6473
 8442SOL     OW36784   1.023   1.633   0.422 -0.2113 -0.3074 -0.2682
 8442SOL    HW136785   0.979   1.561   0.468  2.2771 -0.1343  2.4153
 8442SOL    HW236786   1.058   1.675   0.500  0.0771  0.3373 -0.7471
 8443SOL     OW36787   3.069   3.157   0.806  0.4042  0.7224  0.4515
 8443SOL    HW136788   2.987   3.178   0.762  1.6205  2.2288 -1.0668
 8443SOL    HW236789   3.032   3.143   0.893 -0.4666  2.3985  0.3490
 8444SOL     OW36790   0.236   1.775   9.178 -0.1498  0.3204 -0.3380
 8444SOL    HW136791   0.278   1.800   9.260  2.2288 -4.5367 -0.0380
 8444SOL    HW236792   0.303   1.775   9.109 -1.8726  0.6852 -1.9984
 8445SOL     OW36793   3.590   0.584   5.465 -0.1241  0.1475 -0.1426
 8445SOL    HW136794   3.665   0.642   5.479 -1.0368  1.0337  1.0631
 8445SOL    HW236795   3.596   0.588   5.370  1.2466  1.6390 -0.0045
 8446SOL     OW36796   3.080   3.083  12.910 -0.7892  0.0235  0.5848
 8446SOL    HW136797   3.157   3.089  12.853 -1.3138 -2.7027 -0.4174
 8446SOL    HW236798   3.109   3.024  12.980  0.1377 -0.0925  0.1059
 8447SOL     OW36799   3.598   1.813   8.448  0.3981 -0.2417  0.3387
 8447SOL    HW136800   3.672   1.831   8.390  2.6433 -1.4423  2.8509
 8447SOL    HW236801   3.617   1.726   8.482 -0.8494 -0.8409 -0.5251
 8448SOL     OW36802   2.682   2.432   7.901  0.1433 -0.2538  0.0825
 8448SOL    HW136803   2.641   2.497   7.958 -0.3390 -0.8509  0.4103
 8448SOL    HW236804   2.759   2.401   7.949 -0.6357 -0.7251  1.0460
 8449SOL     OW36805   3.925   2.426   5.898 -0.2131 -0.0447 -0.6636
 8449SOL    HW136806   3.891   2.482   5.829 -0.4875 -0.4532 -0.8603
 8449SOL    HW236807   3.920   2.493   5.967  0.6922 -0.6750  0.0148
 8450SOL     OW36808   2.966   3.939  15.890 -0.5766 -0.6950 -0.0700
 8450SOL    HW136809   3.001   3.921  15.803  1.8884 -0.8455  0.9652
 8450SOL    HW236810   2.874   3.914  15.878 -0.6605 -0.6196  0.3855
 8451SOL     OW36811   4.501   3.106   6.616  0.2309  0.8701  0.4645
 8451SOL    HW136812   4.553   3.167   6.668  3.2696 -1.1085 -0.2758
 8451SOL    HW236813   4.477   3.043   6.683  0.4718  0.7879  0.4745
 8452SOL     OW36814   2.219   4.428  12.976 -0.1933 -0.5885 -0.3233
 8452SOL    HW136815   2.214   4.490  13.049  0.7287 -0.1111 -0.6609
 8452SOL    HW236816   2.145   4.369  12.988 -2.4237  2.5192  1.1460
 8453SOL     OW36817   3.752   1.261   3.657 -0.3223 -0.3826  0.0580
 8453SOL    HW136818   3.704   1.183   3.633 -0.0191 -1.0992  1.7745
 8453SOL    HW236819   3.779   1.290   3.570  0.1043 -3.1734 -0.7258
 8454SOL     OW36820   3.368   1.792  12.828  0.2891 -0.1750 -0.4641
 8454SOL    HW136821   3.280   1.765  12.853  0.5816 -1.2842 -0.6384
 8454SOL    HW236822   3.345   1.864  12.768  0.4641 -0.0758 -0.4119
 8455SOL     OW36823   0.562   2.176  16.645 -0.0497 -0.4742 -0.1830
 8455SOL    HW136824   0.540   2.186  16.552  1.7833 -3.7724 -0.9800
 8455SOL    HW236825   0.651   2.143  16.636  0.6613  1.4568 -0.2103
 8456SOL     OW36826   0.327   3.666   3.316  0.5419 -0.2729  0.0415
 8456SOL    HW136827   0.322   3.753   3.275  0.6802  0.1529  0.9409
 8456SOL    HW236828   0.235   3.640   3.325  0.8978 -1.0463  1.3540
 8457SOL     OW36829   2.044   3.391   2.086 -0.1616  0.1262  0.6472
 8457SOL    HW136830   2.112   3.429   2.142 -1.1140  3.0317 -0.1977
 8457SOL    HW236831   2.090   3.394   2.002 -1.9203 -0.6838 -0.3349
 8458SOL     OW36832   4.334   3.207  12.250 -0.2069  0.3155 -0.2643
 8458SOL    HW136833   4.354   3.119  12.280  1.3720  0.4358 -0.9869
 8458SOL    HW236834   4.385   3.206  12.169  2.1177  0.9718  1.1783
 8459SOL     OW36835   0.679   4.247   0.173  0.5001  1.2533 -0.1265
 8459SOL    HW136836   0.747   4.268   0.109  2.2572  1.9134  1.9592
 8459SOL    HW236837   0.690   4.153   0.180 -0.5345  1.0592 -1.1480
 8460SOL     OW36838   0.752   0.482  16.297 -0.2184 -0.0423 -0.2593
 8460SOL    HW136839   0.696   0.405  16.285 -0.3631 -0.6206  4.3723
 8460SOL    HW236840   0.738   0.521  16.210  0.4531  1.2915  0.2363
 8461SOL     OW36841   1.623   3.596   3.441  0.6390 -0.0295 -0.9402
 8461SOL    HW136842   1.560   3.635   3.381 -0.0825 -4.5156 -3.0952
 8461SOL    HW236843   1.565   3.577   3.516  1.1955  0.4022 -0.3963
 8462SOL     OW36844   3.851   3.509   2.940  0.6144  0.6811  0.0712
 8462SOL    HW136845   3.937   3.550   2.937  0.6988  0.3966 -1.5132
 8462SOL    HW236846   3.859   3.439   2.875 -1.9103 -0.5741  1.1240
 8463SOL     OW36847   3.011   0.128  11.324 -0.0504 -0.5457  0.3730
 8463SOL    HW136848   2.959   0.062  11.278  1.1723 -0.8664 -0.5679
 8463SOL    HW236849   3.090   0.077  11.340 -0.6534 -2.1521 -1.7558
 8464SOL     OW36850   1.090   2.894  15.625  0.2041 -0.3096 -0.4521
 8464SOL    HW136851   0.996   2.898  15.638  0.6327  1.6230  1.9602
 8464SOL    HW236852   1.100   2.948  15.547 -2.2293  0.5615 -0.1425
 8465SOL     OW36853   3.515   3.188   4.310 -0.5353  0.0247 -0.3438
 8465SOL    HW136854   3.425   3.211   4.333 -0.3445  1.5504 -1.0583
 8465SOL    HW236855   3.489   3.116   4.253 -1.2185  0.5009 -0.6363
 8466SOL     OW36856   3.933   2.774   2.196 -0.4801  0.1145 -0.1130
 8466SOL    HW136857   3.936   2.869   2.206  0.6475  0.1477 -0.8077
 8466SOL    HW236858   3.910   2.765   2.103 -0.3870 -0.1656 -0.1062
 8467SOL     OW36859   0.295   3.146   4.075 -0.1072 -0.1979  0.1049
 8467SOL    HW136860   0.385   3.166   4.052  0.1888  1.4848  2.7201
 8467SOL    HW236861   0.312   3.103   4.159 -1.0477  0.6723  0.7457
 8468SOL     OW36862   1.775   2.213   2.469  0.4589 -0.1654  0.1792
 8468SOL    HW136863   1.825   2.148   2.420  0.7625  0.6659 -0.6180
 8468SOL    HW236864   1.736   2.265   2.398 -1.6877 -1.9370  0.0766
 8469SOL     OW36865   1.351   2.186   4.298 -0.2215 -0.1126  0.3481
 8469SOL    HW136866   1.290   2.230   4.239 -1.4312 -1.3133  0.7000
 8469SOL    HW236867   1.322   2.211   4.385  0.3856 -4.0310  1.6654
 8470SOL     OW36868   1.758   1.533  17.114 -0.0186  0.8853 -0.1501
 8470SOL    HW136869   1.695   1.605  17.102 -1.8857 -0.5520  1.0152
 8470SOL    HW236870   1.723   1.496  17.195  0.1296 -0.5560 -0.7442
 8471SOL     OW36871   2.055   3.384   2.534  0.5590 -0.3734 -0.0837
 8471SOL    HW136872   2.040   3.341   2.618 -0.4004 -0.9919 -0.5696
 8471SOL    HW236873   2.033   3.319   2.467  1.0581  0.2689 -0.8725
 8472SOL     OW36874   3.462   0.665  12.843  0.0525  0.1000  0.3361
 8472SOL    HW136875   3.462   0.760  12.856 -0.9920 -0.0820  1.7832
 8472SOL    HW236876   3.369   0.648  12.860 -0.0462  0.7606  0.4644
 8473SOL     OW36877   0.066   0.743   7.276  0.7077  0.1412 -0.2454
 8473SOL    HW136878   0.108   0.772   7.358  0.1664 -0.5029  0.2626
 8473SOL    HW236879   0.065   0.831   7.240  1.4069 -0.4762 -1.7532
 8474SOL     OW36880   1.007   3.252   3.864 -0.4383  0.0902 -0.1120
 8474SOL    HW136881   1.062   3.180   3.835  1.7335 -0.1542  4.5962
 8474SOL    HW236882   1.016   3.320   3.797  0.9042 -1.1023 -1.1387
 8475SOL     OW36883   0.274   1.022   9.962 -0.2684 -0.5836  0.2873
 8475SOL    HW136884   0.302   0.933   9.984  2.6599  0.1966 -0.3003
 8475SOL    HW236885   0.357   1.055   9.927 -0.7254 -1.8932 -2.0853
 8476SOL     OW36886   0.291   2.741   2.066 -0.0686 -0.2012 -0.2931
 8476SOL    HW136887   0.340   2.814   2.027 -0.0109 -0.5120 -0.8042
 8476SOL    HW236888   0.338   2.730   2.149 -0.6909  2.1546  0.3954
 8477SOL     OW36889   2.005   1.553   8.465 -0.0773 -0.1680 -0.0784
 8477SOL    HW136890   2.064   1.569   8.538  2.3035 -0.2364 -1.9956
 8477SOL    HW236891   2.072   1.556   8.397 -0.6278 -0.6586 -0.6475
 8478SOL     OW36892   3.089   0.738   5.883  0.4747 -0.2397 -0.3622
 8478SOL    HW136893   3.027   0.743   5.956  0.6876 -1.2446 -0.1033
 8478SOL    HW236894   3.024   0.745   5.813 -0.6331 -2.8273  0.3866
 8479SOL     OW36895   0.213   1.920   6.681  0.8024 -0.4113 -0.4543
 8479SOL    HW136896   0.152   1.846   6.670 -1.6355  1.1430  2.7491
 8479SOL    HW236897   0.185   1.962   6.600  2.0508  2.6933  0.7461
 8480SOL     OW36898   1.041   1.450  11.242 -0.3427  0.6495 -0.0718
 8480SOL    HW136899   1.050   1.405  11.158  1.5414 -1.1824  1.0984
 8480SOL    HW236900   0.945   1.455  11.244 -0.4830 -1.8369  0.0807
 8481SOL     OW36901   0.336   2.850   8.265 -0.0431  0.3324  0.1950
 8481SOL    HW136902   0.241   2.860   8.277 -0.4024 -1.1184 -1.3684
 8481SOL    HW236903   0.362   2.823   8.353  0.3915  0.4139  0.0910
 8482SOL     OW36904   3.525   3.730   8.758  0.0664 -0.0341 -0.0720
 8482SOL    HW136905   3.602   3.709   8.811 -0.0865 -1.0067 -0.2349
 8482SOL    HW236906   3.556   3.804   8.707 -0.7586 -0.8255 -1.7381
 8483SOL     OW36907   3.659   2.725   7.375  0.0503 -0.6882  0.2504
 8483SOL    HW136908   3.714   2.762   7.443 -0.7889  1.9870 -0.5142
 8483SOL    HW236909   3.630   2.806   7.333 -0.9575 -0.5709  1.1874
 8484SOL     OW36910   3.871   4.341   9.145  0.3323  0.3079  0.0605
 8484SOL    HW136911   3.936   4.404   9.178  1.0580  0.4391 -1.6561
 8484SOL    HW236912   3.919   4.265   9.112  0.5800  0.2357  0.5847
 8485SOL     OW36913   2.459   1.594   7.229  0.1406 -0.2213  0.0888
 8485SOL    HW136914   2.395   1.653   7.189  1.0152  1.5447  1.2979
 8485SOL    HW236915   2.435   1.591   7.321 -0.9450  0.0409 -0.1802
 8486SOL     OW36916   3.444   3.652   7.325  0.3099  0.3315 -0.2419
 8486SOL    HW136917   3.362   3.605   7.314 -0.5623  2.2747 -2.0111
 8486SOL    HW236918   3.404   3.737   7.307  0.9743  0.5401 -0.7363
 8487SOL     OW36919   2.818   2.562   8.502  0.2755  0.4826 -0.1572
 8487SOL    HW136920   2.791   2.470   8.496  1.5537 -0.0516  2.4303
 8487SOL    HW236921   2.738   2.601   8.538 -0.4269  0.8141 -2.0826
 8488SOL     OW36922   0.808   1.867   7.600 -0.6405  0.0744  0.2779
 8488SOL    HW136923   0.887   1.813   7.596 -1.2578 -0.8406  0.5046
 8488SOL    HW236924   0.779   1.864   7.509  1.0101  1.1479 -0.2923
 8489SOL     OW36925   1.548   1.308   4.505 -0.0716  0.2462 -0.4892
 8489SOL    HW136926   1.488   1.368   4.548 -1.2055 -1.5493  0.4458
 8489SOL    HW236927   1.552   1.229   4.560 -1.3015 -0.6379 -1.6614
 8490SOL     OW36928   4.237   0.373   7.401  0.2204 -0.1126 -0.1582
 8490SOL    HW136929   4.249   0.315   7.477 -1.5571 -1.7472 -1.1200
 8490SOL    HW236930   4.295   0.444   7.429  0.5991  0.0522 -1.3905
 8491SOL     OW36931   0.101   2.855   7.944 -0.0307 -0.5103 -0.6472
 8491SOL    HW136932   0.182   2.820   7.907  0.9961  0.7732  0.4077
 8491SOL    HW236933   0.062   2.900   7.869 -1.0467  0.1877  0.3094
 8492SOL     OW36934   4.182   1.385  15.735 -0.2565  0.2128  0.2262
 8492SOL    HW136935   4.157   1.300  15.698  2.7184 -0.0609 -1.1444
 8492SOL    HW236936   4.275   1.403  15.725 -0.4508  1.0644  0.0119
 8493SOL     OW36937   0.865   1.906   5.308  0.5156 -0.2088  0.8030
 8493SOL    HW136938   0.795   1.963   5.341  0.3337  1.0776 -1.8122
 8493SOL    HW236939   0.854   1.813   5.327  2.5564 -0.7360 -0.5370
 8494SOL     OW36940   1.233   4.689   1.146 -0.0481  0.1287 -0.0393
 8494SOL    HW136941   1.172   0.024   1.096 -1.2540 -0.7319  0.4806
 8494SOL    HW236942   1.315   0.018   1.148 -1.3251  2.3386 -1.3808
 8495SOL     OW36943   2.967   4.249  12.034  0.2902  0.0292  0.3675
 8495SOL    HW136944   2.903   4.321  12.043 -0.6306 -0.5085 -1.8948
 8495SOL    HW236945   2.909   4.179  12.062 -0.5889  0.9758  0.9384
 8496SOL     OW36946   3.185   0.723   3.415  0.5992 -0.0655  0.2040
 8496SOL    HW136947   3.164   0.811   3.384 -1.2835 -0.5400  0.1186
 8496SOL    HW236948   3.274   0.717   3.381  0.0650 -1.0276 -1.0515
 8497SOL     OW36949   4.643   0.986  10.204  0.5374 -0.1766 -0.2246
 8497SOL    HW136950   4.558   0.948  10.229  1.2688 -1.1756  0.7207
 8497SOL    HW236951   4.634   1.063  10.260  2.1470  0.8415 -1.3631
 8498SOL     OW36952   0.610   0.723   5.880 -0.5476  0.4058  0.1635
 8498SOL    HW136953   0.607   0.642   5.930  1.2304 -1.0963 -2.1893
 8498SOL    HW236954   0.621   0.694   5.789 -1.0734  0.2562  0.1482
 8499SOL     OW36955   3.640   0.803   5.803  0.3886  0.2043 -0.1373
 8499SOL    HW136956   3.595   0.721   5.785  0.2481  0.1482  0.4756
 8499SOL    HW236957   3.689   0.778   5.881  0.5119 -2.0502 -0.9321
 8500SOL     OW36958   0.662   1.588  17.571  0.1476 -0.1107 -0.4136
 8500SOL    HW136959   0.650   1.614  17.479  1.2290  0.6629 -0.3457
 8500SOL    HW236960   0.757   1.576  17.568  0.2609  0.5869  0.2940
 8501SOL     OW36961   0.006   1.062   9.964 -0.7680 -0.4570 -0.2203
 8501SOL    HW136962   0.102   1.054   9.961 -0.4047  3.5524  0.5763
 8501SOL    HW236963   4.706   1.020  10.047  1.1441 -0.2698  0.3317
 8502SOL     OW36964   1.380   0.161  16.402  0.2932  0.6092  0.2193
 8502SOL    HW136965   1.305   0.106  16.378  1.1414 -0.3624 -0.1960
 8502SOL    HW236966   1.337   0.218  16.465 -0.9744  0.6589 -0.6871
 8503SOL     OW36967   1.813   1.825   7.508  0.0680 -0.4130  0.0462
 8503SOL    HW136968   1.827   1.917   7.485  1.2350  0.1726  3.1596
 8503SOL    HW236969   1.882   1.776   7.463  0.3672  1.1702 -1.2164
 8504SOL     OW36970   2.308   4.405   4.762 -0.0635  0.1743 -0.0223
 8504SOL    HW136971   2.361   4.484   4.748 -0.1361  0.0154 -1.1590
 8504SOL    HW236972   2.233   4.445   4.806 -0.4310 -2.6677  1.9245
 8505SOL     OW36973   1.508   0.678   8.697 -0.1336 -0.3250 -0.4158
 8505SOL    HW136974   1.443   0.661   8.766  0.5593 -1.7150 -0.1007
 8505SOL    HW236975   1.513   0.589   8.664  0.4373  0.0076 -1.2142
 8506SOL     OW36976   1.173   4.659   4.146 -0.0043 -0.2758 -0.1452
 8506SOL    HW136977   1.092   4.704   4.124  0.0179  0.0176  0.3711
 8506SOL    HW236978   1.229   4.689   4.074 -1.2664  0.1862 -0.9339
 8507SOL     OW36979   2.366   0.844   3.437 -0.0114  0.1584 -0.0520
 8507SOL    HW136980   2.456   0.843   3.470  1.2859  0.8272 -3.5847
 8507SOL    HW236981   2.312   0.825   3.514  0.7095 -0.2173  0.3603
 8508SOL     OW36982   2.575   3.753  11.279  0.3465  0.1405  0.6502
 8508SOL    HW136983   2.634   3.707  11.219  1.1999 -0.3763  1.8856
 8508SOL    HW236984   2.594   3.838  11.239 -2.6816 -0.5014 -2.1540
 8509SOL     OW36985   3.426   4.038   8.746 -0.5872  1.1072 -0.3647
 8509SOL    HW136986   3.374   4.027   8.826 -1.2868  2.7073 -0.6043
 8509SOL    HW236987   3.500   4.092   8.774  0.5939 -0.4502 -0.5045
 8510SOL     OW36988   0.977   1.688  13.514 -0.0574  1.0057  0.2821
 8510SOL    HW136989   0.978   1.664  13.607 -1.0205  0.9314  0.2789
 8510SOL    HW236990   1.065   1.724  13.503  0.2448 -0.1767 -1.1503
 8511SOL     OW36991   1.155   3.038   6.448  0.2357  0.2551  0.4253
 8511SOL    HW136992   1.208   3.019   6.371  0.7884 -1.6737  1.2926
 8511SOL    HW236993   1.216   3.029   6.521 -2.6466 -0.0866  2.7929
 8512SOL     OW36994   4.504   0.366  10.353 -0.1497 -0.8525  0.3187
 8512SOL    HW136995   4.483   0.344  10.444 -0.4821  0.4358  0.5573
 8512SOL    HW236996   4.450   0.444  10.338  1.3033  0.4042  1.6345
 8513SOL     OW36997   3.170   4.271   4.531 -0.4731 -0.3506  0.3330
 8513SOL    HW136998   3.151   4.326   4.455  0.8280  0.6822  0.7582
 8513SOL    HW236999   3.196   4.339   4.593  0.7465 -0.0131 -0.5272
 8514SOL     OW37000   0.011   1.903  11.300 -0.4034  0.3587 -0.6202
 8514SOL    HW137001   4.666   1.851  11.349 -2.2507  2.3983 -0.8733
 8514SOL    HW237002   4.700   1.994  11.298  0.0914  0.5524  1.1957
 8515SOL     OW37003   0.961   4.453   4.130  0.8096 -0.0246 -0.3207
 8515SOL    HW137004   1.013   4.533   4.123 -0.4710  0.6062 -2.5607
 8515SOL    HW237005   0.887   4.493   4.176  0.6039 -1.7265  0.8363
 8516SOL     OW37006   1.900   0.937  10.081  0.2196 -0.5824 -0.2183
 8516SOL    HW137007   1.837   0.994  10.037 -2.1756 -2.6393  0.5872
 8516SOL    HW237008   1.942   0.898  10.004  0.5105  0.7465 -0.7373
 8517SOL     OW37009   0.743   3.434  13.623 -0.1620 -0.3256  0.3749
 8517SOL    HW137010   0.779   3.523  13.624 -2.1334  0.4583  0.4715
 8517SOL    HW237011   0.774   3.392  13.704  2.3076  0.0574 -0.3852
 8518SOL     OW37012   2.103   4.253   1.883  0.3912 -0.4188  0.1927
 8518SOL    HW137013   2.137   4.217   1.964 -1.7055 -0.4640  1.0633
 8518SOL    HW237014   2.024   4.202   1.863  0.3616 -0.2295 -0.1682
 8519SOL     OW37015   0.010   4.473   4.712  0.0058 -0.3632 -0.6249
 8519SOL    HW137016   0.095   4.504   4.681  0.2407  0.4149  0.7714
 8519SOL    HW237017   4.688   4.559   4.707 -1.0407 -0.7730  0.7119
 8520SOL     OW37018   1.800   1.243   2.847  0.2118 -0.1927 -0.1957
 8520SOL    HW137019   1.765   1.294   2.920 -2.1009 -0.1264 -1.3529
 8520SOL    HW237020   1.773   1.298   2.773  1.4208 -1.2951 -1.4617
 8521SOL     OW37021   1.826   0.676   3.991  0.0682  0.2836  0.5513
 8521SOL    HW137022   1.843   0.596   3.941 -2.3754 -0.3748  0.7560
 8521SOL    HW237023   1.837   0.629   4.074  0.4422  0.1102  0.4009
 8522SOL     OW37024   3.883   1.704   8.044  0.6523 -0.1159 -0.0121
 8522SOL    HW137025   3.852   1.638   7.983 -0.8541 -0.0877  0.7059
 8522SOL    HW237026   3.966   1.720   8.001  2.2266  0.6479  3.2601
 8523SOL     OW37027   0.741   1.502   5.784 -0.5977 -0.3773 -0.4728
 8523SOL    HW137028   0.790   1.568   5.833 -2.2984 -0.0811  0.8267
 8523SOL    HW237029   0.676   1.489   5.853 -1.3864 -0.7476 -1.2789
 8524SOL     OW37030   1.517   1.652   3.431  0.2433  0.3049  0.3429
 8524SOL    HW137031   1.463   1.578   3.405  0.4835  0.9881 -2.0887
 8524SOL    HW237032   1.460   1.728   3.417  3.2211  2.4041 -0.4464
 8525SOL     OW37033   3.968   1.329   7.652  0.1098  0.3356 -0.0222
 8525SOL    HW137034   3.954   1.265   7.722 -0.8800  1.0042  0.3968
 8525SOL    HW237035   3.967   1.271   7.576  1.1203  0.7287 -0.3293
 8526SOL     OW37036   1.281   1.784  14.267 -0.2285 -0.0215  0.0814
 8526SOL    HW137037   1.301   1.690  14.265  0.9150  0.2276  0.2001
 8526SOL    HW237038   1.352   1.840  14.296 -0.4396  0.0566  0.4476
 8527SOL     OW37039   2.572   4.121   3.676  0.2821  0.4663  0.3028
 8527SOL    HW137040   2.610   4.089   3.594 -1.6841  1.0089 -0.8261
 8527SOL    HW237041   2.596   4.214   3.677  0.9735  0.2939 -0.1203
 8528SOL     OW37042   4.149   2.848  16.016 -0.1850 -0.0984 -0.2445
 8528SOL    HW137043   4.205   2.912  15.972 -1.8496  0.2115 -1.8913
 8528SOL    HW237044   4.086   2.909  16.053 -1.0387 -2.7595  2.7892
 8529SOL     OW37045   2.213   2.495   3.359  0.2090 -0.2397 -0.1862
 8529SOL    HW137046   2.141   2.556   3.376  2.4269  2.3620 -0.2298
 8529SOL    HW237047   2.177   2.411   3.387 -2.0834  0.2694 -1.6319
 8530SOL     OW37048   3.614   1.637   9.396 -0.5813  0.2854 -0.3402
 8530SOL    HW137049   3.627   1.560   9.341 -0.8284  1.4885 -2.1001
 8530SOL    HW237050   3.626   1.705   9.330  0.2780 -1.2697 -1.7867
 8531SOL     OW37051   3.168   1.503  11.406 -0.0023 -0.1940  0.2042
 8531SOL    HW137052   3.235   1.531  11.468  1.2789 -0.3235 -1.1125
 8531SOL    HW237053   3.088   1.542  11.441  1.3101  2.4688  0.2469
 8532SOL     OW37054   0.373   2.121   3.720  0.3183  0.2228 -0.6817
 8532SOL    HW137055   0.388   2.198   3.774  2.6363  0.8819 -2.2420
 8532SOL    HW237056   0.299   2.144   3.664 -2.0321  1.0671  2.8364
 8533SOL     OW37057   3.171   4.527  16.769 -0.2936  0.2985  0.1427
 8533SOL    HW137058   3.078   4.511  16.754 -0.2834  0.2821  0.0983
 8533SOL    HW237059   3.198   4.448  16.723 -1.4345 -0.2656  0.4436
 8534SOL     OW37060   4.562   0.499   1.525 -0.1785  0.2523 -0.2478
 8534SOL    HW137061   4.648   0.511   1.564  1.1111 -3.2338 -2.0036
 8534SOL    HW237062   4.492   0.545   1.571 -0.1053  0.2353 -0.1218
 8535SOL     OW37063   1.540   3.962   5.494 -0.3518  0.2452  0.2082
 8535SOL    HW137064   1.530   3.922   5.408  1.7934  0.2412 -0.0516
 8535SOL    HW237065   1.635   3.960   5.505  0.0216  1.1053 -2.7588
 8536SOL     OW37066   0.414   0.442   3.058 -0.1199 -0.1442 -0.0629
 8536SOL    HW137067   0.393   0.513   3.119  0.9552  0.4304 -0.3657
 8536SOL    HW237068   0.496   0.470   3.018  0.6273  0.1000  1.6712
 8537SOL     OW37069   4.438   4.222   5.511 -0.2217  0.0274  0.2687
 8537SOL    HW137070   4.382   4.157   5.554 -0.1214  0.2560  0.7470
 8537SOL    HW237071   4.381   4.298   5.522 -1.2434 -0.7324  0.2363
 8538SOL     OW37072   2.096   2.172   7.322  0.0100 -0.0496  0.5136
 8538SOL    HW137073   2.165   2.157   7.257 -0.4940 -0.7713  0.1403
 8538SOL    HW237074   2.096   2.268   7.323 -0.7818 -0.0357 -1.2022
 8539SOL     OW37075   2.106   3.476  11.491  0.2177 -0.2044  0.1006
 8539SOL    HW137076   2.123   3.493  11.584 -0.4056  0.7353  0.0378
 8539SOL    HW237077   2.125   3.561  11.452  0.8010 -0.5281 -0.3031
 8540SOL     OW37078   0.854   0.011   8.189 -0.4374  0.7009  0.1546
 8540SOL    HW137079   0.896   0.021   8.274 -1.2531 -3.7609  1.0523
 8540SOL    HW237080   0.926   4.694   8.138 -0.3610 -2.2852  2.4436
 8541SOL     OW37081   0.872   1.686   4.126 -0.5316 -0.1016 -0.1020
 8541SOL    HW137082   0.931   1.701   4.051 -0.4322  1.4061  0.2876
 8541SOL    HW237083   0.843   1.601   4.092  2.0133 -1.7241  1.7304
 8542SOL     OW37084   2.996   0.236   4.930 -0.7408 -0.3969  0.0417
 8542SOL    HW137085   3.064   0.179   4.897 -0.0407  3.0395 -4.3936
 8542SOL    HW237086   3.030   0.322   4.904  0.5746 -0.8237  0.3654
 8543SOL     OW37087   1.651   2.821   1.646  0.4017  0.3180  0.8328
 8543SOL    HW137088   1.637   2.728   1.630 -1.4948 -0.2229  5.8233
 8543SOL    HW237089   1.638   2.842   1.738  1.1276  3.6457  0.2011
 8544SOL     OW37090   3.249   3.091  10.174 -0.3776 -0.5638 -0.2782
 8544SOL    HW137091   3.229   3.007  10.215  2.0432 -0.6226  0.8044
 8544SOL    HW237092   3.165   3.124  10.142 -0.0415  0.3275 -0.2311
 8545SOL     OW37093   1.351   0.383  17.284  0.0546  0.8323  0.1071
 8545SOL    HW137094   1.436   0.338  17.290  1.3363  3.2083 -0.3013
 8545SOL    HW237095   1.303   0.313  17.328 -1.6581  3.2241  2.0346
 8546SOL     OW37096   2.944   0.871  13.065  0.1718  0.4253 -0.1772
 8546SOL    HW137097   2.909   0.960  13.052  0.6814  0.9046  1.7346
 8546SOL    HW237098   3.036   0.895  13.077  0.6147 -1.2581 -0.2843
 8547SOL     OW37099   3.826   3.933   9.080 -0.1573 -0.8642  0.8764
 8547SOL    HW137100   3.892   3.900   9.141  0.5226 -2.8962 -0.9322
 8547SOL    HW237101   3.783   4.000   9.132  0.5154  1.6557 -1.8289
 8548SOL     OW37102   2.392   3.125   7.734 -0.0157 -0.2543  0.3120
 8548SOL    HW137103   2.472   3.168   7.704 -0.2954  1.1155  1.5177
 8548SOL    HW237104   2.349   3.159   7.656  4.0017  3.2263 -0.3859
 8549SOL     OW37105   0.625   2.466   5.993  0.4309  0.5673  0.1439
 8549SOL    HW137106   0.593   2.388   6.039  0.6844  1.9505  2.6637
 8549SOL    HW237107   0.589   2.539   6.044 -2.2256  0.0723 -1.0635
 8550SOL     OW37108   2.370   0.847  16.678  0.5649 -0.5633 -0.5093
 8550SOL    HW137109   2.306   0.855  16.748  0.0974 -1.0035 -0.8918
 8550SOL    HW237110   2.337   0.913  16.617  2.5808  1.5217  0.6589
 8551SOL     OW37111   1.924   1.649   8.052  0.0467  0.0088 -0.2713
 8551SOL    HW137112   1.945   1.697   8.132 -0.7581  0.1002 -0.1165
 8551SOL    HW237113   1.925   1.722   7.991 -2.8537 -0.3786 -0.7718
 8552SOL     OW37114   3.098   0.733   8.927 -1.0155  0.8800 -0.5349
 8552SOL    HW137115   3.183   0.774   8.945 -0.1474 -0.5013 -1.5017
 8552SOL    HW237116   3.105   0.704   8.836  0.4425  0.3197 -0.2433
 8553SOL     OW37117   2.056   1.485   2.859 -0.3394  0.2290  0.3776
 8553SOL    HW137118   1.976   1.489   2.808  1.0043  0.4608 -1.7175
 8553SOL    HW237119   2.050   1.568   2.906 -2.3544  0.0784  0.3595
 8554SOL     OW37120   4.343   2.667   2.383 -0.2154  0.5896 -0.7368
 8554SOL    HW137121   4.322   2.641   2.293  0.7066  1.4769 -1.2149
 8554SOL    HW237122   4.260   2.659   2.431  0.7241 -0.1086  0.7524
 8555SOL     OW37123   3.598   3.358   9.583  0.2210  0.2206 -0.1267
 8555SOL    HW137124   3.683   3.315   9.571 -0.6099 -0.7396 -2.5109
 8555SOL    HW237125   3.619   3.451   9.584  1.0742  0.0257  0.8931
 8556SOL     OW37126   2.828   0.946   5.907  0.5908 -0.2740  0.2794
 8556SOL    HW137127   2.833   0.883   5.978  1.2584 -0.7417 -0.1890
 8556SOL    HW237128   2.837   1.030   5.952 -3.2806 -0.3303  1.1647
 8557SOL     OW37129   1.813   0.111   2.743  0.2519  0.0149  0.3046
 8557SOL    HW137130   1.812   0.016   2.761 -2.0311  0.3786  2.1681
 8557SOL    HW237131   1.788   0.109   2.651  0.3842  1.2021  0.2542
 8558SOL     OW37132   2.812   4.658   6.994 -0.1450  0.3238 -0.0093
 8558SOL    HW137133   2.883   4.616   7.043  0.6673  2.5983  0.7498
 8558SOL    HW237134   2.745   4.590   6.985  1.0814 -0.8297 -0.3041
 8559SOL     OW37135   2.720   4.657  17.553 -0.5325 -0.5693  0.1544
 8559SOL    HW137136   2.724   4.645  17.458 -3.0829 -1.8857  0.2204
 8559SOL    HW237137   2.752   4.571  17.579  3.5565  0.0267 -2.9516
 8560SOL     OW37138   1.219   3.349   4.951  0.1263  0.4918  0.0193
 8560SOL    HW137139   1.252   3.303   4.874 -0.5818  0.9128 -0.5320
 8560SOL    HW237140   1.141   3.299   4.977 -0.6359  1.0912 -1.1594
 8561SOL     OW37141   1.505   4.585   2.692 -0.0187 -0.0705  0.2630
 8561SOL    HW137142   1.433   4.534   2.654  0.5796  1.7448 -3.2550
 8561SOL    HW237143   1.493   4.665   2.641 -0.4295  0.5034  1.2774
 8562SOL     OW37144   3.685   3.362   2.585  0.4875  0.0232 -0.1040
 8562SOL    HW137145   3.645   3.307   2.651  1.6986  0.4171  0.9492
 8562SOL    HW237146   3.607   3.417   2.571  1.1350  0.6790 -1.1436
 8563SOL     OW37147   3.710   3.948   4.853  0.2828  0.3076 -0.3595
 8563SOL    HW137148   3.795   3.910   4.832  0.0767  0.0985 -0.8237
 8563SOL    HW237149   3.693   3.985   4.767  2.1032  0.7047 -0.5410
 8564SOL     OW37150   1.347   2.035   2.754 -0.0601 -0.7175  0.0822
 8564SOL    HW137151   1.430   2.050   2.708 -0.5508  1.0968 -0.2383
 8564SOL    HW237152   1.331   2.123   2.789 -1.1960 -1.1521  0.6615
 8565SOL     OW37153   0.567   0.033   7.590 -0.0302 -0.3552  0.1485
 8565SOL    HW137154   0.558   0.061   7.681  0.0600  0.9079 -0.2397
 8565SOL    HW237155   0.504   0.085   7.540 -1.5927 -1.9598  0.4361
 8566SOL     OW37156   2.196   3.925  13.896 -0.8057  0.4817  0.3115
 8566SOL    HW137157   2.287   3.944  13.873 -1.4226  0.8927 -1.7269
 8566SOL    HW237158   2.186   3.830  13.889 -1.5040  0.5514  0.4208
 8567SOL     OW37159   2.952   1.679  12.166 -0.0911  0.5907  0.1049
 8567SOL    HW137160   3.040   1.714  12.151  0.8600 -1.3305  1.2442
 8567SOL    HW237161   2.896   1.718  12.098 -1.0517 -0.8655  0.0539
 8568SOL     OW37162   1.582   2.195   5.979  0.5280  0.3655  0.1072
 8568SOL    HW137163   1.555   2.157   5.895 -1.6375  0.5741  0.6937
 8568SOL    HW237164   1.597   2.286   5.952 -2.6230  1.0953  0.8138
 8569SOL     OW37165   1.944   1.637   7.021 -0.4095 -0.1900 -0.2213
 8569SOL    HW137166   1.852   1.662   7.026 -0.2395  0.7685 -1.9933
 8569SOL    HW237167   1.981   1.720   7.052  2.4737 -1.6674  0.3599
 8570SOL     OW37168   2.721   4.584  16.338  0.1553  0.4896  0.3097
 8570SOL    HW137169   2.728   4.591  16.243 -1.8615 -0.6574  0.0941
 8570SOL    HW237170   2.810   4.606  16.367  0.3752 -1.7366  1.2810
 8571SOL     OW37171   2.338   2.696   3.683  0.1761  0.9218 -0.0015
 8571SOL    HW137172   2.325   2.781   3.724 -2.6877 -0.6137  2.2375
 8571SOL    HW237173   2.255   2.682   3.638 -1.0634 -0.7466  2.8030
 8572SOL     OW37174   1.933   3.097   0.073 -0.0846 -0.0720 -0.6409
 8572SOL    HW137175   1.858   3.044   0.098  0.3217 -0.5725 -0.4730
 8572SOL    HW237176   2.001   3.030   0.068 -1.2760 -1.2765 -0.4247
 8573SOL     OW37177   1.783   3.886   6.971  0.1540  0.6222  0.1998
 8573SOL    HW137178   1.738   3.936   7.039 -3.2290 -0.5826 -1.1458
 8573SOL    HW237179   1.725   3.887   6.895  0.4916 -0.2832 -0.0704
 8574SOL     OW37180   3.440   3.337   6.886  0.4003  0.1306  0.1056
 8574SOL    HW137181   3.488   3.299   6.960 -1.2837  0.7712  1.5320
 8574SOL    HW237182   3.449   3.432   6.892  2.2450  0.0678 -1.6534
 8575SOL     OW37183   1.647   2.583   2.992 -0.1461 -0.1516  0.1790
 8575SOL    HW137184   1.604   2.501   2.970  1.6867 -0.6296 -1.5738
 8575SOL    HW237185   1.736   2.550   2.983  0.2747  0.8838  0.4656
 8576SOL     OW37186   3.641   1.176   9.493 -0.1298 -0.0055 -0.1495
 8576SOL    HW137187   3.700   1.208   9.425  0.8656 -0.5145  0.4748
 8576SOL    HW237188   3.685   1.214   9.570 -0.3557  0.0162 -0.0320
 8577SOL     OW37189   3.334   0.333   8.583  0.2181 -0.2232 -0.1359
 8577SOL    HW137190   3.300   0.263   8.526 -1.0723  1.1035 -0.9950
 8577SOL    HW237191   3.376   0.390   8.518  0.4156  1.1196  1.1912
 8578SOL     OW37192   1.285   1.186  13.484  0.0689 -0.6589 -0.0148
 8578SOL    HW137193   1.254   1.109  13.436 -0.4270  0.6237 -1.7402
 8578SOL    HW237194   1.218   1.252  13.468  1.9940  1.0194 -1.2727
 8579SOL     OW37195   4.229   1.404   5.339  0.6262  0.4610 -0.4011
 8579SOL    HW137196   4.251   1.495   5.319 -0.3633  0.6232 -0.7615
 8579SOL    HW237197   4.183   1.376   5.260 -3.1965 -1.2887  2.4300
 8580SOL     OW37198   3.052   0.622   9.293 -0.3043  0.1048 -0.3296
 8580SOL    HW137199   3.101   0.551   9.250  1.5059  2.1018 -1.5493
 8580SOL    HW237200   3.126   0.669   9.330  0.4654 -0.4934 -1.1053
 8581SOL     OW37201   0.071   0.790  17.609 -0.1671  0.1031  0.1516
 8581SOL    HW137202   0.021   0.840  17.545 -1.2587 -0.0390  0.8939
 8581SOL    HW237203   0.050   0.846   0.004  0.1614  2.3267 -1.4448
 8582SOL     OW37204   4.117   3.741   8.873  0.3156  0.4572  0.4349
 8582SOL    HW137205   4.119   3.749   8.968 -0.0872 -2.4344  0.6914
 8582SOL    HW237206   4.178   3.669   8.856 -0.6861 -0.2609 -0.1654
 8583SOL     OW37207   3.783   2.064   4.015  1.2108  0.0069 -0.5553
 8583SOL    HW137208   3.785   2.024   3.928 -0.7294 -2.7385  0.6602
 8583SOL    HW237209   3.727   2.140   3.999  1.1306  1.0128  4.4536
 8584SOL     OW37210   3.831   1.722   2.233 -0.3457  0.2200 -0.5608
 8584SOL    HW137211   3.815   1.710   2.327  1.7171 -1.7694 -0.4457
 8584SOL    HW237212   3.882   1.804   2.232  2.2394 -1.3500  0.2791
 8585SOL     OW37213   1.333   1.286  10.291 -1.2723  0.3772 -0.7666
 8585SOL    HW137214   1.338   1.380  10.308  1.1584  0.3214 -1.0951
 8585SOL    HW237215   1.311   1.282  10.198  1.0654  0.5933 -1.3510
 8586SOL     OW37216   2.375   0.206   2.999  0.7406 -0.2272 -0.2141
 8586SOL    HW137217   2.355   0.265   2.926  0.8674  2.4624  1.8813
 8586SOL    HW237218   2.286   0.197   3.032  0.2829  1.9403 -0.8201
 8587SOL     OW37219   1.879   0.327  16.316  0.0608 -0.0019 -0.1710
 8587SOL    HW137220   1.864   0.253  16.376  0.2715 -0.6478 -0.9098
 8587SOL    HW237221   1.861   0.405  16.368 -1.1602 -0.5316  0.2069
 8588SOL     OW37222   3.200   4.505   4.665  0.3685 -0.1756  0.0807
 8588SOL    HW137223   3.110   4.500   4.697  1.0329 -2.8209  1.4752
 8588SOL    HW237224   3.251   4.521   4.745 -1.2798  1.3417  0.8437
 8589SOL     OW37225   0.585   3.754   2.529  0.2351  1.2183 -0.5671
 8589SOL    HW137226   0.545   3.722   2.448 -1.0138 -3.4145  1.8793
 8589SOL    HW237227   0.571   3.681   2.589  1.2250  1.2254 -0.3290
 8590SOL     OW37228   2.803   4.362  15.347  0.0888  0.3554  0.6021
 8590SOL    HW137229   2.842   4.432  15.399  1.3364 -0.4172  0.6902
 8590SOL    HW237230   2.719   4.405  15.331  0.8051  1.9335  1.0518
 8591SOL     OW37231   1.532   1.048   2.326 -0.3585 -0.4261 -0.6243
 8591SOL    HW137232   1.515   1.127   2.376  1.5042  0.3058 -1.1292
 8591SOL    HW237233   1.443   1.016   2.341 -0.1481 -0.5786  0.3386
 8592SOL     OW37234   1.217   3.884   5.053  0.6535 -0.0755  0.3295
 8592SOL    HW137235   1.227   3.850   4.964  1.7864  0.0753  0.3955
 8592SOL    HW237236   1.151   3.824   5.086 -1.5645  1.3008 -1.6413
 8593SOL     OW37237   1.398   3.921   2.483 -0.1456  0.1193 -0.1379
 8593SOL    HW137238   1.432   4.010   2.474 -0.3525  0.2442  0.3125
 8593SOL    HW237239   1.307   3.947   2.490  0.8061  3.4634 -0.4852
 8594SOL     OW37240   1.777   4.194   3.037 -0.2926 -0.2850 -0.2850
 8594SOL    HW137241   1.710   4.248   2.995 -0.7574  1.2158  2.3503
 8594SOL    HW237242   1.801   4.128   2.973 -1.1539 -0.3409 -0.5474
 8595SOL     OW37243   1.756   4.211   6.939  0.2846  0.1728 -0.4398
 8595SOL    HW137244   1.683   4.230   6.880 -0.7858 -0.3594  0.7233
 8595SOL    HW237245   1.745   4.278   7.006  1.2484  1.1922 -1.2950
 8596SOL     OW37246   0.446   1.167   2.414  0.2496 -0.2725  0.3966
 8596SOL    HW137247   0.362   1.202   2.446  0.2961  1.6118 -1.5466
 8596SOL    HW237248   0.414   1.090   2.368  1.5636 -0.5930  0.0232
 8597SOL     OW37249   0.387   3.742   4.608 -0.1491  0.4653 -0.3041
 8597SOL    HW137250   0.323   3.670   4.605 -0.8001  0.9196  2.1428
 8597SOL    HW237251   0.375   3.777   4.696 -0.0124 -0.0535 -0.0776
 8598SOL     OW37252   3.517   2.299  16.915 -0.4126  0.0755 -0.2349
 8598SOL    HW137253   3.492   2.233  16.979 -1.7045  0.9930  0.1975
 8598SOL    HW237254   3.609   2.288  16.888 -1.0305 -0.4948 -2.1362
 8599SOL     OW37255   4.571   1.216   5.134 -0.5053  0.5568  0.3351
 8599SOL    HW137256   4.621   1.218   5.215  1.1583 -1.4351 -0.6585
 8599SOL    HW237257   4.586   1.306   5.104  0.7038  0.0683 -0.5386
 8600SOL     OW37258   1.284   4.596   5.468 -0.4179 -0.3115 -0.0932
 8600SOL    HW137259   1.337   4.657   5.417  0.1195  1.3873  2.4637
 8600SOL    HW237260   1.344   4.523   5.489  0.7606  0.3873 -1.0238
 8601SOL     OW37261   2.056   3.433   3.299  0.2139  0.0047 -0.0997
 8601SOL    HW137262   2.118   3.475   3.358 -0.8758  0.0428  1.0258
 8601SOL    HW237263   1.971   3.443   3.342 -0.8554  0.0719 -2.2215
 8602SOL     OW37264   4.314   2.494   5.980 -0.4522 -0.0746 -0.5240
 8602SOL    HW137265   4.386   2.542   5.939  0.8392 -0.5930  1.1186
 8602SOL    HW237266   4.268   2.558   6.034  1.2751  0.5182  0.2483
 8603SOL     OW37267   4.455   0.559  14.950 -0.0745  0.1062  0.4873
 8603SOL    HW137268   4.503   0.483  14.984  2.3647  1.7857  0.7932
 8603SOL    HW237269   4.516   0.631  14.935 -2.0459  1.8705  0.8107
 8604SOL     OW37270   4.570   4.300   2.096  0.2640  0.7233 -0.1438
 8604SOL    HW137271   4.582   4.307   2.191  1.6548  2.1748 -0.4343
 8604SOL    HW237272   4.642   4.351   2.059  0.0482 -0.4044 -2.1211
 8605SOL     OW37273   1.943   0.763   2.634  0.0103 -0.0019  0.4838
 8605SOL    HW137274   1.937   0.759   2.729  0.5277  0.8496  0.5472
 8605SOL    HW237275   1.917   0.852   2.611  0.8238  0.5908  1.8885
 8606SOL     OW37276   3.551   2.298  10.743 -0.1194 -0.7542 -0.6869
 8606SOL    HW137277   3.470   2.322  10.788 -0.2749 -0.2698 -1.2414
 8606SOL    HW237278   3.524   2.210  10.714 -2.1867 -0.2119 -0.3945
 8607SOL     OW37279   2.135   4.572  10.556  0.0949 -0.0608  0.1426
 8607SOL    HW137280   2.067   4.566  10.490 -0.1612  0.7450  0.3366
 8607SOL    HW237281   2.094   4.595  10.640 -0.0474  1.8419 -0.4655
 8608SOL     OW37282   3.050   3.266  15.216  0.0080  0.4167 -0.3195
 8608SOL    HW137283   3.060   3.171  15.217  0.2229  0.4322 -1.3487
 8608SOL    HW237284   2.983   3.271  15.148 -0.9973 -0.4504  0.6204
 8609SOL     OW37285   2.263   2.523  12.346 -0.4301 -0.0945 -0.3548
 8609SOL    HW137286   2.214   2.542  12.266  0.6559 -0.1832 -1.0388
 8609SOL    HW237287   2.331   2.590  12.349  0.4869 -1.1573  2.1804
 8610SOL     OW37288   2.732   1.818  16.590 -0.6150  0.2005  0.6487
 8610SOL    HW137289   2.656   1.876  16.600 -0.5636  0.2592  0.6989
 8610SOL    HW237290   2.692   1.738  16.556 -2.5358  0.9391  1.1366
 8611SOL     OW37291   2.063   3.000  12.238 -0.1579 -0.6013  0.1781
 8611SOL    HW137292   2.004   2.958  12.175  0.6828 -0.0092 -1.0050
 8611SOL    HW237293   2.142   2.949  12.219  0.9449  0.9358  0.6312
 8612SOL     OW37294   3.961   1.835   4.429  0.1510  0.1869 -0.2108
 8612SOL    HW137295   3.987   1.758   4.379 -0.6883 -2.3848  3.2732
 8612SOL    HW237296   3.888   1.864   4.374 -0.4020 -1.7979 -0.5389
 8613SOL     OW37297   4.094   3.067   3.405  0.1355 -0.2783 -0.6079
 8613SOL    HW137298   4.132   3.060   3.493 -0.4954 -0.2562 -0.3377
 8613SOL    HW237299   4.128   3.154   3.385 -1.7538 -0.2209 -3.4669
 8614SOL     OW37300   4.217   2.715   5.307  0.0566  0.0037 -0.6055
 8614SOL    HW137301   4.206   2.788   5.367 -0.7610  0.8424 -1.7632
 8614SOL    HW237302   4.164   2.733   5.229 -1.3345 -0.3575  0.2758
 8615SOL     OW37303   3.697   2.678  13.789  0.7642  0.5666  0.1965
 8615SOL    HW137304   3.780   2.700  13.831 -0.1720 -1.0811  2.9562
 8615SOL    HW237305   3.704   2.583  13.801 -1.3695  0.3657  0.0025
 8616SOL     OW37306   2.390   3.427  10.220  0.3219  0.4264 -0.1632
 8616SOL    HW137307   2.321   3.470  10.169 -1.2620  1.8076  3.0767
 8616SOL    HW237308   2.460   3.398  10.162  0.8390 -1.8143  1.5871
 8617SOL     OW37309   4.359   2.045   2.522  0.6407 -0.5740  0.1647
 8617SOL    HW137310   4.349   1.995   2.603 -0.7142 -0.3548  0.1409
 8617SOL    HW237311   4.397   1.977   2.466 -0.5617  0.2970 -1.7309
 8618SOL     OW37312   3.009   2.034   8.532 -0.0227  0.0714 -0.1276
 8618SOL    HW137313   3.100   2.018   8.556 -0.1944  2.4112  1.9550
 8618SOL    HW237314   3.006   1.975   8.456  1.7611 -1.4307  0.9597
 8619SOL     OW37315   2.623   0.819   7.492 -0.0494  0.2180  0.0876
 8619SOL    HW137316   2.674   0.888   7.533  0.4546 -0.5317  0.7181
 8619SOL    HW237317   2.624   0.853   7.403 -1.3195 -0.3160 -0.1319
 8620SOL     OW37318   0.924   2.438   6.091  1.1084 -0.0668  0.5648
 8620SOL    HW137319   0.851   2.499   6.077 -1.5398 -3.6865 -1.6744
 8620SOL    HW237320   0.897   2.398   6.174  0.2423  2.7810  1.6607
 8621SOL     OW37321   0.439   0.142   7.851  0.3824  0.3754 -0.0060
 8621SOL    HW137322   0.344   0.140   7.846  0.3439  0.2816  0.8237
 8621SOL    HW237323   0.454   0.061   7.899 -0.5059 -0.1009 -0.5271
 8622SOL     OW37324   3.738   2.914   0.595  0.0900  0.0874 -0.3325
 8622SOL    HW137325   3.659   2.861   0.590  0.3773 -0.4415  0.5915
 8622SOL    HW237326   3.766   2.866   0.673 -1.6981  2.4947  1.8130
 8623SOL     OW37327   1.999   2.312   3.426 -0.1295 -0.0802  0.5352
 8623SOL    HW137328   1.997   2.218   3.405  1.2585 -0.5703  2.5819
 8623SOL    HW237329   2.017   2.301   3.519 -0.2840  2.3768  0.8393
 8624SOL     OW37330   3.384   1.782  10.381 -0.1246 -0.2401  0.4229
 8624SOL    HW137331   3.478   1.770  10.398  0.0068 -0.7341 -0.6603
 8624SOL    HW237332   3.360   1.711  10.322  0.5142 -0.2604  0.1813
 8625SOL     OW37333   1.926   2.113   2.266  0.0064 -0.4134  0.1327
 8625SOL    HW137334   1.979   2.186   2.298  1.0106 -1.1077  0.0411
 8625SOL    HW237335   1.939   2.125   2.171  0.8301 -0.2571  0.2613
 8626SOL     OW37336   1.471   1.438   2.846  0.0868  0.1792  0.2769
 8626SOL    HW137337   1.535   1.448   2.776 -0.3790 -2.5352 -0.5312
 8626SOL    HW237338   1.399   1.391   2.802  0.8812 -0.0640 -0.7554
 8627SOL     OW37339   0.729   1.932   6.744 -0.0628  0.0957 -0.1170
 8627SOL    HW137340   0.785   1.858   6.765  0.0275 -0.0370 -0.8229
 8627SOL    HW237341   0.687   1.898   6.664  0.7338  2.0715 -1.3646
 8628SOL     OW37342   4.224   3.612   3.400 -0.0958  0.3312 -0.1337
 8628SOL    HW137343   4.274   3.638   3.478  1.3410  1.1044 -1.3214
 8628SOL    HW237344   4.291   3.559   3.357 -1.3855 -0.3993 -1.2248
 8629SOL     OW37345   3.245   1.974   6.686  0.1055  0.5027  0.0374
 8629SOL    HW137346   3.191   1.921   6.744 -0.7983  2.0805  0.6297
 8629SOL    HW237347   3.288   2.036   6.745  0.2049  0.9079 -0.4520
 8630SOL     OW37348   2.736   1.345  12.621 -0.5496 -0.0284  0.1764
 8630SOL    HW137349   2.708   1.359  12.531  1.8595 -0.0975 -0.5888
 8630SOL    HW237350   2.649   1.350  12.660  0.3413  0.5034  2.0721
 8631SOL     OW37351   3.235   4.242   3.909  0.5980 -0.0226  0.0494
 8631SOL    HW137352   3.308   4.210   3.961 -1.2221 -1.9177  1.4425
 8631SOL    HW237353   3.208   4.163   3.861 -1.2805  1.9270 -2.1527
 8632SOL     OW37354   3.035   1.849   8.337  0.4008 -0.3141 -0.3365
 8632SOL    HW137355   3.098   1.792   8.380  0.7098 -1.2660 -2.0548
 8632SOL    HW237356   3.096   1.884   8.272  0.9088  0.7434  0.6915
 8633SOL     OW37357   4.343   2.823  10.687  0.2265 -0.4097  0.0975
 8633SOL    HW137358   4.268   2.789  10.736 -0.8010 -1.9960 -2.5743
 8633SOL    HW237359   4.369   2.893  10.747 -0.7031 -1.3698  1.6193
 8634SOL     OW37360   1.412   2.741   7.424 -0.0824 -0.5846 -0.1266
 8634SOL    HW137361   1.438   2.746   7.332  0.3952 -0.4274  0.0156
 8634SOL    HW237362   1.322   2.711   7.409 -0.0675 -0.8396  0.2764
 8635SOL     OW37363   4.283   3.127   0.644  0.0026 -0.2763 -0.1420
 8635SOL    HW137364   4.203   3.147   0.596 -0.0919 -1.6619 -0.5584
 8635SOL    HW237365   4.304   3.217   0.672 -0.4593 -0.1116 -0.3291
 8636SOL     OW37366   1.104   4.628  13.958 -0.3358 -0.0800 -0.0810
 8636SOL    HW137367   1.025   4.576  13.974 -0.3515  0.3210  1.1593
 8636SOL    HW237368   1.070   4.705  13.912 -2.7755 -1.3523 -0.4428
 8637SOL     OW37369   3.102   2.542  12.197  0.4564  0.0857  0.2310
 8637SOL    HW137370   3.185   2.497  12.183 -0.8643 -1.9338 -1.1748
 8637SOL    HW237371   3.090   2.587  12.114  0.3373  0.1676  0.2933
 8638SOL     OW37372   1.479   0.516   4.487  0.2347 -0.4473  0.1454
 8638SOL    HW137373   1.407   0.574   4.466  1.5650  0.8614 -0.8046
 8638SOL    HW237374   1.547   0.527   4.420 -1.6592  1.7159 -1.3880
 8639SOL     OW37375   1.950   3.256   4.533  0.7745 -0.2575 -0.8732
 8639SOL    HW137376   1.968   3.293   4.619  0.5023  0.2379 -1.0291
 8639SOL    HW237377   1.923   3.329   4.477 -1.9316 -0.4790  0.1214
 8640SOL     OW37378   2.447   4.321   5.331 -0.9505 -0.6644  0.1028
 8640SOL    HW137379   2.517   4.275   5.285 -0.7584  0.8826 -1.1491
 8640SOL    HW237380   2.443   4.396   5.271  0.2086 -0.8260 -0.1783
 8641SOL     OW37381   3.248   3.463   5.408  0.4476  0.0343  0.0303
 8641SOL    HW137382   3.236   3.466   5.313 -0.2459  0.8580  0.1398
 8641SOL    HW237383   3.157   3.466   5.439  0.6190 -1.6760  0.7197
 8642SOL     OW37384   3.633   3.705   8.420  0.6785 -0.1760 -0.2563
 8642SOL    HW137385   3.658   3.778   8.477 -1.6479  1.1534 -0.9001
 8642SOL    HW237386   3.645   3.745   8.333  1.3318  1.4621  0.5919
 8643SOL     OW37387   1.778   0.901   2.331 -0.3027 -0.2463 -0.4989
 8643SOL    HW137388   1.701   0.958   2.338 -0.5437 -0.5353 -0.7700
 8643SOL    HW237389   1.850   0.961   2.350 -0.5207 -0.6064  1.4355
 8644SOL     OW37390   0.114   0.439   5.521 -0.0894 -0.4867  0.1014
 8644SOL    HW137391   0.178   0.458   5.453  0.7665  0.3525  1.1319
 8644SOL    HW237392   0.164   0.371   5.565  1.4322  0.5604  0.0063
 8645SOL     OW37393   1.070   1.354  10.763  0.2480  0.1193  0.4589
 8645SOL    HW137394   1.102   1.294  10.695 -0.5294 -1.0471  1.1293
 8645SOL    HW237395   1.073   1.445  10.733 -0.5870 -0.4112 -1.2515
 8646SOL     OW37396   4.349   2.193  11.167  0.4671  0.2681 -0.1584
 8646SOL    HW137397   4.275   2.153  11.123 -0.9269  0.3547  2.1137
 8646SOL    HW237398   4.305   2.275  11.189  0.2041  0.2030 -0.4461
 8647SOL     OW37399   1.975   1.712   3.294 -0.4364  0.2580 -0.2220
 8647SOL    HW137400   1.886   1.708   3.259  0.1463 -1.2750 -1.5152
 8647SOL    HW237401   1.959   1.720   3.388 -0.3427  1.1957 -0.2888
 8648SOL     OW37402   3.101   1.882  11.880 -0.1902  0.4013  0.1140
 8648SOL    HW137403   3.016   1.916  11.905 -0.9553  0.3288 -2.3723
 8648SOL    HW237404   3.113   1.926  11.796  2.2201 -0.5403 -0.0379
 8649SOL     OW37405   2.885   1.586   5.082 -0.4968 -0.5408 -0.0774
 8649SOL    HW137406   2.966   1.536   5.072  0.5720  1.3050 -0.7569
 8649SOL    HW237407   2.884   1.583   5.178 -0.7439  0.3942 -0.0504
 8650SOL     OW37408   0.274   0.223   6.443 -0.6193  0.3098  0.3766
 8650SOL    HW137409   0.213   0.170   6.494 -1.7238 -0.1552 -1.4267
 8650SOL    HW237410   0.354   0.170   6.444  0.7325  2.4032  1.7209
 8651SOL     OW37411   0.964   2.185   9.973  0.4100 -0.1163  0.0980
 8651SOL    HW137412   1.052   2.214   9.999  0.6702 -0.7037 -0.1189
 8651SOL    HW237413   0.928   2.158  10.058  1.1636 -1.0666  0.1180
 8652SOL     OW37414   0.291   3.822   7.579  0.2107  0.4235  0.4783
 8652SOL    HW137415   0.289   3.750   7.641 -0.9162 -0.8947 -1.0962
 8652SOL    HW237416   0.264   3.776   7.500  4.5658  0.4804 -1.0356
 8653SOL     OW37417   1.801   0.791   1.867  0.0481 -0.1421 -0.2375
 8653SOL    HW137418   1.789   0.886   1.873 -0.0300  0.0055 -2.5140
 8653SOL    HW237419   1.893   0.786   1.890 -0.7838 -1.1402  2.8371
 8654SOL     OW37420   2.364   0.190   4.091 -0.6433  0.0168 -0.0419
 8654SOL    HW137421   2.446   0.197   4.042 -0.4521  1.6302  0.5123
 8654SOL    HW237422   2.407   0.191   4.176 -1.2227  2.5489  0.2213
 8655SOL     OW37423   0.272   3.515   6.759 -0.3153 -0.0838 -0.4092
 8655SOL    HW137424   0.336   3.497   6.691  1.2486  3.5338  0.0812
 8655SOL    HW237425   0.281   3.439   6.816  0.6621 -0.9976 -1.7752
 8656SOL     OW37426   0.998   1.646  10.787  0.0850  1.0186  0.1947
 8656SOL    HW137427   0.959   1.725  10.825  1.4999  0.3442  3.0377
 8656SOL    HW237428   1.092   1.658  10.770  0.2605 -1.7405 -0.8084
 8657SOL     OW37429   2.649   4.706  11.358 -0.3980 -0.0301 -0.0030
 8657SOL    HW137430   2.582   4.655  11.314  0.2518 -1.8543  1.1346
 8657SOL    HW237431   2.665   4.649  11.432  1.1486 -0.2011 -0.4795
 8658SOL     OW37432   4.340   0.111   3.181  0.4481 -0.2117  0.3939
 8658SOL    HW137433   4.350   0.021   3.212 -2.3672 -1.1151 -1.3981
 8658SOL    HW237434   4.393   0.110   3.101 -0.8754  0.2856 -0.4759
 8659SOL     OW37435   2.070   3.515   0.235  0.2326  0.3301 -0.5545
 8659SOL    HW137436   2.024   3.434   0.214  1.1750  0.5868 -3.6302
 8659SOL    HW237437   2.153   3.506   0.189  0.7617 -0.7704  0.6271
 8660SOL     OW37438   0.159   0.458   7.536  0.1620  0.1933  0.3124
 8660SOL    HW137439   0.143   0.386   7.596  0.6584 -0.3332 -0.1953
 8660SOL    HW237440   0.254   0.455   7.538  0.1360 -0.5358  0.4128
 8661SOL     OW37441   3.866   3.377   9.400  0.5948  0.3865 -0.3744
 8661SOL    HW137442   3.957   3.349   9.390  0.0451 -1.4960 -0.0331
 8661SOL    HW237443   3.835   3.299   9.445  2.0812 -0.4417 -0.7849
 8662SOL     OW37444   4.536   0.484   7.011 -0.2535  0.8332  0.0531
 8662SOL    HW137445   4.606   0.548   6.995  2.0504 -1.2521  1.8221
 8662SOL    HW237446   4.502   0.456   6.926 -1.2642  0.1652  0.6767
 8663SOL     OW37447   0.458   3.090   6.373  0.3300 -0.4590 -0.3892
 8663SOL    HW137448   0.554   3.088   6.367  0.3299 -1.4006 -0.2162
 8663SOL    HW237449   0.435   3.146   6.300  2.1674 -0.0306 -0.6463
 8664SOL     OW37450   4.440   2.981   0.163  0.2846  0.2265 -0.3825
 8664SOL    HW137451   4.362   2.928   0.176  0.9159 -0.7230 -0.4354
 8664SOL    HW237452   4.504   2.921   0.123  1.3426  0.1937  1.3815
 8665SOL     OW37453   1.407   4.340   2.894 -0.5443  0.2296 -0.1323
 8665SOL    HW137454   1.459   4.261   2.879 -0.7874  0.2271 -0.9821
 8665SOL    HW237455   1.380   4.365   2.806 -1.0409  0.3325  0.0501
 8666SOL     OW37456   2.658   1.472   5.675 -0.3497 -0.0599  0.4229
 8666SOL    HW137457   2.584   1.413   5.686 -0.3761 -0.1487 -0.2577
 8666SOL    HW237458   2.665   1.499   5.767  1.1102 -3.0677  1.1815
 8667SOL     OW37459   0.874   0.655  12.102 -0.6184  0.1823  0.5918
 8667SOL    HW137460   0.782   0.680  12.116 -1.1182 -0.3670 -1.7229
 8667SOL    HW237461   0.890   0.610  12.185  0.0230  2.5731  1.7567
 8668SOL     OW37462   2.343   2.388  15.995 -0.4339 -0.5285  0.2805
 8668SOL    HW137463   2.332   2.449  16.069  0.1630 -1.6479  1.2861
 8668SOL    HW237464   2.431   2.418  15.976 -0.3340 -0.1242  1.3940
 8669SOL     OW37465   3.595   2.341   6.732  0.3140  0.7693  0.3760
 8669SOL    HW137466   3.652   2.394   6.677 -0.3573  1.1975  0.0896
 8669SOL    HW237467   3.642   2.340   6.815  1.1416 -0.0721 -0.1010
 8670SOL     OW37468   1.334   0.950   5.534 -0.2247 -0.3398  0.0921
 8670SOL    HW137469   1.407   0.907   5.579  0.1721  0.1337 -0.1005
 8670SOL    HW237470   1.348   0.919   5.444 -1.4420 -2.2554  0.5488
 8671SOL     OW37471   0.496   4.521   1.400 -0.3216 -0.0094  0.4301
 8671SOL    HW137472   0.466   4.611   1.405 -2.2003 -0.6924  1.1486
 8671SOL    HW237473   0.425   4.473   1.442 -1.5143  1.3395 -0.0578
 8672SOL     OW37474   1.333   3.026   7.447  0.8974 -0.5362  0.3446
 8672SOL    HW137475   1.346   2.939   7.485  1.0606 -1.7753 -2.5123
 8672SOL    HW237476   1.414   3.038   7.396  1.9259 -1.0187  1.8771
 8673SOL     OW37477   3.212   3.167   3.670  0.6026  0.1132 -0.2092
 8673SOL    HW137478   3.253   3.252   3.654 -1.1912  1.2464  1.2502
 8673SOL    HW237479   3.274   3.111   3.718 -0.3806 -2.0478 -1.4477
 8674SOL     OW37480   1.513   0.080  15.407 -0.5406  0.3433  0.0543
 8674SOL    HW137481   1.444   0.018  15.432  0.7940 -0.7363  1.0756
 8674SOL    HW237482   1.574   0.020  15.365  1.2368  1.2014  1.4224
 8675SOL     OW37483   2.660   4.306   5.969 -0.0708  0.0003 -0.1108
 8675SOL    HW137484   2.587   4.271   5.919 -0.3458 -0.1548  0.3961
 8675SOL    HW237485   2.616   4.319   6.053  3.7883 -2.5427  2.2989
 8676SOL     OW37486   1.619   4.237  10.328  0.3501 -0.4896 -0.7626
 8676SOL    HW137487   1.651   4.159  10.373  0.5109 -1.3123 -2.2802
 8676SOL    HW237488   1.529   4.208  10.312  0.2810 -1.5579  1.5526
 8677SOL     OW37489   0.760   0.634  16.584  0.2045  0.5935 -0.0306
 8677SOL    HW137490   0.718   0.712  16.549  2.3633  1.2417 -1.1660
 8677SOL    HW237491   0.747   0.566  16.518  2.1141 -1.3277  1.5606
 8678SOL     OW37492   2.133   4.428   3.534 -0.0879 -0.4774  0.1683
 8678SOL    HW137493   2.185   4.395   3.460  0.4587  0.3641  0.1843
 8678SOL    HW237494   2.112   4.519   3.515  2.7242  0.1955  0.3492
 8679SOL     OW37495   4.394   2.574   7.898 -0.9097 -0.5647 -0.4420
 8679SOL    HW137496   4.455   2.541   7.964 -1.3074  2.0777  1.2495
 8679SOL    HW237497   4.345   2.643   7.942 -1.5936 -1.0872 -0.4000
 8680SOL     OW37498   3.528   1.128  16.324 -0.0645 -0.2238 -0.2002
 8680SOL    HW137499   3.590   1.061  16.353 -0.5272  0.1587  1.6582
 8680SOL    HW237500   3.559   1.203  16.374  1.7432 -0.3876 -1.0539
 8681SOL     OW37501   4.689   0.313   0.781  0.4253 -0.2828 -0.2158
 8681SOL    HW137502   4.611   0.352   0.820  0.3986 -0.1146 -0.4365
 8681SOL    HW237503   0.031   0.304   0.854 -0.9336  0.5391  1.0395
 8682SOL     OW37504   2.017   1.039   6.940 -0.0979 -0.1610 -0.0963
 8682SOL    HW137505   2.063   0.985   7.005 -0.4614 -1.0402 -0.5642
 8682SOL    HW237506   1.981   0.972   6.881 -1.8583 -0.3304  1.1605
 8683SOL     OW37507   0.414   2.692  15.692  0.2218 -0.4851 -0.2991
 8683SOL    HW137508   0.405   2.719  15.784 -0.3159 -0.3468 -0.3953
 8683SOL    HW237509   0.343   2.629  15.681 -1.2985  1.0492  0.7409
 8684SOL     OW37510   4.165   1.329   8.585 -0.3826  0.0891 -0.4141
 8684SOL    HW137511   4.229   1.300   8.649 -1.3188 -2.7730 -0.7703
 8684SOL    HW237512   4.140   1.415   8.619  1.6894  0.3262  0.5091
 8685SOL     OW37513   3.312   3.610   8.664  0.1623 -0.5969  0.1233
 8685SOL    HW137514   3.262   3.596   8.745 -2.7055  0.3945 -1.4791
 8685SOL    HW237515   3.390   3.647   8.704  0.5190 -0.9566 -0.2474
 8686SOL     OW37516   2.248   2.704   1.479  0.1958 -0.3109  0.2510
 8686SOL    HW137517   2.287   2.744   1.401 -1.6200  1.6038  0.3489
 8686SOL    HW237518   2.165   2.751   1.474  1.2233  1.1608 -2.8460
 8687SOL     OW37519   0.547   1.319  11.353  0.2688 -0.4267  0.1255
 8687SOL    HW137520   0.498   1.376  11.411  0.6850  1.1513 -1.0769
 8687SOL    HW237521   0.474   1.279  11.305  0.8801 -0.2432 -0.9469
 8688SOL     OW37522   0.890   3.230  13.358  0.0208  0.4085  0.0553
 8688SOL    HW137523   0.816   3.259  13.304 -2.4291 -4.5332  0.8094
 8688SOL    HW237524   0.923   3.154  13.309 -3.1247 -0.6558 -0.4012
 8689SOL     OW37525   1.089   4.243   0.322 -0.3841  0.3319 -0.0354
 8689SOL    HW137526   1.162   4.271   0.378  0.6538 -1.4862 -0.4778
 8689SOL    HW237527   1.138   4.191   0.258 -0.5490  1.5739 -1.1698
 8690SOL     OW37528   4.274   2.340   3.384 -0.3451 -0.2971 -0.0321
 8690SOL    HW137529   4.182   2.315   3.396 -0.6391  0.9593  0.3316
 8690SOL    HW237530   4.285   2.325   3.290  5.6310 -1.1197  0.8285
 8691SOL     OW37531   1.171   1.153   2.226  0.7134  0.0598 -0.2935
 8691SOL    HW137532   1.080   1.181   2.218  0.1197 -0.8199  3.0402
 8691SOL    HW237533   1.195   1.113   2.143  1.8311 -0.7383  0.4046
 8692SOL     OW37534   1.659   0.927   9.445  0.3746 -0.0640 -0.3371
 8692SOL    HW137535   1.654   0.951   9.353  0.0331  0.7355 -0.1088
 8692SOL    HW237536   1.639   0.834   9.433  0.7375 -0.0655 -0.9228
 8693SOL     OW37537   2.678   2.367   7.245 -0.2278  0.6389  0.0370
 8693SOL    HW137538   2.621   2.358   7.322  2.3590  0.0783  1.8992
 8693SOL    HW237539   2.613   2.403   7.185 -0.1183  1.0893  0.1842
 8694SOL     OW37540   2.430   0.077  14.519 -0.0501 -0.6333  0.0205
 8694SOL    HW137541   2.510   0.121  14.548 -0.2593 -0.6775  0.6511
 8694SOL    HW237542   2.385   0.147  14.471  1.4251  1.2725  1.3991
 8695SOL     OW37543   3.126   3.373   1.397 -0.7148  0.0435  0.5716
 8695SOL    HW137544   3.196   3.338   1.342 -1.5764 -0.6928 -0.0667
 8695SOL    HW237545   3.124   3.464   1.370  1.2432 -0.8927 -2.7422
 8696SOL     OW37546   0.052   0.019   8.445 -0.4194 -0.1436 -0.4146
 8696SOL    HW137547   0.101   0.101   8.452  1.5921 -1.1680 -3.1575
 8696SOL    HW237548   0.046   0.010   8.541 -0.0964  0.0041 -0.3803
 8697SOL     OW37549   0.435   1.684  10.356  0.1977  0.0050 -0.6809
 8697SOL    HW137550   0.469   1.668  10.268  1.9941  2.1320 -0.3775
 8697SOL    HW237551   0.346   1.714  10.339  0.1328 -0.0756 -0.4852
 8698SOL     OW37552   2.391   2.341   5.727  0.7991 -0.6879  0.8763
 8698SOL    HW137553   2.341   2.371   5.803  1.2809  1.1089  0.4890
 8698SOL    HW237554   2.333   2.277   5.687 -0.1511  0.3891  0.5415
 8699SOL     OW37555   0.464   3.562   1.600 -0.2123 -0.3422  0.1085
 8699SOL    HW137556   0.445   3.655   1.591  0.1758 -0.2495  0.2574
 8699SOL    HW237557   0.393   3.529   1.545  1.5861 -1.9834 -1.2250
 8700SOL     OW37558   2.026   0.951   2.138 -0.4807  0.3197 -0.0759
 8700SOL    HW137559   2.097   1.015   2.151  1.7209 -2.0388 -0.4932
 8700SOL    HW237560   2.006   0.904   2.219  0.8298  1.4095  0.8770
 8701SOL     OW37561   2.874   0.868  17.331 -0.0248 -0.3788  0.2163
 8701SOL    HW137562   2.899   0.960  17.335 -0.9151 -0.1714  0.9790
 8701SOL    HW237563   2.807   0.873  17.263  2.4051 -1.3526 -2.2659
 8702SOL     OW37564   2.175   4.587   3.127  1.0045  0.2802 -0.2131
 8702SOL    HW137565   2.236   4.659   3.146  0.9576  0.7739 -1.9518
 8702SOL    HW237566   2.243   4.520   3.134  2.0130  1.4714  1.8467
 8703SOL     OW37567   4.624   2.792   5.408  0.0247  0.4967  0.5317
 8703SOL    HW137568   4.703   2.788   5.462  1.2644  0.1102 -1.3023
 8703SOL    HW237569   4.615   2.701   5.378  0.2224  1.3023 -1.9257
 8704SOL     OW37570   4.340   0.989   9.171  0.3508 -0.1089  0.3816
 8704SOL    HW137571   4.358   1.039   9.092  0.0076 -1.1942 -0.3836
 8704SOL    HW237572   4.345   1.056   9.239  1.4701  1.7757 -1.6044
 8705SOL     OW37573   2.587   0.735  16.770 -0.6173 -0.1372  0.9183
 8705SOL    HW137574   2.528   0.808  16.793 -1.1606 -0.0405 -0.7941
 8705SOL    HW237575   2.544   0.697  16.693 -0.3410 -0.3883  0.8871
 8706SOL     OW37576   3.497   3.031   5.131  0.6177  0.5557  0.3415
 8706SOL    HW137577   3.408   3.049   5.099  0.7332 -0.5871 -0.5924
 8706SOL    HW237578   3.520   3.122   5.109 -2.5099  1.1161 -0.6086
 8707SOL     OW37579   2.381   4.500  10.484 -0.0891  0.0676 -0.0554
 8707SOL    HW137580   2.289   4.503  10.510 -0.5259 -1.2197 -1.4846
 8707SOL    HW237581   2.371   4.431  10.418  0.8946  2.1004 -2.3009
 8708SOL     OW37582   0.322   3.531  17.406  0.0612  0.2521  0.0883
 8708SOL    HW137583   0.310   3.608  17.463  0.2726 -0.0062  0.4831
 8708SOL    HW237584   0.329   3.575  17.321  1.1968 -2.4799 -1.2445
 8709SOL     OW37585   0.570   0.940   3.514 -0.3361  0.3278 -0.4447
 8709SOL    HW137586   0.520   0.859   3.521  0.5006 -0.2909 -1.6485
 8709SOL    HW237587   0.536   0.991   3.588 -1.7936  0.2802 -1.0965
 8710SOL     OW37588   3.560   0.950   6.131  0.1100  0.0933 -0.4519
 8710SOL    HW137589   3.522   1.019   6.185  1.4984 -0.0459  0.6925
 8710SOL    HW237590   3.581   1.000   6.053 -2.2086  0.2769 -0.9693
 8711SOL     OW37591   2.224   1.130   2.160  0.2183  0.5782  0.2954
 8711SOL    HW137592   2.293   1.154   2.221  0.5930  0.9000 -0.2555
 8711SOL    HW237593   2.256   1.175   2.082  0.3223  0.3085  0.1851
 8712SOL     OW37594   2.168   0.148  16.995  0.0248  0.2582 -0.3972
 8712SOL    HW137595   2.214   0.203  17.059 -2.8052 -0.7199  2.5136
 8712SOL    HW237596   2.139   0.216  16.935 -3.3113  0.6539  1.6326
 8713SOL     OW37597   2.734   3.798   0.460  1.1715 -0.0309 -0.1369
 8713SOL    HW137598   2.813   3.771   0.506  0.7176  1.1577  1.3752
 8713SOL    HW237599   2.672   3.735   0.499 -0.0165  0.7185 -0.8176
 8714SOL     OW37600   1.879   1.079   5.321 -0.0337  0.7866  0.3619
 8714SOL    HW137601   1.948   1.013   5.326 -2.1531 -1.4392  0.3038
 8714SOL    HW237602   1.926   1.143   5.268  0.7474  2.5298  3.2134
 8715SOL     OW37603   1.183   4.349   7.938  0.0893  0.3715 -0.6487
 8715SOL    HW137604   1.221   4.436   7.949  1.0477 -0.1528  0.1645
 8715SOL    HW237605   1.171   4.354   7.843  2.6502 -0.5679 -1.0228
 8716SOL     OW37606   3.063   4.179  17.471 -0.0623  0.3359 -0.1967
 8716SOL    HW137607   3.132   4.245  17.470  0.8364 -0.6025  0.4760
 8716SOL    HW237608   3.083   4.120  17.544  0.1324 -0.0540 -0.5632
 8717SOL     OW37609   2.498   4.129   5.545 -0.3670 -0.2103  0.1249
 8717SOL    HW137610   2.480   4.170   5.461  0.8845 -0.9291 -0.5008
 8717SOL    HW237611   2.558   4.059   5.518  0.7562  1.0403 -0.6413
 8718SOL     OW37612   1.323   1.636  14.541  0.0967 -0.1547  0.2998
 8718SOL    HW137613   1.366   1.718  14.518  0.2191  0.3703  2.4187
 8718SOL    HW237614   1.372   1.578  14.483  2.4631  0.3685  1.7605
 8719SOL     OW37615   3.299   0.306   0.018 -0.2207 -0.7041  0.0170
 8719SOL    HW137616   3.372   0.356  17.663 -0.1388  0.0575  1.2744
 8719SOL    HW237617   3.223   0.365   0.020  0.4699  0.2102 -1.2879
 8720SOL     OW37618   2.045   1.282   3.702 -0.2757 -0.7644  0.6409
 8720SOL    HW137619   1.956   1.292   3.669  0.1877 -0.7743 -0.5975
 8720SOL    HW237620   2.030   1.255   3.793  0.8512 -1.2429  0.6920
 8721SOL     OW37621   4.602   2.407  12.268 -0.4166  0.0171 -0.3746
 8721SOL    HW137622   4.599   2.349  12.344  0.4381  0.7112  0.1881
 8721SOL    HW237623   4.609   2.342  12.198 -1.0980 -0.4202 -0.0410
 8722SOL     OW37624   2.628   1.043   3.281  0.8463 -1.2591  0.3815
 8722SOL    HW137625   2.598   1.133   3.295 -1.9639 -2.0755 -0.4124
 8722SOL    HW237626   2.562   1.015   3.218  0.8613  2.3238 -1.2329
 8723SOL     OW37627   4.535   1.627   0.028  0.2542 -1.1791  0.1407
 8723SOL    HW137628   4.495   1.701   0.074 -1.0207 -0.3982 -2.2574
 8723SOL    HW237629   4.594   1.679  17.654 -1.2272  0.1228 -0.2389
 8724SOL     OW37630   4.325   3.389   6.171  0.3529 -0.6058 -0.2960
 8724SOL    HW137631   4.249   3.444   6.154 -0.2191 -0.4541  2.7456
 8724SOL    HW237632   4.286   3.322   6.226  1.5765 -0.8486  0.2828
 8725SOL     OW37633   2.509   1.535   2.186  0.0160 -0.5964 -0.0089
 8725SOL    HW137634   2.587   1.489   2.219 -0.8149 -1.2112  1.1123
 8725SOL    HW237635   2.461   1.545   2.268 -0.5552 -0.4295 -0.3680
 8726SOL     OW37636   0.159   3.430   7.443  0.1692  0.4735  0.0219
 8726SOL    HW137637   0.126   3.342   7.463  2.4879 -0.5031 -0.4176
 8726SOL    HW237638   0.149   3.468   7.530 -1.6200 -1.2910  0.5972
 8727SOL     OW37639   3.473   2.156   5.065 -0.5462 -0.2708 -0.0605
 8727SOL    HW137640   3.446   2.244   5.092  0.3473 -0.0081 -0.0236
 8727SOL    HW237641   3.471   2.175   4.972 -3.1231  1.1788  0.3085
 8728SOL     OW37642   3.693   1.797   5.750  0.1174  0.0265  0.2300
 8728SOL    HW137643   3.636   1.775   5.676  0.2934  0.3278  0.0031
 8728SOL    HW237644   3.641   1.862   5.797  0.6217  0.0777  0.7234
 8729SOL     OW37645   4.661   4.160  12.442  0.1008  0.1312  0.2291
 8729SOL    HW137646   0.018   4.123  12.397 -0.8081  1.6258 -2.5525
 8729SOL    HW237647   4.615   4.176  12.359  1.9563  1.0399 -0.6391
 8730SOL     OW37648   3.802   1.862   8.238 -0.0583  0.4008 -0.0844
 8730SOL    HW137649   3.823   1.816   8.157  0.2092  1.8464 -0.8368
 8730SOL    HW237650   3.879   1.835   8.289 -0.7098 -0.4490  0.4537
 8731SOL     OW37651   4.107   1.328   4.847 -0.0678  0.0874 -0.1186
 8731SOL    HW137652   4.031   1.360   4.799  1.4224  1.8617 -1.3298
 8731SOL    HW237653   4.155   1.283   4.777 -0.6271 -1.0201  0.2262
 8732SOL     OW37654   3.549   4.203   3.476  0.0916 -0.5613 -0.1002
 8732SOL    HW137655   3.498   4.220   3.555 -0.6664  1.6540 -1.0428
 8732SOL    HW237656   3.639   4.189   3.504  0.1580  2.0216  0.9563
 8733SOL     OW37657   4.282   2.283  10.576  0.1524 -0.1185  0.0280
 8733SOL    HW137658   4.352   2.337  10.542 -0.4536  0.3124 -0.5332
 8733SOL    HW237659   4.327   2.221  10.633 -1.4839 -0.7377  0.6612
 8734SOL     OW37660   0.806   0.436   2.553 -0.2770 -0.1801 -0.3380
 8734SOL    HW137661   0.759   0.430   2.469 -0.5107 -1.5110 -0.0996
 8734SOL    HW237662   0.882   0.382   2.533 -0.9478 -0.5361 -1.9777
 8735SOL     OW37663   4.105   0.375   5.406  0.4113  0.2359 -0.7454
 8735SOL    HW137664   4.138   0.458   5.442 -1.2659 -0.4521  2.3945
 8735SOL    HW237665   4.176   0.353   5.347  2.6269  1.4165  1.4818
 8736SOL     OW37666   0.674   1.025  12.898 -0.0372 -0.6544 -0.3241
 8736SOL    HW137667   0.695   1.082  12.824  0.8420 -0.2092  0.2690
 8736SOL    HW237668   0.630   1.087  12.955 -0.0770 -0.8410 -0.1528
 8737SOL     OW37669   2.209   1.689   5.007  0.0454  0.1855  0.1788
 8737SOL    HW137670   2.116   1.686   5.030  0.0591 -0.9000  0.1045
 8737SOL    HW237671   2.244   1.631   5.075 -1.8330 -0.4037  0.6630
 8738SOL     OW37672   3.001   0.393   7.475  0.0758  0.0432 -0.6879
 8738SOL    HW137673   3.063   0.337   7.521 -1.0974 -0.7458 -0.0697
 8738SOL    HW237674   3.016   0.479   7.514  1.0500 -0.1974 -0.5539
 8739SOL     OW37675   4.143   0.073  12.723 -0.5707  0.6929  0.5467
 8739SOL    HW137676   4.196   0.112  12.653  1.1864  0.3024  1.6726
 8739SOL    HW237677   4.110   4.713  12.679 -1.2784  0.7696  0.9350
 8740SOL     OW37678   3.201   3.983   6.390  0.7309 -0.6220  0.0862
 8740SOL    HW137679   3.185   3.906   6.335 -0.3566 -1.8264  2.0757
 8740SOL    HW237680   3.183   4.053   6.327 -1.8592  0.0575  1.5608
 8741SOL     OW37681   1.215   2.432   9.126 -0.3553  0.6701 -0.5686
 8741SOL    HW137682   1.194   2.362   9.188  1.4632 -0.6697 -1.4763
 8741SOL    HW237683   1.192   2.397   9.040 -0.9491 -1.2094  0.3512
 8742SOL     OW37684   2.025   3.379  11.252 -0.2463  0.0998  0.2983
 8742SOL    HW137685   2.042   3.418  11.338 -0.5821 -2.3311  1.4904
 8742SOL    HW237686   1.934   3.399  11.233 -0.3433 -1.0673 -0.4566
 8743SOL     OW37687   3.350   1.384  12.889 -0.3362  0.1781 -0.3534
 8743SOL    HW137688   3.381   1.422  12.807 -1.9223  0.2197 -0.9502
 8743SOL    HW237689   3.400   1.303  12.896 -2.2480 -0.6247  3.9104
 8744SOL     OW37690   1.182   2.481   0.146 -0.3034 -0.7137 -0.0674
 8744SOL    HW137691   1.239   2.409   0.119  1.0078  0.8950 -1.5896
 8744SOL    HW237692   1.235   2.522   0.214 -2.3934  0.2597  0.9935
 8745SOL     OW37693   0.382   1.314   6.542 -0.4605  0.6407 -0.0247
 8745SOL    HW137694   0.406   1.407   6.544 -0.8250  0.7224  0.5957
 8745SOL    HW237695   0.362   1.312   6.448 -0.2504 -3.6138  0.0229
 8746SOL     OW37696   3.108   3.102   5.085  0.2710  0.6108 -0.1323
 8746SOL    HW137697   3.119   3.009   5.104 -0.9676  0.2638 -1.1302
 8746SOL    HW237698   3.104   3.098   4.990 -0.7326  1.8873 -0.1345
 8747SOL     OW37699   0.011   0.750   3.984  0.6466  0.1237  0.4610
 8747SOL    HW137700   0.075   0.746   3.913 -1.0056  1.1889 -1.0945
 8747SOL    HW237701   4.655   0.715   3.936  0.0838  0.9922  0.7092
 8748SOL     OW37702   3.388   0.814  17.508 -0.0276 -0.6986  0.1219
 8748SOL    HW137703   3.412   0.812  17.601 -0.8861  0.2025  0.3597
 8748SOL    HW237704   3.324   0.885  17.516  0.4516 -0.3004  0.4401
 8749SOL     OW37705   4.363   2.029   3.472 -0.1991  0.2285  0.3782
 8749SOL    HW137706   4.338   2.116   3.504 -1.3269  0.0322  0.0549
 8749SOL    HW237707   4.418   1.998   3.544 -1.1967  1.0442  1.4860
 8750SOL     OW37708   4.227   3.161   6.516  0.5945  0.0118 -0.5314
 8750SOL    HW137709   4.291   3.135   6.582  0.6336  0.5802 -0.3469
 8750SOL    HW237710   4.176   3.230   6.558  0.8581 -0.7033  0.9412
 8751SOL     OW37711   2.596   3.900   9.922 -0.6062  0.4470  0.0914
 8751SOL    HW137712   2.554   3.905  10.008  0.1046  0.2042  0.4524
 8751SOL    HW237713   2.522   3.858   9.878 -0.0207 -0.9874  0.4751
 8752SOL     OW37714   2.235   1.669   7.568 -0.5003 -0.7051 -0.0190
 8752SOL    HW137715   2.314   1.616   7.568  0.0003  0.0466  0.5166
 8752SOL    HW237716   2.279   1.750   7.595 -0.7869 -1.0504  1.4407
 8753SOL     OW37717   1.266   2.561   5.401  0.3462  0.0992 -0.3366
 8753SOL    HW137718   1.184   2.524   5.368  0.6948  0.5139 -1.7029
 8753SOL    HW237719   1.329   2.501   5.360 -0.4709 -1.3325  0.4897
 8754SOL     OW37720   1.315   3.706   7.378  0.0536  1.0025  0.3532
 8754SOL    HW137721   1.402   3.745   7.387  0.5743  0.2475 -1.2476
 8754SOL    HW237722   1.283   3.716   7.467 -0.5595  3.8453 -0.1883
 8755SOL     OW37723   2.700   1.845   9.817  0.2879 -0.0208 -0.0505
 8755SOL    HW137724   2.758   1.829   9.891  1.1495  0.2883 -0.6663
 8755SOL    HW237725   2.714   1.939   9.810 -2.7937  0.5309  0.7515
 8756SOL     OW37726   1.483   3.159   8.970  0.4178 -0.1708 -0.2153
 8756SOL    HW137727   1.463   3.251   8.957 -0.6581 -0.0119  2.5963
 8756SOL    HW237728   1.395   3.124   8.980 -0.0628  0.6290 -1.7942
 8757SOL     OW37729   2.230   3.387   1.561  0.4303  0.1524 -0.3297
 8757SOL    HW137730   2.277   3.428   1.633  0.8821 -0.4212 -0.2922
 8757SOL    HW237731   2.293   3.323   1.526 -0.5524 -0.2972 -1.3035
 8758SOL     OW37732   4.107   2.093   0.784 -0.3454 -0.5482 -0.0783
 8758SOL    HW137733   4.190   2.082   0.831  0.5716 -0.2293 -1.6584
 8758SOL    HW237734   4.082   2.001   0.782 -1.5977 -0.2495  1.2396
 8759SOL     OW37735   2.245   4.146   7.902  0.1589  0.0837 -0.2469
 8759SOL    HW137736   2.338   4.127   7.901  0.0236 -0.4381 -2.0290
 8759SOL    HW237737   2.232   4.161   7.808 -2.2669 -1.5487 -0.1784
 8760SOL     OW37738   4.207   4.496   4.542 -0.0619  0.2143  0.3812
 8760SOL    HW137739   4.136   4.550   4.510 -0.3510  1.3320  2.9101
 8760SOL    HW237740   4.273   4.529   4.481 -1.8757  0.7719 -1.2757
 8761SOL     OW37741   3.615   4.183   0.462  0.1417  0.4707  0.0703
 8761SOL    HW137742   3.612   4.182   0.558  0.2149 -0.8925  0.0682
 8761SOL    HW237743   3.655   4.268   0.445 -2.6799  1.9735  1.0052
 8762SOL     OW37744   0.639   3.595  16.444  0.3623 -0.3901 -0.1230
 8762SOL    HW137745   0.601   3.682  16.448  0.4268 -0.4539  1.9599
 8762SOL    HW237746   0.733   3.613  16.449  0.1945  0.4186  0.0611
 8763SOL     OW37747   3.745   1.626   4.499 -0.2344  0.2995  0.1246
 8763SOL    HW137748   3.794   1.701   4.535 -0.2466  0.8425 -0.9896
 8763SOL    HW237749   3.820   1.567   4.496 -0.9290 -0.7576  3.3309
 8764SOL     OW37750   0.170   1.499   0.311 -0.1775  0.2306 -0.0336
 8764SOL    HW137751   0.112   1.436   0.267  0.2073  0.9112 -1.4857
 8764SOL    HW237752   0.140   1.587   0.289  1.7430  1.0656  0.6968
 8765SOL     OW37753   0.708   1.341   3.703 -0.4141 -0.0881 -0.4391
 8765SOL    HW137754   0.647   1.307   3.638  0.7670  0.0895 -1.6321
 8765SOL    HW237755   0.746   1.258   3.734  0.5595  0.9156  1.0914
 8766SOL     OW37756   1.504   0.020   3.337 -0.0938 -0.0845 -0.3918
 8766SOL    HW137757   1.536   0.039   3.425 -0.9487 -0.8052  0.0709
 8766SOL    HW237758   1.573   4.683   3.301  0.2586  0.8434 -1.1530
 8767SOL     OW37759   2.268   3.946  12.700  0.0750  0.1381  0.4877
 8767SOL    HW137760   2.269   3.927  12.793 -2.6721 -1.8415  0.1156
 8767SOL    HW237761   2.324   4.024  12.696  0.9635 -0.6007 -1.3912
 8768SOL     OW37762   3.043   1.621   0.246  0.5889  0.0039 -0.2945
 8768SOL    HW137763   2.948   1.623   0.234  0.7160 -1.0334 -1.5163
 8768SOL    HW237764   3.076   1.698   0.198 -0.1197  0.4440 -0.0890
 8769SOL     OW37765   2.902   3.657   0.993  0.4950  0.1883  0.3496
 8769SOL    HW137766   2.862   3.573   0.970  0.5076  1.0803 -2.8881
 8769SOL    HW237767   2.824   3.709   0.979 -0.4376 -0.5643  2.7032
 8770SOL     OW37768   0.772   4.230   6.060  0.1781  0.2714 -0.1023
 8770SOL    HW137769   0.848   4.175   6.040  0.3659  1.0961 -1.6326
 8770SOL    HW237770   0.732   4.162   6.113  0.2098  0.4658  0.1712
 8771SOL     OW37771   1.057   0.584  13.063  0.4392  0.2076  0.4317
 8771SOL    HW137772   0.971   0.551  13.038  0.0010  2.1099 -0.5715
 8771SOL    HW237773   1.041   0.678  13.068  0.7359  0.2915 -0.1717
 8772SOL     OW37774   3.351   0.713  15.610  0.4361  1.1450 -0.0478
 8772SOL    HW137775   3.291   0.677  15.544  1.3698  1.5807 -1.1431
 8772SOL    HW237776   3.360   0.806  15.590 -1.1471  1.5625  1.2174
 8773SOL     OW37777   0.541   0.871   8.029  0.3272  0.2076  0.0459
 8773SOL    HW137778   0.597   0.815   8.083  0.3403 -0.5270 -0.7163
 8773SOL    HW237779   0.576   0.953   8.062 -0.0323  1.0239 -1.6201
 8774SOL     OW37780   2.819   3.844   2.597  0.4012  0.0499  0.2409
 8774SOL    HW137781   2.797   3.852   2.504 -2.5050 -0.6327  0.9001
 8774SOL    HW237782   2.874   3.766   2.599 -2.0246 -1.6273  0.0399
 8775SOL     OW37783   2.764   1.677  14.554  0.5420  0.3896 -0.2665
 8775SOL    HW137784   2.806   1.649  14.473  2.6648 -0.1752  1.0146
 8775SOL    HW237785   2.842   1.662  14.607  0.4949  1.0467 -0.0055
 8776SOL     OW37786   2.596   2.635   2.733 -0.1332 -0.1047  0.5949
 8776SOL    HW137787   2.673   2.679   2.771  0.9992  1.7455 -3.7852
 8776SOL    HW237788   2.565   2.704   2.675 -1.8497 -0.6910  0.8267
 8777SOL     OW37789   1.577   3.115  17.677  0.4803  0.1569  0.3950
 8777SOL    HW137790   1.623   3.109  17.593  0.7711 -0.5289  0.6085
 8777SOL    HW237791   1.622   3.051   0.052  0.1761  1.3525  2.0690
 8778SOL     OW37792   1.164   2.262   5.787 -0.4522 -0.3951 -0.3885
 8778SOL    HW137793   1.200   2.244   5.699 -0.0683  0.9742 -0.5116
 8778SOL    HW237794   1.083   2.301   5.755 -0.2569  1.6799  1.6489
 8779SOL     OW37795   4.577   3.538   4.385  0.0148  0.0885 -0.4470
 8779SOL    HW137796   4.491   3.517   4.348 -0.5902  1.4612  0.1758
 8779SOL    HW237797   4.635   3.558   4.312 -0.9156 -1.7608 -1.6959
 8780SOL     OW37798   3.086   4.523   0.995  0.2090  0.1578  0.3873
 8780SOL    HW137799   3.127   4.465   0.931 -0.1172 -0.5233  0.8061
 8780SOL    HW237800   3.028   4.462   1.039 -1.0204  0.4842 -0.7956
 8781SOL     OW37801   1.663   0.640   3.374 -0.0473 -0.5029 -0.0142
 8781SOL    HW137802   1.715   0.617   3.451  2.9218 -1.7633 -2.4148
 8781SOL    HW237803   1.602   0.569   3.360  0.7586 -1.1775 -0.1011
 8782SOL     OW37804   3.117   3.818   9.009 -0.0531  0.3446 -0.0320
 8782SOL    HW137805   3.058   3.862   8.948 -0.9642 -0.6319  0.1433
 8782SOL    HW237806   3.191   3.878   9.004 -0.6293  1.0298 -0.3664
 8783SOL     OW37807   3.810   4.071   7.972  0.0284  0.3744  0.2714
 8783SOL    HW137808   3.841   3.984   7.945 -1.3451 -0.0462  0.0554
 8783SOL    HW237809   3.790   4.124   7.895  2.1641  1.5134  0.5109
 8784SOL     OW37810   0.670   0.813   4.084  0.6017 -0.4398 -0.3205
 8784SOL    HW137811   0.581   0.803   4.119  0.0694  0.1934 -1.5191
 8784SOL    HW237812   0.661   0.896   4.039 -0.0379 -1.7376 -2.5742
 8785SOL     OW37813   2.301   3.515  16.861 -0.2294 -0.0136 -0.5512
 8785SOL    HW137814   2.381   3.464  16.855 -0.8849 -1.1598  0.3052
 8785SOL    HW237815   2.276   3.510  16.954  2.8932 -0.5450  0.2666
 8786SOL     OW37816   2.264   4.000   5.621 -0.0176  0.1363 -0.3122
 8786SOL    HW137817   2.233   3.968   5.537 -2.7495  1.6088  0.1249
 8786SOL    HW237818   2.338   4.058   5.602 -0.0683  0.2997 -0.0096
 8787SOL     OW37819   3.065   1.284  12.047  0.0062 -0.0853  0.1065
 8787SOL    HW137820   3.039   1.273  12.139  0.3673  1.0047  0.3411
 8787SOL    HW237821   3.136   1.221  12.046 -1.1004 -1.3561  2.1208
 8788SOL     OW37822   3.346   1.331   7.013 -0.3375  0.1743 -0.1227
 8788SOL    HW137823   3.423   1.281   7.040  0.9596  2.6859  0.8709
 8788SOL    HW237824   3.381   1.396   6.952  1.3516 -0.2530  0.3718
 8789SOL     OW37825   0.273   0.300   1.276 -0.3315  0.1196  0.6017
 8789SOL    HW137826   0.330   0.370   1.306 -0.3659  1.3299 -2.2115
 8789SOL    HW237827   0.332   0.253   1.218  0.4034  1.9192 -0.0756
 8790SOL     OW37828   3.309   4.108   6.595  0.3493 -0.3640  0.3334
 8790SOL    HW137829   3.273   4.052   6.526 -0.3935 -1.3459  1.5138
 8790SOL    HW237830   3.255   4.184   6.575 -1.7285 -2.1000 -0.5411
 8791SOL     OW37831   3.548   2.064   2.408 -0.2242  0.2661 -0.1267
 8791SOL    HW137832   3.564   2.145   2.457 -1.5164  0.0167  0.7235
 8791SOL    HW237833   3.602   2.069   2.329 -0.4322  0.3252 -0.2648
 8792SOL     OW37834   2.052   1.976   4.477  0.1541 -0.3538  0.3850
 8792SOL    HW137835   2.028   2.068   4.472  1.5665  0.0074  0.2905
 8792SOL    HW237836   2.057   1.951   4.384 -0.2585 -1.4632  0.6573
 8793SOL     OW37837   0.312   2.406   2.325 -0.1322 -0.5342 -0.4223
 8793SOL    HW137838   0.219   2.430   2.326 -0.6733 -2.7521  2.7835
 8793SOL    HW237839   0.302   2.326   2.274  1.3336 -1.7950  1.2964
 8794SOL     OW37840   0.431   3.101   7.386  0.5777  0.0384 -0.2077
 8794SOL    HW137841   0.411   3.189   7.352  2.5379  1.1144  1.4473
 8794SOL    HW237842   0.524   3.117   7.403 -0.0906  1.2005  2.2916
 8795SOL     OW37843   4.669   1.550   9.984 -0.1488  0.2583 -0.2229
 8795SOL    HW137844   0.008   1.493   9.933 -0.0677 -1.7873  2.1541
 8795SOL    HW237845   4.629   1.484  10.040 -0.2988  0.4984 -0.0458
 8796SOL     OW37846   4.076   3.190   0.500 -0.3254  0.0522 -0.6216
 8796SOL    HW137847   3.999   3.146   0.537 -0.1781 -0.1877 -0.5985
 8796SOL    HW237848   4.070   3.164   0.408  1.1069  0.1490 -0.7323
 8797SOL     OW37849   3.110   4.186   3.528  0.8001 -0.4664  0.0719
 8797SOL    HW137850   3.167   4.254   3.492 -0.9303  0.4725 -0.8935
 8797SOL    HW237851   3.101   4.140   3.445 -0.4090  0.5492 -0.3519
 8798SOL     OW37852   1.285   4.392   2.646 -0.1309 -0.1027  0.1709
 8798SOL    HW137853   1.293   4.355   2.558  0.7553  1.5289 -0.4500
 8798SOL    HW237854   1.200   4.359   2.673 -0.7756 -0.0382 -1.7567
 8799SOL     OW37855   4.173   2.587   7.167 -0.9213  0.2357  0.1603
 8799SOL    HW137856   4.209   2.552   7.248  0.5999 -1.9589 -1.4632
 8799SOL    HW237857   4.247   2.629   7.124 -1.3413  1.3721  0.5471
 8800SOL     OW37858   2.044   0.830  16.762 -0.0827 -0.4272  0.5102
 8800SOL    HW137859   1.955   0.800  16.744  0.0681  1.5039 -3.5073
 8800SOL    HW237860   2.031   0.912  16.810 -1.1928 -1.3334  1.7486
 8801SOL     OW37861   1.752   1.930  14.000 -0.0448  0.5737  0.2607
 8801SOL    HW137862   1.678   1.879  13.967 -1.1516  1.9852  0.5609
 8801SOL    HW237863   1.812   1.868  14.042 -0.7163 -0.4641 -0.2958
 8802SOL     OW37864   2.867   1.982   8.836  0.1829 -0.0172  0.0372
 8802SOL    HW137865   2.806   2.044   8.796  0.7740 -0.1592 -1.0934
 8802SOL    HW237866   2.902   1.943   8.756 -0.9144  0.9364 -0.8879
 8803SOL     OW37867   4.035   2.703   5.106  0.4000 -0.3773 -0.1177
 8803SOL    HW137868   3.978   2.632   5.078  0.1227  0.7149 -2.2628
 8803SOL    HW237869   4.099   2.709   5.036 -0.4344  0.4131 -0.8059
 8804SOL     OW37870   1.917   1.714  10.274  0.7543 -0.3521 -0.4001
 8804SOL    HW137871   1.843   1.703  10.214 -0.4653  3.1871  0.4742
 8804SOL    HW237872   1.888   1.655  10.343  0.6366 -0.7368 -0.7795
 8805SOL     OW37873   2.837   1.841   9.264  0.0303 -0.0547  0.4506
 8805SOL    HW137874   2.806   1.778   9.199  0.7043 -0.1383  0.2162
 8805SOL    HW237875   2.922   1.860   9.225 -0.8589  1.9716 -0.5136
 8806SOL     OW37876   1.423   4.030  12.273  0.1396  0.2353  0.4218
 8806SOL    HW137877   1.474   3.980  12.209 -0.8052  0.1275 -0.2537
 8806SOL    HW237878   1.376   4.090  12.215 -0.1824 -2.1113 -1.7478
 8807SOL     OW37879   1.919   1.547   6.227 -0.0118  0.0693 -0.6998
 8807SOL    HW137880   1.955   1.558   6.315  1.4562  0.6712 -1.3680
 8807SOL    HW237881   1.958   1.624   6.184  1.3941  0.9837  2.2345
 8808SOL     OW37882   1.749   3.407  14.651 -0.1359 -0.2424  0.0773
 8808SOL    HW137883   1.670   3.368  14.688 -0.1494 -0.4689 -0.1958
 8808SOL    HW237884   1.730   3.387  14.560 -0.3864 -0.0353  0.0861
 8809SOL     OW37885   4.399   2.726   9.424 -0.2674 -0.3795  0.2911
 8809SOL    HW137886   4.369   2.719   9.514 -0.0039 -2.8537  0.2017
 8809SOL    HW237887   4.346   2.659   9.381 -1.7075 -0.8322  2.8309
 8810SOL     OW37888   2.198   2.658   2.683 -0.1064 -0.0682 -0.1270
 8810SOL    HW137889   2.231   2.571   2.662 -0.4451  0.3981 -2.5771
 8810SOL    HW237890   2.229   2.703   2.604  1.0655 -1.1920 -0.3109
 8811SOL     OW37891   1.530   4.097  15.496 -0.7243 -0.5808 -0.0173
 8811SOL    HW137892   1.565   4.101  15.585  0.2641 -0.0288 -0.4394
 8811SOL    HW237893   1.597   4.133  15.438 -0.0464  0.7026  1.5585
 8812SOL     OW37894   2.362   4.422  11.033  0.2659 -0.1362 -0.0862
 8812SOL    HW137895   2.398   4.412  10.945 -1.8857  0.2643 -1.0129
 8812SOL    HW237896   2.358   4.332  11.066  2.0061 -0.5159 -0.9228
 8813SOL     OW37897   0.028   1.887   2.900 -0.0080 -0.1073 -0.1187
 8813SOL    HW137898   0.097   1.840   2.853 -0.6599 -0.3616 -0.8169
 8813SOL    HW237899   4.684   1.816   2.899  0.6576 -0.6649 -2.2416
 8814SOL     OW37900   2.083   2.134   6.002 -0.2944  0.4568 -0.1538
 8814SOL    HW137901   2.030   2.054   6.003 -0.3584  0.5195  1.1211
 8814SOL    HW237902   2.042   2.177   6.077  1.3942  3.0738 -0.7244
 8815SOL     OW37903   3.142   1.767  16.110  0.0513 -0.4172 -0.1019
 8815SOL    HW137904   3.071   1.777  16.047 -0.2864  0.5903  0.4354
 8815SOL    HW237905   3.135   1.850  16.157  1.4605 -0.6915  0.5891
 8816SOL     OW37906   2.779   1.725   3.364  0.0500  0.1756  0.2311
 8816SOL    HW137907   2.827   1.676   3.431 -0.2101  0.2778  0.4911
 8816SOL    HW237908   2.770   1.660   3.294  0.4575  1.6718 -1.2195
 8817SOL     OW37909   2.450   1.771   9.733  0.0886 -0.4674 -0.2817
 8817SOL    HW137910   2.543   1.792   9.745  0.2198 -1.3964  0.3159
 8817SOL    HW237911   2.414   1.856   9.709 -1.4004 -1.2564 -0.7988
 8818SOL     OW37912   0.835   2.230   1.235 -0.7619 -0.4083 -0.2369
 8818SOL    HW137913   0.767   2.259   1.173  1.7608  2.1567 -1.8243
 8818SOL    HW237914   0.915   2.260   1.192 -0.9441 -0.4957 -0.6376
 8819SOL     OW37915   2.955   4.391   7.797 -0.3168  0.0015 -0.1015
 8819SOL    HW137916   2.957   4.309   7.847 -1.3611 -0.2945 -0.5312
 8819SOL    HW237917   3.046   4.416   7.784 -0.8937  0.9786 -2.2749
 8820SOL     OW37918   4.329   0.454   0.137 -0.1972 -0.3226  0.1212
 8820SOL    HW137919   4.364   0.472   0.050 -0.8790 -0.0488 -0.0963
 8820SOL    HW237920   4.401   0.437   0.197 -0.2254 -0.6503  0.0599
 8821SOL     OW37921   0.920   0.038   6.996 -0.2245  0.1282 -0.4832
 8821SOL    HW137922   0.973   4.681   6.974 -1.7733 -0.6346 -1.6381
 8821SOL    HW237923   0.843   4.704   7.014  0.3500 -1.1525 -1.7700
 8822SOL     OW37924   3.708   1.412   2.482  0.2476  0.3850 -0.5155
 8822SOL    HW137925   3.780   1.475   2.482 -0.5986  1.3558  0.4719
 8822SOL    HW237926   3.642   1.470   2.520  0.5118  0.5982 -0.3789
 8823SOL     OW37927   3.705   1.988   9.473 -0.0419  0.1694  0.0351
 8823SOL    HW137928   3.613   1.973   9.499 -0.3091  0.6064 -0.6598
 8823SOL    HW237929   3.756   1.947   9.542 -0.8953  1.1883  1.2813
 8824SOL     OW37930   1.258   3.760   9.361 -0.7594 -0.3549  0.3462
 8824SOL    HW137931   1.167   3.756   9.392 -1.5112  2.2900 -1.4910
 8824SOL    HW237932   1.248   3.766   9.266 -1.6599 -1.8130  0.3508
 8825SOL     OW37933   1.929   2.145   1.945 -0.3538 -0.8956 -0.0748
 8825SOL    HW137934   1.998   2.088   1.910 -2.0026 -0.8827 -3.2704
 8825SOL    HW237935   1.980   2.217   1.982 -1.8812  1.2680 -2.1816
 8826SOL     OW37936   1.881   4.488  12.654 -0.0620 -0.1850  0.2171
 8826SOL    HW137937   1.950   4.423  12.668 -1.1043 -1.7400 -2.0321
 8826SOL    HW237938   1.929   4.569  12.636 -0.9637  0.8547  2.4666
 8827SOL     OW37939   2.594   2.675   2.322 -0.3505 -0.0098 -0.7407
 8827SOL    HW137940   2.632   2.762   2.331  0.3146 -0.2636 -1.0896
 8827SOL    HW237941   2.655   2.622   2.373  0.9308  1.5744 -0.6347
 8828SOL     OW37942   3.604   4.229   2.032  0.2043 -0.1775 -0.0331
 8828SOL    HW137943   3.637   4.158   1.978  1.8633  0.6526 -0.1010
 8828SOL    HW237944   3.581   4.292   1.965  3.1063 -1.0476 -1.8566
 8829SOL     OW37945   2.134   1.077   6.090 -0.0767  0.3484 -0.7131
 8829SOL    HW137946   2.082   1.117   6.020 -0.5169  2.2813  0.7146
 8829SOL    HW237947   2.063   1.055   6.150  0.7067 -1.6786 -0.5406
 8830SOL     OW37948   2.533   0.488   8.757  0.4302  0.0741  0.0894
 8830SOL    HW137949   2.459   0.483   8.817  1.4180 -1.5948  1.1454
 8830SOL    HW237950   2.484   0.494   8.674  0.9020  1.0699 -0.1216
 8831SOL     OW37951   3.538   3.141  10.803 -0.2578 -0.5459  0.1217
 8831SOL    HW137952   3.592   3.103  10.872 -1.0427 -0.5734  0.7313
 8831SOL    HW237953   3.556   3.093  10.722  0.4736  0.8857 -0.5545
 8832SOL     OW37954   3.478   3.914   1.157  0.4405 -0.2436 -0.2969
 8832SOL    HW137955   3.569   3.935   1.135  1.0526 -0.7664  1.6953
 8832SOL    HW237956   3.439   3.904   1.071  0.6420  2.3426 -0.6988
 8833SOL     OW37957   3.547   1.204  12.956 -0.3762 -0.1052  0.1214
 8833SOL    HW137958   3.619   1.215  12.894  0.8208  0.6630  1.6216
 8833SOL    HW237959   3.583   1.264  13.022  1.4805 -0.7274 -0.3250
 8834SOL     OW37960   2.736   2.080   1.015 -0.3892 -0.0307  0.0700
 8834SOL    HW137961   2.784   2.084   0.932  0.7004  0.8073  0.7529
 8834SOL    HW237962   2.737   2.173   1.037 -1.9023 -0.1052  0.4826
 8835SOL     OW37963   2.222   1.244  11.329  1.0105  0.1936 -0.1008
 8835SOL    HW137964   2.258   1.324  11.291 -1.9565  0.3984 -2.4382
 8835SOL    HW237965   2.249   1.177  11.266  2.0155  1.3819 -0.9430
 8836SOL     OW37966   1.446   3.173   4.031 -0.9440  0.6646  0.5688
 8836SOL    HW137967   1.465   3.187   3.938 -2.8620 -0.2304  0.0248
 8836SOL    HW237968   1.495   3.245   4.071 -0.3756  0.1978  0.7089
 8837SOL     OW37969   1.355   1.494   4.583  0.0493  0.5460 -0.2573
 8837SOL    HW137970   1.400   1.545   4.651 -2.0013 -1.0065  2.2887
 8837SOL    HW237971   1.311   1.566   4.538 -0.0563  2.1477  2.3984
 8838SOL     OW37972   3.189   0.447   4.634  0.8232 -0.5287  0.1111
 8838SOL    HW137973   3.159   0.456   4.724 -1.6145  1.7406 -0.9520
 8838SOL    HW237974   3.220   0.356   4.632 -0.1646 -0.9524  3.7500
 8839SOL     OW37975   2.547   4.685   5.360  0.4351  0.3763 -0.4166
 8839SOL    HW137976   2.583   4.598   5.342  0.7456  0.5993 -0.8782
 8839SOL    HW237977   2.484   4.703   5.290  0.6924  1.4072 -0.3862
 8840SOL     OW37978   1.783   0.756   7.128 -0.0273 -0.0278 -0.5202
 8840SOL    HW137979   1.847   0.698   7.088 -0.1486 -1.1444  0.9364
 8840SOL    HW237980   1.730   0.791   7.056 -0.9042 -1.3196 -0.5004
 8841SOL     OW37981   4.706   4.578  11.320  0.8762  0.4609  0.4405
 8841SOL    HW137982   0.054   4.527  11.275  0.2733  1.6997 -1.8957
 8841SOL    HW237983   4.713   4.554  11.412 -1.7944  1.5625  0.9457
 8842SOL     OW37984   4.689   2.833   6.785  0.3689  0.3608  0.0311
 8842SOL    HW137985   4.624   2.768   6.758 -0.7648  0.3258  2.8172
 8842SOL    HW237986   4.683   2.856   6.878 -0.9516  2.1011 -0.4653
 8843SOL     OW37987   0.334   0.198  12.311  0.4481  0.4424 -0.3238
 8843SOL    HW137988   0.347   0.263  12.242  0.2796  0.8663  0.0435
 8843SOL    HW237989   0.277   0.135  12.266  1.7519 -1.1062  0.1852
 8844SOL     OW37990   0.297   2.328   5.997 -0.3443  0.2025  0.1328
 8844SOL    HW137991   0.313   2.318   5.903 -0.1594  0.4147  0.1403
 8844SOL    HW237992   0.257   2.415   6.001  0.2742  0.4598  0.7249
 8845SOL     OW37993   1.849   3.000   2.250 -0.2563 -0.6324 -0.4709
 8845SOL    HW137994   1.832   2.916   2.292  0.1156 -0.2129  0.5063
 8845SOL    HW237995   1.762   3.021   2.215 -0.7094  0.5890  1.3756
 8846SOL     OW37996   0.705   3.887   5.610  0.6709 -0.0012  0.4788
 8846SOL    HW137997   0.791   3.888   5.569  0.2118  2.4456 -0.4210
 8846SOL    HW237998   0.722   3.876   5.703  0.0754  0.1861  0.6145
 8847SOL     OW37999   3.913   2.672   5.542  0.0106 -0.0168 -0.0504
 8847SOL    HW138000   3.946   2.755   5.505 -0.4797  0.5500  0.7993
 8847SOL    HW238001   3.839   2.656   5.484  1.2001 -0.4253 -1.4853
 8848SOL     OW38002   0.925   0.875  11.038  0.1821 -0.2467 -0.0817
 8848SOL    HW138003   0.862   0.812  11.000 -0.2397  0.6828 -0.9176
 8848SOL    HW238004   0.924   0.841  11.128  0.3425 -1.3063 -0.4743
 8849SOL     OW38005   0.744   3.819   9.601 -0.5413 -0.3923  0.1223
 8849SOL    HW138006   0.761   3.753   9.668 -2.2199 -0.3837  0.5675
 8849SOL    HW238007   0.664   3.779   9.566  0.3981 -1.0919 -1.2362
 8850SOL     OW38008   1.982   4.556   3.314 -0.2722  0.7584 -0.2871
 8850SOL    HW138009   2.049   4.577   3.249 -0.2369 -0.9814 -0.8128
 8850SOL    HW238010   2.017   4.593   3.395  0.9060 -0.5576 -0.1927
 8851SOL     OW38011   1.262   2.052  12.585 -0.1076 -0.4018  0.7511
 8851SOL    HW138012   1.278   2.145  12.602 -1.1109  0.0155 -0.6353
 8851SOL    HW238013   1.352   2.018  12.593  0.0523  0.1542  1.3512
 8852SOL     OW38014   2.015   2.053   2.675  0.0004 -0.4404 -0.7500
 8852SOL    HW138015   2.089   1.993   2.666  0.3929 -0.0888  0.1904
 8852SOL    HW238016   2.027   2.111   2.600  0.8839 -0.4056 -0.5763
 8853SOL     OW38017   2.367   3.431   6.362 -0.3166 -0.0423 -0.1622
 8853SOL    HW138018   2.274   3.437   6.385  0.3267  0.5683  2.3218
 8853SOL    HW238019   2.395   3.341   6.373  1.0332  0.7515  2.7497
 8854SOL     OW38020   2.925   1.136   2.944  0.4859 -0.0685  0.7251
 8854SOL    HW138021   2.963   1.224   2.938 -0.6989  0.2989 -1.2104
 8854SOL    HW238022   2.950   1.104   3.031 -0.6375 -1.2422  0.6118
 8855SOL     OW38023   3.465   3.634   3.734  0.4795  0.1948 -0.9321
 8855SOL    HW138024   3.509   3.688   3.669  0.0934  1.0008 -0.5284
 8855SOL    HW238025   3.515   3.650   3.815 -0.9583  1.3714 -0.2594
 8856SOL     OW38026   3.703   2.406   7.170  0.3534  0.3374 -0.0922
 8856SOL    HW138027   3.752   2.441   7.244 -0.7190 -0.4925  1.0154
 8856SOL    HW238028   3.612   2.394   7.198  1.4602 -1.3105  2.7642
 8857SOL     OW38029   1.425   3.263   2.998  0.3470 -0.2396  0.2023
 8857SOL    HW138030   1.409   3.278   3.091  0.8566  0.2071  0.2147
 8857SOL    HW238031   1.355   3.200   2.981  1.9723 -0.8055 -4.3395
 8858SOL     OW38032   1.431   4.121  10.603  0.7338 -0.3662  0.2030
 8858SOL    HW138033   1.372   4.093  10.533  1.9524 -2.9639  0.2289
 8858SOL    HW238034   1.376   4.173  10.661  0.3134 -0.7439  0.1429
 8859SOL     OW38035   1.396   3.268   5.718 -0.2194 -0.1234 -0.1190
 8859SOL    HW138036   1.488   3.291   5.721  0.0769 -1.4204  0.7291
 8859SOL    HW238037   1.371   3.332   5.651  0.8698  1.3524  0.9020
 8860SOL     OW38038   0.721   2.101   7.844  0.2702 -0.3076 -0.1267
 8860SOL    HW138039   0.696   2.138   7.928 -0.5684  1.0515 -0.9655
 8860SOL    HW238040   0.648   2.126   7.787  0.3268 -0.7084 -0.3778
 8861SOL     OW38041   2.955   2.169   0.005 -0.2273  0.2558 -0.5145
 8861SOL    HW138042   2.955   2.118  17.604 -2.2366  0.8532 -0.8703
 8861SOL    HW238043   2.862   2.189   0.015  0.4072  1.7689  2.5993
 8862SOL     OW38044   2.089   0.406  14.696  0.2183 -0.1866 -0.5496
 8862SOL    HW138045   2.042   0.434  14.618 -0.4118 -4.7267 -1.7376
 8862SOL    HW238046   2.174   0.445  14.673  0.1249  0.1362 -0.3583
 8863SOL     OW38047   3.650   3.268   5.093 -0.0072  0.3842  0.6946
 8863SOL    HW138048   3.745   3.269   5.091 -0.0005  0.7987  1.2060
 8863SOL    HW238049   3.626   3.306   5.008  1.2340 -1.4866 -0.4807
 8864SOL     OW38050   1.983   3.671   2.860 -0.1500  0.1401 -0.2450
 8864SOL    HW138051   1.890   3.662   2.839  0.4223 -1.9673 -1.8668
 8864SOL    HW238052   2.020   3.667   2.772  0.3299 -1.4166  0.0200
 8865SOL     OW38053   3.407   3.149   3.307 -0.1953 -0.3376  0.7135
 8865SOL    HW138054   3.424   3.059   3.278 -1.8593 -0.7040  0.9048
 8865SOL    HW238055   3.450   3.135   3.391 -0.1211 -2.0620  0.3870
 8866SOL     OW38056   4.262   2.135   6.902  0.1088 -0.2310  0.4697
 8866SOL    HW138057   4.337   2.082   6.873  1.2551  2.5174 -1.6657
 8866SOL    HW238058   4.194   2.102   6.843 -0.6601 -0.1752  1.3272
 8867SOL     OW38059   1.944   1.839  16.554  0.4350 -0.1508  0.0206
 8867SOL    HW138060   1.917   1.931  16.556 -1.4463 -0.7556  1.7358
 8867SOL    HW238061   1.947   1.824  16.460 -1.8407  1.3290 -0.3029
 8868SOL     OW38062   3.494   0.397  17.528  0.2594  0.0843 -0.1776
 8868SOL    HW138063   3.487   0.365  17.438  0.2158  0.3549 -0.2727
 8868SOL    HW238064   3.548   0.476  17.520  1.1477 -0.5298 -0.2945
 8869SOL     OW38065   1.204   2.289  11.136  0.0322 -0.3945  0.0362
 8869SOL    HW138066   1.300   2.285  11.137  0.1012  0.3933 -3.4192
 8869SOL    HW238067   1.193   2.327  11.049  0.2854 -0.1760  0.0970
 8870SOL     OW38068   3.902   4.475   4.217 -0.4556  0.1933 -0.3330
 8870SOL    HW138069   3.983   4.441   4.177 -1.3894 -0.9337 -1.2731
 8870SOL    HW238070   3.837   4.413   4.185 -2.5842  2.0653  0.3842
 8871SOL     OW38071   3.287   2.584  10.866 -0.0803  0.0611  0.6087
 8871SOL    HW138072   3.291   2.488  10.875  0.0596 -0.1451 -1.6475
 8871SOL    HW238073   3.374   2.623  10.874 -0.2944  0.6300  0.1482
 8872SOL     OW38074   2.948   1.658   5.717  0.2016 -0.0471  0.4695
 8872SOL    HW138075   2.876   1.699   5.669 -0.2124  1.5857  2.4782
 8872SOL    HW238076   2.989   1.590   5.663 -0.0508 -1.0128  1.5074
 8873SOL     OW38077   4.675   3.952   4.858  0.5723  0.4825 -0.0855
 8873SOL    HW138078   0.050   3.969   4.850  0.9494 -0.3702  2.6359
 8873SOL    HW238079   4.659   3.996   4.941  0.3053  1.7075 -0.7922
 8874SOL     OW38080   2.327   2.260   7.618 -0.7832  0.2876  0.6214
 8874SOL    HW138081   2.248   2.212   7.643 -0.0939 -0.7343  0.7960
 8874SOL    HW238082   2.358   2.266   7.708 -1.0885 -1.0257  0.8079
 8875SOL     OW38083   4.561   2.200   4.241  0.4304  0.1522 -0.0793
 8875SOL    HW138084   4.519   2.285   4.250 -0.2456 -0.4024  2.0375
 8875SOL    HW238085   4.498   2.157   4.183  0.7325  0.3828 -0.5761
 8876SOL     OW38086   4.475   0.235   4.813 -0.2941 -0.0614 -0.5215
 8876SOL    HW138087   4.559   0.203   4.779 -0.4836 -2.5876  1.3711
 8876SOL    HW238088   4.421   0.156   4.813 -0.1049 -0.1903 -0.2336
 8877SOL     OW38089   1.335   3.489  12.228 -0.6910 -0.3481  0.3692
 8877SOL    HW138090   1.259   3.545  12.219 -1.7268 -2.0973 -1.7910
 8877SOL    HW238091   1.329   3.435  12.149 -0.8738 -0.3468  0.3831
 8878SOL     OW38092   4.132   0.126   7.219 -0.7258 -0.0446  0.3621
 8878SOL    HW138093   4.201   0.192   7.218 -0.8642  0.1122  1.0175
 8878SOL    HW238094   4.057   0.181   7.198  0.6785  1.9069  0.4952
 8879SOL     OW38095   0.378   4.675  11.567  0.1910  0.0710 -0.3028
 8879SOL    HW138096   0.405   0.019  11.634 -1.1290  2.2556 -1.8225
 8879SOL    HW238097   0.319   0.009  11.513 -1.6440 -1.2891  0.3551
 8880SOL     OW38098   3.872   2.001   5.385  0.2019  0.1033  0.5115
 8880SOL    HW138099   3.818   2.050   5.324 -3.0120  1.3070  4.2954
 8880SOL    HW238100   3.955   1.989   5.340  0.9127 -0.2916  1.9137
 8881SOL     OW38101   4.447   2.967  16.727 -0.0672  0.2578  0.2498
 8881SOL    HW138102   4.525   2.919  16.754  1.3175  1.4077 -1.6869
 8881SOL    HW238103   4.370   2.926  16.765 -0.3979 -0.6168 -1.3650
 8882SOL     OW38104   4.520   3.264   2.833 -0.2007  0.1328 -0.2725
 8882SOL    HW138105   4.559   3.177   2.845  0.1565  0.3289  0.0047
 8882SOL    HW238106   4.491   3.264   2.742  0.9736  0.5354 -0.6509
 8883SOL     OW38107   0.377   1.999   8.707 -0.5830  0.0281 -0.3321
 8883SOL    HW138108   0.357   1.930   8.645 -0.2335  1.6689 -2.2747
 8883SOL    HW238109   0.297   2.049   8.726 -0.0432  0.7423  0.0643
 8884SOL     OW38110   3.011   4.385   4.039  0.2902 -0.8071 -0.0598
 8884SOL    HW138111   3.087   4.348   3.995  0.9922  1.0929 -0.4456
 8884SOL    HW238112   2.942   4.326   4.007 -0.1636  1.2387 -2.8668
 8885SOL     OW38113   1.827   4.049   6.281  0.3036  1.1814  0.1306
 8885SOL    HW138114   1.796   4.124   6.331  2.0656 -0.3031  3.4175
 8885SOL    HW238115   1.806   4.070   6.190 -0.1468 -0.8870 -0.2534
 8886SOL     OW38116   1.197   0.017   8.462  0.6444  0.7766 -0.3709
 8886SOL    HW138117   1.124   0.067   8.427  0.1163  1.4533  1.6853
 8886SOL    HW238118   1.202   0.063   8.546  2.6649 -0.5835  0.2704
 8887SOL     OW38119   2.635   1.935   1.541 -0.0124  0.2993 -0.4423
 8887SOL    HW138120   2.608   1.900   1.457  4.2568  1.0447 -2.0914
 8887SOL    HW238121   2.660   1.847   1.568  0.4270 -0.0217 -1.9378
 8888SOL     OW38122   3.374   4.071   2.319 -0.1654 -0.2100 -0.0400
 8888SOL    HW138123   3.297   4.023   2.349  1.2457 -1.1942  1.9862
 8888SOL    HW238124   3.358   4.071   2.224 -2.2528  0.8387  0.3082
 8889SOL     OW38125   3.206   2.383   7.909  0.3152 -0.0154 -0.1299
 8889SOL    HW138126   3.217   2.325   7.834 -0.5441  1.0456 -1.0618
 8889SOL    HW238127   3.151   2.324   7.962  1.1016  1.5941  2.4840
 8890SOL     OW38128   2.312   4.107   9.735  0.4746 -0.3502 -0.4164
 8890SOL    HW138129   2.243   4.041   9.742 -2.5686  2.8939  0.6840
 8890SOL    HW238130   2.289   4.170   9.803 -1.7850 -1.4392 -0.1632
 8891SOL     OW38131   1.567   1.864   9.976  0.4460  0.0733  0.0359
 8891SOL    HW138132   1.555   1.943  10.028  0.8871 -0.7254  1.3705
 8891SOL    HW238133   1.606   1.895   9.895  0.9776 -0.0685  0.2372
 8892SOL     OW38134   1.930   2.103   8.438  0.1898 -0.1611 -0.1767
 8892SOL    HW138135   1.903   2.026   8.489 -1.7634  0.8327  0.2912
 8892SOL    HW238136   1.847   2.122   8.394 -0.0362 -3.9352 -1.3906
 8893SOL     OW38137   0.701   1.698   5.624  0.4923 -0.2485 -0.6161
 8893SOL    HW138138   0.605   1.701   5.622  0.4388 -2.3106 -0.8053
 8893SOL    HW238139   0.717   1.618   5.673  0.1437  0.5021  0.7122
 8894SOL     OW38140   4.354   3.954   4.038  0.4869  0.1173 -0.2769
 8894SOL    HW138141   4.272   3.996   4.015 -0.6998 -1.4618  1.0112
 8894SOL    HW238142   4.380   4.015   4.107 -1.6392 -0.2019  0.8104
 8895SOL     OW38143   2.042   1.549   6.473 -0.1219  0.0138 -0.3692
 8895SOL    HW138144   2.137   1.562   6.472 -0.1183 -0.0149 -0.4086
 8895SOL    HW238145   2.011   1.627   6.519 -0.8750  0.6654 -1.9832
 8896SOL     OW38146   1.952   2.819   1.217  0.3833  0.0539 -0.6466
 8896SOL    HW138147   1.882   2.757   1.194 -0.5022  0.8250 -0.0170
 8896SOL    HW238148   1.915   2.844   1.301  0.9082 -1.9437  0.1705
 8897SOL     OW38149   4.467   3.196   4.870 -0.2688 -0.1278  0.6351
 8897SOL    HW138150   4.440   3.127   4.929  0.6204 -0.2992  0.8441
 8897SOL    HW238151   4.488   3.269   4.928  1.0454  1.3582 -1.7008
 8898SOL     OW38152   0.558   0.719   0.067  0.2648  0.4761  0.1803
 8898SOL    HW138153   0.647   0.752   0.079  0.3118  0.3581  0.1562
 8898SOL    HW238154   0.572   0.631   0.101  0.1279  0.7430  0.9395
 8899SOL     OW38155   1.318   0.287  16.710  1.1575 -0.1767  0.1451
 8899SOL    HW138156   1.302   0.372  16.751  0.3111 -0.0041 -0.5527
 8899SOL    HW238157   1.249   0.281  16.644 -1.0237  1.9902  2.2429
 8900SOL     OW38158   4.042   3.332   4.937 -0.0777  0.1917 -0.3678
 8900SOL    HW138159   4.032   3.261   4.873  0.6761  1.5885 -2.0517
 8900SOL    HW238160   4.005   3.289   5.014 -1.0822  1.4886 -0.1226
 8901SOL     OW38161   1.277   3.591   2.807  0.2345  0.1641  0.3791
 8901SOL    HW138162   1.248   3.578   2.717 -3.1455 -0.5150  1.5809
 8901SOL    HW238163   1.221   3.532   2.857 -0.9811  0.0440 -1.1297
 8902SOL     OW38164   2.522   3.667   6.249  0.6196 -0.0862 -0.4095
 8902SOL    HW138165   2.463   3.603   6.289 -0.1593  1.4864  0.9991
 8902SOL    HW238166   2.461   3.678   6.176  0.6453 -2.7163 -0.8261
 8903SOL     OW38167   0.638   0.871  11.776 -0.0322  0.2084  0.0310
 8903SOL    HW138168   0.701   0.861  11.705 -0.8485 -0.1647 -0.6335
 8903SOL    HW238169   0.557   0.891  11.728 -0.2855  0.3414  0.5114
 8904SOL     OW38170   0.742   4.582  14.692 -0.1809  0.0155  0.0356
 8904SOL    HW138171   0.820   4.572  14.747  1.6409  0.5817 -2.3968
 8904SOL    HW238172   0.677   4.517  14.717  0.6137 -1.6429 -2.2079
 8905SOL     OW38173   0.330   4.172   2.995  0.1828 -0.0042  0.2664
 8905SOL    HW138174   0.291   4.085   2.985  1.4625 -0.9901  3.8666
 8905SOL    HW238175   0.326   4.186   3.089  1.4734 -0.5595  0.4052
 8906SOL     OW38176   1.690   0.660   1.639 -0.4080 -0.3217 -0.5065
 8906SOL    HW138177   1.731   0.712   1.709 -0.2524 -0.7450 -0.2864
 8906SOL    HW238178   1.612   0.714   1.620 -0.0683  0.1812 -0.4791
 8907SOL     OW38179   1.600   0.283  13.766 -0.5208 -0.4488  0.2283
 8907SOL    HW138180   1.567   0.206  13.813 -1.0954 -0.3201  0.0348
 8907SOL    HW238181   1.600   0.344  13.839 -1.6862  0.4869 -0.5682
 8908SOL     OW38182   2.784   2.290   6.003 -0.0856 -0.1743  0.0241
 8908SOL    HW138183   2.721   2.362   6.006  0.6436  0.4826 -0.2930
 8908SOL    HW238184   2.727   2.217   5.978  0.8372 -1.0822  0.5990
 8909SOL     OW38185   4.694   2.030   6.786  0.2476 -0.2876  0.8879
 8909SOL    HW138186   0.060   2.005   6.750 -0.4369 -1.6869  0.2161
 8909SOL    HW238187   4.708   2.083   6.864 -1.0439 -0.0762  0.9840
 8910SOL     OW38188   2.771   0.003   1.851  0.1827  0.2737  0.1891
 8910SOL    HW138189   2.732   0.051   1.777 -0.6990  0.0301  0.4992
 8910SOL    HW238190   2.749   4.630   1.837 -1.1034  0.7177 -0.7135
 8911SOL     OW38191   3.211   3.928   4.762 -0.6839  0.3939 -0.4283
 8911SOL    HW138192   3.255   3.959   4.683 -0.7693  3.2021  0.6263
 8911SOL    HW238193   3.263   3.847   4.772  1.1634  1.5160 -0.9151
 8912SOL     OW38194   2.075   3.370   5.482 -0.1791 -0.4766 -0.1555
 8912SOL    HW138195   2.076   3.308   5.555  1.4569 -0.4908 -0.2044
 8912SOL    HW238196   2.155   3.422   5.484 -1.2397  1.2095 -1.9030
 8913SOL     OW38197   0.824   1.893   8.016 -0.4113 -0.9713 -0.3497
 8913SOL    HW138198   0.812   1.810   7.970 -1.9764 -0.5036 -0.8082
 8913SOL    HW238199   0.762   1.945   7.963 -0.0544 -1.6915 -1.4824
 8914SOL     OW38200   3.788   2.110  17.021 -0.2286  0.5800 -0.5665
 8914SOL    HW138201   3.859   2.104  16.956  0.8999 -0.5575  0.7742
 8914SOL    HW238202   3.827   2.171  17.083 -0.2074  2.1753 -2.1432
 8915SOL     OW38203   4.157   3.622   5.005 -0.1550 -0.1534  0.6677
 8915SOL    HW138204   4.103   3.546   5.026  1.9876 -1.7456  0.3672
 8915SOL    HW238205   4.182   3.600   4.915  1.7652  0.5169  1.0404
 8916SOL     OW38206   1.928   1.490  13.073 -0.9151 -0.3482  0.2415
 8916SOL    HW138207   2.013   1.448  13.083  0.0562  1.5201 -0.2388
 8916SOL    HW238208   1.882   1.414  13.107 -1.2212 -0.1935  0.1787
 8917SOL     OW38209   2.631   2.566  12.174  0.4378 -0.6582 -0.4396
 8917SOL    HW138210   2.586   2.612  12.245 -0.6909  0.1581 -1.6787
 8917SOL    HW238211   2.687   2.498  12.211 -2.4175 -1.1727  2.8499
 8918SOL     OW38212   3.218   1.285   5.723  0.3111  1.0813  0.3430
 8918SOL    HW138213   3.157   1.213   5.740  0.1193  1.0006 -0.6926
 8918SOL    HW238214   3.276   1.275   5.798  1.0081 -1.5259 -0.5470
 8919SOL     OW38215   2.808   0.862   5.000  0.4761  0.2566  0.5760
 8919SOL    HW138216   2.835   0.872   5.091  3.4676 -0.0998 -0.2864
 8919SOL    HW238217   2.760   0.944   4.986 -0.3604 -0.2405  0.4990
 8920SOL     OW38218   2.579   0.190   0.388 -0.0795 -0.0369  0.3379
 8920SOL    HW138219   2.621   0.145   0.314 -0.4006 -0.0223  0.1455
 8920SOL    HW238220   2.590   0.279   0.355 -1.1289 -1.0562 -2.8705
 8921SOL     OW38221   0.100   3.837   7.861  0.1318 -0.3504  0.5756
 8921SOL    HW138222   0.016   3.830   7.907  0.7375  2.1879  2.0852
 8921SOL    HW238223   0.156   3.774   7.906  2.7745 -0.3318 -2.7153
 8922SOL     OW38224   4.413   2.108   9.695 -0.4417  0.3877  0.7619
 8922SOL    HW138225   4.469   2.030   9.694 -1.7475 -0.5059 -1.1921
 8922SOL    HW238226   4.332   2.074   9.658  0.1038 -0.4983  0.3679
 8923SOL     OW38227   1.534   2.665   3.247 -0.1784 -0.4649  0.2890
 8923SOL    HW138228   1.512   2.572   3.254 -2.1959 -0.0101 -0.0256
 8923SOL    HW238229   1.571   2.665   3.158 -5.4148 -1.5255 -1.9252
 8924SOL     OW38230   0.124   3.199   7.173 -0.6361 -0.2892 -0.2321
 8924SOL    HW138231   0.095   3.205   7.264  0.2043  1.6598 -0.0905
 8924SOL    HW238232   0.108   3.288   7.141  1.5520  0.6731  1.3326
 8925SOL     OW38233   2.504   4.452   7.475  0.5789 -0.4895 -0.0236
 8925SOL    HW138234   2.569   4.467   7.406 -0.1894 -2.6048 -1.1859
 8925SOL    HW238235   2.461   4.375   7.439  0.5261 -0.5002  0.0634
 8926SOL     OW38236   4.489   0.965   5.121 -0.8107  0.4514 -0.1341
 8926SOL    HW138237   4.400   0.977   5.089 -2.0873 -0.8368  2.9777
 8926SOL    HW238238   4.523   1.055   5.124 -0.8966  0.5607 -2.4931
 8927SOL     OW38239   0.064   3.464  11.311 -0.6789 -0.4873 -0.5894
 8927SOL    HW138240   4.692   3.447  11.286 -1.2731  1.4281  0.3060
 8927SOL    HW238241   0.082   3.388  11.367  1.5781 -0.0904 -0.7814
 8928SOL     OW38242   4.009   4.621   4.413  0.4688  0.0940 -0.0786
 8928SOL    HW138243   3.949   4.693   4.394 -0.0352  0.1700  1.8760
 8928SOL    HW238244   3.969   4.558   4.354 -0.0204  0.1731  0.1709
 8929SOL     OW38245   0.671   0.336  17.018  0.1793 -0.0584 -0.1399
 8929SOL    HW138246   0.760   0.343  17.052  0.2415 -3.4869  0.3794
 8929SOL    HW238247   0.684   0.289  16.936  0.9703  0.0185 -0.0553
 8930SOL     OW38248   3.699   1.691  11.583  0.0979 -0.1588  0.5633
 8930SOL    HW138249   3.766   1.743  11.540 -1.1082  2.1591  1.4716
 8930SOL    HW238250   3.635   1.675  11.513 -0.0788 -0.8109  0.8724
 8931SOL     OW38251   0.526   4.065   5.865 -0.5023  0.1446  0.6989
 8931SOL    HW138252   0.615   4.033   5.850 -0.2579  1.1330  0.0116
 8931SOL    HW238253   0.513   4.061   5.959  0.5974  0.6764  0.8708
 8932SOL     OW38254   1.031   1.003   5.268 -0.2843 -0.4952  0.0921
 8932SOL    HW138255   1.083   0.963   5.199 -1.8641  0.0793 -1.4368
 8932SOL    HW238256   0.944   1.007   5.229 -0.6864 -2.9805  0.7738
 8933SOL     OW38257   1.746   0.071   4.855 -0.7256 -0.6554 -0.4244
 8933SOL    HW138258   1.704   0.095   4.772  0.8139  3.2945 -0.0287
 8933SOL    HW238259   1.705   4.704   4.868 -0.7313 -0.8360 -1.6525
 8934SOL     OW38260   1.614   0.925   3.005 -0.2968 -0.7388  0.0674
 8934SOL    HW138261   1.649   0.988   3.068 -2.0712  0.5077 -0.2026
 8934SOL    HW238262   1.532   0.964   2.974  0.8241  0.0860 -1.8418
 8935SOL     OW38263   3.553   2.989   6.331 -0.0290  0.4059 -0.0898
 8935SOL    HW138264   3.534   2.901   6.363 -0.5221  0.2595 -0.7922
 8935SOL    HW238265   3.473   3.022   6.289 -1.3941 -2.3723  0.3124
 8936SOL     OW38266   0.531   4.511   7.683  0.5156 -0.3960  0.5855
 8936SOL    HW138267   0.447   4.532   7.644  1.0376 -1.1173 -0.9040
 8936SOL    HW238268   0.594   4.568   7.637 -1.6777  0.1531 -1.7040
 8937SOL     OW38269   4.452   0.573   6.056  0.4958  0.1977  0.4755
 8937SOL    HW138270   4.427   0.547   6.145  0.9678  2.2501  1.2104
 8937SOL    HW238271   4.518   0.639   6.080 -0.2841  1.5646 -1.1212
 8938SOL     OW38272   0.271   1.255   7.520 -0.2838 -0.6183 -0.1760
 8938SOL    HW138273   0.299   1.345   7.502 -0.8148 -0.4649 -0.2291
 8938SOL    HW238274   0.328   1.206   7.461  0.4896  0.3565 -0.2464
 8939SOL     OW38275   4.432   2.646   4.013  0.3234  0.0362  0.4290
 8939SOL    HW138276   4.375   2.687   3.948 -1.1882 -0.4248  1.4472
 8939SOL    HW238277   4.517   2.642   3.970 -0.4973  1.9707 -1.3472
 8940SOL     OW38278   1.308   3.084   0.084  0.0043  0.1056  0.1653
 8940SOL    HW138279   1.288   3.177   0.098 -1.2320 -0.0904 -0.3272
 8940SOL    HW238280   1.387   3.091   0.031  1.2722 -4.5440  1.4902
 8941SOL     OW38281   3.061   4.617   7.921 -0.1069 -0.0954  0.2026
 8941SOL    HW138282   3.041   4.639   8.012 -1.6022 -2.8545  0.5160
 8941SOL    HW238283   2.979   4.581   7.889 -0.9592  0.1908  2.0790
 8942SOL     OW38284   1.974   2.858   4.835  0.2389  0.0734 -0.0102
 8942SOL    HW138285   1.931   2.784   4.791  1.1531 -1.4123  1.5886
 8942SOL    HW238286   2.059   2.823   4.861  1.3341  3.6047  1.0550
 8943SOL     OW38287   0.892   2.304   1.498 -0.1550 -0.0387 -0.4091
 8943SOL    HW138288   0.900   2.282   1.406  0.2650 -1.4492 -0.0220
 8943SOL    HW238289   0.935   2.228   1.537  1.7982  0.6246 -1.2738
 8944SOL     OW38290   1.354   3.651   0.764  0.9618  0.0023  0.1531
 8944SOL    HW138291   1.397   3.700   0.694 -0.9324  0.7754 -0.4672
 8944SOL    HW238292   1.283   3.712   0.784 -0.3577 -1.2702 -0.6203
 8945SOL     OW38293   1.330   2.371   3.408 -0.2390  0.0320 -0.5944
 8945SOL    HW138294   1.250   2.422   3.425 -1.9327 -1.8357 -3.0050
 8945SOL    HW238295   1.323   2.346   3.316  0.9797  0.7879 -0.8909
 8946SOL     OW38296   3.006   2.334  15.659  0.2953 -0.2478 -0.0371
 8946SOL    HW138297   3.032   2.326  15.751 -0.4776  1.1648  0.3105
 8946SOL    HW238298   3.070   2.384  15.609  0.9367 -0.9005  0.1352
 8947SOL     OW38299   0.186   4.372   7.339 -0.3762 -0.1423  0.1721
 8947SOL    HW138300   0.261   4.358   7.282  0.6419 -0.7918  1.6689
 8947SOL    HW238301   0.240   4.425   7.397 -0.9507 -0.1741  0.7401
 8948SOL     OW38302   0.965   1.377   8.849  0.1125 -0.5033 -0.8960
 8948SOL    HW138303   0.959   1.460   8.896 -0.6590 -0.8785 -0.3364
 8948SOL    HW238304   1.060   1.363   8.844  0.1448  0.6424 -3.4419
 8949SOL     OW38305   2.146   0.699   3.338 -0.1767 -0.0336 -0.2412
 8949SOL    HW138306   2.192   0.774   3.376  0.3419 -0.7739  0.5839
 8949SOL    HW238307   2.057   0.733   3.334 -0.0644  0.5538  2.5270
 8950SOL     OW38308   4.468   1.931   6.109 -0.1650  0.3508 -0.3816
 8950SOL    HW138309   4.494   2.023   6.104 -0.1921  0.3613 -0.3329
 8950SOL    HW238310   4.374   1.947   6.110 -0.3623 -0.9838  2.4114
 8951SOL     OW38311   2.818   2.382   4.415  0.2591  0.2054  0.2677
 8951SOL    HW138312   2.820   2.308   4.354  0.7854  0.2573  0.2211
 8951SOL    HW238313   2.724   2.379   4.434 -0.1752 -0.8941 -1.9340
 8952SOL     OW38314   4.660   1.829   4.869 -0.2600  0.6095  0.9166
 8952SOL    HW138315   4.632   1.898   4.809  0.1635 -0.7332 -0.8408
 8952SOL    HW238316   0.036   1.835   4.872 -0.2063 -0.3713  1.1372
 8953SOL     OW38317   0.403   4.066   7.506  0.0265  0.1026  0.2069
 8953SOL    HW138318   0.332   4.076   7.442 -0.0752 -0.4632  0.2323
 8953SOL    HW238319   0.369   3.993   7.557  2.8093 -1.5125 -0.2414
 8954SOL     OW38320   0.017   2.389   3.235  0.2916  0.0406  0.2549
 8954SOL    HW138321   4.719   2.321   3.300 -2.0244 -2.2303 -2.7585
 8954SOL    HW238322   4.716   2.348   3.151  1.5617  0.1028 -0.0810
 8955SOL     OW38323   0.854   2.873  11.766  0.5316  0.3169  0.1266
 8955SOL    HW138324   0.819   2.795  11.810 -1.3085  1.2872  0.3700
 8955SOL    HW238325   0.944   2.882  11.797  1.5153  0.6502 -2.8583
 8956SOL     OW38326   0.820   4.526   8.458 -0.5375  0.5649  0.1657
 8956SOL    HW138327   0.745   4.543   8.402 -0.4836 -0.9706 -0.3711
 8956SOL    HW238328   0.808   4.587   8.531 -0.0158 -0.6161  1.2392
 8957SOL     OW38329   2.412   3.495  14.640  0.3667 -0.5584 -0.0164
 8957SOL    HW138330   2.422   3.449  14.557  1.4038  0.4277 -0.4383
 8957SOL    HW238331   2.434   3.429  14.705 -0.8436 -1.4706 -0.5240
 8958SOL     OW38332   4.037   0.405   2.464  0.3433  0.3041 -0.1779
 8958SOL    HW138333   4.116   0.427   2.514  1.9718 -2.4969 -1.5414
 8958SOL    HW238334   4.082   0.389   2.382 -2.4441 -1.9651 -1.2787
 8959SOL     OW38335   0.993   3.505   6.799 -0.3046 -0.4380 -0.1154
 8959SOL    HW138336   1.077   3.461   6.783  0.0822  1.5221 -3.3899
 8959SOL    HW238337   0.963   3.527   6.711  0.3486 -1.0568 -0.4949
 8960SOL     OW38338   3.756   1.475  15.017 -0.2041 -0.3629  0.3223
 8960SOL    HW138339   3.719   1.440  14.936  1.2256 -0.6678 -0.2058
 8960SOL    HW238340   3.787   1.561  14.989  0.4231 -0.7023 -0.0453
 8961SOL     OW38341   2.478   0.559  15.947  1.0748  0.2696 -0.6752
 8961SOL    HW138342   2.405   0.583  16.004  1.8478  0.3753  0.2638
 8961SOL    HW238343   2.531   0.637  15.963 -2.6978  2.3308  1.7401
 8962SOL     OW38344   2.666   1.351   6.834 -0.2631 -0.1384 -0.2731
 8962SOL    HW138345   2.754   1.365   6.868 -0.3585  1.4057 -0.6492
 8962SOL    HW238346   2.619   1.367   6.915 -0.8749  0.8918 -0.8286
 8963SOL     OW38347   0.965   3.550  14.955  0.5710  0.0707  0.3757
 8963SOL    HW138348   0.886   3.596  14.983  1.5075  2.0779 -0.2932
 8963SOL    HW238349   1.017   3.623  14.922 -0.4926 -0.4915 -2.5115
 8964SOL     OW38350   0.389   3.650   0.520 -0.2208  0.0582  0.0564
 8964SOL    HW138351   0.385   3.605   0.604 -4.5751  0.9247  0.2981
 8964SOL    HW238352   0.426   3.576   0.472 -0.3206 -1.7821  2.8039
 8965SOL     OW38353   2.567   3.008   4.266  0.0640  0.1953  0.0439
 8965SOL    HW138354   2.491   2.954   4.289 -1.0212  2.3459  1.4454
 8965SOL    HW238355   2.639   2.961   4.308 -0.8096 -1.0872  0.1078
 8966SOL     OW38356   3.514   0.151   8.739 -0.4469  0.0032  0.6436
 8966SOL    HW138357   3.475   0.180   8.821  0.0854 -2.1304  1.6350
 8966SOL    HW238358   3.443   0.180   8.682  0.5191  2.4353  0.6737
 8967SOL     OW38359   4.269   3.460   2.251  0.0524 -0.4765  0.1610
 8967SOL    HW138360   4.241   3.377   2.289 -1.1010  0.5301  1.4869
 8967SOL    HW238361   4.260   3.521   2.324  1.6542  0.7417 -0.6446
 8968SOL     OW38362   3.327   1.910   6.253  0.5344 -0.3478  0.5471
 8968SOL    HW138363   3.236   1.915   6.283  0.5154 -0.7482  0.5493
 8968SOL    HW238364   3.337   1.992   6.205 -1.2764 -0.0543  0.6525
 8969SOL     OW38365   3.681   3.454   7.454 -0.4780 -0.0804  0.1270
 8969SOL    HW138366   3.702   3.411   7.371 -1.6308 -0.0898 -0.1629
 8969SOL    HW238367   3.736   3.532   7.451 -0.7499  0.1130  0.1671
 8970SOL     OW38368   4.385   0.651  15.235  0.0708 -0.4595  0.0956
 8970SOL    HW138369   4.424   0.591  15.298  1.0889  0.3442  0.2277
 8970SOL    HW238370   4.435   0.731  15.250 -0.3227 -0.2545  0.2970
 8971SOL     OW38371   4.502   3.846   3.405 -0.3342  0.7595 -0.4045
 8971SOL    HW138372   4.463   3.875   3.487 -0.0477  0.6041 -0.2125
 8971SOL    HW238373   4.428   3.864   3.347 -0.9203  2.1218  0.7861
 8972SOL     OW38374   4.618   1.750   8.451  0.0304 -0.1794 -0.1950
 8972SOL    HW138375   4.667   1.796   8.519  0.5182  0.3700 -0.9365
 8972SOL    HW238376   4.672   1.673   8.431  0.6961  0.0514  0.6882
 8973SOL     OW38377   4.011   0.495  17.114 -0.2151 -0.0120 -0.1121
 8973SOL    HW138378   3.989   0.511  17.205 -0.8510 -1.1152 -0.0780
 8973SOL    HW238379   4.014   0.587  17.086 -1.8230  0.2864  0.7325
 8974SOL     OW38380   2.190   2.726   7.417  0.2929 -0.2362  0.3711
 8974SOL    HW138381   2.259   2.683   7.367  0.8362  1.6560 -0.4849
 8974SOL    HW238382   2.216   2.818   7.425  1.6223 -0.5478 -0.2980
 8975SOL     OW38383   3.452   0.152   5.677 -0.0537  0.1073  1.0724
 8975SOL    HW138384   3.488   0.114   5.597 -0.6193  0.1027  0.8217
 8975SOL    HW238385   3.362   0.173   5.652  0.2080  1.5811  1.3544
 8976SOL     OW38386   0.629   0.494   6.449 -0.5419  0.1614 -0.2607
 8976SOL    HW138387   0.692   0.452   6.507  0.6617  1.6486 -0.5089
 8976SOL    HW238388   0.570   0.423   6.425  2.9539 -2.8524  0.1486
 8977SOL     OW38389   4.352   3.043   9.254 -0.4552  0.3316  0.0798
 8977SOL    HW138390   4.375   2.950   9.241 -2.1235 -0.0467 -0.1575
 8977SOL    HW238391   4.349   3.076   9.164 -0.3295 -1.6690 -0.6632
 8978SOL     OW38392   2.554   0.297   5.951 -0.3897 -0.1316 -0.3193
 8978SOL    HW138393   2.493   0.345   5.895  1.8303  2.4498 -0.5513
 8978SOL    HW238394   2.619   0.366   5.967 -1.0389  0.8699 -1.9633
 8979SOL     OW38395   3.233   1.685   8.422 -0.0860  0.4127 -0.1008
 8979SOL    HW138396   3.207   1.610   8.476  1.4043  0.3314  0.4898
 8979SOL    HW238397   3.316   1.655   8.387 -0.7096 -1.3488 -0.0717
 8980SOL     OW38398   2.880   3.241  14.990 -0.3462 -0.5485 -0.1033
 8980SOL    HW138399   2.860   3.149  14.975  1.4128 -0.8277 -0.8179
 8980SOL    HW238400   2.809   3.296  14.959 -0.0723 -0.6091 -0.8495
 8981SOL     OW38401   2.558   3.716  11.549 -0.1885  0.3579  0.0425
 8981SOL    HW138402   2.583   3.794  11.597  1.2148  0.0374 -0.1517
 8981SOL    HW238403   2.570   3.733  11.455 -1.4026  0.9930  0.0098
 8982SOL     OW38404   2.819   0.025   6.188 -0.5401  0.4331 -0.3150
 8982SOL    HW138405   2.842   0.020   6.095 -0.7739 -1.5540 -0.2800
 8982SOL    HW238406   2.727   0.048   6.179 -0.2802  0.9265 -1.6168
 8983SOL     OW38407   2.312   0.304   2.156 -0.0482  0.7046 -0.1882
 8983SOL    HW138408   2.379   0.297   2.224  0.2525 -2.1105 -0.7404
 8983SOL    HW238409   2.358   0.269   2.080  0.9671 -0.1355  0.8203
 8984SOL     OW38410   2.034   0.823   9.883 -0.2857  0.1709  0.0924
 8984SOL    HW138411   2.084   0.893   9.841 -0.4429  0.1959 -0.0546
 8984SOL    HW238412   2.108   0.770   9.912  1.3126  2.8665  0.9457
 8985SOL     OW38413   0.251   2.312   6.641  0.8390  0.5422 -0.4428
 8985SOL    HW138414   0.252   2.298   6.736  0.8236  1.1144 -0.3572
 8985SOL    HW238415   0.172   2.358   6.613  0.1901 -0.8071 -0.7993
 8986SOL     OW38416   4.585   1.374  17.200  0.3299 -0.5341  0.1201
 8986SOL    HW138417   4.600   1.405  17.111  1.4545  0.4821  0.6497
 8986SOL    HW238418   4.640   1.440  17.243  1.0532 -0.0335 -1.5901
 8987SOL     OW38419   3.551   2.490   3.445 -0.0089  0.3014 -0.4398
 8987SOL    HW138420   3.488   2.536   3.499 -1.0175 -0.8113 -0.6630
 8987SOL    HW238421   3.625   2.551   3.437 -0.5968  1.2790  1.8696
 8988SOL     OW38422   0.672   1.645   6.442 -0.0907  0.0380  0.2557
 8988SOL    HW138423   0.723   1.726   6.448  0.2080 -0.1668  0.4736
 8988SOL    HW238424   0.586   1.674   6.412  0.5830 -0.8615 -2.5297
 8989SOL     OW38425   0.168   0.547  12.482  0.2243  0.2793  0.1341
 8989SOL    HW138426   0.238   0.591  12.433 -1.6115  0.9443 -1.8714
 8989SOL    HW238427   0.179   0.583  12.570  3.6883  0.1655 -0.2433
 8990SOL     OW38428   1.785   2.061  12.229 -0.3267 -0.5788 -0.4598
 8990SOL    HW138429   1.857   2.015  12.273  1.0367  0.8764 -1.1626
 8990SOL    HW238430   1.823   2.149  12.225 -0.4371 -0.4649  1.0362
 8991SOL     OW38431   1.537   2.692   0.527 -0.6573 -0.7020 -0.2078
 8991SOL    HW138432   1.543   2.619   0.588 -2.6431 -0.3583  0.4006
 8991SOL    HW238433   1.459   2.740   0.556  1.2376  0.6647  2.6791
 8992SOL     OW38434   3.690   1.427   9.221  0.4273  0.0387  0.4222
 8992SOL    HW138435   3.709   1.346   9.267  2.3800 -0.9054 -2.0307
 8992SOL    HW238436   3.770   1.472   9.195 -0.0578  0.8291  0.2595
 8993SOL     OW38437   2.998   1.677  10.778  0.1799 -0.0421  0.1622
 8993SOL    HW138438   2.980   1.608  10.714  2.3007  1.0474 -1.6206
 8993SOL    HW238439   3.061   1.727  10.727 -0.4416  0.3835 -0.1939
 8994SOL     OW38440   3.736   2.240  17.428 -0.1472 -0.1484  0.3568
 8994SOL    HW138441   3.710   2.305  17.493  0.2259  2.1254 -1.7729
 8994SOL    HW238442   3.656   2.225  17.377  0.7993 -0.6500 -1.0050
 8995SOL     OW38443   2.234   3.224   4.405  0.5003  0.2621 -0.7366
 8995SOL    HW138444   2.190   3.194   4.325 -3.1114 -3.2728  2.5980
 8995SOL    HW238445   2.156   3.265   4.442  0.4386 -0.8141  0.3005
 8996SOL     OW38446   0.804   2.142   7.249 -0.5590 -0.0387  0.4625
 8996SOL    HW138447   0.776   2.232   7.270  1.7358  0.7022  0.2672
 8996SOL    HW238448   0.748   2.122   7.174  0.9833  0.5015 -0.8186
 8997SOL     OW38449   1.924   2.330  12.204 -0.4181  0.0360 -0.2488
 8997SOL    HW138450   1.930   2.348  12.298 -0.7804 -4.7197  0.7189
 8997SOL    HW238451   1.993   2.384  12.167 -0.3239  0.2671  0.2671
 8998SOL     OW38452   3.166   4.651   2.745 -0.2244  0.0772  0.3788
 8998SOL    HW138453   3.176   4.583   2.812  3.0761  0.6018  0.4568
 8998SOL    HW238454   3.257   4.662   2.716 -0.7704  3.1424 -0.1931
 8999SOL     OW38455   4.680   1.513  16.241  0.2009  1.3172  0.2417
 8999SOL    HW138456   4.641   1.589  16.198 -0.6299  0.8318  0.1430
 8999SOL    HW238457   4.697   1.454  16.168 -0.4726  1.1290  0.2379
 9000SOL     OW38458   2.203   4.174  10.975 -0.0131  0.0012 -0.3083
 9000SOL    HW138459   2.153   4.128  11.042  1.4409  0.0354  0.7810
 9000SOL    HW238460   2.161   4.260  10.966 -1.7691 -0.9395 -1.1637
 9001SOL     OW38461   1.552   0.190   8.730 -0.3142  0.1933 -0.2347
 9001SOL    HW138462   1.554   0.150   8.817  0.5704 -0.5000 -0.5845
 9001SOL    HW238463   1.587   0.116   8.681 -1.2915  0.8018 -1.8628
 9002SOL     OW38464   2.774   1.959   3.471 -0.6565  0.1098 -0.0948
 9002SOL    HW138465   2.793   1.871   3.440 -1.9301  0.5494 -2.1808
 9002SOL    HW238466   2.698   1.985   3.418  1.6461  2.1341 -2.3891
 9003SOL     OW38467   3.004   2.003   7.731 -0.1633 -0.2472  0.6412
 9003SOL    HW138468   2.956   2.020   7.812  1.4566  0.4933  1.4609
 9003SOL    HW238469   3.016   2.095   7.705  1.9423 -0.3655  1.2247
 9004SOL     OW38470   3.151   0.689   7.851  0.1123  0.3017 -0.7143
 9004SOL    HW138471   3.196   0.643   7.921  0.1961  0.9981 -0.3095
 9004SOL    HW238472   3.122   0.770   7.892 -0.2965 -0.6453  0.8342
 9005SOL     OW38473   0.832   3.420   8.367 -0.0750  0.7727 -0.4038
 9005SOL    HW138474   0.766   3.432   8.435 -0.8357  1.0259 -1.1858
 9005SOL    HW238475   0.859   3.512   8.367 -1.8171  1.2833  2.9962
 9006SOL     OW38476   1.840   1.010   9.173 -0.1572  0.2884  0.4985
 9006SOL    HW138477   1.778   0.974   9.109 -0.3727 -1.1939  1.5417
 9006SOL    HW238478   1.915   0.950   9.166 -1.0722 -0.8611  0.4917
 9007SOL     OW38479   2.285   2.982   3.692  0.0641 -0.0536  0.3440
 9007SOL    HW138480   2.359   3.043   3.702  0.4063 -0.0360 -2.1418
 9007SOL    HW238481   2.281   2.988   3.596 -0.2013  0.3251  0.3773
 9008SOL     OW38482   1.366   2.765  17.572 -0.6192 -0.0063  0.3498
 9008SOL    HW138483   1.367   2.669  17.580  0.6594 -0.1260 -1.1733
 9008SOL    HW238484   1.345   2.793  17.660  3.1568  0.1643  1.2039
 9009SOL     OW38485   2.905   2.434  11.996  0.1520  0.2312  0.3576
 9009SOL    HW138486   2.843   2.364  11.977 -0.9605  1.0225  1.0738
 9009SOL    HW238487   2.992   2.395  11.999  0.5418  0.9897 -1.1953
 9010SOL     OW38488   0.860   0.697   2.671 -0.5686 -0.0098 -0.4455
 9010SOL    HW138489   0.841   0.630   2.606  0.1892  1.1321 -1.8422
 9010SOL    HW238490   0.954   0.685   2.687 -1.3317 -2.0444  2.7046
 9011SOL     OW38491   0.224   2.402   4.234  0.4472 -0.3352 -0.5709
 9011SOL    HW138492   0.208   2.331   4.172  0.4776  0.6129 -1.6733
 9011SOL    HW238493   0.164   2.473   4.214  0.8824  0.0469 -0.5288
 9012SOL     OW38494   0.115   3.531   4.234  0.2928 -0.5937  0.3087
 9012SOL    HW138495   0.192   3.526   4.291 -0.0174 -0.9930  0.6931
 9012SOL    HW238496   0.096   3.441   4.210 -1.4314  0.2172 -1.3176
 9013SOL     OW38497   4.431   4.568  11.195  0.4295 -0.5900 -0.6729
 9013SOL    HW138498   4.447   4.479  11.164 -0.8387 -1.1886  0.4230
 9013SOL    HW238499   4.524   4.586  11.208 -0.7032  3.6156  1.6248
 9014SOL     OW38500   4.624   2.311  12.724 -0.2409 -0.1824 -0.1733
 9014SOL    HW138501   4.652   2.294  12.814 -0.7002 -0.4649 -0.0811
 9014SOL    HW238502   4.697   2.366  12.695  0.0945 -0.2552  0.5415
 9015SOL     OW38503   2.608   4.337   2.356  0.9548 -0.2572 -0.5216
 9015SOL    HW138504   2.517   4.341   2.329  0.5389  1.3570  1.1538
 9015SOL    HW238505   2.604   4.407   2.422 -0.2374 -0.1001 -0.7748
 9016SOL     OW38506   1.648   0.882   8.448 -0.7413 -0.8576  0.1588
 9016SOL    HW138507   1.735   0.858   8.417 -0.1964 -0.5894  1.4826
 9016SOL    HW238508   1.670   0.948   8.513  2.7154  0.9669 -2.8781
 9017SOL     OW38509   3.057   2.380  12.566  0.0186  1.0539  0.3293
 9017SOL    HW138510   3.023   2.341  12.647 -0.6235  0.8562 -0.0335
 9017SOL    HW238511   3.120   2.311  12.545 -0.1417  0.8195  0.6145
 9018SOL     OW38512   3.299   1.816   4.389  0.1086  0.4083  0.3769
 9018SOL    HW138513   3.367   1.764   4.431  0.8248  0.8883 -0.1964
 9018SOL    HW238514   3.235   1.750   4.363  0.7791 -1.0334  2.3667
 9019SOL     OW38515   1.569   1.136   3.900 -0.2203 -0.7626 -0.6171
 9019SOL    HW138516   1.570   1.186   3.982  1.7932  0.1960 -1.2407
 9019SOL    HW238517   1.622   1.059   3.923  0.3149  1.1219  4.5950
 9020SOL     OW38518   3.135   1.029   6.487  0.1364 -0.3855 -0.1858
 9020SOL    HW138519   3.114   1.114   6.448  2.8990 -0.0229 -0.9370
 9020SOL    HW238520   3.059   1.008   6.540 -0.1542 -1.4405 -1.0121
 9021SOL     OW38521   4.509   0.482   2.432  0.2743  0.2986  0.5270
 9021SOL    HW138522   4.453   0.532   2.372  2.0210  1.3068 -0.2772
 9021SOL    HW238523   4.483   0.391   2.417  0.8312  0.1695  0.3461
 9022SOL     OW38524   2.463   1.041   1.758 -0.0583 -0.8144 -0.0800
 9022SOL    HW138525   2.499   1.089   1.684  0.2171  0.4416  0.8826
 9022SOL    HW238526   2.532   1.056   1.822  1.0138 -1.5263 -1.0817
 9023SOL     OW38527   1.299   1.583   5.389  0.2499  0.3450 -0.1065
 9023SOL    HW138528   1.212   1.557   5.420  0.3729  1.1402  0.8810
 9023SOL    HW238529   1.318   1.658   5.446 -0.4264 -0.4244  1.1401
 9024SOL     OW38530   2.347   1.273   8.356  0.6451  0.1187 -0.2755
 9024SOL    HW138531   2.341   1.277   8.451  1.0698 -3.5375 -0.1010
 9024SOL    HW238532   2.307   1.357   8.335  0.9053  0.1943 -0.4763
 9025SOL     OW38533   3.535   4.195   8.496  0.5641 -0.1015  0.3177
 9025SOL    HW138534   3.519   4.242   8.414  3.5009  1.3034  0.5457
 9025SOL    HW238535   3.449   4.214   8.532  0.3557 -1.9479  0.7911
 9026SOL     OW38536   2.597   1.081   5.010  0.2784 -0.2892  0.0256
 9026SOL    HW138537   2.522   1.121   4.965  0.7918  0.4884 -0.1413
 9026SOL    HW238538   2.585   1.110   5.100  0.0310 -1.9828  0.5326
 9027SOL     OW38539   1.447   0.358  15.377 -0.1587  0.1765 -0.3038
 9027SOL    HW138540   1.479   0.401  15.297 -0.1630 -2.2599 -1.5981
 9027SOL    HW238541   1.437   0.269  15.345 -1.2102  0.3884 -0.5879
 9028SOL     OW38542   4.058   1.475   5.998 -0.3208  0.1044  0.7413
 9028SOL    HW138543   4.041   1.534   6.071  1.0277  2.1952 -0.6435
 9028SOL    HW238544   4.017   1.518   5.923 -1.3502 -0.8279  0.7645
 9029SOL     OW38545   4.220   1.857   0.955  0.0679  0.0048  0.3153
 9029SOL    HW138546   4.296   1.874   1.011  0.0705  1.2628 -0.0803
 9029SOL    HW238547   4.270   1.843   0.874  1.1791 -1.9522  1.3491
 9030SOL     OW38548   0.199   4.379   2.621  0.1175 -0.6225 -0.1702
 9030SOL    HW138549   0.211   4.331   2.539  0.6575 -0.4226 -0.2082
 9030SOL    HW238550   0.249   4.329   2.685 -0.6789 -3.1369 -1.5176
 9031SOL     OW38551   4.033   2.509   6.938 -0.2330  0.1368  0.4203
 9031SOL    HW138552   4.104   2.466   6.891 -0.1304  0.9398 -0.1517
 9031SOL    HW238553   4.077   2.526   7.021 -0.3913  0.3320  0.4627
 9032SOL     OW38554   3.996   4.447  15.560  0.0512  0.1034  0.0937
 9032SOL    HW138555   4.042   4.510  15.615 -0.2053 -2.3170  3.1039
 9032SOL    HW238556   4.054   4.459  15.485  0.1926  0.5954  0.2830
 9033SOL     OW38557   0.032   3.176   7.424 -0.3307  0.3811 -0.8235
 9033SOL    HW138558   0.078   3.101   7.464  0.9278  1.1933 -0.7528
 9033SOL    HW238559   4.661   3.150   7.442  0.1545  0.6664  1.9803
 9034SOL     OW38560   0.865   4.271   8.060  0.3288  0.1723 -0.3950
 9034SOL    HW138561   0.898   4.346   8.011 -0.1160  1.0325  0.6064
 9034SOL    HW238562   0.782   4.265   8.013 -1.0258 -0.3079  2.0157
 9035SOL     OW38563   1.303   3.110   0.819  0.4995  0.1156 -0.0926
 9035SOL    HW138564   1.364   3.048   0.777 -0.0770 -0.7874  0.3977
 9035SOL    HW238565   1.293   3.182   0.757 -2.1577 -0.2158 -0.0617
 9036SOL     OW38566   2.783   3.005   5.068  0.0922 -0.5797  0.0508
 9036SOL    HW138567   2.792   3.093   5.032  1.5989 -2.0053 -3.1044
 9036SOL    HW238568   2.705   3.007   5.123 -0.3119 -1.1835 -0.5014
 9037SOL     OW38569   4.500   2.395   2.236  0.2998  0.6804  0.2497
 9037SOL    HW138570   4.432   2.377   2.301  0.3473  0.8966  0.3612
 9037SOL    HW238571   4.443   2.386   2.159 -0.2582  0.2229  0.7146
 9038SOL     OW38572   4.492   3.156   1.687  0.7776  0.4434  0.3633
 9038SOL    HW138573   4.422   3.111   1.639  1.6085 -1.9683  1.3997
 9038SOL    HW238574   4.513   3.216   1.615 -0.2365 -0.1656 -0.4456
 9039SOL     OW38575   0.908   1.902   2.967 -0.1815  0.6920 -0.1559
 9039SOL    HW138576   0.942   1.857   3.045 -2.1189 -0.4137  0.0378
 9039SOL    HW238577   0.988   1.948   2.943  0.8851 -1.3665 -0.5651
 9040SOL     OW38578   2.773   0.257   3.614  0.1605 -0.0412 -0.3172
 9040SOL    HW138579   2.811   0.344   3.627 -2.5013  0.9972  0.3979
 9040SOL    HW238580   2.684   0.280   3.588  0.1805  1.1439  0.6776
 9041SOL     OW38581   0.254   3.614   1.973  0.1173 -0.1419 -0.4796
 9041SOL    HW138582   0.213   3.574   1.896  1.3823 -1.5151 -0.4382
 9041SOL    HW238583   0.275   3.699   1.936 -0.9190 -0.2594 -1.3563
 9042SOL     OW38584   4.505   3.431  11.640  0.0509  0.1512 -0.0895
 9042SOL    HW138585   4.451   3.477  11.705 -0.4820 -0.1519 -0.3160
 9042SOL    HW238586   4.588   3.415  11.683  1.5068 -1.8636 -3.6092
 9043SOL     OW38587   0.116   2.949   3.968 -0.2257  0.1059  0.0915
 9043SOL    HW138588   0.082   3.019   3.913 -0.5809  0.5687  0.9045
 9043SOL    HW238589   0.175   3.008   4.015  1.8312  0.0442 -2.3812
 9044SOL     OW38590   1.220   4.118   5.161 -0.4793  0.0432  0.2688
 9044SOL    HW138591   1.235   4.030   5.127  0.3295 -0.6017  2.2996
 9044SOL    HW238592   1.218   4.157   5.073  3.1234  2.8333  1.4202
 9045SOL     OW38593   2.136   1.970   0.519  0.1896  0.0417 -0.5999
 9045SOL    HW138594   2.179   1.953   0.603  0.4778 -0.0594 -0.7687
 9045SOL    HW238595   2.074   1.898   0.516  2.1613 -1.6313 -0.9739
 9046SOL     OW38596   2.052   0.384   8.073  0.1969 -0.1788 -0.0028
 9046SOL    HW138597   2.057   0.445   8.147  1.5368 -1.5710  1.0364
 9046SOL    HW238598   1.971   0.417   8.034 -0.4479 -1.3350  0.3547
 9047SOL     OW38599   2.839   2.888   6.775 -0.0930 -0.3631  0.1674
 9047SOL    HW138600   2.914   2.902   6.717  1.4278  0.1497  2.2605
 9047SOL    HW238601   2.782   2.961   6.751  1.6295  1.5668  2.0640
 9048SOL     OW38602   0.649   4.579   7.345 -0.5574 -0.2813  0.0265
 9048SOL    HW138603   0.627   4.639   7.416 -0.0741 -0.5748  0.4209
 9048SOL    HW238604   0.706   4.517   7.391  0.7014  1.3842  0.7110
 9049SOL     OW38605   0.711   1.634   7.041 -0.0349  0.1769  0.7897
 9049SOL    HW138606   0.798   1.666   7.065  0.9234 -0.4054 -1.8771
 9049SOL    HW238607   0.734   1.546   7.012  1.0957  0.7238  0.0221
 9050SOL     OW38608   2.720   1.777   6.064 -0.0016  0.0314 -0.4529
 9050SOL    HW138609   2.670   1.857   6.052 -0.7675 -0.4014 -0.0912
 9050SOL    HW238610   2.674   1.738   6.138  2.4054 -2.4544 -0.2198
 9051SOL     OW38611   0.484   2.502   4.094  0.1836 -0.1739 -0.2430
 9051SOL    HW138612   0.409   2.548   4.133  0.0783  1.5967 -2.5413
 9051SOL    HW238613   0.449   2.414   4.087  1.4483 -0.9089  2.5947
 9052SOL     OW38614   3.374   0.007  17.371 -0.0278 -0.2274 -0.6275
 9052SOL    HW138615   3.437   4.717  17.301 -1.1713 -0.2529 -1.6539
 9052SOL    HW238616   3.422   0.060  17.435  1.7765 -1.3500 -1.0541
 9053SOL     OW38617   3.582   2.697  17.480  0.3072  0.2554 -0.2532
 9053SOL    HW138618   3.646   2.645  17.431 -1.2183  0.1620 -2.1273
 9053SOL    HW238619   3.510   2.636  17.470  1.2428 -1.1605  1.7973
 9054SOL     OW38620   4.022   4.272  12.065  0.0509  0.5178  0.6329
 9054SOL    HW138621   4.108   4.231  12.076 -0.6674 -0.5560  2.2105
 9054SOL    HW238622   4.024   4.320  11.982  0.0423 -1.4567 -0.5131
 9055SOL     OW38623   4.037   2.732   7.487 -0.0821 -0.2704 -0.3500
 9055SOL    HW138624   4.055   2.652   7.536 -1.2534  0.4471  1.2571
 9055SOL    HW238625   4.108   2.792   7.509  0.8620 -1.2769 -0.6325
 9056SOL     OW38626   3.112   1.635  12.913 -0.1709  0.0671  0.5242
 9056SOL    HW138627   3.090   1.621  12.821  0.9205  0.6554  0.1644
 9056SOL    HW238628   3.039   1.583  12.944  0.4136  0.4208  2.4750
 9057SOL     OW38629   2.181   1.697   0.775  0.0871  0.1567  0.0631
 9057SOL    HW138630   2.184   1.769   0.837 -0.6867 -0.7465  1.1509
 9057SOL    HW238631   2.241   1.633   0.813  0.8510  0.1005 -1.2246
 9058SOL     OW38632   3.264   1.694   5.517 -0.0592  0.6629  0.7290
 9058SOL    HW138633   3.235   1.614   5.561  0.1758  0.6675  0.8948
 9058SOL    HW238634   3.235   1.663   5.432 -1.4037 -0.0109  1.4371
 9059SOL     OW38635   0.621   2.356   1.426  0.4659  0.1782  0.0913
 9059SOL    HW138636   0.700   2.301   1.421 -0.4549 -0.8690 -2.9617
 9059SOL    HW238637   0.608   2.393   1.338  0.2247  0.7981  0.3901
 9060SOL     OW38638   1.794   3.902   3.859  0.4786 -0.3973 -0.2262
 9060SOL    HW138639   1.887   3.907   3.878  0.7441  1.1332 -1.9443
 9060SOL    HW238640   1.782   3.979   3.804 -0.8053  1.6431  2.9541
 9061SOL     OW38641   3.781   1.142   6.293 -0.3260 -0.4497 -0.3117
 9061SOL    HW138642   3.821   1.202   6.230  0.1487 -0.6613 -0.2137
 9061SOL    HW238643   3.796   1.060   6.247 -1.4402 -0.8368  0.0121
 9062SOL     OW38644   0.709   2.651  15.721 -0.1031 -0.5603 -0.3455
 9062SOL    HW138645   0.617   2.653  15.694  0.7279 -1.7970 -3.2195
 9062SOL    HW238646   0.727   2.557  15.714  0.3809 -0.4760 -0.2371
 9063SOL     OW38647   1.657   4.048   7.908  0.7692 -0.1789 -0.2201
 9063SOL    HW138648   1.701   3.964   7.895 -2.2759 -1.8439  0.1863
 9063SOL    HW238649   1.705   4.105   7.848 -1.0142  1.1890 -0.3527
 9064SOL     OW38650   4.601   2.513  17.084 -0.0456 -0.4469 -0.5670
 9064SOL    HW138651   4.626   2.596  17.124  2.9347 -1.6330  0.0592
 9064SOL    HW238652   4.681   2.465  17.105  0.1588  1.6233  3.2840
 9065SOL     OW38653   2.056   1.828   7.371 -0.3242  0.7413 -0.6118
 9065SOL    HW138654   2.120   1.894   7.396 -0.1381  0.4100 -0.2067
 9065SOL    HW238655   2.105   1.746   7.371 -0.0390  0.9136  0.0776
 9066SOL     OW38656   0.526   2.997  16.257  0.6472  0.2111  0.0295
 9066SOL    HW138657   0.493   2.959  16.175 -2.3098  1.0921  0.8311
 9066SOL    HW238658   0.479   3.080  16.263 -1.3221 -0.5975 -3.8903
 9067SOL     OW38659   0.136   1.222   3.545  0.1076 -0.6639  0.2514
 9067SOL    HW138660   0.054   1.172   3.550 -0.3703  0.2956  2.1982
 9067SOL    HW238661   0.100   1.310   3.555  0.5546 -0.6352  1.6419
 9068SOL     OW38662   3.769   0.460  13.818 -0.0340  0.5364  0.2740
 9068SOL    HW138663   3.820   0.426  13.891  0.1768  1.4379  0.5494
 9068SOL    HW238664   3.829   0.475  13.745  0.4248 -1.1110  0.3203
 9069SOL     OW38665   4.544   4.605   6.835 -0.0698  0.3063 -0.6291
 9069SOL    HW138666   4.462   4.600   6.884  0.6631  1.1052  0.6678
 9069SOL    HW238667   4.574   4.690   6.866  0.6004  1.0616 -3.3611
 9070SOL     OW38668   3.535   2.441   1.981  0.5953  0.2910  0.4000
 9070SOL    HW138669   3.546   2.452   2.076 -1.4140  2.1177  0.4124
 9070SOL    HW238670   3.460   2.382   1.985  0.3081  0.6125 -0.3253
 9071SOL     OW38671   3.172   3.073   6.951  0.4878  0.0719 -0.6598
 9071SOL    HW138672   3.096   3.116   6.990  0.3244 -0.9805  0.2200
 9071SOL    HW238673   3.117   3.028   6.887 -0.4099 -1.9072  1.4858
 9072SOL     OW38674   1.025   0.260   5.462 -0.6308  0.1695 -0.3856
 9072SOL    HW138675   0.941   0.250   5.417 -1.1252  0.3875  0.4945
 9072SOL    HW238676   1.082   0.216   5.399 -0.4493 -1.0386  0.6040
 9073SOL     OW38677   4.580   0.841  15.252 -0.4895 -0.5644  0.2540
 9073SOL    HW138678   4.601   0.910  15.315  2.1501  0.0443 -1.2813
 9073SOL    HW238679   4.595   0.890  15.171  0.4312 -1.8128 -0.3357
 9074SOL     OW38680   1.818   3.723   6.510  0.2148 -0.2135 -0.4321
 9074SOL    HW138681   1.863   3.639   6.504  1.0541  0.1508  0.7843
 9074SOL    HW238682   1.765   3.726   6.430  0.1418 -0.2394 -0.3843
 9075SOL     OW38683   2.005   1.913  10.444  0.1529 -0.5510 -0.1309
 9075SOL    HW138684   1.988   1.855  10.370  2.1049  0.2947 -1.2660
 9075SOL    HW238685   2.083   1.871  10.481  0.2194 -0.5935 -0.3163
 9076SOL     OW38686   1.398   2.952   6.304  0.3707 -0.1959  0.2470
 9076SOL    HW138687   1.487   2.950   6.267  0.5115 -2.7385  0.7156
 9076SOL    HW238688   1.377   2.863   6.334  1.3432 -0.6709 -0.4412
 9077SOL     OW38689   0.348   1.232   3.163  0.4144 -0.4455 -0.0766
 9077SOL    HW138690   0.413   1.169   3.133  0.2751 -0.5369 -0.1914
 9077SOL    HW238691   0.279   1.166   3.174 -1.9871  1.9664 -0.5331
 9078SOL     OW38692   3.989   4.367  11.812  0.0433  0.1624  0.1516
 9078SOL    HW138693   4.043   4.376  11.734 -0.2763  0.2631 -0.0596
 9078SOL    HW238694   3.902   4.368  11.772  0.3717 -1.4083 -0.5848
 9079SOL     OW38695   4.575   2.870   9.270  0.4169  0.3216  0.0672
 9079SOL    HW138696   4.648   2.855   9.331 -0.5764  1.6492  1.5715
 9079SOL    HW238697   4.506   2.825   9.319  0.7577  0.4119  0.6317
 9080SOL     OW38698   3.445   4.537   2.847  0.1262 -0.1241 -0.1544
 9080SOL    HW138699   3.478   4.613   2.895 -1.3362 -1.5009  2.9583
 9080SOL    HW238700   3.524   4.508   2.800 -0.8128  0.7797 -2.3203
 9081SOL     OW38701   4.475   0.681   3.884  1.3056  0.3875 -0.5580
 9081SOL    HW138702   4.412   0.641   3.944  0.2527  1.7275 -0.7751
 9081SOL    HW238703   4.434   0.683   3.797 -3.6829  0.5111  1.8221
 9082SOL     OW38704   0.913   2.125  14.038 -0.5657 -0.2587  0.1184
 9082SOL    HW138705   0.866   2.196  13.994  2.4936  1.6102 -0.1541
 9082SOL    HW238706   0.993   2.160  14.000  0.4193 -2.2347  0.3579
 9083SOL     OW38707   4.289   3.426   1.827 -0.0812  0.0595 -0.4173
 9083SOL    HW138708   4.329   3.351   1.872 -2.4566  0.4746  2.3988
 9083SOL    HW238709   4.197   3.407   1.809  0.0707  0.5306 -1.7092
 9084SOL     OW38710   1.369   2.142   5.572 -0.3832 -0.9019 -0.1996
 9084SOL    HW138711   1.276   2.120   5.572 -0.8595  1.0651 -0.8261
 9084SOL    HW238712   1.394   2.165   5.482  0.5799 -3.6985 -0.6358
 9085SOL     OW38713   0.516   2.273   6.158  0.1203 -0.4390  0.3401
 9085SOL    HW138714   0.517   2.316   6.244 -0.8357 -1.4800  0.8813
 9085SOL    HW238715   0.427   2.294   6.129  0.2447 -1.5128 -0.7979
 9086SOL     OW38716   0.228   3.659   5.541 -0.0553 -0.1411 -0.3644
 9086SOL    HW138717   0.319   3.688   5.550  0.2592 -1.3701  0.4302
 9086SOL    HW238718   0.187   3.744   5.524  2.4584  0.8561 -1.5290
 9087SOL     OW38719   1.145   4.651   3.763 -0.0789  0.3388 -0.0969
 9087SOL    HW138720   1.164   4.701   3.684 -0.2146  1.3980  0.5407
 9087SOL    HW238721   1.175   4.701   3.839  1.1193 -2.1433  1.0370
 9088SOL     OW38722   1.084   1.239   5.923  0.0472  0.1458 -0.1844
 9088SOL    HW138723   1.106   1.147   5.907  1.8765  0.4758  0.3499
 9088SOL    HW238724   1.016   1.235   5.991 -0.6767 -2.5167 -1.0798
 9089SOL     OW38725   1.095   4.170   6.840 -0.3455  0.1258 -0.0843
 9089SOL    HW138726   1.166   4.152   6.903 -0.5629  5.4695  1.6627
 9089SOL    HW238727   1.103   4.086   6.796 -0.2373 -0.1197  0.3945
 9090SOL     OW38728   4.609   2.019   7.396 -0.3766  0.1060  0.7174
 9090SOL    HW138729   4.692   2.039   7.438  1.3771 -2.3281 -1.5701
 9090SOL    HW238730   4.619   1.927   7.371  0.9302  0.5655 -0.4482
 9091SOL     OW38731   3.815   2.777  10.791 -0.2841  0.0631  0.5807
 9091SOL    HW138732   3.793   2.700  10.844  0.6874 -1.1948 -0.8526
 9091SOL    HW238733   3.901   2.754  10.757 -0.5778  1.4766 -1.1250
 9092SOL     OW38734   2.013   0.447   8.352  0.7323  0.7146  0.5069
 9092SOL    HW138735   1.966   0.480   8.429  0.7460 -0.7629  1.1587
 9092SOL    HW238736   1.998   0.354   8.372 -0.7013  0.9608  0.5898
 9093SOL     OW38737   0.011   4.464   6.054  0.5303 -0.0974  0.7067
 9093SOL    HW138738   0.090   4.503   6.093  1.1781  1.1242 -1.7873
 9093SOL    HW238739   4.690   4.545   6.023  2.4270  0.9688  0.9957
 9094SOL     OW38740   1.272   4.525  17.614 -0.1442 -0.3044 -0.3938
 9094SOL    HW138741   1.315   4.440  17.625 -1.8571 -1.6278 -4.0731
 9094SOL    HW238742   1.328   4.563  17.546 -2.4968  1.9737 -1.0436
 9095SOL     OW38743   4.341   4.445   4.764 -0.3655 -0.5967 -0.2572
 9095SOL    HW138744   4.327   4.352   4.779 -0.6481 -0.5238 -0.0613
 9095SOL    HW238745   4.284   4.459   4.689 -0.5221 -1.6916 -0.3291
 9096SOL     OW38746   2.964   1.886   2.498 -0.6881  0.1371  0.4403
 9096SOL    HW138747   2.941   1.800   2.462  1.6012 -0.4971  0.4679
 9096SOL    HW238748   3.031   1.910   2.433 -2.2599  0.5655 -1.0257
 9097SOL     OW38749   2.961   0.177   4.301  0.1509  0.5175 -0.4335
 9097SOL    HW138750   3.053   0.153   4.301 -0.1771 -0.8073  1.8807
 9097SOL    HW238751   2.928   0.095   4.262  1.7809 -0.3294 -0.0138
 9098SOL     OW38752   1.643   1.163   1.039  0.2977 -0.1292 -0.0410
 9098SOL    HW138753   1.656   1.070   1.059  1.8256 -0.4199 -2.4832
 9098SOL    HW238754   1.688   1.194   1.118  0.2600 -2.1638  0.7762
 9099SOL     OW38755   2.571   1.527  10.560  0.2817 -0.2488  0.9207
 9099SOL    HW138756   2.639   1.460  10.565  1.0473  0.4539 -0.0969
 9099SOL    HW238757   2.619   1.607  10.538 -1.7356  1.2388  1.9239
 9100SOL     OW38758   2.396   3.757  14.592 -0.1666  0.4092  0.5203
 9100SOL    HW138759   2.301   3.764  14.596 -0.0484  2.1413 -0.0040
 9100SOL    HW238760   2.391   3.663  14.612  1.2422  0.4098  0.9311
 9101SOL     OW38761   1.972   4.094   8.343 -0.1757 -0.0384  0.2069
 9101SOL    HW138762   1.999   4.179   8.308 -0.0517 -0.5909 -1.0268
 9101SOL    HW238763   2.025   4.088   8.423  0.0182  2.1055  0.2309
 9102SOL     OW38764   2.978   1.602  15.583 -0.4349 -0.0096 -0.7100
 9102SOL    HW138765   2.949   1.691  15.604 -1.0231 -0.3895  0.1203
 9102SOL    HW238766   2.997   1.612  15.490 -0.5283  2.1635 -0.4832
 9103SOL     OW38767   3.735   2.911  12.097  0.3016 -0.3050 -0.2179
 9103SOL    HW138768   3.718   2.817  12.094  1.2523 -0.5375  1.7779
 9103SOL    HW238769   3.675   2.939  12.028 -1.0473 -3.3041 -0.2991
 9104SOL     OW38770   3.324   0.259   6.213 -0.0741 -0.5293 -0.1142
 9104SOL    HW138771   3.390   0.328   6.220 -0.0363 -0.6468  0.7754
 9104SOL    HW238772   3.389   0.192   6.194  0.6385 -0.0881  0.7703
 9105SOL     OW38773   0.006   2.746   2.159  0.1889  0.2029  0.4478
 9105SOL    HW138774   0.072   2.785   2.103  0.4385  0.3270  0.8298
 9105SOL    HW238775   0.053   2.669   2.191  1.6938  0.7803 -0.4109
 9106SOL     OW38776   1.181   1.881   2.896 -0.3037  0.4791 -0.2938
 9106SOL    HW138777   1.144   1.822   2.831  1.1655 -1.3604  0.5485
 9106SOL    HW238778   1.252   1.931   2.857  1.7327 -0.3018  2.4146
 9107SOL     OW38779   4.053   3.167  12.349  0.0570 -0.4153  0.3283
 9107SOL    HW138780   4.061   3.072  12.356  1.5243 -0.3299 -0.0697
 9107SOL    HW238781   4.127   3.176  12.289 -1.2795  1.0244 -1.1141
 9108SOL     OW38782   4.277   1.271   7.410  0.1692 -0.0698  0.5077
 9108SOL    HW138783   4.331   1.225   7.346 -0.6244 -1.9457  1.1909
 9108SOL    HW238784   4.343   1.335   7.439 -1.3055  0.8085  1.9196
 9109SOL     OW38785   3.514   3.137  10.189  0.1421  0.0360 -0.0748
 9109SOL    HW138786   3.482   3.204  10.250  0.9980  0.7376 -0.4033
 9109SOL    HW238787   3.428   3.106  10.161  0.7086 -0.6940 -1.0290
 9110SOL     OW38788   1.451   2.560   2.101  0.6613  0.1867  0.5816
 9110SOL    HW138789   1.508   2.530   2.172  1.6982  0.4240 -0.1491
 9110SOL    HW238790   1.372   2.582   2.150  0.1814 -0.2372 -0.0042
 9111SOL     OW38791   2.644   2.291   1.969  0.6652  0.3217  0.1170
 9111SOL    HW138792   2.656   2.235   2.046 -3.2380  0.9839  1.2354
 9111SOL    HW238793   2.625   2.375   2.010 -0.5305  0.8543 -1.5129
 9112SOL     OW38794   2.950   0.253   4.575  0.2390  0.2049  0.4405
 9112SOL    HW138795   2.988   0.340   4.585 -1.1552  0.8177  0.3882
 9112SOL    HW238796   2.950   0.236   4.481 -1.0541 -1.8828  0.7841
 9113SOL     OW38797   3.661   3.633   7.872  0.5783  0.5453  0.5036
 9113SOL    HW138798   3.596   3.562   7.868 -1.8948  2.9188 -1.8385
 9113SOL    HW238799   3.609   3.707   7.839 -1.4086 -1.5752 -1.0969
 9114SOL     OW38800   2.788   4.112   5.645  0.2623 -0.6000  0.8594
 9114SOL    HW138801   2.708   4.161   5.664  2.0595  2.3617  0.8509
 9114SOL    HW238802   2.756   4.053   5.577  1.0480 -2.2876  1.9422
 9115SOL     OW38803   1.863   0.597   1.382  0.1438 -0.6206  0.1285
 9115SOL    HW138804   1.946   0.635   1.413  0.2094 -0.2994 -0.4491
 9115SOL    HW238805   1.797   0.666   1.374 -1.7304 -2.4604  0.0739
 9116SOL     OW38806   4.073   2.517   1.839 -0.2939  0.2476  0.2064
 9116SOL    HW138807   4.129   2.539   1.913  0.6628 -0.0850 -0.4131
 9116SOL    HW238808   3.997   2.482   1.885 -1.1481  0.2070 -1.2269
 9117SOL     OW38809   1.297   1.935   8.158  0.1817  0.0572  0.5454
 9117SOL    HW138810   1.264   1.874   8.224 -1.1192  1.0708  0.8288
 9117SOL    HW238811   1.389   1.945   8.184  0.0329 -1.3383  1.6127
 9118SOL     OW38812   2.672   2.171   8.746 -0.3096  0.1117  0.4788
 9118SOL    HW138813   2.582   2.195   8.767 -0.6497 -2.1504  1.6584
 9118SOL    HW238814   2.662   2.080   8.715  1.2449 -0.2498  1.0396
 9119SOL     OW38815   2.704   1.640   4.418  0.1133  0.1088 -0.0782
 9119SOL    HW138816   2.625   1.621   4.369 -1.5542  1.8778  1.9324
 9119SOL    HW238817   2.664   1.684   4.494  0.9551  1.4057 -0.3870
 9120SOL     OW38818   0.379   3.544   4.919 -0.6372 -0.2580  0.0941
 9120SOL    HW138819   0.351   3.505   5.001  0.0136  0.8492  0.8363
 9120SOL    HW238820   0.393   3.463   4.869 -3.0301 -0.2489 -0.6209
 9121SOL     OW38821   1.839   0.572  16.466 -0.2517  0.7290 -0.3509
 9121SOL    HW138822   1.916   0.571  16.523 -1.6363  0.5829  1.5057
 9121SOL    HW238823   1.765   0.580  16.527 -0.7491 -0.6251 -0.7699
 9122SOL     OW38824   1.816   0.317   7.078  0.8656 -0.0649  0.0194
 9122SOL    HW138825   1.737   0.264   7.093  0.6495 -0.2585 -1.7781
 9122SOL    HW238826   1.826   0.367   7.158 -2.4304  0.3915  0.1125
 9123SOL     OW38827   3.200   0.512   6.060  0.2602 -0.2632 -0.3000
 9123SOL    HW138828   3.289   0.548   6.062 -0.5050  1.6587 -0.8957
 9123SOL    HW238829   3.150   0.587   6.027  2.5204  0.9214 -1.0514
 9124SOL     OW38830   0.536   2.052   9.402 -0.1825 -0.0364 -0.1423
 9124SOL    HW138831   0.549   2.136   9.359  0.2844  0.4761  1.0182
 9124SOL    HW238832   0.606   2.035   9.465 -0.5406 -3.5467 -0.6779
 9125SOL     OW38833   0.502   0.312   8.064 -0.4286  0.2569 -0.4603
 9125SOL    HW138834   0.499   0.254   7.988 -0.6050 -0.8349  0.3762
 9125SOL    HW238835   0.593   0.310   8.095 -0.8226 -1.5033  0.5755
 9126SOL     OW38836   2.757   2.307   5.103 -0.1609 -0.1859 -0.3998
 9126SOL    HW138837   2.663   2.292   5.113  0.0878 -1.5195  0.0334
 9126SOL    HW238838   2.792   2.274   5.186 -1.7461 -0.6305  0.0868
 9127SOL     OW38839   4.519   4.387   5.300 -0.7834 -0.3133  0.3587
 9127SOL    HW138840   4.490   4.348   5.217  0.6251  1.3467 -0.9020
 9127SOL    HW238841   4.524   4.311   5.358 -0.8330 -1.0224 -0.5642
 9128SOL     OW38842   2.090   2.155  15.757 -0.0041  0.1006  0.0289
 9128SOL    HW138843   2.142   2.084  15.718 -0.7342  1.1324 -2.8024
 9128SOL    HW238844   2.033   2.187  15.687 -1.2909 -1.6574  0.2772
 9129SOL     OW38845   0.435   3.883   1.515  0.4626 -0.1760  0.1584
 9129SOL    HW138846   0.411   3.966   1.474 -1.0911 -0.3510  0.7071
 9129SOL    HW238847   0.356   3.830   1.504  0.9757 -0.8491 -0.2683
 9130SOL     OW38848   2.292   2.325   4.139  0.6235 -0.3445  0.4838
 9130SOL    HW138849   2.264   2.330   4.048 -0.7060 -0.3076  0.8920
 9130SOL    HW238850   2.229   2.260   4.171  1.1396 -1.8975 -1.6460
 9131SOL     OW38851   2.667   1.639   3.763  0.0333  0.3117 -0.6262
 9131SOL    HW138852   2.674   1.588   3.844 -4.7032  1.7390  0.6932
 9131SOL    HW238853   2.580   1.678   3.777 -0.1921 -0.8874  1.3043
 9132SOL     OW38854   0.881   3.125   7.968 -0.1946 -0.3556 -0.9520
 9132SOL    HW138855   0.951   3.183   7.998 -1.9586 -0.7725  4.0575
 9132SOL    HW238856   0.808   3.173   8.009  0.2579 -0.5313  0.0720
 9133SOL     OW38857   1.964   0.714   0.449  0.0547  0.2712 -0.1367
 9133SOL    HW138858   2.004   0.667   0.522 -0.9764  0.4693  0.5516
 9133SOL    HW238859   1.935   0.640   0.395 -2.6439  0.4533  1.1217
 9134SOL     OW38860   2.399   1.482   3.926 -0.2437 -0.5452  0.2850
 9134SOL    HW138861   2.353   1.529   3.996  0.0663 -1.8787  1.3991
 9134SOL    HW238862   2.486   1.495   3.965  0.1873 -0.2685 -0.7824
 9135SOL     OW38863   3.047   2.762   4.327 -0.0863 -0.1396  0.5009
 9135SOL    HW138864   2.988   2.691   4.302  1.9276 -1.3445 -0.8010
 9135SOL    HW238865   3.093   2.727   4.403  1.1723  1.1377  0.3180
 9136SOL     OW38866   0.475   0.384  15.517 -0.0815 -0.1142 -0.3600
 9136SOL    HW138867   0.548   0.340  15.475  1.6367  0.0011  2.5352
 9136SOL    HW238868   0.471   0.474  15.484  2.3068 -0.1950 -0.8169
 9137SOL     OW38869   3.210   4.277   0.949 -0.1630 -0.0144  0.5616
 9137SOL    HW138870   3.244   4.248   1.034 -3.4647 -0.8176  1.5992
 9137SOL    HW238871   3.139   4.214   0.939 -1.3339  1.5130 -0.6599
 9138SOL     OW38872   1.191   1.911  17.187  0.3024 -0.1215  0.0592
 9138SOL    HW138873   1.217   1.924  17.095 -0.4695  1.7514  0.0956
 9138SOL    HW238874   1.237   1.987  17.225  0.0495  0.2914 -0.4575
 9139SOL     OW38875   4.676   1.846  17.624  0.0053  0.5900  0.1455
 9139SOL    HW138876   4.655   1.938  17.609  2.2225  1.3434  1.6386
 9139SOL    HW238877   0.008   1.827  17.545 -0.5223  2.4981 -0.6569
 9140SOL     OW38878   2.337   3.717   7.999 -0.1624  0.0876  0.1765
 9140SOL    HW138879   2.389   3.797   8.004  0.8197 -0.4541 -1.6518
 9140SOL    HW238880   2.257   3.752   8.039  0.0993 -0.7123  1.4193
 9141SOL     OW38881   4.036   1.442  14.924 -0.1874  0.1390  0.8281
 9141SOL    HW138882   3.943   1.428  14.938 -0.7199  1.0473 -1.8364
 9141SOL    HW238883   4.058   1.384  14.851 -0.4044  0.0645  0.8226
 9142SOL     OW38884   3.168   0.661  17.333 -0.3884  0.0489 -0.1809
 9142SOL    HW138885   3.254   0.692  17.359  0.0636 -4.7631  4.0909
 9142SOL    HW238886   3.146   0.705  17.251  1.6175  1.2008 -0.0992
 9143SOL     OW38887   3.776   0.724   5.579  0.6666 -0.6007 -0.4285
 9143SOL    HW138888   3.739   0.783   5.644  2.9163  0.7102 -0.3273
 9143SOL    HW238889   3.854   0.698   5.629  1.0957  1.0028 -0.2911
 9144SOL     OW38890   2.058   1.602  16.765 -0.3479  0.2872 -0.3788
 9144SOL    HW138891   2.038   1.635  16.853 -2.2379 -0.1613 -0.6268
 9144SOL    HW238892   2.095   1.676  16.718  1.2425  0.0755  0.5327
 9145SOL     OW38893   3.916   4.204  15.649 -0.2211  0.1388  0.0483
 9145SOL    HW138894   3.831   4.197  15.693 -0.1744  0.8460  0.2635
 9145SOL    HW238895   3.914   4.294  15.615 -0.9977 -0.7465 -2.2827
 9146SOL     OW38896   2.815   1.220  15.143  0.1077 -0.0627 -0.3317
 9146SOL    HW138897   2.831   1.144  15.087 -0.0494 -0.1198 -0.2989
 9146SOL    HW238898   2.903   1.233  15.178  0.0265  0.3828 -0.2962
 9147SOL     OW38899   2.205   1.279   4.585  0.3506 -0.4204  0.4602
 9147SOL    HW138900   2.185   1.335   4.511  1.4310 -0.4063  0.1801
 9147SOL    HW238901   2.156   1.328   4.651  1.3538  2.8224 -1.2434
 9148SOL     OW38902   1.793   2.112   2.873  0.5345  0.4651  0.0957
 9148SOL    HW138903   1.826   2.040   2.926 -3.0236 -0.2655  1.3603
 9148SOL    HW238904   1.845   2.104   2.794  0.3785  0.5964 -0.0212
 9149SOL     OW38905   2.524   0.965   6.382  0.4116  0.1124  0.1153
 9149SOL    HW138906   2.447   0.937   6.433  0.6363  0.0032  0.3953
 9149SOL    HW238907   2.492   0.971   6.292  0.9101  0.3777 -0.0413
 9150SOL     OW38908   1.915   1.573  14.978  0.3571  0.1727  0.3373
 9150SOL    HW138909   1.973   1.619  15.038  1.0559  1.4573 -1.3269
 9150SOL    HW238910   1.870   1.655  14.953 -0.6702 -0.1830  1.0152
 9151SOL     OW38911   4.062   3.902  11.267  0.1991 -0.2182  0.6048
 9151SOL    HW138912   4.040   3.995  11.265 -0.4619 -0.4464 -2.6177
 9151SOL    HW238913   4.097   3.878  11.181  0.9235 -0.2154  0.8988
 9152SOL     OW38914   2.574   3.345   6.662  0.2854  0.1072  0.3057
 9152SOL    HW138915   2.628   3.404   6.608  1.4867 -0.3719  0.9802
 9152SOL    HW238916   2.504   3.410   6.661 -0.0280 -0.2397 -1.1048
 9153SOL     OW38917   0.410   2.506   3.559  0.3453  0.2156  0.3769
 9153SOL    HW138918   0.486   2.557   3.530 -0.9570  1.8141 -0.2350
 9153SOL    HW238919   0.365   2.478   3.480 -0.9804 -0.8076  1.4872
 9154SOL     OW38920   4.469   2.607   8.644 -0.0759  1.1812  0.3891
 9154SOL    HW138921   4.442   2.683   8.695 -0.1583  1.7523 -0.5064
 9154SOL    HW238922   4.561   2.607   8.671 -0.2704  0.7945  1.0679
 9155SOL     OW38923   1.572   1.639  14.730  0.1381 -0.4792  0.3498
 9155SOL    HW138924   1.535   1.703  14.668  0.2075 -0.2257  0.5708
 9155SOL    HW238925   1.633   1.593  14.673 -1.0942 -0.5731 -0.9147
 9156SOL     OW38926   2.166   0.247   6.631 -0.0157  0.2480  0.3526
 9156SOL    HW138927   2.114   0.327   6.620  0.3046  0.1823 -1.6898
 9156SOL    HW238928   2.249   0.290   6.650  0.5642  0.0275 -1.6458
 9157SOL     OW38929   0.435   3.063   8.111 -0.4802 -0.1548 -0.2944
 9157SOL    HW138930   0.483   3.031   8.035  0.0158 -0.7827  0.2758
 9157SOL    HW238931   0.381   2.986   8.131 -0.4086  0.2748  1.5489
 9158SOL     OW38932   2.073   4.154  13.851  0.2680 -0.1450 -0.6032
 9158SOL    HW138933   2.141   4.096  13.884  0.7629 -0.0621 -1.4555
 9158SOL    HW238934   1.997   4.096  13.862 -0.0555  0.2403 -0.7993
 9159SOL     OW38935   2.603   4.571   2.575  0.3230 -0.2730 -0.1375
 9159SOL    HW138936   2.590   4.654   2.622  0.2456 -0.0234 -0.5961
 9159SOL    HW238937   2.663   4.537   2.640  0.4182  0.7311  0.3047
 9160SOL     OW38938   0.086   3.311   5.726  0.1869  0.8605  0.5123
 9160SOL    HW138939   0.057   3.401   5.711 -0.1260  0.7567  0.4881
 9160SOL    HW238940   0.013   3.260   5.691  0.9047 -0.3649  0.8163
 9161SOL     OW38941   3.570   3.794   5.060  0.1378  0.7751 -0.2347
 9161SOL    HW138942   3.601   3.705   5.076 -2.2500  0.0905  0.5631
 9161SOL    HW238943   3.631   3.834   4.998  1.3280  0.2163  0.5749
 9162SOL     OW38944   1.549   1.619   5.900  0.2287 -0.3580 -0.3845
 9162SOL    HW138945   1.522   1.705   5.933 -0.1898  0.0284 -1.7272
 9162SOL    HW238946   1.562   1.629   5.806  2.7579 -1.6931 -0.1625
 9163SOL     OW38947   4.171   1.662   4.264 -0.5753  0.6827  0.3750
 9163SOL    HW138948   4.221   1.581   4.276 -0.9642  0.4080  0.1255
 9163SOL    HW238949   4.096   1.639   4.209  0.1511 -1.0271  0.0999
 9164SOL     OW38950   2.966   2.975   6.245  0.4800  0.5792 -0.4299
 9164SOL    HW138951   2.921   2.905   6.196  1.3006 -0.4566  0.2989
 9164SOL    HW238952   3.006   2.928   6.318 -2.4577 -0.9677  0.1922
 9165SOL     OW38953   4.024   1.940   2.577 -0.2727  0.5449  0.6436
 9165SOL    HW138954   4.047   1.952   2.670 -1.3173  4.3196  0.4270
 9165SOL    HW238955   3.975   2.022   2.573 -0.9496  0.0739 -0.6686
 9166SOL     OW38956   3.948   2.387   6.345  0.1334 -0.2515 -0.5323
 9166SOL    HW138957   3.863   2.353   6.374 -0.3504 -0.2339 -1.9301
 9166SOL    HW238958   3.988   2.413   6.428  1.1930 -3.1404 -0.1392
 9167SOL     OW38959   2.613   0.551   3.966 -0.0817 -0.6920 -0.2133
 9167SOL    HW138960   2.610   0.646   3.953 -0.1153 -0.7872 -0.8991
 9167SOL    HW238961   2.536   0.545   4.023 -0.1528  1.1656 -0.0871
 9168SOL     OW38962   1.392   1.431   3.348 -0.0240 -0.0625 -0.8886
 9168SOL    HW138963   1.407   1.441   3.254  0.9066  1.0855 -0.6213
 9168SOL    HW238964   1.301   1.401   3.343 -0.0658 -0.0642 -0.1620
 9169SOL     OW38965   3.120   0.295   0.675  0.6646  0.3665 -0.3460
 9169SOL    HW138966   3.155   0.271   0.761  0.4733  1.6636  0.1051
 9169SOL    HW238967   3.037   0.333   0.702  0.5250  1.0998 -1.8320
 9170SOL     OW38968   2.370   1.598   1.754  0.6064  0.0835 -0.6520
 9170SOL    HW138969   2.421   1.555   1.686 -1.6297  0.8301 -2.7738
 9170SOL    HW238970   2.423   1.677   1.760  2.1086 -0.9097 -0.7562
 9171SOL     OW38971   1.419   0.462   6.455  0.3711 -0.9116 -0.0146
 9171SOL    HW138972   1.497   0.436   6.406 -0.1376 -0.1386 -1.2551
 9171SOL    HW238973   1.386   0.374   6.473  0.1245 -1.0600 -1.1578
 9172SOL     OW38974   3.069   0.280   6.289 -0.3126  0.0077  0.0812
 9172SOL    HW138975   3.057   0.230   6.208  1.7602  0.9688 -0.8356
 9172SOL    HW238976   3.160   0.299   6.267  0.2178 -1.4702  0.9599
 9173SOL     OW38977   1.674   0.877   7.891  0.4746  0.1794 -0.2790
 9173SOL    HW138978   1.698   0.818   7.820  0.3197  0.9612 -0.9904
 9173SOL    HW238979   1.671   0.824   7.970 -1.2417 -1.4280 -1.4123
 9174SOL     OW38980   0.609   3.068   5.248  0.5706  0.1096  0.1257
 9174SOL    HW138981   0.563   3.151   5.234  2.4964  1.0785 -0.4881
 9174SOL    HW238982   0.700   3.084   5.275 -0.3931  4.7685  0.7052
 9175SOL     OW38983   0.686   1.772   9.480  0.4366 -0.4881 -0.2579
 9175SOL    HW138984   0.667   1.852   9.529 -0.3581 -0.2184 -1.0029
 9175SOL    HW238985   0.782   1.765   9.480  0.5845  1.1321 -3.9813
 9176SOL     OW38986   2.484   4.609   3.348 -0.3148 -0.1037  0.4025
 9176SOL    HW138987   2.534   4.653   3.279 -0.1801  2.0254  1.8477
 9176SOL    HW238988   2.529   4.638   3.428 -0.4041  0.3499  0.2828
 9177SOL     OW38989   2.304   0.085   3.263  0.1678  0.2544 -0.0609
 9177SOL    HW138990   2.382   0.088   3.207  0.4321  0.6381  0.3265
 9177SOL    HW238991   2.345   0.074   3.348 -0.7967 -1.1514  0.2219
 9178SOL     OW38992   1.097   1.044  10.908  0.0601 -0.5913 -0.0833
 9178SOL    HW138993   1.041   1.054  10.831 -1.3023  1.6097  1.1818
 9178SOL    HW238994   1.044   0.978  10.954 -0.4020  0.9601  1.6312
 9179SOL     OW38995   4.251   4.046   7.281 -0.1857 -0.3716 -0.2179
 9179SOL    HW138996   4.257   4.056   7.376 -0.8510  1.5893 -0.3784
 9179SOL    HW238997   4.160   4.072   7.264  0.2988  1.3906 -0.0695
 9180SOL     OW38998   4.614   3.627   7.376 -0.4301  0.1386 -0.3972
 9180SOL    HW138999   4.619   3.661   7.465  1.1112  0.4277 -0.6035
 9180SOL    HW239000   4.540   3.568   7.393 -1.3511  1.1253 -0.9167
 9181SOL     OW39001   0.797   0.187   9.225 -0.1419 -0.2084 -0.2756
 9181SOL    HW139002   0.781   0.174   9.318 -1.6430 -0.0292 -0.5069
 9181SOL    HW239003   0.888   0.157   9.224  0.8333  2.7247 -0.3203
 9182SOL     OW39004   4.009   3.003   4.442  0.1426  0.1115 -0.4119
 9182SOL    HW139005   4.016   2.945   4.365 -0.3091 -0.4845 -0.0118
 9182SOL    HW239006   3.979   3.084   4.401 -1.3580 -0.5594 -0.6510
 9183SOL     OW39007   3.110   0.819   2.532  0.4473 -0.1663  0.0093
 9183SOL    HW139008   3.123   0.746   2.471 -0.0776  0.1360 -0.4710
 9183SOL    HW239009   3.020   0.846   2.514 -0.4434 -2.4735  0.9931
 9184SOL     OW39010   2.137   2.895   4.519 -0.1386  0.4328 -0.3112
 9184SOL    HW139011   2.140   2.817   4.575  1.7215  0.4693 -0.3498
 9184SOL    HW239012   2.213   2.947   4.546  2.0309 -1.1388 -3.4363
 9185SOL     OW39013   3.945   1.234  17.553  0.0751 -0.5918  0.2930
 9185SOL    HW139014   3.934   1.270  17.641  1.1301 -1.3661  0.7453
 9185SOL    HW239015   3.924   1.309  17.498  0.9586 -0.8903 -0.4502
 9186SOL     OW39016   3.124   2.663   3.038 -0.7025  0.3985 -0.5448
 9186SOL    HW139017   3.164   2.593   3.090 -1.6428  0.7397  0.6412
 9186SOL    HW239018   3.035   2.630   3.023 -0.7935 -1.2032  3.4048
 9187SOL     OW39019   0.644   2.972   7.926  0.2719 -0.1965  0.1177
 9187SOL    HW139020   0.725   3.022   7.937  0.6630 -0.7642 -0.1747
 9187SOL    HW239021   0.657   2.911   7.999  1.4431 -1.0442 -0.8139
 9188SOL     OW39022   1.092   2.395  12.015  0.2894 -0.2362 -0.1741
 9188SOL    HW139023   1.143   2.476  12.020  0.7276 -0.5252  0.0237
 9188SOL    HW239024   1.005   2.434  12.031 -0.1500 -1.6339  0.8816
 9189SOL     OW39025   0.097   3.618   6.561  0.2103 -0.0941  0.0438
 9189SOL    HW139026   0.142   3.563   6.626 -1.5161 -0.6803  0.7314
 9189SOL    HW239027   0.021   3.561   6.553 -2.8320  3.6647  2.2384
 9190SOL     OW39028   0.481   4.652   1.150 -0.4193  0.2725  0.0326
 9190SOL    HW139029   0.519   4.578   1.197  1.3186  1.7497  0.9981
 9190SOL    HW239030   0.491   4.622   1.060  0.2624  1.1524 -0.1948
 9191SOL     OW39031   4.688   1.474   6.136  0.2449  0.2851  0.2820
 9191SOL    HW139032   4.636   1.535   6.082 -0.0576  0.0743  0.3372
 9191SOL    HW239033   0.046   1.458   6.081 -0.3233  1.1627 -0.7671
 9192SOL     OW39034   2.862   2.381  12.305  0.3491 -0.8140  0.1661
 9192SOL    HW139035   2.910   2.361  12.385 -1.5864  0.0045  1.5288
 9192SOL    HW239036   2.926   2.419  12.245 -0.6078  0.2225 -0.2033
 9193SOL     OW39037   4.616   1.228   6.262 -0.4618 -0.7001 -0.3088
 9193SOL    HW139038   4.547   1.204   6.200 -0.9030  2.7768 -1.1794
 9193SOL    HW239039   4.651   1.300   6.210 -0.5969 -0.5781 -0.2317
 9194SOL     OW39040   4.691   3.588   2.518 -0.4717 -0.2366 -0.6657
 9194SOL    HW139041   4.670   3.671   2.474  0.8384  0.1379 -0.5715
 9194SOL    HW239042   0.045   3.615   2.573  0.4818  0.0010 -2.0672
 9195SOL     OW39043   1.826   2.551  16.789 -0.2926  0.0819  0.2965
 9195SOL    HW139044   1.742   2.590  16.812 -0.9376 -0.9656 -0.2697
 9195SOL    HW239045   1.893   2.612  16.819  1.8538 -0.0874 -4.1679
 9196SOL     OW39046   2.779   2.520   1.327  0.3108 -0.4112 -0.3967
 9196SOL    HW139047   2.712   2.567   1.277 -0.5240  0.4759  1.5920
 9196SOL    HW239048   2.823   2.461   1.265 -0.7227 -1.2284 -0.3566
 9197SOL     OW39049   4.418   4.535  15.319 -0.6862  0.0672  0.7857
 9197SOL    HW139050   4.508   4.502  15.318 -0.7681 -0.1181 -1.1177
 9197SOL    HW239051   4.367   4.471  15.270 -1.4463  0.1360  1.4961
 9198SOL     OW39052   1.530   0.135   1.159  0.0651  0.7040  0.3597
 9198SOL    HW139053   1.545   0.199   1.090 -0.5987  1.8762  1.3181
 9198SOL    HW239054   1.585   0.060   1.133 -0.9709  0.1011 -0.1003
 9199SOL     OW39055   2.533   1.988  16.606 -0.1998 -0.0106 -0.5671
 9199SOL    HW139056   2.550   1.997  16.700 -0.2844 -1.4650 -0.4147
 9199SOL    HW239057   2.538   2.082  16.586  1.0950  0.4311  1.7603
 9200SOL     OW39058   1.421   3.851   4.272  0.1096 -0.1290 -0.0614
 9200SOL    HW139059   1.474   3.851   4.192  0.7853  3.2808  0.3998
 9200SOL    HW239060   1.448   3.939   4.298 -1.6220 -0.3184  2.3574
 9201SOL     OW39061   1.475   2.884   0.724 -0.0777 -0.0175 -0.0917
 9201SOL    HW139062   1.559   2.912   0.761 -0.2181 -0.9995  0.9473
 9201SOL    HW239063   1.431   2.842   0.798 -2.3365 -0.1779 -1.5278
 9202SOL     OW39064   2.714   3.025   2.763  0.0615  0.3489  0.1061
 9202SOL    HW139065   2.645   2.959   2.752  0.3752 -0.1792  1.3150
 9202SOL    HW239066   2.784   2.971   2.800 -0.4640  0.2849  0.9955
 9203SOL     OW39067   2.794   3.169   2.514  0.0996 -0.6760  0.4153
 9203SOL    HW139068   2.775   3.107   2.584 -1.6013 -4.2520 -3.2273
 9203SOL    HW239069   2.706   3.206   2.511  0.8809  1.1608  0.1336
 9204SOL     OW39070   0.617   4.168   9.023 -0.0557 -0.1225 -0.2195
 9204SOL    HW139071   0.663   4.148   8.941 -1.3020 -2.0101 -0.4776
 9204SOL    HW239072   0.642   4.088   9.070 -1.8562 -0.4743  0.1484
 9205SOL     OW39073   3.296   3.097   1.072  1.0224 -0.2524  0.1361
 9205SOL    HW139074   3.316   3.099   0.979  0.2007 -0.8987 -0.0495
 9205SOL    HW239075   3.338   3.177   1.102 -1.0118  0.4211  1.1778
 9206SOL     OW39076   0.362   0.377   3.575  0.1496  0.6499 -0.4159
 9206SOL    HW139077   0.332   0.315   3.508 -1.8696 -0.1043  1.1731
 9206SOL    HW239078   0.295   0.366   3.642  0.8452 -1.5028 -0.1026
 9207SOL     OW39079   3.678   4.514   2.700  0.1731 -0.1749 -0.2264
 9207SOL    HW139080   3.713   4.431   2.732  0.5841  0.6721  1.5246
 9207SOL    HW239081   3.734   4.586   2.730 -1.1766  1.9864 -2.8551
 9208SOL     OW39082   0.870   1.622   5.119  0.1755 -0.0885  0.0668
 9208SOL    HW139083   0.823   1.705   5.109  0.8303  0.1272 -1.1986
 9208SOL    HW239084   0.894   1.613   5.212 -1.5051  0.4140  0.5586
 9209SOL     OW39085   2.150   0.628   7.634 -0.7324  0.5200 -0.5845
 9209SOL    HW139086   2.221   0.570   7.660  2.7953  3.9376 -2.5570
 9209SOL    HW239087   2.171   0.647   7.542 -1.9182  0.7192 -0.8102
 9210SOL     OW39088   0.787   3.393   8.648  0.3987 -0.1099 -0.0151
 9210SOL    HW139089   0.723   3.464   8.654 -0.7184 -0.9849 -1.7786
 9210SOL    HW239090   0.870   3.435   8.672 -0.4628  0.9872  1.0221
 9211SOL     OW39091   4.641   0.188   9.066  0.1588  0.4708  0.4030
 9211SOL    HW139092   4.718   0.141   9.033 -0.0326 -0.1552  0.8534
 9211SOL    HW239093   4.689   0.244   9.126 -0.5803  0.8846  0.6051
 9212SOL     OW39094   0.920   4.008  11.175  0.2407  0.3405 -0.1666
 9212SOL    HW139095   0.850   4.047  11.228  0.5567 -1.5417  1.6400
 9212SOL    HW239096   0.943   3.927  11.221  1.1850 -0.1381 -1.4961
 9213SOL     OW39097   3.168   2.610   4.504 -0.3599  0.1692  0.2482
 9213SOL    HW139098   3.243   2.602   4.446 -0.4699  2.1575 -0.1610
 9213SOL    HW239099   3.138   2.519   4.493 -0.1098  0.1255 -0.0419
 9214SOL     OW39100   1.266   4.230   6.279  0.0497  0.3738  0.1318
 9214SOL    HW139101   1.254   4.291   6.351 -1.2047  0.3405 -0.0385
 9214SOL    HW239102   1.360   4.234   6.267 -0.0823  2.2855 -0.2117
 9215SOL     OW39103   3.730   0.436   4.221 -0.1180 -0.1868 -0.4497
 9215SOL    HW139104   3.700   0.517   4.181 -1.7749 -1.2711 -1.3925
 9215SOL    HW239105   3.648   0.390   4.239  0.0873 -0.7574 -0.9474
 9216SOL     OW39106   3.631   2.882   2.016 -0.0411  0.7623 -0.1445
 9216SOL    HW139107   3.717   2.845   1.997 -0.8135 -0.7868 -0.6324
 9216SOL    HW239108   3.574   2.853   1.945  0.1745 -1.6337  0.6682
 9217SOL     OW39109   0.827   4.035   3.820 -0.0347  0.3388 -0.2514
 9217SOL    HW139110   0.901   3.999   3.772  0.1559 -1.2430  1.2346
 9217SOL    HW239111   0.869   4.098   3.879 -1.0080 -0.3472  1.1760
 9218SOL     OW39112   0.252   2.732   8.838 -0.1454 -0.3249  0.1958
 9218SOL    HW139113   0.199   2.706   8.913  0.9118  3.0242  2.1051
 9218SOL    HW239114   0.326   2.672   8.824 -0.6259 -1.0597  0.8108
 9219SOL     OW39115   2.612   4.151  10.171 -0.4822  0.5846 -0.3775
 9219SOL    HW139116   2.705   4.131  10.176 -0.6199 -0.9392 -3.8081
 9219SOL    HW239117   2.572   4.066  10.187  0.7001 -0.3260 -2.2175
 9220SOL     OW39118   1.780   3.749  13.424 -0.6522 -0.0329 -0.2138
 9220SOL    HW139119   1.798   3.816  13.490 -0.6758  0.7270 -0.9783
 9220SOL    HW239120   1.687   3.733  13.437  0.2839 -3.9391  1.4994
 9221SOL     OW39121   1.643   2.946   9.765  0.4941 -0.1338  0.2879
 9221SOL    HW139122   1.665   2.863   9.723 -0.7566 -0.7491  0.8165
 9221SOL    HW239123   1.722   2.997   9.749 -1.3473  2.5745 -0.0666
 9222SOL     OW39124   2.713   4.444   9.371  0.8490  0.5559  0.4072
 9222SOL    HW139125   2.619   4.450   9.389  1.1259 -0.3809  2.1776
 9222SOL    HW239126   2.734   4.376   9.435 -1.0819  1.9140  2.4819
 9223SOL     OW39127   2.567   4.101   5.166 -0.1295 -0.2740 -0.0332
 9223SOL    HW139128   2.486   4.123   5.120 -1.5598 -2.1810  1.5940
 9223SOL    HW239129   2.619   4.177   5.139 -1.0747  0.3149 -0.2150
 9224SOL     OW39130   3.677   3.225   4.623 -0.8115  0.0943  0.8510
 9224SOL    HW139131   3.593   3.270   4.624 -0.1910  1.2617  0.6901
 9224SOL    HW239132   3.653   3.141   4.585  1.0537  0.9268 -2.1909
 9225SOL     OW39133   2.412   2.908   4.574 -0.1492  0.1333 -0.1349
 9225SOL    HW139134   2.374   2.831   4.617  2.5259 -2.0542 -1.6851
 9225SOL    HW239135   2.385   2.878   4.487  1.2478 -0.5927 -0.3096
 9226SOL     OW39136   3.904   3.731   5.344  0.4636 -1.1992 -0.1120
 9226SOL    HW139137   3.940   3.763   5.427  0.9319  0.7086 -1.0402
 9226SOL    HW239138   3.830   3.675   5.367 -0.7439  0.6109  0.4481
 9227SOL     OW39139   0.831   2.594   0.050  0.1549  0.0484 -0.0423
 9227SOL    HW139140   0.915   2.635   0.030  0.4834 -0.5397  0.1302
 9227SOL    HW239141   0.819   2.547  17.647 -0.4455  0.5639 -0.2549
 9228SOL     OW39142   2.463   0.664   7.152  0.6108  0.2030 -0.1982
 9228SOL    HW139143   2.448   0.744   7.102  0.8130 -0.0267 -0.6229
 9228SOL    HW239144   2.547   0.681   7.194 -0.2924  2.8012  0.5782
 9229SOL     OW39145   4.355   4.640   1.449  0.7352  0.0910 -0.3715
 9229SOL    HW139146   4.332   4.623   1.357  1.4204 -0.2539 -0.4794
 9229SOL    HW239147   4.334   4.558   1.494  4.2140  0.3591  1.7721
 9230SOL     OW39148   2.689   4.348   7.744  0.3826 -0.0383 -0.0316
 9230SOL    HW139149   2.677   4.409   7.671  0.1895 -1.3560 -1.0991
 9230SOL    HW239150   2.780   4.364   7.766 -0.6041  3.7264  1.3876
 9231SOL     OW39151   2.699   2.522   7.627  0.0571 -0.3784 -0.5076
 9231SOL    HW139152   2.784   2.479   7.640  1.3275  2.9279  2.1122
 9231SOL    HW239153   2.669   2.527   7.718  0.1257 -0.6997 -0.4669
 9232SOL     OW39154   4.394   1.647   2.755 -0.1371  0.3002 -0.4201
 9232SOL    HW139155   4.381   1.711   2.685 -1.7049 -2.1474 -2.3542
 9232SOL    HW239156   4.383   1.565   2.708 -0.4247  0.1709 -0.1258
 9233SOL     OW39157   4.584   2.888   4.065  0.1003 -0.3367  0.5822
 9233SOL    HW139158   4.557   2.968   4.018 -1.3616 -0.8681  0.5260
 9233SOL    HW239159   4.672   2.885   4.026 -1.3359  1.1260 -2.8204
 9234SOL     OW39160   2.564   4.409  17.633 -0.2845  0.1136 -0.1079
 9234SOL    HW139161   2.489   4.370  17.587 -0.4287  1.0878 -0.7189
 9234SOL    HW239162   2.633   4.343  17.628 -0.6288 -0.3047  0.6987
 9235SOL     OW39163   0.986   3.410   8.913  0.4579  0.0433 -0.2343
 9235SOL    HW139164   0.921   3.476   8.935  0.8920  0.8828 -1.4644
 9235SOL    HW239165   1.058   3.466   8.883  1.3497 -1.0322 -0.1212
 9236SOL     OW39166   3.781   1.460   6.960  0.2522  0.0130  0.4399
 9236SOL    HW139167   3.826   1.411   6.891  0.1115 -0.6401  0.8118
 9236SOL    HW239168   3.741   1.531   6.911  0.7775  0.0305  0.0380
 9237SOL     OW39169   1.398   2.647   3.980 -0.3629  1.2825 -0.0905
 9237SOL    HW139170   1.334   2.655   3.909  0.8785  1.4890 -1.1908
 9237SOL    HW239171   1.441   2.732   3.979 -0.9788  1.6152  1.8454
 9238SOL     OW39172   3.870   4.106   8.628 -0.8108  0.4087  0.4985
 9238SOL    HW139173   3.888   4.187   8.677  0.0169 -0.1985  1.2070
 9238SOL    HW239174   3.914   4.042   8.684  0.4289  1.4447  0.7108
 9239SOL     OW39175   1.869   2.714   4.631 -0.4542 -0.3068 -0.1735
 9239SOL    HW139176   1.905   2.755   4.552  0.3206  0.9404  0.8245
 9239SOL    HW239177   1.776   2.732   4.618 -0.4260 -0.6077 -0.7804
 9240SOL     OW39178   1.708   2.417  15.137  0.2073 -0.0307 -0.6577
 9240SOL    HW139179   1.732   2.452  15.223  0.4455 -1.0161 -0.3231
 9240SOL    HW239180   1.616   2.396  15.149  0.7309 -1.3407  1.2824
 9241SOL     OW39181   0.924   3.110   3.041  0.6724 -0.7151  0.4298
 9241SOL    HW139182   0.880   3.187   3.077  1.2962  0.1278 -0.6213
 9241SOL    HW239183   0.890   3.044   3.102  1.2392 -1.2890  0.1151
 9242SOL     OW39184   4.098   3.792   4.242  1.1780 -0.4584  0.2204
 9242SOL    HW139185   4.160   3.719   4.236  3.4958  1.6102 -1.4841
 9242SOL    HW239186   4.017   3.742   4.236  1.5704 -1.2544  1.5620
 9243SOL     OW39187   3.123   2.899   3.550  0.8821 -0.0448  0.2485
 9243SOL    HW139188   3.128   2.814   3.507 -3.2425 -0.0355 -0.2037
 9243SOL    HW239189   3.170   2.956   3.489  0.7664 -2.2498 -1.8847
 9244SOL     OW39190   4.441   3.716   5.161 -0.2386  0.5851 -0.3820
 9244SOL    HW139191   4.470   3.735   5.072 -1.7186  0.8632 -0.7978
 9244SOL    HW239192   4.504   3.647   5.184 -1.6654 -0.2723  0.9232
 9245SOL     OW39193   3.783   3.060   6.959  0.1949 -0.1927 -0.1625
 9245SOL    HW139194   3.859   3.027   7.006 -0.6378 -2.2505 -0.2832
 9245SOL    HW239195   3.830   3.100   6.886 -0.5442 -0.2374 -0.6594
 9246SOL     OW39196   0.747   1.395  16.582  0.1669 -0.0917  0.0924
 9246SOL    HW139197   0.745   1.457  16.509  0.9546  0.0177  0.1696
 9246SOL    HW239198   0.686   1.334  16.540  0.9110  1.0915 -2.6567
 9247SOL     OW39199   1.184   4.056   7.566 -0.0692 -0.7880 -0.5645
 9247SOL    HW139200   1.184   4.085   7.475 -0.4657  0.2538 -0.2338
 9247SOL    HW239201   1.105   4.001   7.572  0.0030 -0.7772  0.4418
 9248SOL     OW39202   0.671   2.839   1.505  0.0429 -0.2967 -0.4413
 9248SOL    HW139203   0.738   2.835   1.572  1.1007  0.2321 -1.4736
 9248SOL    HW239204   0.625   2.913   1.545  1.8537  0.0965  0.8864
 9249SOL     OW39205   1.718   0.858   5.369 -0.1313  0.3351  0.2378
 9249SOL    HW139206   1.756   0.945   5.380 -3.8981  2.2505 -1.9386
 9249SOL    HW239207   1.673   0.879   5.287  0.0820 -1.4212 -0.3293
 9250SOL     OW39208   3.470   3.473   4.440  0.3309 -0.0108 -0.0735
 9250SOL    HW139209   3.527   3.531   4.389  0.8530 -1.0528 -0.6975
 9250SOL    HW239210   3.395   3.472   4.380  0.8739  0.4538 -0.7651
 9251SOL     OW39211   0.941   1.340   4.497 -0.0283 -0.5016 -0.0697
 9251SOL    HW139212   0.890   1.330   4.578  1.2581 -0.7624  0.7119
 9251SOL    HW239213   1.026   1.329   4.539 -0.8511  0.4581  1.8806
 9252SOL     OW39214   0.982   2.854   2.298  0.9255  0.0840 -0.1115
 9252SOL    HW139215   1.067   2.890   2.273 -0.6291  3.5976 -0.2707
 9252SOL    HW239216   0.945   2.926   2.349 -0.4444 -1.8541  1.6390
 9253SOL     OW39217   3.512   2.460   5.683 -0.0063  0.6798 -0.1086
 9253SOL    HW139218   3.455   2.386   5.705 -0.0174 -0.4926 -3.9526
 9253SOL    HW239219   3.539   2.493   5.768  0.5069 -0.4163  0.1593
 9254SOL     OW39220   3.040   3.455  13.528 -0.0379  0.9803  0.0623
 9254SOL    HW139221   3.077   3.452  13.439  2.3786 -1.0200  1.1203
 9254SOL    HW239222   3.119   3.489  13.571  0.8579  0.1193 -0.8646
 9255SOL     OW39223   4.110   3.771   8.557  0.4027 -0.1750  0.0262
 9255SOL    HW139224   4.188   3.825   8.572 -0.5005  0.8839  0.8259
 9255SOL    HW239225   4.086   3.762   8.649 -1.3249 -0.9389 -0.4943
 9256SOL     OW39226   0.328   4.289   3.256 -0.1419 -0.0671 -0.0323
 9256SOL    HW139227   0.288   4.358   3.309  0.1899 -0.9886  1.4127
 9256SOL    HW239228   0.422   4.306   3.252 -0.0522 -0.3516  0.9485
 9257SOL     OW39229   1.541   3.323   8.354 -0.9506 -0.0175 -0.1638
 9257SOL    HW139230   1.613   3.272   8.393 -2.7582 -1.6507  1.0103
 9257SOL    HW239231   1.478   3.255   8.330  1.6159 -1.8898 -1.6642
 9258SOL     OW39232   0.099   0.196   3.092 -0.2888 -0.0390 -0.7608
 9258SOL    HW139233   0.113   0.214   2.999 -1.0592 -3.0463 -1.4542
 9258SOL    HW239234   0.105   0.101   3.091  3.5883  0.2037 -1.1146
 9259SOL     OW39235   2.352   0.497   3.358  0.3468  0.1019  0.2233
 9259SOL    HW139236   2.412   0.505   3.284 -0.3155  2.0267 -0.0864
 9259SOL    HW239237   2.292   0.570   3.345  0.3736 -0.0956 -0.9740
 9260SOL     OW39238   0.445   2.515   1.591 -0.5347  0.1493  0.2882
 9260SOL    HW139239   0.516   2.470   1.546 -1.7699  0.4490 -1.9478
 9260SOL    HW239240   0.486   2.526   1.677  0.1327 -0.3646  0.0357
 9261SOL     OW39241   1.310   0.919   6.267 -0.3452 -0.1239 -0.0953
 9261SOL    HW139242   1.395   0.909   6.310  0.6893  1.0400 -1.8433
 9261SOL    HW239243   1.323   0.986   6.199 -2.4324 -1.6129 -1.9669
 9262SOL     OW39244   3.065   4.662   5.448 -0.2588  0.0384  0.4688
 9262SOL    HW139245   3.101   0.027   5.475 -0.5804  1.2202 -2.8086
 9262SOL    HW239246   3.143   4.613   5.424 -0.1002  0.7802 -0.5239
 9263SOL     OW39247   2.696   1.488   3.238  0.1823 -0.2809 -0.1558
 9263SOL    HW139248   2.633   1.449   3.298 -0.3494 -0.8191 -1.0675
 9263SOL    HW239249   2.702   1.429   3.162 -0.4030  0.9204 -1.1526
 9264SOL     OW39250   1.313   3.416  15.094 -0.0370  0.2063  0.4722
 9264SOL    HW139251   1.399   3.382  15.118 -0.7151 -0.1992  2.2807
 9264SOL    HW239252   1.316   3.503  15.135  0.6337  0.3064  0.2004
 9265SOL     OW39253   1.653   3.907   3.561 -0.1294 -0.2803 -0.1497
 9265SOL    HW139254   1.737   3.864   3.548  0.4072  0.7168  0.0477
 9265SOL    HW239255   1.608   3.834   3.606  1.7315 -0.7480  0.9590
 9266SOL     OW39256   3.182   0.612  13.284 -0.0244 -0.2499 -0.3665
 9266SOL    HW139257   3.273   0.642  13.292 -0.2715  0.7372 -1.2688
 9266SOL    HW239258   3.183   0.542  13.219 -0.7839 -1.7968  1.2996
 9267SOL     OW39259   0.115   0.608  15.101  0.2552 -0.2048  0.0420
 9267SOL    HW139260   0.034   0.655  15.080 -0.2459 -2.2908 -2.7392
 9267SOL    HW239261   0.142   0.662  15.174  0.5198  2.0712 -1.7304
 9268SOL     OW39262   4.223   1.218  14.384  0.0245  0.2212 -0.0042
 9268SOL    HW139263   4.179   1.303  14.388 -1.9049 -0.7222 -1.1381
 9268SOL    HW239264   4.169   1.187  14.311  1.9623  0.1721 -1.4213
 9269SOL     OW39265   4.412   1.064  10.043 -0.0464  0.4477  0.2104
 9269SOL    HW139266   4.393   0.994  10.106  0.2708  1.2366  1.1931
 9269SOL    HW239267   4.488   1.027   9.998 -0.2734  0.5499 -0.2524
 9270SOL     OW39268   0.727   2.595  16.452  0.1681  0.1527 -0.1196
 9270SOL    HW139269   0.772   2.672  16.486  0.4110  1.0217 -2.3729
 9270SOL    HW239270   0.638   2.625  16.430 -1.5584 -4.6551  0.2920
 9271SOL     OW39271   4.324   0.588   2.955  0.4017 -0.3862 -0.1395
 9271SOL    HW139272   4.230   0.606   2.958  0.3631 -0.4799 -0.8536
 9271SOL    HW239273   4.329   0.569   2.862  2.9929  0.7749 -0.2563
 9272SOL     OW39274   3.149   1.617   4.296  0.3629  0.0626  0.0645
 9272SOL    HW139275   3.116   1.528   4.313  0.6781 -0.2017 -0.7195
 9272SOL    HW239276   3.071   1.657   4.258  1.0491  0.4766 -0.9055
 9273SOL     OW39277   4.360   1.783   8.411 -0.5599  0.2360 -0.1760
 9273SOL    HW139278   4.313   1.794   8.494  1.2569 -0.5075  0.9599
 9273SOL    HW239279   4.449   1.755   8.434 -0.3586 -0.8455 -2.2541
 9274SOL     OW39280   1.532   4.246   6.777 -0.0137 -0.0922 -0.8914
 9274SOL    HW139281   1.489   4.196   6.707 -1.6426  1.9543 -1.3346
 9274SOL    HW239282   1.545   4.326   6.727  2.7045 -0.8507 -1.3618
 9275SOL     OW39283   3.842   2.907   1.608 -0.1620  0.0614 -0.6320
 9275SOL    HW139284   3.857   2.822   1.647 -1.6537  0.0247 -0.1077
 9275SOL    HW239285   3.904   2.970   1.645 -1.4976  0.4050  1.0435
 9276SOL     OW39286   3.984   2.316  10.605  0.7749 -0.5795  0.2126
 9276SOL    HW139287   4.077   2.318  10.631  0.9995  4.1774 -0.9841
 9276SOL    HW239288   3.950   2.374  10.672  0.3616 -0.1044 -0.4046
 9277SOL     OW39289   2.881   2.865   0.570 -0.1531 -0.0192  0.2120
 9277SOL    HW139290   2.880   2.935   0.506 -0.6707 -1.1112 -0.9724
 9277SOL    HW239291   2.975   2.848   0.572 -0.1848  0.0210  2.5305
 9278SOL     OW39292   0.493   0.408   7.530 -0.1905 -0.4616 -0.0654
 9278SOL    HW139293   0.526   0.415   7.441 -1.6178 -1.8204 -0.6929
 9278SOL    HW239294   0.448   0.324   7.531 -0.3675 -0.3746 -1.0690
 9279SOL     OW39295   1.703   3.319   3.213 -0.1839  0.1372 -0.3857
 9279SOL    HW139296   1.664   3.401   3.181  1.4395  0.7748 -0.7237
 9279SOL    HW239297   1.740   3.288   3.130  3.2581 -0.9311  1.5549
 9280SOL     OW39298   2.821   2.092   7.362  0.1118 -0.4546  0.5429
 9280SOL    HW139299   2.824   2.179   7.322  0.4289  0.2720  2.1109
 9280SOL    HW239300   2.885   2.097   7.433  0.7989 -0.9045 -0.0462
 9281SOL     OW39301   0.043   3.490   6.259 -0.4224 -0.6249 -0.4292
 9281SOL    HW139302   0.067   3.410   6.305 -1.3873  0.4636  1.9487
 9281SOL    HW239303   0.071   3.460   6.172  1.2542 -0.1970 -0.0422
 9282SOL     OW39304   3.122   2.697   8.400  0.5453  0.6504  0.4275
 9282SOL    HW139305   3.098   2.607   8.381 -0.9796  1.0456  0.4956
 9282SOL    HW239306   3.133   2.688   8.495  0.0104  0.8402  0.5054
 9283SOL     OW39307   1.430   3.101   1.056 -0.0970  0.2478  0.3083
 9283SOL    HW139308   1.387   3.059   0.982  0.9300 -0.4945  0.1254
 9283SOL    HW239309   1.489   3.158   1.006 -0.4449  1.5378  1.3717
 9284SOL     OW39310   0.647   2.960   4.256 -0.3930 -0.5302 -0.0640
 9284SOL    HW139311   0.714   2.949   4.323  0.5283  0.1145 -0.8701
 9284SOL    HW239312   0.675   2.894   4.193  0.5200 -0.0753 -0.1326
 9285SOL     OW39313   1.715   2.220  16.674 -0.4283 -0.2749  0.1787
 9285SOL    HW139314   1.775   2.176  16.614  1.5652  0.0146  1.9629
 9285SOL    HW239315   1.687   2.138  16.716  2.3020 -1.2416  0.1189
 9286SOL     OW39316   0.638   4.286  11.426 -0.0659 -0.1379 -0.1462
 9286SOL    HW139317   0.565   4.320  11.478  1.0205  0.8249  0.7582
 9286SOL    HW239318   0.625   4.346  11.353  1.7812 -1.5279 -1.6149
 9287SOL     OW39319   2.116   4.395  12.740  0.2531 -0.2580 -0.1255
 9287SOL    HW139320   2.155   4.421  12.822 -0.7448  1.1442 -0.0987
 9287SOL    HW239321   2.176   4.323  12.722  0.8348  0.5576 -1.4831
 9288SOL     OW39322   0.144   1.080   3.272  0.0979  0.4318  0.5185
 9288SOL    HW139323   0.143   0.993   3.313 -0.3696 -0.5883 -1.6644
 9288SOL    HW239324   0.147   1.138   3.348  0.7251  1.1104 -0.0234
 9289SOL     OW39325   3.772   2.588  17.311  0.4609 -0.3911 -0.1428
 9289SOL    HW139326   3.730   2.518  17.260  0.7926 -0.1965 -0.6942
 9289SOL    HW239327   3.823   2.630  17.241  0.5396  0.1924  0.2692
 9290SOL     OW39328   3.239   2.519   1.576  0.0379  0.3018  0.1999
 9290SOL    HW139329   3.290   2.599   1.562  0.4117  0.6145  3.3313
 9290SOL    HW239330   3.150   2.550   1.596  0.1994  0.5822  0.4924
 9291SOL     OW39331   4.327   4.602   2.100  0.4590  0.3052 -0.0821
 9291SOL    HW139332   4.369   4.529   2.146  0.2987  0.9771  1.1117
 9291SOL    HW239333   4.405   4.643   2.064  0.9991  1.8616  2.9111
 9292SOL     OW39334   3.914   3.665  11.066  0.0547  0.0841 -0.1687
 9292SOL    HW139335   3.856   3.730  11.028  2.3055  1.0174 -1.9735
 9292SOL    HW239336   3.999   3.708  11.059  0.5611 -1.0589 -1.0924
 9293SOL     OW39337   1.197   3.875   8.556 -0.3482 -0.7525 -0.3571
 9293SOL    HW139338   1.227   3.960   8.524 -0.7586 -0.7586 -0.7772
 9293SOL    HW239339   1.191   3.825   8.474 -3.1735 -0.7304 -0.1602
 9294SOL     OW39340   2.881   3.776  11.401 -0.2135  0.3527 -0.1453
 9294SOL    HW139341   2.820   3.841  11.437  0.4326  0.5806  0.5218
 9294SOL    HW239342   2.844   3.694  11.433 -3.9697  1.5651 -1.3241
 9295SOL     OW39343   0.241   3.155   2.903 -0.8543 -0.0106 -0.0654
 9295SOL    HW139344   0.213   3.083   2.847 -0.4225  1.5146 -2.2688
 9295SOL    HW239345   0.189   3.232   2.877 -0.2799  0.2118 -0.5526
 9296SOL     OW39346   4.526   1.856   4.075  0.5141 -0.2077  0.1344
 9296SOL    HW139347   4.498   1.889   4.161 -0.1327 -0.4119  0.0079
 9296SOL    HW239348   4.444   1.867   4.026  1.3150  0.8765 -0.9512
 9297SOL     OW39349   2.117   4.265  13.609  0.1786  0.7053  0.2168
 9297SOL    HW139350   2.191   4.217  13.572 -1.3460 -2.2746  1.0194
 9297SOL    HW239351   2.102   4.228  13.695  2.1738 -0.7421 -0.0696
 9298SOL     OW39352   0.829   1.760   3.397 -0.1476  0.3500 -0.0479
 9298SOL    HW139353   0.750   1.810   3.378 -0.1466  0.4570  0.2234
 9298SOL    HW239354   0.790   1.674   3.417  2.6907 -0.7354  0.8816
 9299SOL     OW39355   2.931   0.385   0.124 -0.3218 -0.5207  0.0408
 9299SOL    HW139356   2.875   0.343   0.058 -2.6459 -0.6150  2.0709
 9299SOL    HW239357   3.002   0.322   0.137  0.3645  0.4127  0.8009
 9300SOL     OW39358   0.758   0.646  17.110  0.4503 -0.2415  0.3445
 9300SOL    HW139359   0.851   0.625  17.123  0.2268 -0.6327  1.3185
 9300SOL    HW239360   0.743   0.633  17.017 -1.6631 -0.3777  0.7055
 9301SOL     OW39361   3.273   2.376   9.235  1.0168 -0.0921 -0.2524
 9301SOL    HW139362   3.180   2.352   9.230  0.9434  0.0924  0.1604
 9301SOL    HW239363   3.305   2.296   9.275 -1.1917 -0.2196  1.2818
 9302SOL     OW39364   1.587   2.225  13.842  0.3625  0.2432 -0.1449
 9302SOL    HW139365   1.615   2.269  13.762  0.7112  2.9318  1.4779
 9302SOL    HW239366   1.640   2.270  13.907 -0.3786 -1.7935  1.8809
 9303SOL     OW39367   3.664   2.181  13.713  0.3070  0.7330 -0.1038
 9303SOL    HW139368   3.589   2.235  13.738  2.0921  3.5697 -0.9114
 9303SOL    HW239369   3.641   2.095  13.748  0.7376  0.2185 -1.0893
 9304SOL     OW39370   1.071   1.559   5.547  0.1687  0.0715 -0.4230
 9304SOL    HW139371   1.056   1.476   5.594 -3.0848  0.9360  0.1173
 9304SOL    HW239372   1.112   1.609   5.617  1.6054 -1.4415 -0.1828
 9305SOL     OW39373   2.187   0.418   5.089 -0.2744 -0.0286 -0.5172
 9305SOL    HW139374   2.268   0.454   5.123 -1.3103  0.9635  0.9021
 9305SOL    HW239375   2.210   0.326   5.077 -1.9778 -0.2488 -2.0559
 9306SOL     OW39376   1.909   2.129   9.083 -0.0651  0.0522  0.4512
 9306SOL    HW139377   1.877   2.058   9.138 -0.4099  1.2489  1.8166
 9306SOL    HW239378   1.855   2.203   9.113 -0.1852  0.7093 -1.3547
 9307SOL     OW39379   3.646   1.365   7.361 -0.1643 -0.2556 -0.3818
 9307SOL    HW139380   3.622   1.406   7.444 -0.3949 -0.7275 -0.2166
 9307SOL    HW239381   3.684   1.441   7.316 -0.8180 -0.9102 -2.0293
 9308SOL     OW39382   0.158   3.508   7.691  0.1620  0.0352 -0.0344
 9308SOL    HW139383   0.227   3.519   7.758  1.0888  0.0199 -0.9811
 9308SOL    HW239384   0.100   3.453   7.744 -0.8657  0.6337 -0.5434
 9309SOL     OW39385   3.470   1.011   5.817  0.1594 -0.3823  0.2868
 9309SOL    HW139386   3.529   1.076   5.854 -1.1006  1.8306 -1.5955
 9309SOL    HW239387   3.534   0.943   5.795 -0.6778 -0.7287 -1.1325
 9310SOL     OW39388   2.419   3.791   8.971  0.6608  0.3059  0.0625
 9310SOL    HW139389   2.498   3.749   9.005 -1.2836 -0.7865  3.2141
 9310SOL    HW239390   2.444   3.849   8.899  0.4624  1.6248  1.0612
 9311SOL     OW39391   4.503   1.393   3.358 -0.3397  0.6481  0.2807
 9311SOL    HW139392   4.501   1.480   3.399  0.9249  0.4906  0.6799
 9311SOL    HW239393   4.582   1.399   3.303 -1.3254  1.8425 -1.0020
 9312SOL     OW39394   0.928   4.679   4.777 -0.0493 -0.1375  0.2881
 9312SOL    HW139395   0.900   4.590   4.797  1.5875 -0.6398  0.3971
 9312SOL    HW239396   1.012   4.683   4.824  0.1577 -1.5869  0.0352
 9313SOL     OW39397   2.603   1.511   8.743 -0.3612 -0.0510  0.1232
 9313SOL    HW139398   2.646   1.455   8.808 -1.5728 -0.2525  0.7583
 9313SOL    HW239399   2.569   1.583   8.796 -1.5413 -1.4442  1.2922
 9314SOL     OW39400   1.666   2.242   8.404  0.2952 -0.3056  0.0318
 9314SOL    HW139401   1.695   2.280   8.487 -0.3290 -1.6440  0.8540
 9314SOL    HW239402   1.661   2.319   8.347 -0.4655 -1.0284 -0.8664
 9315SOL     OW39403   3.225   0.362   5.211  0.1282  0.4252  0.4495
 9315SOL    HW139404   3.217   0.411   5.293 -1.7933 -0.1313  0.5874
 9315SOL    HW239405   3.189   0.280   5.244 -0.2124  1.2431  2.0937
 9316SOL     OW39406   2.229   0.715  13.696  0.0942  0.2010 -0.2545
 9316SOL    HW139407   2.221   0.766  13.615 -0.6936 -0.4292 -0.5646
 9316SOL    HW239408   2.221   0.625  13.666 -0.0606  0.1536 -0.0724
 9317SOL     OW39409   2.875   1.207   9.590 -0.3806  0.4115 -0.4889
 9317SOL    HW139410   2.784   1.197   9.621  0.2027  0.0117  1.0999
 9317SOL    HW239411   2.890   1.300   9.577  2.7539 -0.0397 -0.0706
 9318SOL     OW39412   0.711   0.171   7.426 -0.4525 -0.0098  0.1525
 9318SOL    HW139413   0.674   0.131   7.504 -0.2392  1.5552  1.0597
 9318SOL    HW239414   0.803   0.153   7.444 -0.2727  1.1203  0.3400
 9319SOL     OW39415   2.306   4.303  16.763  0.0299  0.5046 -0.0610
 9319SOL    HW139416   2.244   4.328  16.832  1.7476 -1.2058  2.1073
 9319SOL    HW239417   2.378   4.362  16.782 -2.1279  3.0577  0.2625
 9320SOL     OW39418   1.177   3.585   3.393  0.0935  0.4322  0.0739
 9320SOL    HW139419   1.096   3.536   3.402  0.7246 -0.1981  2.2353
 9320SOL    HW239420   1.193   3.628   3.477 -0.0702  1.2592 -0.3119
 9321SOL     OW39421   3.216   4.658   7.591 -0.3913 -0.4371 -0.4986
 9321SOL    HW139422   3.304   4.638   7.557 -0.2349 -1.0725  0.2957
 9321SOL    HW239423   3.229   4.656   7.686  0.0703 -0.7108 -0.5643
 9322SOL     OW39424   0.003   4.072   7.586  0.1771 -0.4308  0.7545
 9322SOL    HW139425   0.025   4.098   7.496 -0.4753 -4.1344 -0.4629
 9322SOL    HW239426   0.031   3.981   7.583  2.3107  0.2643 -1.1922
 9323SOL     OW39427   0.196   1.807  10.306 -0.2730 -0.1671  0.3431
 9323SOL    HW139428   0.119   1.752  10.286  0.7994 -1.2965 -0.7083
 9323SOL    HW239429   0.180   1.890  10.261  1.0487 -0.0502  0.0840
 9324SOL     OW39430   0.933   1.423   2.269 -0.3931 -0.2559  0.5390
 9324SOL    HW139431   0.904   1.398   2.181 -0.7314  1.0722  0.2743
 9324SOL    HW239432   0.851   1.410   2.316 -0.1267  1.6616  1.5764
 9325SOL     OW39433   3.697   3.572   5.441 -0.2232  0.4355  0.5426
 9325SOL    HW139434   3.605   3.593   5.456 -0.8827 -1.2132 -1.1700
 9325SOL    HW239435   3.690   3.477   5.435 -3.9586  0.8442 -1.5873
 9326SOL     OW39436   2.317   1.355   6.645  0.6211 -0.3180  0.3081
 9326SOL    HW139437   2.266   1.354   6.726  1.4018 -1.5651  0.7702
 9326SOL    HW239438   2.376   1.284   6.667 -0.9205 -1.7397 -0.0737
 9327SOL     OW39439   1.842   0.934  13.183 -0.0952  0.2133  0.2306
 9327SOL    HW139440   1.891   0.857  13.211 -1.6742 -0.6670  0.5922
 9327SOL    HW239441   1.751   0.916  13.205 -0.3008  0.9372 -0.0157
 9328SOL     OW39442   3.429   2.065  10.671  0.6054  0.0220 -0.0763
 9328SOL    HW139443   3.390   2.117  10.600  2.3981  0.6499 -0.6140
 9328SOL    HW239444   3.366   2.013  10.720  0.4424  2.1357  1.9629
 9329SOL     OW39445   4.005   1.927   2.270 -0.1922 -0.0818 -0.4200
 9329SOL    HW139446   4.088   1.886   2.247  0.0768 -0.5178  1.3106
 9329SOL    HW239447   4.009   1.919   2.366  1.2512  2.1646 -0.2861
 9330SOL     OW39448   4.718   2.088   3.288 -0.2120 -0.2846 -0.2588
 9330SOL    HW139449   4.716   1.999   3.251  0.6456 -1.0436  1.4886
 9330SOL    HW239450   4.634   2.094   3.334 -0.6114 -1.4634 -0.8287
 9331SOL     OW39451   0.385   3.751  16.432 -0.3152  0.0307  0.2303
 9331SOL    HW139452   0.314   3.770  16.494 -0.1863 -0.0545  0.4030
 9331SOL    HW239453   0.456   3.808  16.459  0.8384 -1.5295  0.4553
 9332SOL     OW39454   2.349   1.894  17.331  0.0856 -0.5220 -0.1408
 9332SOL    HW139455   2.259   1.910  17.359  1.2569  2.2144  2.0496
 9332SOL    HW239456   2.330   1.855  17.246  3.2102 -1.5288 -0.3594
 9333SOL     OW39457   1.130   3.360  15.828 -0.2234  0.7939  0.5347
 9333SOL    HW139458   1.035   3.359  15.836 -0.4000 -0.0416 -1.7949
 9333SOL    HW239459   1.159   3.410  15.904  1.4298  0.1664  0.3170
 9334SOL     OW39460   0.518   4.690   6.161 -0.0827  0.3959  0.5223
 9334SOL    HW139461   0.539   4.601   6.133  1.0439  0.6810  0.4841
 9334SOL    HW239462   0.608   0.000   6.148  0.1675 -1.1594 -1.2374
 9335SOL     OW39463   0.632   2.705   5.350  0.4059  0.3385 -0.4578
 9335SOL    HW139464   0.630   2.750   5.435  0.8585 -1.1364  0.3415
 9335SOL    HW239465   0.691   2.631   5.367 -0.0970  0.1815  0.6469
 9336SOL     OW39466   2.771   3.157   4.609 -0.4250  0.5912 -0.0933
 9336SOL    HW139467   2.740   3.085   4.663  0.5455 -1.0710 -1.7650
 9336SOL    HW239468   2.819   3.103   4.546 -1.3357  1.5462 -1.6329
 9337SOL     OW39469   1.951   2.989   7.360  0.1072  0.4151 -0.5178
 9337SOL    HW139470   2.031   2.980   7.412 -0.8507  1.7351  1.1900
 9337SOL    HW239471   1.883   2.974   7.426 -0.5394 -0.6964 -1.4311
 9338SOL     OW39472   3.478   1.848   7.369  0.2757  0.5287 -0.0555
 9338SOL    HW139473   3.428   1.928   7.386  1.9327  1.5775 -0.0932
 9338SOL    HW239474   3.415   1.778   7.385  0.9527 -0.0572  0.0747
 9339SOL     OW39475   0.360   1.497  16.512 -0.1846 -0.5850  0.0911
 9339SOL    HW139476   0.447   1.460  16.500  0.6334  1.8497 -1.3995
 9339SOL    HW239477   0.349   1.499  16.607  2.1412  0.4999  0.3437
 9340SOL     OW39478   3.854   4.022   6.728  0.0280 -0.8982  0.2357
 9340SOL    HW139479   3.783   4.034   6.665  0.4571 -0.0438 -0.0908
 9340SOL    HW239480   3.914   3.980   6.666  1.4514  3.9783 -1.6655
 9341SOL     OW39481   4.584   1.875   9.695 -0.3508  0.4177 -0.3240
 9341SOL    HW139482   4.651   1.900   9.758  1.4730 -4.1919 -0.4402
 9341SOL    HW239483   4.566   1.788   9.732  1.8069  0.8700  1.7953
 9342SOL     OW39484   1.386   3.091   4.739 -0.8412  0.1542 -0.6856
 9342SOL    HW139485   1.308   3.086   4.684 -0.6466  0.8881 -1.0263
 9342SOL    HW239486   1.453   3.130   4.683 -1.5794 -1.7156 -2.8877
 9343SOL     OW39487   2.471   2.693   5.661  0.2065 -0.6533 -0.1739
 9343SOL    HW139488   2.412   2.741   5.603  0.4967  0.4684  0.4776
 9343SOL    HW239489   2.413   2.647   5.722 -1.3819 -0.6163 -1.6363
 9344SOL     OW39490   2.791   0.010   9.317  0.2150  0.0122 -0.0823
 9344SOL    HW139491   2.794   0.034   9.225 -0.1586 -2.1196 -0.6537
 9344SOL    HW239492   2.752   4.641   9.316  0.6993 -0.1578 -2.2531
 9345SOL     OW39493   1.129   2.498  16.714  0.1688 -0.0958 -0.1188
 9345SOL    HW139494   1.043   2.532  16.736  0.3607  2.0516 -2.6748
 9345SOL    HW239495   1.157   2.571  16.659  3.1575  0.1587  1.6654
 9346SOL     OW39496   0.475   1.749   6.945  0.4696 -0.1344 -0.0367
 9346SOL    HW139497   0.433   1.686   6.886 -0.9228 -0.2670  1.0881
 9346SOL    HW239498   0.553   1.704   6.977  0.5804 -1.2513 -1.8626
 9347SOL     OW39499   1.518   3.177  10.321 -0.3999  0.3268 -0.2117
 9347SOL    HW139500   1.486   3.092  10.350  1.4613 -0.2294  0.2456
 9347SOL    HW239501   1.455   3.230  10.370 -0.7535 -1.1421  0.9101
 9348SOL     OW39502   1.291   3.218  11.217  0.4741  0.2350  0.0222
 9348SOL    HW139503   1.373   3.202  11.263  1.4102  1.4163 -1.2345
 9348SOL    HW239504   1.302   3.311  11.196  2.2111  0.3513  1.4448
 9349SOL     OW39505   3.970   1.462  12.019  0.3005  0.0491  0.0770
 9349SOL    HW139506   3.955   1.531  12.084 -0.2843  0.5851 -0.6158
 9349SOL    HW239507   3.881   1.465  11.984  1.1015  0.3992 -1.9357
 9350SOL     OW39508   0.522   3.576   3.799  0.0699 -0.2364 -0.6478
 9350SOL    HW139509   0.527   3.493   3.751  0.3050  0.0229 -1.0765
 9350SOL    HW239510   0.518   3.635   3.724  0.9197 -0.0464 -0.5500
 9351SOL     OW39511   4.281   3.032   1.507  0.1636  0.7245  0.3114
 9351SOL    HW139512   4.338   3.071   1.441  2.3805 -0.0266  1.7843
 9351SOL    HW239513   4.254   2.946   1.475  1.1456  0.1765  0.9579
 9352SOL     OW39514   0.170   0.234   2.068  0.5971 -0.0356  0.1738
 9352SOL    HW139515   0.198   0.320   2.099  1.3940 -0.6945  1.3017
 9352SOL    HW239516   0.231   0.182   2.120  0.3572 -0.4725  0.0237
 9353SOL     OW39517   1.040   4.642   2.838 -0.2879 -0.0185  1.3202
 9353SOL    HW139518   1.018   4.565   2.891 -0.4123 -1.7141 -1.2441
 9353SOL    HW239519   0.988   4.625   2.760  0.5366 -0.9359  0.9883
 9354SOL     OW39520   3.710   2.902   5.686  0.3624  0.4468 -0.1950
 9354SOL    HW139521   3.755   2.878   5.605 -0.5823 -3.1104  0.3344
 9354SOL    HW239522   3.711   2.998   5.679  0.1253  0.2835 -2.3850
 9355SOL     OW39523   3.466   3.768   2.655  0.6733 -0.1806  0.6513
 9355SOL    HW139524   3.510   3.721   2.583 -0.0503 -1.0686  0.8004
 9355SOL    HW239525   3.477   3.700   2.721 -2.2881 -1.9019 -0.6465
 9356SOL     OW39526   4.486   4.622  17.081  0.6249  0.2377  0.0258
 9356SOL    HW139527   4.539   4.640  17.003 -0.2811  2.3284 -0.1177
 9356SOL    HW239528   4.532   4.544  17.112  1.4631  0.9088  0.4824
 9357SOL     OW39529   1.037   1.689   2.737 -0.3527 -0.1724 -0.4877
 9357SOL    HW139530   1.016   1.631   2.810 -0.9416  1.4658  0.6494
 9357SOL    HW239531   0.996   1.645   2.663  0.6579  0.4958 -1.4454
 9358SOL     OW39532   1.563   2.355   7.313  0.3624  0.0607 -0.5170
 9358SOL    HW139533   1.470   2.345   7.292 -0.4061  0.3591  2.6761
 9358SOL    HW239534   1.591   2.430   7.260  2.1688 -0.7310 -0.6728
 9359SOL     OW39535   4.435   1.907   1.097 -0.9471 -0.0046 -0.2791
 9359SOL    HW139536   4.485   1.852   1.157 -1.7648 -1.9997 -1.4073
 9359SOL    HW239537   4.499   1.917   1.027 -0.4951 -1.1471 -0.0276
 9360SOL     OW39538   0.296   1.416   2.571 -0.2616 -0.3969 -0.3058
 9360SOL    HW139539   0.257   1.329   2.580  0.3700 -0.8524 -1.9279
 9360SOL    HW239540   0.352   1.405   2.648  0.9519  0.8940 -1.0096
 9361SOL     OW39541   3.550   0.077   4.283  0.1984  0.0658 -0.2785
 9361SOL    HW139542   3.585   0.103   4.368 -0.1710 -1.3081  0.2946
 9361SOL    HW239543   3.497   4.719   4.301  0.0708 -0.1669 -1.6941
 9362SOL     OW39544   3.709   1.700   6.849 -0.2332  0.1756 -0.2232
 9362SOL    HW139545   3.776   1.768   6.844 -0.8717  0.9084  0.9101
 9362SOL    HW239546   3.629   1.753   6.860  0.1167  0.5666  0.4843
 9363SOL     OW39547   0.527   0.815  14.368 -0.1301 -0.1437 -0.1457
 9363SOL    HW139548   0.584   0.783  14.439 -0.8049 -0.2632  0.3451
 9363SOL    HW239549   0.568   0.899  14.349 -2.7151  1.2026  0.3513
 9364SOL     OW39550   0.480   1.110   0.861  0.2584 -0.3753 -0.3577
 9364SOL    HW139551   0.491   1.021   0.893 -1.6403 -1.1886 -1.9648
 9364SOL    HW239552   0.507   1.155   0.941  2.0369  2.7155 -2.6524
 9365SOL     OW39553   2.234   3.746   4.256 -0.4378  0.1865  0.0885
 9365SOL    HW139554   2.310   3.696   4.225 -0.8904 -0.8698  0.7005
 9365SOL    HW239555   2.254   3.834   4.224 -1.2800  0.5358  0.5163
 9366SOL     OW39556   0.800   2.444  17.497  0.4014 -0.3040  0.3793
 9366SOL    HW139557   0.747   2.371  17.464  0.1666 -0.2383  0.6088
 9366SOL    HW239558   0.857   2.457  17.421  0.2437  0.7863  0.4525
 9367SOL     OW39559   0.408   0.791   4.248  0.3008  0.0084 -0.5080
 9367SOL    HW139560   0.334   0.785   4.309  1.0705 -0.1945  0.3978
 9367SOL    HW239561   0.388   0.721   4.186 -0.0199 -0.1167 -0.2620
 9368SOL     OW39562   1.803   3.741   1.962 -0.0391 -0.0641 -0.3859
 9368SOL    HW139563   1.789   3.759   1.869 -0.1317  1.0940 -0.1461
 9368SOL    HW239564   1.898   3.731   1.962 -0.1571 -1.1671  0.3016
 9369SOL     OW39565   3.839   2.611   2.786  0.0643 -0.2975 -0.2539
 9369SOL    HW139566   3.904   2.578   2.849  2.1438  1.4928 -1.4659
 9369SOL    HW239567   3.841   2.547   2.715  0.8420  1.4317 -1.7961
 9370SOL     OW39568   0.152   3.215  10.814  0.6215 -0.6277  0.6374
 9370SOL    HW139569   0.228   3.237  10.868  1.8758  0.9659 -1.8046
 9370SOL    HW239570   0.169   3.258  10.730 -0.0465  1.9352  1.8165
 9371SOL     OW39571   4.481   2.887   2.711 -0.4033 -0.3818  0.5118
 9371SOL    HW139572   4.510   2.888   2.619  3.0901 -1.5769  1.5793
 9371SOL    HW239573   4.488   2.793   2.732 -0.1599 -0.6586 -0.7749
 9372SOL     OW39574   2.492   0.792   1.546 -0.1871  0.1637 -0.4348
 9372SOL    HW139575   2.435   0.830   1.480  0.3820  3.5540  1.0349
 9372SOL    HW239576   2.482   0.701   1.519 -3.2937  0.6725 -1.0329
 9373SOL     OW39577   0.048   0.259   7.947 -0.2325 -0.1428  0.2687
 9373SOL    HW139578   0.045   0.280   8.041  1.1273  0.2963  0.2117
 9373SOL    HW239579   0.051   0.347   7.910  0.5135 -0.7229 -1.0574
 9374SOL     OW39580   3.767   0.752   7.716 -0.6197 -0.4758  0.5319
 9374SOL    HW139581   3.850   0.735   7.760 -0.2024  0.9633  0.3196
 9374SOL    HW239582   3.770   0.843   7.685  0.1915 -1.3493 -1.9249
 9375SOL     OW39583   2.046   4.115   6.796 -0.0965 -0.5945 -0.1108
 9375SOL    HW139584   1.993   4.075   6.727 -0.8084  2.3242 -1.2954
 9375SOL    HW239585   1.983   4.183   6.820  1.2949  0.3951  0.7626
 9376SOL     OW39586   0.177   3.548   5.248  0.0259  0.1289  0.2067
 9376SOL    HW139587   0.165   3.624   5.305  1.4409 -0.4889  1.3315
 9376SOL    HW239588   0.265   3.517   5.270 -0.1446 -1.2816 -1.0678
 9377SOL     OW39589   0.401   3.101   0.568 -0.6145  0.0597  0.2704
 9377SOL    HW139590   0.475   3.067   0.518  0.5327  2.2448  0.4784
 9377SOL    HW239591   0.373   3.015   0.599  2.3103 -0.0760  2.5685
 9378SOL     OW39592   0.144   1.652   5.425  0.4417 -0.5798 -0.5556
 9378SOL    HW139593   0.201   1.669   5.350 -0.1469 -1.0942 -1.1254
 9378SOL    HW239594   0.202   1.650   5.501 -1.5309 -0.9011  0.9388
 9379SOL     OW39595   3.646   4.709   7.765 -0.5476 -0.1732 -0.2434
 9379SOL    HW139596   3.637   4.617   7.741  2.5084 -0.4151 -0.5531
 9379SOL    HW239597   3.595   0.035   7.699 -0.0930 -0.2227 -0.6320
 9380SOL     OW39598   1.292   0.722   9.599 -0.4568  0.4148  0.6014
 9380SOL    HW139599   1.339   0.723   9.683 -1.3891 -2.2780  1.1809
 9380SOL    HW239600   1.365   0.711   9.538  0.4610 -0.4124  1.8487
 9381SOL     OW39601   0.226   3.132   8.615 -0.0291 -0.5603  0.2544
 9381SOL    HW139602   0.297   3.106   8.556  2.3482  2.6643  1.6857
 9381SOL    HW239603   0.179   3.196   8.562 -0.6308 -0.0895  1.3625
 9382SOL     OW39604   3.794   1.739   3.946 -0.0989 -0.6504 -0.0416
 9382SOL    HW139605   3.797   1.820   3.895 -2.0404 -2.1004 -2.5029
 9382SOL    HW239606   3.829   1.680   3.879  0.8630 -0.8428  0.6378
 9383SOL     OW39607   3.299   3.750   0.537 -0.0609  0.4287  0.4730
 9383SOL    HW139608   3.253   3.675   0.500  0.2550 -0.4852  1.9326
 9383SOL    HW239609   3.382   3.744   0.489 -1.4736 -0.5312 -1.8047
 9384SOL     OW39610   3.376   2.838   5.700  0.3187 -0.1232  0.5913
 9384SOL    HW139611   3.420   2.757   5.724  1.4153  0.3264  0.1099
 9384SOL    HW239612   3.421   2.855   5.617 -1.6399 -1.0947 -0.6473
 9385SOL     OW39613   0.018   1.236   8.184  0.3804  0.2182 -0.2650
 9385SOL    HW139614   4.694   1.151   8.177 -0.8700  0.8563 -0.2791
 9385SOL    HW239615   4.717   1.269   8.097 -0.0783 -0.3501 -0.3761
 9386SOL     OW39616   3.259   2.075  13.640 -0.3798 -0.8585  0.3393
 9386SOL    HW139617   3.199   2.013  13.680  0.4979  0.4027  3.6134
 9386SOL    HW239618   3.206   2.105  13.566  1.6666  0.7179 -0.5099
 9387SOL     OW39619   3.756   2.295   9.066 -0.6305 -0.2735 -0.3253
 9387SOL    HW139620   3.725   2.245   9.141 -2.7744 -0.7010 -1.4914
 9387SOL    HW239621   3.811   2.363   9.105  1.2675 -0.8310 -2.0373
 9388SOL     OW39622   3.213   1.311   4.525 -0.0920  0.2046 -0.2863
 9388SOL    HW139623   3.272   1.244   4.490 -1.1874  0.2279 -2.2146
 9388SOL    HW239624   3.181   1.265   4.602 -1.3626 -1.8713 -2.0461
 9389SOL     OW39625   2.797   4.268   9.559  0.1449  0.0293  0.7300
 9389SOL    HW139626   2.842   4.198   9.512  0.0545  1.1901 -1.0843
 9389SOL    HW239627   2.740   4.217   9.617 -0.8871  0.1208 -0.2053
 9390SOL     OW39628   2.092   1.838   8.501 -0.1994  0.1753 -0.8875
 9390SOL    HW139629   2.024   1.841   8.569  1.9382 -2.5039  1.3513
 9390SOL    HW239630   2.175   1.840   8.549 -0.5954  3.8083 -0.3458
 9391SOL     OW39631   1.524   0.011   3.649 -0.0495  0.3115  0.1103
 9391SOL    HW139632   1.532   0.036   3.741  2.8505 -0.8464  0.1553
 9391SOL    HW239633   1.556   4.640   3.652 -1.2371 -0.1585 -1.1711
 9392SOL     OW39634   2.678   3.980  11.527 -0.3179  0.0055  0.4622
 9392SOL    HW139635   2.708   3.973  11.617 -0.9041  1.2581  0.7617
 9392SOL    HW239636   2.605   4.042  11.531 -1.4895 -1.5345  2.5137
 9393SOL     OW39637   1.793   1.767   1.988  0.3790  0.3222  0.1022
 9393SOL    HW139638   1.783   1.769   2.083  1.2339 -0.5833  0.2130
 9393SOL    HW239639   1.886   1.789   1.992  0.4591 -0.3538  2.0868
 9394SOL     OW39640   3.705   2.015  13.949 -0.1036 -0.4002 -0.2389
 9394SOL    HW139641   3.744   1.931  13.974  0.1175 -0.1183  0.3509
 9394SOL    HW239642   3.610   2.002  13.953  0.1207 -1.7838  0.4246
 9395SOL     OW39643   0.234   2.900   5.214  0.3588  0.6350  0.4206
 9395SOL    HW139644   0.283   2.933   5.289  1.8753  0.8155 -0.6534
 9395SOL    HW239645   0.256   2.967   5.150  2.1705  1.1786  1.6139
 9396SOL     OW39646   2.914   3.874   5.731  0.3281 -0.3735 -0.0123
 9396SOL    HW139647   2.960   3.929   5.795  0.0254 -0.4513  0.2731
 9396SOL    HW239648   2.891   3.943   5.669 -2.6138 -0.5874  0.8558
 9397SOL     OW39649   3.678   0.797   3.933  0.3938 -0.7290 -0.3148
 9397SOL    HW139650   3.631   0.766   4.011  0.9477 -1.8287 -0.4115
 9397SOL    HW239651   3.724   0.716   3.910  0.9392 -0.8762  1.2307
 9398SOL     OW39652   1.735   3.202   8.736  0.7091 -0.1563 -0.0045
 9398SOL    HW139653   1.650   3.245   8.743  0.0405 -1.1706 -1.7680
 9398SOL    HW239654   1.719   3.117   8.779 -1.6017  0.8980  1.2243
 9399SOL     OW39655   0.978   1.517   0.174  0.0428  1.1120 -0.3859
 9399SOL    HW139656   0.908   1.572   0.138 -0.0250 -0.0210 -1.9756
 9399SOL    HW239657   0.999   1.560   0.257 -0.7454  0.6553  0.0450
 9400SOL     OW39658   3.205   0.982  16.040 -0.1314 -0.0752 -0.2065
 9400SOL    HW139659   3.158   0.902  16.063 -1.0712  0.6967  0.5568
 9400SOL    HW239660   3.282   0.950  15.993  0.9385  0.4131  1.2137
 9401SOL     OW39661   0.530   1.166   9.965 -0.0859 -0.1975 -0.0015
 9401SOL    HW139662   0.607   1.197  10.014  0.9538 -0.9657 -1.1519
 9401SOL    HW239663   0.527   1.209   9.880 -1.2518 -1.0012 -0.3704
 9402SOL     OW39664   3.396   1.969   2.204 -0.0158 -1.4039  0.5747
 9402SOL    HW139665   3.435   2.015   2.278  2.3995 -2.8219  0.1691
 9402SOL    HW239666   3.457   1.901   2.177  0.8360  0.4581 -2.1767
 9403SOL     OW39667   4.660   3.084   2.102 -0.0734  0.0147  0.6125
 9403SOL    HW139668   4.648   2.990   2.114 -1.3993  0.4678  2.9298
 9403SOL    HW239669   4.635   3.127   2.185  2.9604  1.3669  0.8196
 9404SOL     OW39670   0.770   4.543   3.616 -0.4491  1.0728 -0.0455
 9404SOL    HW139671   0.750   4.514   3.527 -1.6344 -0.0033  0.5631
 9404SOL    HW239672   0.698   4.492   3.654  1.8283 -2.1747 -0.1547
 9405SOL     OW39673   2.656   4.406   3.035  0.5836  0.0907  0.0737
 9405SOL    HW139674   2.613   4.385   3.118 -0.5484 -0.8181 -0.7470
 9405SOL    HW239675   2.593   4.469   3.001 -2.1605 -1.3093  2.5246
 9406SOL     OW39676   3.673   3.362   6.664  0.2221  0.1896 -0.4206
 9406SOL    HW139677   3.581   3.354   6.691  0.4825  1.2319  0.7579
 9406SOL    HW239678   3.680   3.302   6.589 -1.2130 -1.0229  0.4114
 9407SOL     OW39679   3.785   4.249   8.399 -0.5570  0.5487  0.2425
 9407SOL    HW139680   3.697   4.217   8.421 -0.2607 -0.6850 -0.3469
 9407SOL    HW239681   3.827   4.237   8.484  0.6576  1.6477 -0.2111
 9408SOL     OW39682   4.380   4.245   1.851 -0.0610 -0.5177 -0.2049
 9408SOL    HW139683   4.468   4.239   1.889 -0.6555  0.0129  1.2600
 9408SOL    HW239684   4.353   4.153   1.857  1.6288 -1.0282 -0.3289
 9409SOL     OW39685   2.911   1.968  17.508 -0.4193 -0.4583  0.1339
 9409SOL    HW139686   2.981   1.903  17.499  0.1634 -0.2391  2.9564
 9409SOL    HW239687   2.886   1.981  17.417  0.9186 -1.6199 -0.4075
 9410SOL     OW39688   2.748   1.566   4.832  0.6803  0.2097 -0.5776
 9410SOL    HW139689   2.813   1.629   4.799  0.0407 -0.1536 -2.4800
 9410SOL    HW239690   2.777   1.564   4.923 -0.3063 -1.3510 -0.3065
 9411SOL     OW39691   0.678   0.606  10.543 -0.2880 -0.4025 -0.1397
 9411SOL    HW139692   0.665   0.685  10.490 -0.3564 -0.3033  0.0247
 9411SOL    HW239693   0.774   0.604  10.550 -0.1051  1.6531 -2.1694
 9412SOL     OW39694   3.299   1.038   4.526 -0.4113 -0.3199 -0.4599
 9412SOL    HW139695   3.356   0.992   4.464 -0.8548 -2.6775  0.8785
 9412SOL    HW239696   3.211   1.002   4.518 -1.2705  1.2154  2.3595
 9413SOL     OW39697   3.881   2.137   8.250  0.0717  0.0996  0.5451
 9413SOL    HW139698   3.931   2.145   8.169  2.9649  0.0675  2.3225
 9413SOL    HW239699   3.839   2.051   8.247 -0.0684  0.1813  0.1123
 9414SOL     OW39700   1.596   1.152  15.339 -0.0296 -0.1817  0.3578
 9414SOL    HW139701   1.562   1.101  15.413 -0.3178 -0.9659 -0.3170
 9414SOL    HW239702   1.544   1.231  15.353 -1.2083 -0.7325 -0.8617
 9415SOL     OW39703   1.298   4.212  12.071  0.2100 -0.3072  0.2011
 9415SOL    HW139704   1.295   4.203  11.976  3.1742  3.2832 -0.2131
 9415SOL    HW239705   1.243   4.287  12.095 -0.7821 -0.1248 -2.6590
 9416SOL     OW39706   4.125   2.933   1.267 -0.3928  0.0839 -0.1615
 9416SOL    HW139707   4.128   2.869   1.196 -2.5355  1.4809 -1.5219
 9416SOL    HW239708   4.177   3.004   1.231  0.2464 -0.9892 -1.3283
 9417SOL     OW39709   3.020   4.418   5.032  0.7535 -0.2284  0.0103
 9417SOL    HW139710   2.962   4.487   5.064  1.2951  0.3052 -0.1523
 9417SOL    HW239711   3.103   4.450   5.068  0.8247 -0.8882  0.4361
 9418SOL     OW39712   4.583   0.552  16.471  0.6227 -0.1018 -0.0114
 9418SOL    HW139713   4.560   0.609  16.398 -0.5345  1.9761  1.9740
 9418SOL    HW239714   4.511   0.488  16.473 -0.4002  1.0200 -1.1090
 9419SOL     OW39715   2.513   3.292   0.547  0.4792  0.0624  0.1416
 9419SOL    HW139716   2.432   3.283   0.598  0.3774  0.5572  0.0710
 9419SOL    HW239717   2.576   3.244   0.601 -0.3488 -0.6136  0.5156
 9420SOL     OW39718   1.521   3.445   8.092 -0.2043  0.5956 -0.2972
 9420SOL    HW139719   1.524   3.423   8.185  2.0886  0.8556 -0.3237
 9420SOL    HW239720   1.565   3.370   8.051 -1.3116 -1.1926  1.7687
 9421SOL     OW39721   0.351   3.834   2.656  0.6051  0.0174  0.5565
 9421SOL    HW139722   0.317   3.905   2.601 -2.7674 -1.1544  1.0981
 9421SOL    HW239723   0.431   3.807   2.612  0.0192  0.8998 -1.0388
 9422SOL     OW39724   0.799   4.669   2.157 -0.1778  0.1830  0.2349
 9422SOL    HW139725   0.810   4.577   2.135  1.9396  0.5853 -0.3713
 9422SOL    HW239726   0.884   4.703   2.129 -0.0623 -1.7421 -1.7619
 9423SOL     OW39727   3.333   2.931   6.560 -0.6335 -0.4265  0.2228
 9423SOL    HW139728   3.346   2.865   6.493  1.3770 -0.9133  1.0868
 9423SOL    HW239729   3.324   3.012   6.510  1.1157 -0.8192 -0.7225
 9424SOL     OW39730   3.122   1.240   3.169 -0.0018 -0.2287 -0.2122
 9424SOL    HW139731   3.100   1.278   3.254 -0.4078 -0.3542 -0.2603
 9424SOL    HW239732   3.161   1.315   3.124 -1.5882  0.7174 -0.0153
 9425SOL     OW39733   4.556   2.734   8.095  0.4822 -0.2615 -0.4010
 9425SOL    HW139734   4.489   2.791   8.133  0.8254  1.0173 -1.7207
 9425SOL    HW239735   4.567   2.768   8.007 -0.7401 -1.7783 -1.1416
 9426SOL     OW39736   3.945   0.043   5.860  0.3882  0.2281 -0.1376
 9426SOL    HW139737   3.984   4.676   5.847 -0.7107 -0.0177 -1.7720
 9426SOL    HW239738   4.006   0.099   5.811 -0.2585  2.1128  1.1970
 9427SOL     OW39739   0.039   1.851   2.081 -0.1347 -0.1778  0.1877
 9427SOL    HW139740   4.713   1.929   2.112 -2.8310 -0.3012 -3.4816
 9427SOL    HW239741   0.070   1.889   1.998 -0.3648  1.7007  0.9491
 9428SOL     OW39742   3.892   0.943   6.109  0.0568  0.2425 -0.3339
 9428SOL    HW139743   3.817   0.889   6.082 -0.2701  0.3042  0.4281
 9428SOL    HW239744   3.961   0.877   6.106 -0.5662 -0.4468  0.5993
 9429SOL     OW39745   0.158   0.558  11.108 -0.3804  0.1686  0.3591
 9429SOL    HW139746   0.196   0.474  11.081  1.3717  0.9865  0.2998
 9429SOL    HW239747   0.068   0.543  11.079  0.2267 -3.4779  0.3750
 9430SOL     OW39748   4.312   0.739   0.483 -0.4360  0.0431 -0.3650
 9430SOL    HW139749   4.322   0.823   0.527 -0.4898  1.9277 -3.9068
 9430SOL    HW239750   4.390   0.732   0.427 -0.5221  0.8068 -0.5767
 9431SOL     OW39751   3.794   4.258   3.817 -0.2864  0.2970  0.0099
 9431SOL    HW139752   3.847   4.196   3.768 -0.2408  0.7229 -0.4775
 9431SOL    HW239753   3.846   4.257   3.898 -1.8490  2.7029  1.0691
 9432SOL     OW39754   1.461   1.991  14.994  0.2617  0.1510  0.0793
 9432SOL    HW139755   1.425   2.080  14.992  0.4366  0.1982 -1.3111
 9432SOL    HW239756   1.534   1.990  15.055  0.5956  0.0663 -0.3210
 9433SOL     OW39757   2.084   1.910  17.386  0.1444  0.1962 -0.0283
 9433SOL    HW139758   2.024   1.847  17.348  0.9993 -1.3102  1.1518
 9433SOL    HW239759   2.035   1.944  17.460 -1.2306  0.2164 -0.9543
 9434SOL     OW39760   4.649   0.866   7.955 -0.3990 -0.6804  0.2687
 9434SOL    HW139761   0.002   0.929   7.954 -2.5965  1.8444  0.2752
 9434SOL    HW239762   4.667   0.815   8.033 -1.1157 -0.9124  0.2797
 9435SOL     OW39763   0.459   3.367  10.549 -0.1703  0.3373 -0.1646
 9435SOL    HW139764   0.364   3.360  10.559 -0.1487  2.6477  1.7338
 9435SOL    HW239765   0.489   3.388  10.637 -1.9459 -1.6541  0.9115
 9436SOL     OW39766   3.560   0.385  13.653  0.3973 -0.1097 -0.5041
 9436SOL    HW139767   3.622   0.417  13.718  0.3782 -0.4211 -0.3327
 9436SOL    HW239768   3.601   0.417  13.573  1.0613  0.2042 -0.0341
 9437SOL     OW39769   0.580   2.742   2.634 -0.3127 -0.7780  0.2433
 9437SOL    HW139770   0.673   2.737   2.611  0.1878 -1.0615  2.3482
 9437SOL    HW239771   0.543   2.669   2.585 -2.6206  0.2437  0.4975
 9438SOL     OW39772   4.254   3.929  11.885  0.2128  0.1726 -0.2332
 9438SOL    HW139773   4.172   3.886  11.860  0.8288 -0.2559 -1.5314
 9438SOL    HW239774   4.233   4.018  11.913  0.3362  0.4016 -0.8617
 9439SOL     OW39775   0.559   4.130  17.557  0.1655 -0.2327  0.0314
 9439SOL    HW139776   0.545   4.037  17.540  1.1273 -0.2193 -0.8633
 9439SOL    HW239777   0.598   4.167  17.478  1.5219 -1.4076  0.1441
 9440SOL     OW39778   3.820   2.001  15.658  0.9696  0.1305  0.4883
 9440SOL    HW139779   3.869   1.948  15.720  1.1069 -0.4893 -0.1485
 9440SOL    HW239780   3.735   2.001  15.703  0.8908 -1.1885  0.3512
 9441SOL     OW39781   4.363   2.362   8.871  0.0263 -0.0431 -0.0292
 9441SOL    HW139782   4.295   2.396   8.813  0.2015 -0.3798 -0.4358
 9441SOL    HW239783   4.367   2.426   8.941  0.8566 -0.0631 -0.0555
 9442SOL     OW39784   3.486   3.987  12.314 -0.1175  0.1101  0.1033
 9442SOL    HW139785   3.460   4.018  12.401  0.1490 -0.5527  0.4200
 9442SOL    HW239786   3.402   3.967  12.273  0.7257  0.5407 -1.8311
 9443SOL     OW39787   3.656   1.362  11.738 -0.5435 -0.0642  0.0194
 9443SOL    HW139788   3.744   1.374  11.702  0.6899  0.6702  3.2946
 9443SOL    HW239789   3.611   1.337  11.657  1.3108  0.5293 -1.1894
 9444SOL     OW39790   3.127   1.217  12.945 -0.0607  0.4909 -0.0197
 9444SOL    HW139791   3.037   1.242  12.926  0.1242  2.1032  1.1886
 9444SOL    HW239792   3.184   1.279  12.898  0.3179 -0.3483 -0.6619
 9445SOL     OW39793   2.650   3.974   4.822  0.1403  0.0028  0.6452
 9445SOL    HW139794   2.701   3.899   4.852 -0.1151 -1.7703 -3.2709
 9445SOL    HW239795   2.563   3.934   4.823  0.2942 -0.3504 -0.0108
 9446SOL     OW39796   4.137   0.869   6.506 -0.0465 -0.0905  0.0214
 9446SOL    HW139797   4.048   0.879   6.541  0.4448  0.5687  1.1102
 9446SOL    HW239798   4.167   0.796   6.561 -1.7226  0.3828  1.5827
 9447SOL     OW39799   1.224   1.743  13.431 -0.8669 -0.5480  0.5923
 9447SOL    HW139800   1.180   1.764  13.349  0.3492  2.1683  0.6218
 9447SOL    HW239801   1.314   1.760  13.402 -0.5365  1.7820  2.8816
 9448SOL     OW39802   0.225   1.794   8.567  0.7294  0.2773  0.0226
 9448SOL    HW139803   0.286   1.747   8.624 -2.0216 -0.0763  2.7078
 9448SOL    HW239804   0.208   1.727   8.502  0.7404 -0.1018  0.4128
 9449SOL     OW39805   1.191   3.157   1.333  0.7320  0.2041 -0.0113
 9449SOL    HW139806   1.137   3.104   1.275 -0.2587 -0.0573  1.1679
 9449SOL    HW239807   1.203   3.235   1.278 -1.4336  0.6770  0.1874
 9450SOL     OW39808   0.231   0.955  13.943 -0.0684 -0.0611 -0.4116
 9450SOL    HW139809   0.206   1.043  13.970  0.4240  0.2683 -1.0612
 9450SOL    HW239810   0.308   0.940  13.998  0.8649  0.6366 -1.5312
 9451SOL     OW39811   0.698   3.806   1.646  0.1856 -0.7519  0.2001
 9451SOL    HW139812   0.641   3.861   1.591  2.7327  0.1171 -1.5850
 9451SOL    HW239813   0.682   3.718   1.612  1.0340  0.0820 -2.3256
 9452SOL     OW39814   1.701   1.917   8.569  0.0016  0.1398 -0.0913
 9452SOL    HW139815   1.718   1.924   8.663 -2.1244  0.4579  0.2728
 9452SOL    HW239816   1.715   1.824   8.551 -0.7428 -0.3620  1.9547
 9453SOL     OW39817   1.496   4.277   5.818 -0.4169  0.4193  0.1821
 9453SOL    HW139818   1.571   4.326   5.853  1.3036 -2.3633  0.4506
 9453SOL    HW239819   1.442   4.279   5.897 -0.2426  2.5653  0.2371
 9454SOL     OW39820   0.008   0.510  10.288  0.0129  0.4226 -0.4416
 9454SOL    HW139821   4.665   0.437  10.290  0.5825 -0.0563  0.3850
 9454SOL    HW239822   4.677   0.583  10.325  0.1667  0.5861 -0.5578
 9455SOL     OW39823   1.325   0.286  12.185  0.2630 -0.1792  0.1046
 9455SOL    HW139824   1.395   0.236  12.228  0.5724  1.1324  1.0969
 9455SOL    HW239825   1.368   0.317  12.105 -1.7649 -2.8949 -2.0739
 9456SOL     OW39826   1.502   2.125  16.047 -0.2650  0.5575 -0.3343
 9456SOL    HW139827   1.571   2.062  16.026  0.0160  0.7366  0.0619
 9456SOL    HW239828   1.542   2.172  16.120 -0.4739 -0.1840  0.2456
 9457SOL     OW39829   2.906   0.991   4.698 -0.3232  0.7564  0.5412
 9457SOL    HW139830   2.817   0.997   4.732 -0.7552  0.1236 -0.4868
 9457SOL    HW239831   2.931   1.083   4.707  0.8455  0.0623  4.4977
 9458SOL     OW39832   1.000   2.058   7.750  0.8098 -0.3003  0.1989
 9458SOL    HW139833   1.019   1.965   7.734  2.4089  0.0394  0.0899
 9458SOL    HW239834   0.906   2.047   7.763  0.6405 -0.2474 -0.9616
 9459SOL     OW39835   0.537   3.318   5.627  0.2423 -0.2915  0.1606
 9459SOL    HW139836   0.574   3.372   5.696 -0.8471 -2.3605  2.3632
 9459SOL    HW239837   0.578   3.238   5.659 -1.1565 -2.5072 -3.5721
 9460SOL     OW39838   1.492   3.817   1.787  0.4527  0.3083 -0.1476
 9460SOL    HW139839   1.576   3.804   1.744  0.4666  2.1353 -0.6657
 9460SOL    HW239840   1.521   3.891   1.839  0.1667 -1.1868  2.1619
 9461SOL     OW39841   1.183   0.217   5.873  0.3769  0.1831  0.4423
 9461SOL    HW139842   1.122   0.267   5.818  1.8622  0.9908 -0.4540
 9461SOL    HW239843   1.202   0.137   5.823  0.2472 -0.0421  0.7533
 9462SOL     OW39844   3.633   2.157   5.526 -0.4564  0.8937 -0.2275
 9462SOL    HW139845   3.569   2.164   5.455  0.4385 -1.5512 -1.3023
 9462SOL    HW239846   3.709   2.119   5.480 -1.4615 -1.2283 -0.1206
 9463SOL     OW39847   3.938   3.347   2.711 -0.1113  0.4758  0.2532
 9463SOL    HW139848   3.987   3.424   2.682  0.5534  1.3355  3.6045
 9463SOL    HW239849   3.853   3.368   2.674  0.5390 -1.3205 -2.2090
 9464SOL     OW39850   0.681   1.822   0.655  0.2357 -0.2017  0.2199
 9464SOL    HW139851   0.620   1.749   0.652 -0.5509  0.4002  1.6865
 9464SOL    HW239852   0.724   1.805   0.739 -1.4809 -2.1639  0.6808
 9465SOL     OW39853   0.188   0.767   7.505  0.0738 -0.1974  0.1053
 9465SOL    HW139854   0.188   0.689   7.560 -2.2215  1.0997  1.9674
 9465SOL    HW239855   0.230   0.828   7.566  1.5619 -0.8914 -0.2103
 9466SOL     OW39856   3.409   0.068   3.986 -0.2137  0.1893 -0.6299
 9466SOL    HW139857   3.417   0.052   4.080  1.7459 -2.9546 -1.3365
 9466SOL    HW239858   3.407   4.693   3.971  1.9047  0.0258  0.0941
 9467SOL     OW39859   2.428   3.651   2.585 -0.3823 -0.1235  0.7029
 9467SOL    HW139860   2.461   3.625   2.499  0.1063  0.7082  0.6389
 9467SOL    HW239861   2.475   3.733   2.600 -0.7423  0.4234 -1.1509
 9468SOL     OW39862   0.489   2.422   1.910 -0.1492  0.0109 -0.4844
 9468SOL    HW139863   0.555   2.487   1.886 -0.2670 -0.1653 -1.2604
 9468SOL    HW239864   0.505   2.417   2.005  0.2740  2.3147 -0.4325
 9469SOL     OW39865   4.055   4.571   3.785  0.0276  0.1987  0.0040
 9469SOL    HW139866   3.964   4.566   3.754  0.1043  1.4552 -0.4026
 9469SOL    HW239867   4.070   4.663   3.765  0.1007  0.0277 -0.7206
 9470SOL     OW39868   3.416   2.288   4.790  0.1763 -0.1213 -0.4611
 9470SOL    HW139869   3.407   2.239   4.708 -0.3957  2.3723 -1.9026
 9470SOL    HW239870   3.347   2.354   4.794 -0.3766 -0.7251  0.0209
 9471SOL     OW39871   0.343   3.000   6.840 -0.5342 -0.5989  0.4995
 9471SOL    HW139872   0.349   3.095   6.852  0.0348 -0.6263  0.4382
 9471SOL    HW239873   0.430   2.963   6.856  0.4893  1.3096 -0.6381
 9472SOL     OW39874   3.410   2.844   5.981 -0.1663 -0.1480 -0.3648
 9472SOL    HW139875   3.382   2.887   5.901  0.7415 -2.3621 -1.8603
 9472SOL    HW239876   3.445   2.924   6.019 -0.3596 -0.9506  1.5270
 9473SOL     OW39877   1.016   2.801  13.437  0.1236 -0.2116 -0.1604
 9473SOL    HW139878   0.970   2.868  13.487  0.4275 -0.0770 -0.0598
 9473SOL    HW239879   1.077   2.862  13.394  0.4660  0.2090  0.9309
 9474SOL     OW39880   2.533   2.119   4.666 -0.2529  0.9295 -0.2756
 9474SOL    HW139881   2.522   2.181   4.738 -0.7104  0.1376  0.3517
 9474SOL    HW239882   2.442   2.094   4.649 -0.2564  1.2792 -0.7365
 9475SOL     OW39883   4.187   3.078   4.146 -0.7119 -0.1871  0.3230
 9475SOL    HW139884   4.118   3.142   4.166  0.7506  1.4597  0.0717
 9475SOL    HW239885   4.259   3.114   4.198  0.6406  0.9126 -2.3278
 9476SOL     OW39886   0.293   3.651   2.928 -0.3164  0.3959  0.0984
 9476SOL    HW139887   0.289   3.573   2.983  0.7059 -0.1958 -0.6869
 9476SOL    HW239888   0.388   3.657   2.920 -0.3130 -2.1586 -1.8429
 9477SOL     OW39889   1.347   1.379   4.260 -0.3252 -0.3548 -0.3954
 9477SOL    HW139890   1.365   1.371   4.353 -0.6881  0.8310 -0.2245
 9477SOL    HW239891   1.283   1.450   4.260 -0.1229 -0.1722  0.5692
 9478SOL     OW39892   2.965   4.566   1.488  0.3404  0.3646  0.2864
 9478SOL    HW139893   2.984   4.548   1.580 -2.2887 -0.0811  0.7262
 9478SOL    HW239894   3.052   4.593   1.459 -0.1585 -0.2271 -1.7608
 9479SOL     OW39895   0.333   0.581   2.779 -0.1186  0.4181  0.0765
 9479SOL    HW139896   0.388   0.560   2.704  0.4604  0.5608  0.4603
 9479SOL    HW239897   0.320   0.498   2.825 -1.2472  0.7218  0.3113
 9480SOL     OW39898   0.420   1.996  10.476  0.4012 -0.0736  0.3681
 9480SOL    HW139899   0.368   2.076  10.479  1.1124  0.4614 -1.7052
 9480SOL    HW239900   0.487   2.004  10.408  0.1034  1.7048  0.3010
 9481SOL     OW39901   1.894   2.415  15.743 -0.0004  0.3129  0.5865
 9481SOL    HW139902   1.837   2.491  15.733 -1.2286 -0.6328  0.3341
 9481SOL    HW239903   1.861   2.350  15.681 -0.3966  2.5052 -1.5196
 9482SOL     OW39904   3.320   2.615   7.994  0.3233  0.1057 -0.1609
 9482SOL    HW139905   3.282   2.538   7.954 -1.2994  0.9166 -0.1849
 9482SOL    HW239906   3.361   2.567   8.066 -1.3363 -0.7635  0.1938
 9483SOL     OW39907   0.543   2.158   4.280  0.3844 -0.0506  0.1260
 9483SOL    HW139908   0.492   2.218   4.334  2.4752  0.4327  1.5564
 9483SOL    HW239909   0.474   2.101   4.247  0.6898 -0.7746  0.7334
 9484SOL     OW39910   0.032   0.596   9.417 -0.2739 -0.0567 -0.2383
 9484SOL    HW139911   0.070   0.563   9.499  0.6911 -0.5949 -0.8991
 9484SOL    HW239912   0.107   0.643   9.380  1.6055 -2.7337  0.2062
 9485SOL     OW39913   1.132   3.631   5.728 -0.4202  0.4592 -0.1159
 9485SOL    HW139914   1.144   3.725   5.742 -0.0821  0.2701  0.9109
 9485SOL    HW239915   1.040   3.626   5.756 -0.5911  0.0686 -0.7609
 9486SOL     OW39916   0.076   2.265   7.656 -0.5165  0.3478  0.1508
 9486SOL    HW139917   0.118   2.188   7.619  0.6490 -0.0806  2.3384
 9486SOL    HW239918   0.014   2.291   7.587 -0.0383 -0.1463 -0.4567
 9487SOL     OW39919   0.527   3.439  13.147  0.1613  0.2875  0.1102
 9487SOL    HW139920   0.457   3.473  13.091  2.7173  1.3263 -2.4773
 9487SOL    HW239921   0.480   3.415  13.226 -0.3463  3.7294  0.8689
 9488SOL     OW39922   2.913   1.774   4.304  0.2469 -0.4813  0.1116
 9488SOL    HW139923   2.830   1.726   4.308  0.0738 -0.4224 -2.6634
 9488SOL    HW239924   2.887   1.836   4.236  0.8842 -0.9978 -0.6111
 9489SOL     OW39925   2.669   1.514   3.998 -0.3166  0.1562 -0.0329
 9489SOL    HW139926   2.709   1.529   4.083  0.9386 -0.5334 -0.5073
 9489SOL    HW239927   2.703   1.427   3.975 -1.5061 -0.3146 -0.0428
 9490SOL     OW39928   1.748   3.053  11.515 -0.3507 -0.5585 -0.0165
 9490SOL    HW139929   1.825   3.022  11.467  0.2649 -0.5520  0.9553
 9490SOL    HW239930   1.776   3.140  11.542  1.1414 -0.6538 -1.2658
 9491SOL     OW39931   4.303   3.380   4.331 -0.1200 -0.0567  0.0624
 9491SOL    HW139932   4.251   3.401   4.409 -0.8001 -0.1033 -0.3767
 9491SOL    HW239933   4.319   3.287   4.347 -1.3119 -0.5356 -1.5178
 9492SOL     OW39934   3.363   2.994   4.728  0.2643 -0.0952 -0.1366
 9492SOL    HW139935   3.444   2.988   4.678 -0.6568 -0.3909 -1.5951
 9492SOL    HW239936   3.384   2.914   4.776 -1.6004 -0.8939 -0.6410
 9493SOL     OW39937   2.097   3.961   9.848 -0.2407  0.2138 -0.1920
 9493SOL    HW139938   2.002   3.975   9.847 -0.7512 -2.9043  1.4995
 9493SOL    HW239939   2.108   3.999   9.935 -0.1924 -1.9853  0.7726
 9494SOL     OW39940   3.009   2.200  12.758  0.3308 -0.1714  0.5397
 9494SOL    HW139941   3.032   2.129  12.697 -1.6696  0.4252 -0.9047
 9494SOL    HW239942   2.915   2.185  12.769  0.2810  0.3841  0.8470
 9495SOL     OW39943   0.423   0.063  17.501 -0.0119  0.2799 -0.0224
 9495SOL    HW139944   0.370   0.126  17.550 -0.6793  0.6467 -1.2103
 9495SOL    HW239945   0.364   4.707  17.501  1.2135 -0.6675  2.1577
 9496SOL     OW39946   3.461   4.659  12.440 -0.3783  0.6574  0.5844
 9496SOL    HW139947   3.476   4.710  12.519  0.9827  0.6378  0.3247
 9496SOL    HW239948   3.374   4.690  12.414  0.4282  2.8737  0.5604
 9497SOL     OW39949   1.650   1.441  14.970  0.3112 -0.5119 -0.9389
 9497SOL    HW139950   1.673   1.375  15.035 -0.8841 -2.8528 -2.8927
 9497SOL    HW239951   1.730   1.494  14.964 -0.7183  0.7741 -3.4839
 9498SOL     OW39952   2.042   1.744  12.982  0.5765  0.0323  0.2946
 9498SOL    HW139953   2.017   1.788  13.063 -0.3992 -2.3096  1.2658
 9498SOL    HW239954   1.987   1.668  13.001  1.0912 -0.6571 -0.9971
 9499SOL     OW39955   2.260   2.896  17.342  0.1856 -0.3497  0.0377
 9499SOL    HW139956   2.298   2.922  17.426 -1.8895  1.5907  0.3906
 9499SOL    HW239957   2.341   2.868  17.299 -0.1470 -0.1673 -0.7216
 9500SOL     OW39958   2.408   3.908   2.900 -0.4841 -0.0012 -0.3786
 9500SOL    HW139959   2.445   3.820   2.891 -1.4360 -0.6636  2.0843
 9500SOL    HW239960   2.326   3.892   2.946  0.5622 -0.7230  1.2234
 9501SOL     OW39961   2.897   0.760   9.121 -0.2700  0.4610 -0.3569
 9501SOL    HW139962   2.965   0.773   9.055 -0.8384  4.0808 -0.2133
 9501SOL    HW239963   2.954   0.707   9.177 -0.2474  0.1110 -0.7057
 9502SOL     OW39964   4.230   3.130   8.636 -0.0422 -0.1359  0.5877
 9502SOL    HW139965   4.197   3.218   8.656  0.6592  0.3438 -0.3791
 9502SOL    HW239966   4.214   3.097   8.724  0.3471 -0.2374  0.6218
 9503SOL     OW39967   2.129   0.322   4.739  0.0407  0.3206 -0.0680
 9503SOL    HW139968   2.037   0.337   4.762 -0.7130 -1.1879 -2.0941
 9503SOL    HW239969   2.125   0.259   4.667 -0.2757 -0.2911  0.4870
 9504SOL     OW39970   0.534   3.979   6.841 -0.3315 -0.0662 -0.2661
 9504SOL    HW139971   0.450   4.006   6.803 -0.4488 -0.8265 -0.5501
 9504SOL    HW239972   0.554   3.906   6.783 -1.0690  1.4342 -2.4016
 9505SOL     OW39973   3.852   3.486  10.046  0.2787 -0.0819 -0.3684
 9505SOL    HW139974   3.932   3.494  10.099 -0.8948  0.2771  1.3682
 9505SOL    HW239975   3.810   3.571  10.054  0.5952  0.2041 -1.7393
 9506SOL     OW39976   3.153   3.660   0.876  0.1439  0.4204 -0.4215
 9506SOL    HW139977   3.167   3.566   0.865 -1.4702  0.3939 -2.1429
 9506SOL    HW239978   3.077   3.651   0.934  1.3715 -0.3555  1.0831
 9507SOL     OW39979   3.424   2.892  11.031 -0.2183  0.4877  0.3701
 9507SOL    HW139980   3.412   2.846  11.114 -0.0083  0.6641  0.5004
 9507SOL    HW239981   3.461   2.817  10.985 -1.9385  0.4284 -0.9259
 9508SOL     OW39982   4.654   1.053   0.956  0.2871 -0.0208  0.1018
 9508SOL    HW139983   4.701   1.010   1.027  0.6211 -1.8181 -1.2076
 9508SOL    HW239984   0.002   1.085   0.895  1.3129 -1.9341  0.2313
 9509SOL     OW39985   1.686   0.633   2.090  0.1453 -0.6340 -0.0961
 9509SOL    HW139986   1.763   0.651   2.036 -0.9492 -0.7753 -1.7298
 9509SOL    HW239987   1.637   0.714   2.082  1.6573  0.3584  0.8145
 9510SOL     OW39988   0.872   4.604  10.978 -0.3617 -0.1914  0.2578
 9510SOL    HW139989   0.935   4.666  11.017 -0.8505  0.3637  0.1708
 9510SOL    HW239990   0.810   4.663  10.935  0.4936  0.0339 -0.6708
 9511SOL     OW39991   2.337   2.859   4.299  0.0895  0.5285 -0.3885
 9511SOL    HW139992   2.259   2.898   4.259  1.0061  2.1851 -0.5940
 9511SOL    HW239993   2.326   2.764   4.294 -1.5022  0.5991  2.1883
 9512SOL     OW39994   1.662   4.187   4.691  0.2168  0.0156  0.1179
 9512SOL    HW139995   1.584   4.243   4.701 -0.1695 -0.3799 -0.6590
 9512SOL    HW239996   1.730   4.253   4.705  0.4216 -0.3875  0.9825
 9513SOL     OW39997   4.230   0.408  14.711  0.0573 -0.0854 -0.0714
 9513SOL    HW139998   4.171   0.455  14.769  1.6407 -0.2366  1.6660
 9513SOL    HW239999   4.310   0.436  14.756  0.5820  0.2158 -1.2025
 9514SOL     OW40000   1.275   2.168   7.420 -0.5211  0.0848  0.1466
 9514SOL    HW140001   1.261   2.238   7.356  1.2742  1.5339  1.3358
 9514SOL    HW240002   1.187   2.130   7.421 -0.6891  0.5196  1.9379
 9515SOL     OW40003   1.739   1.300   8.665 -0.2980  0.0800  0.4210
 9515SOL    HW140004   1.708   1.347   8.588 -0.4236  0.6570  0.8221
 9515SOL    HW240005   1.677   1.350   8.719  0.3510 -0.0405  1.2716
 9516SOL     OW40006   0.443   2.298   9.326 -0.3769 -0.2893  0.0860
 9516SOL    HW140007   0.395   2.356   9.267  0.4030 -1.5764 -1.7862
 9516SOL    HW240008   0.438   2.359   9.400 -2.0845 -0.3294  0.0039
 9517SOL     OW40009   2.870   0.596   0.311  0.0597 -0.1693 -0.1981
 9517SOL    HW140010   2.894   0.544   0.234  0.7657  0.0651 -0.1426
 9517SOL    HW240011   2.853   0.531   0.379 -1.6513  0.2357 -0.2406
 9518SOL     OW40012   3.264   4.202   9.636 -0.0921 -0.2969 -0.1339
 9518SOL    HW140013   3.179   4.168   9.664 -0.6621 -0.1787 -1.7565
 9518SOL    HW240014   3.324   4.127   9.624  0.2360 -0.4635  2.5433
 9519SOL     OW40015   2.209   3.584   3.493  0.6259  0.4424 -0.0838
 9519SOL    HW140016   2.192   3.663   3.441  2.0803 -0.1033 -1.4121
 9519SOL    HW240017   2.302   3.598   3.512  1.4298 -1.8456 -2.2984
 9520SOL     OW40018   0.222   2.108  17.221 -0.4788 -0.0845  0.3316
 9520SOL    HW140019   0.197   2.191  17.182  0.8050  0.5581  0.8713
 9520SOL    HW240020   0.188   2.122  17.310 -1.1941  0.2840 -0.0021
 9521SOL     OW40021   1.753   1.642  10.044  0.4745 -0.3946 -0.0839
 9521SOL    HW140022   1.719   1.564   9.998 -1.7234  1.3137 -1.3832
 9521SOL    HW240023   1.686   1.710  10.032  0.8782 -0.4299 -2.6852
 9522SOL     OW40024   4.101   3.905   6.597  0.2144  0.0474 -0.4112
 9522SOL    HW140025   4.091   3.876   6.506  1.5416  0.1729 -0.5989
 9522SOL    HW240026   4.162   3.845   6.640 -2.4642 -1.6132  1.0452
 9523SOL     OW40027   2.848   4.317  17.602  0.2815  0.3848  0.2876
 9523SOL    HW140028   2.904   4.382  17.646  0.8243  0.3010 -0.2915
 9523SOL    HW240029   2.901   4.285  17.529 -2.2235  0.0394 -1.3701
 9524SOL     OW40030   0.123   1.782   0.549  0.3001  0.3095 -0.1943
 9524SOL    HW140031   0.053   1.716   0.552  2.1595 -1.6293  0.0319
 9524SOL    HW240032   0.149   1.783   0.641  0.7389 -0.3696 -0.3106
 9525SOL     OW40033   1.063   3.654   8.032 -0.6307 -0.4688  0.2464
 9525SOL    HW140034   1.122   3.605   8.089  0.1106  0.2947  0.1340
 9525SOL    HW240035   0.978   3.649   8.076 -0.2685  3.7061  1.4015
 9526SOL     OW40036   1.624   3.819  11.332  0.7803 -0.1946 -0.2341
 9526SOL    HW140037   1.593   3.889  11.390  4.9924  0.1097  1.6241
 9526SOL    HW240038   1.651   3.872  11.257  0.1577  1.9785  1.0693
 9527SOL     OW40039   0.099   4.204   6.677  0.0687  0.1189  0.5352
 9527SOL    HW140040   0.151   4.222   6.755 -3.1817  0.6593  2.5669
 9527SOL    HW240041   0.027   4.264   6.693  0.8234  1.1157  0.1585
 9528SOL     OW40042   0.157   2.723   7.120 -0.1150 -0.1492  0.2220
 9528SOL    HW140043   0.142   2.809   7.082 -0.7741 -0.0442  0.7187
 9528SOL    HW240044   0.180   2.666   7.047  0.1840  0.8477 -0.4532
 9529SOL     OW40045   0.768   3.167  14.748  0.1180  0.4100  0.3025
 9529SOL    HW140046   0.696   3.104  14.740 -0.3907  1.1416 -0.7864
 9529SOL    HW240047   0.832   3.127  14.689 -0.4652  3.0564 -2.0984
 9530SOL     OW40048   1.879   2.098  17.573 -0.3227  0.3681  0.1410
 9530SOL    HW140049   1.905   2.186  17.600  1.8555 -0.1969 -0.1126
 9530SOL    HW240050   1.906   2.050  17.652  0.5306 -0.3392 -0.5852
 9531SOL     OW40051   1.923   0.558   4.259 -0.4383 -0.6331  0.2025
 9531SOL    HW140052   1.982   0.613   4.311  0.5892 -0.5653 -1.0303
 9531SOL    HW240053   1.999   0.507   4.230 -0.8393 -1.2015  0.1601
 9532SOL     OW40054   3.148   2.078   7.245  0.0333  0.8075 -0.2588
 9532SOL    HW140055   3.179   2.160   7.207 -1.6123  1.0752 -1.0328
 9532SOL    HW240056   3.200   2.086   7.325  2.9817 -1.0236 -2.0183
 9533SOL     OW40057   3.046   4.636   8.515  0.0612  0.0689 -0.5975
 9533SOL    HW140058   3.096   4.718   8.519 -1.5670  0.9157  2.4541
 9533SOL    HW240059   3.093   4.595   8.442 -0.3897 -1.0497 -0.2495
 9534SOL     OW40060   2.194   3.698   6.835 -0.5145  0.2365  0.0784
 9534SOL    HW140061   2.245   3.683   6.914 -2.2246 -0.0850  1.1185
 9534SOL    HW240062   2.143   3.775   6.861  0.4127 -0.0499  2.7535
 9535SOL     OW40063   0.898   1.866  16.907 -0.0237 -0.3103  0.2863
 9535SOL    HW140064   0.935   1.842  16.992 -0.3171 -2.3312 -0.1547
 9535SOL    HW240065   0.805   1.875  16.928 -0.5631  0.0275 -2.2541
 9536SOL     OW40066   1.394   2.388   2.589 -0.2355 -0.1795  0.5021
 9536SOL    HW140067   1.425   2.316   2.645 -1.0135  0.0072  1.1627
 9536SOL    HW240068   1.323   2.429   2.637 -0.4416  1.3393 -1.1050
 9537SOL     OW40069   0.084   1.109   0.422  0.6046 -0.2888 -0.0988
 9537SOL    HW140070   0.156   1.068   0.373  0.5027  0.1186 -0.5884
 9537SOL    HW240071   0.118   1.170   0.487 -1.3342  1.1269 -0.4287
 9538SOL     OW40072   0.480   0.721  16.322 -0.1034 -0.3120  0.2421
 9538SOL    HW140073   0.541   0.755  16.388  1.3515 -0.5682 -0.9662
 9538SOL    HW240074   0.406   0.697  16.377 -1.3441  1.8267 -0.5245
 9539SOL     OW40075   0.254   4.035   4.799  0.1663  0.2121 -0.1028
 9539SOL    HW140076   0.250   4.097   4.872  0.7206 -0.2220  0.2957
 9539SOL    HW240077   0.320   3.972   4.828  0.4412  0.3669 -0.3736
 9540SOL     OW40078   3.774   1.574   8.637 -0.1527  0.5099 -0.4209
 9540SOL    HW140079   3.804   1.523   8.562  1.2408  0.5371  0.1127
 9540SOL    HW240080   3.754   1.508   8.704  1.1100  1.4830  0.9265
 9541SOL     OW40081   0.131   2.010   6.446  0.0309 -0.4455 -0.8788
 9541SOL    HW140082   0.047   2.018   6.402 -0.6938  1.1056  0.8192
 9541SOL    HW240083   0.180   2.064   6.384  1.1244 -2.8079 -2.1148
 9542SOL     OW40084   1.787   2.077  14.648 -0.1123 -0.2060 -0.2382
 9542SOL    HW140085   1.872   2.039  14.668 -0.1625 -0.5005 -0.6020
 9542SOL    HW240086   1.754   2.111  14.731 -0.1602  0.9838 -0.7463
 9543SOL     OW40087   1.052   4.049   6.430  0.2125 -0.1393  0.1342
 9543SOL    HW140088   1.116   4.023   6.365 -0.6632 -0.8015 -0.4740
 9543SOL    HW240089   1.092   4.131   6.459  0.9068  0.0149 -1.2821
 9544SOL     OW40090   0.887   2.128   8.160  0.6941  0.5697  0.1584
 9544SOL    HW140091   0.806   2.175   8.137  1.2019  1.6708  0.6404
 9544SOL    HW240092   0.856   2.037   8.151 -3.0063  1.7485  1.0707
 9545SOL     OW40093   0.873   3.968   5.389  0.2024 -0.5281 -0.4966
 9545SOL    HW140094   0.899   3.878   5.369 -1.7852 -1.7647  2.5707
 9545SOL    HW240095   0.951   4.007   5.428  0.2450  0.5366 -1.6366
 9546SOL     OW40096   1.001   1.097   3.395 -0.4605  0.7373 -0.4440
 9546SOL    HW140097   0.989   1.180   3.350  0.4856  1.5854  0.9027
 9546SOL    HW240098   1.075   1.069   3.342 -1.3568  1.7039 -2.2006
 9547SOL     OW40099   2.170   3.607   2.641  0.3023  0.3295 -0.0608
 9547SOL    HW140100   2.171   3.521   2.599 -1.6261  0.6199 -0.7136
 9547SOL    HW240101   2.263   3.625   2.643  0.0421  1.7207 -0.9436
 9548SOL     OW40102   3.748   2.300   3.340 -0.7824  0.3899 -0.1654
 9548SOL    HW140103   3.688   2.348   3.398  0.1764  0.1537  1.0441
 9548SOL    HW240104   3.730   2.208   3.356  1.1133  0.1186  0.4213
 9549SOL     OW40105   4.044   1.655   9.751  0.1798 -0.0575  0.2396
 9549SOL    HW140106   4.079   1.584   9.697 -0.0655  2.0531 -2.7339
 9549SOL    HW240107   4.029   1.616   9.837  0.4943 -0.8823 -0.0797
 9550SOL     OW40108   3.580   0.018   1.844  0.1643 -0.2033  0.4649
 9550SOL    HW140109   3.675   0.018   1.848  0.1487 -0.5611  0.8072
 9550SOL    HW240110   3.558   0.089   1.904 -1.1839 -0.8984  0.8004
 9551SOL     OW40111   3.155   4.166   6.206 -0.1133  0.2290  0.0944
 9551SOL    HW140112   3.119   4.140   6.121 -0.4885  1.0147  0.0104
 9551SOL    HW240113   3.206   4.244   6.182  1.8008 -0.7017  1.1379
 9552SOL     OW40114   4.202   2.980   7.339  0.0667 -0.1805 -0.1509
 9552SOL    HW140115   4.225   2.957   7.430 -0.9693 -0.5782  0.0151
 9552SOL    HW240116   4.108   2.968   7.354 -0.1752  0.9023 -0.8529
 9553SOL     OW40117   4.555   4.275   3.293  0.2217 -0.1511  0.1649
 9553SOL    HW140118   4.628   4.252   3.236 -1.6863 -2.4520 -1.3331
 9553SOL    HW240119   4.591   4.245   3.376  2.1673 -1.3057 -1.0928
 9554SOL     OW40120   3.237   1.625   8.086 -0.0026 -0.1652 -0.5944
 9554SOL    HW140121   3.281   1.631   8.001 -0.5367 -0.5145 -0.8940
 9554SOL    HW240122   3.260   1.712   8.119 -0.7602 -0.1516 -0.1076
 9555SOL     OW40123   1.133   1.363   3.347 -0.0454 -0.4433  0.4033
 9555SOL    HW140124   1.148   1.288   3.290 -1.7569  0.6346 -1.4760
 9555SOL    HW240125   1.037   1.364   3.347 -0.0482 -0.8240  1.1163
 9556SOL     OW40126   1.594   2.132   8.054 -0.4052  0.0147  0.0900
 9556SOL    HW140127   1.671   2.189   8.058 -0.2410 -0.1760 -0.3735
 9556SOL    HW240128   1.574   2.139   7.961 -1.5257 -0.3246  0.3080
 9557SOL     OW40129   4.155   0.594  13.130  0.1014  0.1335 -0.1532
 9557SOL    HW140130   4.233   0.539  13.119 -0.0311 -0.5262  2.3970
 9557SOL    HW240131   4.091   0.553  13.072 -0.3716  1.6042 -0.6878
 9558SOL     OW40132   4.718   1.409   6.918 -0.2289 -0.4691  0.3275
 9558SOL    HW140133   4.657   1.369   6.856 -0.3286  0.9166 -0.4792
 9558SOL    HW240134   0.037   1.476   6.861  0.3252  0.0153  1.2545
 9559SOL     OW40135   4.344   2.356  10.075 -0.0070 -0.4535 -0.7077
 9559SOL    HW140136   4.361   2.402  10.158  2.3124 -1.1051 -0.8311
 9559SOL    HW240137   4.249   2.355  10.071  0.0083 -1.2060 -0.9557
 9560SOL     OW40138   4.183   0.406  14.423 -0.4946  0.6064 -0.0062
 9560SOL    HW140139   4.105   0.461  14.415 -0.5118  0.6340  0.3279
 9560SOL    HW240140   4.190   0.403  14.519  1.6737  0.6908 -0.1553
 9561SOL     OW40141   0.742   2.469  12.998 -0.7406  0.1134 -0.3479
 9561SOL    HW140142   0.786   2.541  12.952  0.6899 -0.7998 -0.4015
 9561SOL    HW240143   0.796   2.473  13.076 -0.1208  1.4587 -0.8334
 9562SOL     OW40144   2.054   3.954   6.355  0.4442 -0.2611 -0.6704
 9562SOL    HW140145   1.969   3.986   6.323 -0.6694 -1.4353  1.1375
 9562SOL    HW240146   2.099   4.009   6.291  2.6831  0.4543  1.5004
 9563SOL     OW40147   0.314   1.805   3.594 -0.6492 -0.3386  0.4401
 9563SOL    HW140148   0.265   1.801   3.512  0.3209 -1.5980 -0.1013
 9563SOL    HW240149   0.327   1.710   3.601  0.8349 -0.1660  0.1104
 9564SOL     OW40150   1.827   2.771   6.960 -0.1826  0.0047  0.4320
 9564SOL    HW140151   1.909   2.778   7.010  0.1371  1.1675 -0.2632
 9564SOL    HW240152   1.818   2.680   6.931 -1.3577  0.4809 -0.6681
 9565SOL     OW40153   2.294   1.953  13.662 -0.1008 -0.4027  0.4050
 9565SOL    HW140154   2.307   2.044  13.687 -1.0341 -0.3003  0.5394
 9565SOL    HW240155   2.239   1.933  13.738  0.3143 -1.1343  0.5166
   4.71928   4.71928  17.67999
